Generated by trjconv : CNT in water t= 361.00000
33518
    1C        C    1   2.843   2.769   4.742
    1C        C    2   2.898   2.719   4.862
    1C        C    3   2.845   2.771   4.981
    1C        C    4   2.850   2.779   4.257
    1C        C    5   2.903   2.728   4.378
    1C        C    6   2.844   2.771   4.499
    1C        C    7   3.013   2.641   4.624
    1C        C    8   2.899   2.724   4.621
    1C        C    9   3.072   2.600   4.746
    1C        C   10   3.006   2.627   4.868
    1C        C   11   3.181   2.488   4.974
    1C        C   12   3.058   2.555   4.975
    1C        C   13   2.845   2.769   3.772
    1C        C   14   2.898   2.720   3.893
    1C        C   15   2.848   2.773   4.014
    1C        C   16   3.016   2.644   4.137
    1C        C   17   2.903   2.729   4.136
    1C        C   18   3.079   2.610   4.259
    1C        C   19   3.020   2.649   4.381
    1C        C   20   3.205   2.546   4.503
    1C        C   21   3.078   2.609   4.503
    1C        C   22   3.275   2.528   4.624
    1C        C   23   3.204   2.547   4.744
    1C        C   24   3.410   2.476   4.863
    1C        C   25   3.270   2.505   4.863
    1C        C   26   3.489   2.474   4.979
    1C        C   27   2.847   2.767   3.282
    1C        C   28   2.902   2.722   3.404
    1C        C   29   2.855   2.774   3.527
    1C        C   30   3.015   2.639   3.647
    1C        C   31   2.900   2.722   3.651
    1C        C   32   3.078   2.606   3.769
    1C        C   33   3.014   2.639   3.892
    1C        C   34   3.204   2.545   4.013
    1C        C   35   3.077   2.607   4.014
    1C        C   36   3.270   2.524   4.136
    1C        C   37   3.208   2.554   4.259
    1C        C   38   3.413   2.501   4.380
    1C        C   39   3.274   2.526   4.381
    1C        C   40   3.484   2.490   4.502
    1C        C   41   3.412   2.494   4.624
    1C        C   42   3.627   2.475   4.742
    1C        C   43   3.485   2.470   4.742
    1C        C   44   3.704   2.482   4.860
    1C        C   45   3.628   2.470   4.977
    1C        C   46   2.837   2.753   2.792
    1C        C   47   2.893   2.708   2.913
    1C        C   48   2.845   2.759   3.037
    1C        C   49   3.014   2.637   3.160
    1C        C   50   2.897   2.715   3.161
    1C        C   51   3.078   2.603   3.281
    1C        C   52   3.015   2.638   3.403
    1C        C   53   3.204   2.543   3.527
    1C        C   54   3.075   2.600   3.526
    1C        C   55   3.274   2.520   3.648
    1C        C   56   3.207   2.550   3.769
    1C        C   57   3.412   2.499   3.892
    1C        C   58   3.274   2.528   3.892
    1C        C   59   3.480   2.499   4.016
    1C        C   60   3.410   2.503   4.138
    1C        C   61   3.624   2.495   4.256
    1C        C   62   3.483   2.489   4.258
    1C        C   63   3.696   2.502   4.377
    1C        C   64   3.625   2.494   4.499
    1C        C   65   3.830   2.543   4.620
    1C        C   66   3.697   2.494   4.621
    1C        C   67   3.900   2.566   4.740
    1C        C   68   3.837   2.531   4.861
    1C        C   69   4.048   2.583   4.974
    1C        C   70   3.921   2.526   4.973
    1C        C   71   2.823   2.729   2.307
    1C        C   72   2.879   2.684   2.428
    1C        C   73   2.830   2.740   2.549
    1C        C   74   3.004   2.618   2.672
    1C        C   75   2.891   2.703   2.671
    1C        C   76   3.068   2.587   2.794
    1C        C   77   3.008   2.625   2.916
    1C        C   78   3.202   2.539   3.037
    1C        C   79   3.072   2.595   3.038
    1C        C   80   3.270   2.519   3.159
    1C        C   81   3.208   2.547   3.283
    1C        C   82   3.410   2.490   3.401
    1C        C   83   3.272   2.519   3.406
    1C        C   84   3.480   2.484   3.523
    1C        C   85   3.413   2.494   3.647
    1C        C   86   3.624   2.496   3.768
    1C        C   87   3.483   2.493   3.770
    1C        C   88   3.693   2.507   3.891
    1C        C   89   3.621   2.496   4.012
    1C        C   90   3.828   2.548   4.135
    1C        C   91   3.693   2.507   4.133
    1C        C   92   3.894   2.575   4.257
    1C        C   93   3.831   2.542   4.380
    1C        C   94   4.025   2.636   4.497
    1C        C   95   3.899   2.572   4.500
    1C        C   96   4.087   2.672   4.618
    1C        C   97   4.030   2.624   4.738
    1C        C   98   4.190   2.763   4.860
    1C        C   99   4.098   2.654   4.859
    1C        C  100   4.212   2.841   4.975
    1C        C  101   2.826   2.729   2.066
    1C        C  102   2.988   2.589   2.188
    1C        C  103   2.872   2.673   2.186
    1C        C  104   3.064   2.575   2.308
    1C        C  105   3.000   2.611   2.429
    1C        C  106   3.197   2.531   2.549
    1C        C  107   3.065   2.580   2.550
    1C        C  108   3.266   2.510   2.670
    1C        C  109   3.199   2.534   2.792
    1C        C  110   3.407   2.494   2.915
    1C        C  111   3.268   2.516   2.914
    1C        C  112   3.478   2.484   3.036
    1C        C  113   3.409   2.494   3.159
    1C        C  114   3.624   2.497   3.279
    1C        C  115   3.482   2.490   3.279
    1C        C  116   3.691   2.506   3.403
    1C        C  117   3.621   2.496   3.525
    1C        C  118   3.830   2.546   3.647
    1C        C  119   3.693   2.508   3.646
    1C        C  120   3.892   2.575   3.770
    1C        C  121   3.829   2.548   3.893
    1C        C  122   4.020   2.641   4.009
    1C        C  123   3.898   2.569   4.014
    1C        C  124   4.079   2.680   4.131
    1C        C  125   4.019   2.640   4.253
    1C        C  126   4.193   2.764   4.376
    1C        C  127   4.083   2.676   4.374
    1C        C  128   4.243   2.814   4.498
    1C        C  129   4.192   2.767   4.621
    1C        C  130   4.320   2.939   4.737
    1C        C  131   4.242   2.821   4.741
    1C        C  132   4.355   3.002   4.858
    1C        C  133   4.285   2.959   4.972
    1C        C  134   3.169   2.462   2.077
    1C        C  135   3.036   2.504   2.084
    1C        C  136   3.256   2.476   2.186
    1C        C  137   3.192   2.514   2.306
    1C        C  138   3.402   2.474   2.427
    1C        C  139   3.263   2.501   2.427
    1C        C  140   3.475   2.475   2.548
    1C        C  141   3.405   2.484   2.670
    1C        C  142   3.618   2.492   2.790
    1C        C  143   3.476   2.487   2.792
    1C        C  144   3.689   2.507   2.911
    1C        C  145   3.619   2.494   3.033
    1C        C  146   3.827   2.539   3.152
    1C        C  147   3.690   2.504   3.154
    1C        C  148   3.892   2.565   3.275
    1C        C  149   3.827   2.544   3.399
    1C        C  150   4.018   2.631   3.521
    1C        C  151   3.893   2.565   3.522
    1C        C  152   4.081   2.669   3.642
    1C        C  153   4.017   2.641   3.764
    1C        C  154   4.193   2.762   3.885
    1C        C  155   4.077   2.681   3.886
    1C        C  156   4.240   2.813   4.008
    1C        C  157   4.191   2.765   4.132
    1C        C  158   4.334   2.922   4.251
    1C        C  159   4.244   2.814   4.254
    1C        C  160   4.374   2.981   4.373
    1C        C  161   4.332   2.924   4.495
    1C        C  162   4.430   3.117   4.613
    1C        C  163   4.366   2.992   4.614
    1C        C  164   4.458   3.185   4.734
    1C        C  165   4.430   3.122   4.857
    1C        C  166   4.511   3.320   4.972
    1C        C  167   4.479   3.185   4.972
    1C        C  168   3.474   2.432   2.071
    1C        C  169   3.396   2.455   2.185
    1C        C  170   3.612   2.458   2.306
    1C        C  171   3.470   2.457   2.305
    1C        C  172   3.687   2.481   2.424
    1C        C  173   3.617   2.479   2.546
    1C        C  174   3.822   2.540   2.666
    1C        C  175   3.687   2.499   2.667
    1C        C  176   3.894   2.561   2.786
    1C        C  177   3.826   2.540   2.909
    1C        C  178   4.022   2.624   3.031
    1C        C  179   3.895   2.563   3.031
    1C        C  180   4.080   2.665   3.153
    1C        C  181   4.019   2.628   3.275
    1C        C  182   4.191   2.750   3.396
    1C        C  183   4.078   2.666   3.398
    1C        C  184   4.242   2.804   3.516
    1C        C  185   4.196   2.752   3.639
    1C        C  186   4.334   2.914   3.763
    1C        C  187   4.247   2.803   3.761
    1C        C  188   4.371   2.976   3.884
    1C        C  189   4.327   2.925   4.008
    1C        C  190   4.442   3.105   4.125
    1C        C  191   4.374   2.981   4.128
    1C        C  192   4.471   3.170   4.247
    1C        C  193   4.439   3.107   4.370
    1C        C  194   4.494   3.316   4.488
    1C        C  195   4.461   3.179   4.490
    1C        C  196   4.519   3.386   4.608
    1C        C  197   4.503   3.320   4.732
    1C        C  198   4.552   3.532   4.848
    1C        C  199   4.525   3.392   4.852
    1C        C  200   4.583   3.618   4.958
    1C        C  201   3.613   2.414   2.070
    1C        C  202   3.819   2.514   2.182
    1C        C  203   3.687   2.457   2.185
    1C        C  204   3.892   2.543   2.301
    1C        C  205   3.822   2.523   2.422
    1C        C  206   4.012   2.625   2.541
    1C        C  207   3.887   2.559   2.542
    1C        C  208   4.076   2.663   2.661
    1C        C  209   4.020   2.625   2.784
    1C        C  210   4.189   2.750   2.906
    1C        C  211   4.079   2.661   2.907
    1C        C  212   4.246   2.794   3.027
    1C        C  213   4.193   2.750   3.151
    1C        C  214   4.333   2.906   3.269
    1C        C  215   4.245   2.796   3.274
    1C        C  216   4.370   2.966   3.391
    1C        C  217   4.328   2.916   3.517
    1C        C  218   4.434   3.098   3.635
    1C        C  219   4.372   2.971   3.639
    1C        C  220   4.460   3.165   3.757
    1C        C  221   4.440   3.100   3.881
    1C        C  222   4.499   3.305   4.002
    1C        C  223   4.472   3.166   4.001
    1C        C  224   4.514   3.376   4.123
    1C        C  225   4.509   3.306   4.246
    1C        C  226   4.516   3.523   4.365
    1C        C  227   4.512   3.382   4.365
    1C        C  228   4.510   3.597   4.486
    1C        C  229   4.532   3.527   4.607
    1C        C  230   4.503   3.740   4.725
    1C        C  231   4.542   3.604   4.725
    1C        C  232   4.492   3.815   4.844
    1C        C  233   4.546   3.753   4.957
    1C        C  234   4.009   2.608   2.065
    1C        C  235   3.887   2.542   2.063
    1C        C  236   4.081   2.647   2.179
    1C        C  237   4.016   2.613   2.300
    1C        C  238   4.194   2.736   2.420
    1C        C  239   4.077   2.655   2.420
    1C        C  240   4.248   2.788   2.540
    1C        C  241   4.191   2.746   2.662
    1C        C  242   4.334   2.904   2.782
    1C        C  243   4.243   2.796   2.784
    1C        C  244   4.379   2.962   2.903
    1C        C  245   4.334   2.905   3.024
    1C        C  246   4.440   3.088   3.147
    1C        C  247   4.374   2.963   3.146
    1C        C  248   4.466   3.154   3.269
    1C        C  249   4.435   3.092   3.392
    1C        C  250   4.499   3.297   3.512
    1C        C  251   4.461   3.161   3.512
    1C        C  252   4.511   3.368   3.634
    1C        C  253   4.500   3.300   3.757
    1C        C  254   4.524   3.513   3.873
    1C        C  255   4.509   3.373   3.879
    1C        C  256   4.518   3.584   3.995
    1C        C  257   4.517   3.517   4.120
    1C        C  258   4.488   3.728   4.236
    1C        C  259   4.513   3.589   4.241
    1C        C  260   4.468   3.798   4.357
    1C        C  261   4.482   3.735   4.483
    1C        C  262   4.423   3.939   4.601
    1C        C  263   4.471   3.807   4.604
    1C        C  264   4.398   4.010   4.721
    1C        C  265   4.429   3.942   4.841
    1C        C  266   4.322   4.128   4.953
    1C        C  267   4.399   4.012   4.958
    1C        C  268   4.262   2.771   2.062
    1C        C  269   4.193   2.732   2.178
    1C        C  270   4.341   2.890   2.296
    1C        C  271   4.249   2.782   2.298
    1C        C  272   4.378   2.954   2.417
    1C        C  273   4.341   2.894   2.539
    1C        C  274   4.450   3.080   2.658
    1C        C  275   4.377   2.959   2.659
    1C        C  276   4.477   3.146   2.780
    1C        C  277   4.451   3.084   2.904
    1C        C  278   4.508   3.289   3.023
    1C        C  279   4.475   3.151   3.026
    1C        C  280   4.519   3.360   3.144
    1C        C  281   4.500   3.292   3.266
    1C        C  282   4.519   3.504   3.388
    1C        C  283   4.507   3.364   3.387
    1C        C  284   4.518   3.579   3.508
    1C        C  285   4.519   3.509   3.631
    1C        C  286   4.486   3.722   3.748
    1C        C  287   4.514   3.583   3.751
    1C        C  288   4.473   3.789   3.871
    1C        C  289   4.491   3.723   3.995
    1C        C  290   4.420   3.929   4.112
    1C        C  291   4.469   3.796   4.113
    1C        C  292   4.391   3.994   4.234
    1C        C  293   4.422   3.932   4.357
    1C        C  294   4.319   4.120   4.474
    1C        C  295   4.389   3.998   4.477
    1C        C  296   4.281   4.185   4.594
    1C        C  297   4.328   4.133   4.717
    1C        C  298   4.197   4.310   4.836
    1C        C  299   4.280   4.194   4.837
    1C        C  300   4.168   4.397   4.946
    1C        C  301   4.353   2.876   2.060
    1C        C  302   4.469   3.065   2.176
    1C        C  303   4.397   2.941   2.176
    1C        C  304   4.484   3.141   2.295
    1C        C  305   4.441   3.081   2.415
    1C        C  306   4.510   3.282   2.534
    1C        C  307   4.476   3.145   2.536
    1C        C  308   4.526   3.353   2.655
    1C        C  309   4.511   3.283   2.777
    1C        C  310   4.522   3.495   2.895
    1C        C  311   4.520   3.354   2.898
    1C        C  312   4.519   3.567   3.016
    1C        C  313   4.521   3.502   3.142
    1C        C  314   4.487   3.711   3.262
    1C        C  315   4.508   3.571   3.264
    1C        C  316   4.467   3.783   3.381
    1C        C  317   4.489   3.717   3.504
    1C        C  318   4.427   3.923   3.622
    1C        C  319   4.468   3.788   3.624
    1C        C  320   4.394   3.984   3.745
    1C        C  321   4.423   3.921   3.869
    1C        C  322   4.312   4.108   3.984
    1C        C  323   4.389   3.989   3.988
    1C        C  324   4.270   4.164   4.106
    1C        C  325   4.314   4.113   4.230
    1C        C  326   4.184   4.281   4.348
    1C        C  327   4.278   4.176   4.351
    1C        C  328   4.135   4.335   4.468
    1C        C  329   4.183   4.286   4.592
    1C        C  330   4.021   4.427   4.708
    1C        C  331   4.136   4.343   4.712
    1C        C  332   3.967   4.486   4.825
    1C        C  333   4.052   4.475   4.936
    1C        C  334   4.557   3.263   2.059
    1C        C  335   4.530   3.126   2.061
    1C        C  336   4.544   3.347   2.170
    1C        C  337   4.519   3.279   2.291
    1C        C  338   4.524   3.494   2.410
    1C        C  339   4.523   3.352   2.412
    1C        C  340   4.520   3.565   2.532
    1C        C  341   4.526   3.494   2.655
    1C        C  342   4.489   3.708   2.772
    1C        C  343   4.513   3.569   2.774
    1C        C  344   4.470   3.774   2.895
    1C        C  345   4.488   3.705   3.017
    1C        C  346   4.417   3.907   3.133
    1C        C  347   4.468   3.776   3.138
    1C        C  348   4.387   3.973   3.254
    1C        C  349   4.417   3.915   3.380
    1C        C  350   4.315   4.103   3.499
    1C        C  351   4.395   3.987   3.500
    1C        C  352   4.273   4.161   3.621
    1C        C  353   4.316   4.102   3.741
    1C        C  354   4.169   4.261   3.862
    1C        C  355   4.269   4.161   3.860
    1C        C  356   4.119   4.316   3.982
    1C        C  357   4.172   4.266   4.104
    1C        C  358   4.015   4.409   4.226
    1C        C  359   4.128   4.324   4.225
    1C        C  360   3.953   4.448   4.347
    1C        C  361   4.015   4.410   4.468
    1C        C  362   3.824   4.511   4.588
    1C        C  363   3.952   4.452   4.587
    1C        C  364   3.757   4.543   4.708
    1C        C  365   3.835   4.536   4.826
    1C        C  366   3.627   4.588   4.946
    1C        C  367   3.765   4.571   4.942
    1C        C  368   4.507   3.559   2.047
    1C        C  369   4.524   3.487   2.166
    1C        C  370   4.497   3.700   2.285
    1C        C  371   4.520   3.561   2.286
    1C        C  372   4.473   3.771   2.405
    1C        C  373   4.496   3.704   2.527
    1C        C  374   4.421   3.904   2.643
    1C        C  375   4.477   3.775   2.647
    1C        C  376   4.390   3.968   2.766
    1C        C  377   4.423   3.907   2.889
    1C        C  378   4.312   4.090   3.008
    1C        C  379   4.390   3.972   3.010
    1C        C  380   4.269   4.146   3.130
    1C        C  381   4.307   4.090   3.254
    1C        C  382   4.168   4.252   3.374
    1C        C  383   4.264   4.148   3.375
    1C        C  384   4.117   4.306   3.494
    1C        C  385   4.173   4.262   3.616
    1C        C  386   4.003   4.387   3.739
    1C        C  387   4.119   4.307   3.738
    1C        C  388   3.942   4.427   3.860
    1C        C  389   4.003   4.396   3.984
    1C        C  390   3.814   4.487   4.105
    1C        C  391   3.947   4.439   4.106
    1C        C  392   3.747   4.505   4.228
    1C        C  393   3.821   4.498   4.349
    1C        C  394   3.611   4.545   4.471
    1C        C  395   3.751   4.524   4.468
    1C        C  396   3.539   4.557   4.592
    1C        C  397   3.617   4.557   4.710
    1C        C  398   3.407   4.554   4.838
    1C        C  399   3.547   4.568   4.832
    1C        C  400   3.336   4.523   4.955
    1C        C  401   4.505   3.698   2.048
    1C        C  402   4.449   3.910   2.163
    1C        C  403   4.485   3.773   2.165
    1C        C  404   4.408   3.975   2.282
    1C        C  405   4.426   3.904   2.403
    1C        C  406   4.320   4.093   2.521
    1C        C  407   4.393   3.972   2.522
    1C        C  408   4.272   4.145   2.643
    1C        C  409   4.317   4.088   2.765
    1C        C  410   4.171   4.247   2.885
    1C        C  411   4.272   4.147   2.885
    1C        C  412   4.121   4.297   3.007
    1C        C  413   4.172   4.249   3.130
    1C        C  414   3.997   4.374   3.250
    1C        C  415   4.116   4.298   3.251
    1C        C  416   3.936   4.414   3.371
    1C        C  417   3.998   4.383   3.494
    1C        C  418   3.812   4.480   3.618
    1C        C  419   3.941   4.424   3.617
    1C        C  420   3.745   4.508   3.739
    1C        C  421   3.813   4.484   3.860
    1C        C  422   3.609   4.536   3.982
    1C        C  423   3.748   4.508   3.983
    1C        C  424   3.540   4.538   4.105
    1C        C  425   3.608   4.532   4.229
    1C        C  426   3.398   4.547   4.353
    1C        C  427   3.539   4.551   4.350
    1C        C  428   3.328   4.540   4.475
    1C        C  429   3.398   4.555   4.597
    1C        C  430   3.191   4.513   4.721
    1C        C  431   3.329   4.547   4.720
    1C        C  432   3.121   4.489   4.842
    1C        C  433   3.200   4.495   4.958
    1C        C  434   4.382   4.120   2.045
    1C        C  435   4.448   3.996   2.053
    1C        C  436   4.303   4.161   2.158
    1C        C  437   4.331   4.095   2.280
    1C        C  438   4.183   4.254   2.397
    1C        C  439   4.281   4.153   2.399
    1C        C  440   4.125   4.296   2.519
    1C        C  441   4.173   4.245   2.642
    1C        C  442   3.998   4.368   2.761
    1C        C  443   4.117   4.291   2.763
    1C        C  444   3.941   4.411   2.883
    1C        C  445   4.003   4.375   3.005
    1C        C  446   3.811   4.468   3.126
    1C        C  447   3.941   4.413   3.126
    1C        C  448   3.744   4.496   3.247
    1C        C  449   3.809   4.477   3.371
    1C        C  450   3.607   4.531   3.493
    1C        C  451   3.745   4.502   3.495
    1C        C  452   3.536   4.538   3.615
    1C        C  453   3.606   4.538   3.738
    1C        C  454   3.396   4.540   3.864
    1C        C  455   3.537   4.544   3.861
    1C        C  456   3.329   4.530   3.988
    1C        C  457   3.399   4.529   4.111
    1C        C  458   3.187   4.505   4.232
    1C        C  459   3.326   4.533   4.232
    1C        C  460   3.122   4.483   4.356
    1C        C  461   3.191   4.506   4.477
    1C        C  462   2.993   4.434   4.602
    1C        C  463   3.122   4.491   4.600
    1C        C  464   2.925   4.400   4.721
    1C        C  465   2.987   4.437   4.843
    1C        C  466   2.801   4.331   4.957
    1C        C  467   2.908   4.422   4.960
    1C        C  468   4.120   4.280   2.040
    1C        C  469   4.192   4.251   2.156
    1C        C  470   4.007   4.373   2.275
    1C        C  471   4.127   4.296   2.275
    1C        C  472   3.944   4.408   2.397
    1C        C  473   4.007   4.375   2.518
    1C        C  474   3.812   4.467   2.638
    1C        C  475   3.938   4.401   2.638
    1C        C  476   3.745   4.493   2.759
    1C        C  477   3.812   4.468   2.881
    1C        C  478   3.605   4.517   3.006
    1C        C  479   3.743   4.489   3.003
    1C        C  480   3.534   4.531   3.127
    1C        C  481   3.606   4.524   3.249
    1C        C  482   3.395   4.534   3.374
    1C        C  483   3.536   4.537   3.371
    1C        C  484   3.326   4.528   3.497
    1C        C  485   3.395   4.539   3.620
    1C        C  486   3.186   4.503   3.742
    1C        C  487   3.324   4.534   3.742
    1C        C  488   3.122   4.476   3.865
    1C        C  489   3.192   4.494   3.986
    1C        C  490   2.998   4.417   4.114
    1C        C  491   3.125   4.477   4.109
    1C        C  492   2.939   4.378   4.236
    1C        C  493   2.996   4.419   4.359
    1C        C  494   2.826   4.296   4.481
    1C        C  495   2.934   4.388   4.482
    1C        C  496   2.767   4.253   4.602
    1C        C  497   2.813   4.312   4.723
    1C        C  498   2.663   4.159   4.845
    1C        C  499   2.748   4.272   4.841
    1C        C  500   2.594   4.113   4.958
    1C        C  501   4.006   4.361   2.038
    1C        C  502   3.816   4.467   2.154
    1C        C  503   3.945   4.409   2.154
    1C        C  504   3.744   4.485   2.274
    1C        C  505   3.811   4.457   2.396
    1C        C  506   3.603   4.508   2.516
    1C        C  507   3.741   4.478   2.516
    1C        C  508   3.534   4.512   2.640
    1C        C  509   3.606   4.512   2.762
    1C        C  510   3.394   4.521   2.886
    1C        C  511   3.535   4.522   2.884
    1C        C  512   3.321   4.518   3.007
    1C        C  513   3.392   4.527   3.128
    1C        C  514   3.186   4.494   3.254
    1C        C  515   3.325   4.522   3.252
    1C        C  516   3.119   4.473   3.377
    1C        C  517   3.187   4.499   3.498
    1C        C  518   2.993   4.416   3.624
    1C        C  519   3.118   4.482   3.620
    1C        C  520   2.936   4.373   3.746
    1C        C  521   2.996   4.411   3.868
    1C        C  522   2.833   4.282   3.994
    1C        C  523   2.940   4.374   3.992
    1C        C  524   2.783   4.234   4.117
    1C        C  525   2.831   4.287   4.239
    1C        C  526   2.687   4.132   4.362
    1C        C  527   2.779   4.239   4.361
    1C        C  528   2.645   4.074   4.484
    1C        C  529   2.682   4.141   4.603
    1C        C  530   2.577   3.959   4.727
    1C        C  531   2.639   4.087   4.726
    1C        C  532   2.532   3.902   4.849
    1C        C  533   2.522   3.993   4.960
    1C        C  534   3.615   4.554   2.039
    1C        C  535   3.747   4.507   2.039
    1C        C  536   3.532   4.536   2.155
    1C        C  537   3.604   4.509   2.274
    1C        C  538   3.390   4.510   2.396
    1C        C  539   3.531   4.517   2.395
    1C        C  540   3.322   4.505   2.519
    1C        C  541   3.393   4.507   2.641
    1C        C  542   3.186   4.481   2.763
    1C        C  543   3.323   4.516   2.763
    1C        C  544   3.123   4.453   2.887
    1C        C  545   3.184   4.483   3.011
    1C        C  546   2.996   4.393   3.135
    1C        C  547   3.119   4.463   3.134
    1C        C  548   2.938   4.359   3.260
    1C        C  549   2.998   4.401   3.380
    1C        C  550   2.831   4.275   3.503
    1C        C  551   2.939   4.366   3.504
    1C        C  552   2.782   4.227   3.627
    1C        C  553   2.830   4.280   3.749
    1C        C  554   2.694   4.120   3.874
    1C        C  555   2.784   4.229   3.872
    1C        C  556   2.647   4.066   3.996
    1C        C  557   2.694   4.124   4.115
    1C        C  558   2.596   3.941   4.242
    1C        C  559   2.659   4.067   4.239
    1C        C  560   2.566   3.877   4.364
    1C        C  561   2.582   3.948   4.486
    1C        C  562   2.526   3.746   4.613
    1C        C  563   2.562   3.882   4.609
    1C        C  564   2.511   3.679   4.737
    1C        C  565   2.511   3.761   4.853
    1C        C  566   2.525   3.546   4.975
    1C        C  567   2.522   3.685   4.970
    1C        C  568   3.325   4.467   2.038
    1C        C  569   3.393   4.508   2.153
    1C        C  570   3.180   4.470   2.279
    1C        C  571   3.319   4.503   2.274
    1C        C  572   3.115   4.447   2.402
    1C        C  573   3.183   4.477   2.522
    1C        C  574   2.987   4.396   2.647
    1C        C  575   3.115   4.458   2.644
    1C        C  576   2.932   4.356   2.771
    1C        C  577   2.995   4.394   2.891
    1C        C  578   2.827   4.265   3.013
    1C        C  579   2.933   4.358   3.013
    1C        C  580   2.781   4.216   3.137
    1C        C  581   2.829   4.269   3.259
    1C        C  582   2.693   4.112   3.381
    1C        C  583   2.777   4.225   3.382
    1C        C  584   2.661   4.054   3.506
    1C        C  585   2.697   4.114   3.628
    1C        C  586   2.592   3.933   3.753
    1C        C  587   2.659   4.058   3.752
    1C        C  588   2.568   3.869   3.876
    1C        C  589   2.589   3.937   3.998
    1C        C  590   2.529   3.736   4.126
    1C        C  591   2.565   3.872   4.122
    1C        C  592   2.515   3.667   4.249
    1C        C  593   2.527   3.741   4.368
    1C        C  594   2.510   3.533   4.495
    1C        C  595   2.514   3.674   4.492
    1C        C  596   2.511   3.462   4.617
    1C        C  597   2.509   3.536   4.737
    1C        C  598   2.536   3.327   4.859
    1C        C  599   2.521   3.467   4.859
    1C        C  600   2.532   3.248   4.975
    1C        C  601   3.192   4.433   2.042
    1C        C  602   2.977   4.391   2.157
    1C        C  603   3.114   4.434   2.159
    1C        C  604   2.920   4.358   2.283
    1C        C  605   2.986   4.389   2.404
    1C        C  606   2.816   4.267   2.528
    1C        C  607   2.923   4.359   2.527
    1C        C  608   2.767   4.215   2.650
    1C        C  609   2.824   4.265   2.769
    1C        C  610   2.687   4.104   2.891
    1C        C  611   2.777   4.213   2.891
    1C        C  612   2.650   4.048   3.016
    1C        C  613   2.689   4.109   3.137
    1C        C  614   2.586   3.925   3.266
    1C        C  615   2.652   4.050   3.260
    1C        C  616   2.565   3.862   3.391
    1C        C  617   2.601   3.926   3.511
    1C        C  618   2.532   3.725   3.637
    1C        C  619   2.573   3.860   3.633
    1C        C  620   2.514   3.661   3.762
    1C        C  621   2.529   3.733   3.882
    1C        C  622   2.502   3.524   4.007
    1C        C  623   2.519   3.664   4.005
    1C        C  624   2.508   3.452   4.129
    1C        C  625   2.507   3.526   4.250
    1C        C  626   2.537   3.320   4.375
    1C        C  627   2.509   3.459   4.374
    1C        C  628   2.552   3.251   4.497
    1C        C  629   2.533   3.322   4.618
    1C        C  630   2.596   3.117   4.739
    1C        C  631   2.550   3.252   4.739
    1C        C  632   2.617   3.049   4.862
    1C        C  633   2.562   3.112   4.978
    1C        C  634   2.776   4.302   2.055
    1C        C  635   2.889   4.385   2.045
    1C        C  636   2.742   4.228   2.169
    1C        C  637   2.804   4.275   2.286
    1C        C  638   2.674   4.106   2.407
    1C        C  639   2.759   4.219   2.408
    1C        C  640   2.636   4.044   2.528
    1C        C  641   2.676   4.106   2.649
    1C        C  642   2.578   3.919   2.774
    1C        C  643   2.642   4.045   2.771
    1C        C  644   2.558   3.855   2.899
    1C        C  645   2.584   3.923   3.020
    1C        C  646   2.520   3.724   3.147
    1C        C  647   2.557   3.861   3.144
    1C        C  648   2.510   3.656   3.270
    1C        C  649   2.525   3.726   3.391
    1C        C  650   2.511   3.516   3.517
    1C        C  651   2.515   3.658   3.515
    1C        C  652   2.510   3.450   3.642
    1C        C  653   2.501   3.520   3.765
    1C        C  654   2.520   3.309   3.890
    1C        C  655   2.501   3.449   3.887
    1C        C  656   2.530   3.239   4.012
    1C        C  657   2.521   3.311   4.134
    1C        C  658   2.579   3.107   4.255
    1C        C  659   2.543   3.244   4.256
    1C        C  660   2.625   3.051   4.376
    1C        C  661   2.601   3.119   4.498
    1C        C  662   2.711   2.936   4.620
    1C        C  663   2.633   3.054   4.619
    1C        C  664   2.749   2.876   4.742
    1C        C  665   2.697   2.930   4.863
    1C        C  666   2.742   2.864   4.979
    1C        C  667   2.682   4.020   2.052
    1C        C  668   2.680   4.101   2.166
    1C        C  669   2.581   3.912   2.289
    1C        C  670   2.636   4.043   2.287
    1C        C  671   2.553   3.844   2.410
    1C        C  672   2.578   3.915   2.529
    1C        C  673   2.518   3.715   2.656
    1C        C  674   2.553   3.852   2.653
    1C        C  675   2.504   3.647   2.779
    1C        C  676   2.521   3.719   2.900
    1C        C  677   2.501   3.513   3.028
    1C        C  678   2.511   3.654   3.025
    1C        C  679   2.502   3.444   3.152
    1C        C  680   2.502   3.515   3.274
    1C        C  681   2.532   3.305   3.398
    1C        C  682   2.508   3.444   3.396
    1C        C  683   2.552   3.242   3.523
    1C        C  684   2.534   3.311   3.645
    1C        C  685   2.596   3.110   3.767
    1C        C  686   2.549   3.243   3.768
    1C        C  687   2.631   3.051   3.891
    1C        C  688   2.590   3.111   4.013
    1C        C  689   2.702   2.931   4.133
    1C        C  690   2.617   3.044   4.134
    1C        C  691   2.750   2.879   4.255
    1C        C  692   2.706   2.935   4.377
    1C        C  693   2.753   2.879   4.498
    1C        C  694   2.626   3.891   2.054
    1C        C  695   2.519   3.704   2.172
    1C        C  696   2.573   3.835   2.171
    1C        C  697   2.499   3.636   2.294
    1C        C  698   2.509   3.710   2.413
    1C        C  699   2.486   3.501   2.538
    1C        C  700   2.498   3.642   2.537
    1C        C  701   2.497   3.434   2.661
    1C        C  702   2.496   3.506   2.782
    1C        C  703   2.527   3.301   2.907
    1C        C  704   2.502   3.440   2.907
    1C        C  705   2.548   3.237   3.031
    1C        C  706   2.529   3.305   3.153
    1C        C  707   2.605   3.108   3.274
    1C        C  708   2.547   3.237   3.275
    1C        C  709   2.638   3.050   3.399
    1C        C  710   2.605   3.111   3.523
    1C        C  711   2.709   2.930   3.646
    1C        C  712   2.626   3.045   3.646
    1C        C  713   2.754   2.877   3.769
    1C        C  714   2.714   2.937   3.891
    1C        C  715   2.752   2.876   4.012
    1C        C  716   2.448   3.497   2.059
    1C        C  717   2.481   3.633   2.057
    1C        C  718   2.457   3.418   2.179
    1C        C  719   2.476   3.495   2.297
    1C        C  720   2.510   3.287   2.421
    1C        C  721   2.480   3.425   2.419
    1C        C  722   2.543   3.225   2.544
    1C        C  723   2.528   3.296   2.666
    1C        C  724   2.594   3.096   2.787
    1C        C  725   2.537   3.226   2.788
    1C        C  726   2.630   3.037   2.910
    1C        C  727   2.598   3.105   3.030
    1C        C  728   2.713   2.927   3.156
    1C        C  729   2.631   3.042   3.152
    1C        C  730   2.757   2.876   3.280
    1C        C  731   2.716   2.933   3.403
    1C        C  732   2.755   2.873   3.525
    1C        C  733   2.494   3.196   2.069
    1C        C  734   2.488   3.279   2.181
    1C        C  735   2.584   3.083   2.302
    1C        C  736   2.525   3.213   2.302
    1C        C  737   2.618   3.021   2.424
    1C        C  738   2.586   3.091   2.543
    1C        C  739   2.694   2.909   2.667
    1C        C  740   2.618   3.028   2.666
    1C        C  741   2.741   2.856   2.790
    1C        C  742   2.707   2.918   2.912
    1C        C  743   2.754   2.866   3.035
    1C        C  744   2.549   3.068   2.069
    1C        C  745   2.679   2.889   2.185
    1C        C  746   2.608   3.011   2.183
    1C        C  747   2.729   2.836   2.306
    1C        C  748   2.692   2.901   2.426
    1C        C  749   2.742   2.850   2.548
    1C        C  750   2.737   2.835   2.069
    1C        C  751   3.671   2.311   1.981
    1C        O  752   3.733   2.215   2.036
    1C        O  753   3.632   2.286   1.849
    1C        C  754   4.628   3.043   1.988
    1C        O  755   4.622   3.017   1.864
    1C        O  756   4.753   3.004   2.036
    1C        C  757   4.449   4.209   1.949
    1C        O  758   4.516   4.302   2.002
    1C        O  759   4.507   4.165   1.829
    1C        C  760   3.610   4.676   1.955
    1C        O  761   3.603   4.790   2.008
    1C        O  762   3.571   4.671   1.821
    1C        C  763   2.885   4.489   1.940
    1C        O  764   2.888   4.464   1.816
    1C        O  765   2.903   4.624   1.975
    1C        C  766   2.347   3.469   1.955
    1C        O  767   2.374   3.440   1.835
    1C        O  768   2.209   3.492   1.960
    1C        C  769   4.703   3.583   5.038
    1C        O  770   4.700   3.548   5.159
    1C        O  771   4.820   3.650   4.999
    1C        C  772   4.256   4.412   5.064
    1C        O  773   4.250   4.350   5.174
    1C        O  774   4.387   4.460   5.054
    1C        C  775   4.134   2.531   5.082
    1C        O  776   4.246   2.478   5.060
    1C        O  777   4.126   2.573   5.216
    1C        C  778   2.871   4.539   5.043
    1C        O  779   2.804   4.632   4.990
    1C        O  780   2.928   4.574   5.165
    1C        C  781   2.502   3.036   5.090
    1C        O  782   2.386   2.987   5.091
    1C        O  783   2.546   3.047   5.222
    1C        C  784   2.431   3.981   5.076
    1C        O  785   2.307   3.995   5.063
    1C        O  786   2.480   3.948   5.203
    1C        C  787   2.936   2.419   2.015
    1C        O  788   2.951   2.390   1.893
    1C        O  789   2.896   2.312   2.095
    1C        C  790   3.166   2.353   5.033
    1C        O  791   3.096   2.261   4.983
    1C        O  792   3.216   2.316   5.158
    1C        H  793   4.255   3.038   5.038
    1C        H  794   4.140   2.840   5.054
    1C        H  795   4.473   3.139   5.069
    1C        H  796   4.571   3.350   5.056
    1C        H  797   4.583   3.819   5.033
    1C        H  798   4.385   3.959   5.050
    1C        H  799   4.282   4.152   5.049
    1C        H  800   4.002   4.491   5.030
    1C        H  801   3.822   4.600   5.028
    1C        H  802   3.584   4.645   5.026
    1C        H  803   3.389   4.464   5.027
    1C        H  804   3.151   4.482   5.052
    1C        H  805   3.908   2.440   5.036
    1C        H  806   3.681   2.428   5.059
    1C        H  807   2.979   2.517   5.037
    1C        H  808   3.441   2.475   5.075
    1C        H  809   2.847   2.707   5.066
    1C        H  810   2.683   2.878   5.067
    1C        H  811   2.557   3.303   5.063
    1C        H  812   2.530   3.511   5.076
    1C        H  813   2.564   3.741   5.051
    1C        H  814   2.564   4.183   5.033
    1C        H  815   2.744   4.317   5.046
    1C        H  816   2.724   2.891   1.979
    1C        H  817   2.868   2.704   1.970
    1C        H  818   3.192   2.379   2.013
    1C        H  819   3.419   2.405   1.983
    1C        H  820   3.874   2.472   1.984
    1C        H  821   4.068   2.605   1.976
    1C        H  822   4.279   2.700   1.984
    1C        H  823   4.428   2.869   1.985
    1C        H  824   4.579   3.308   1.964
    1C        H  825   4.469   3.508   1.961
    1C        H  826   4.571   3.743   1.977
    1C        H  827   3.767   4.448   1.952
    1C        H  828   3.990   4.415   1.948
    1C        H  829   4.144   4.225   1.951
    1C        H  830   4.493   3.956   1.965
    1C        H  831   2.616   3.841   1.960
    1C        H  832   2.681   4.067   1.956
    1C        H  833   2.703   4.304   1.978
    1C        H  834   3.378   4.420   1.957
    1C        H  835   3.140   4.429   1.949
    1C        H  836   2.550   3.012   1.978
    1C        H  837   2.417   3.214   1.997
    1C        H  838   2.502   3.673   1.961
    2V3OU   H29  839   2.809   3.545   3.728
    2V3OU   C27  840   2.791   3.501   3.829
    2V3OU   H27  841   2.732   3.569   3.897
    2V3OU   H28  842   2.743   3.399   3.829
    2V3OU   O11  843   2.914   3.468   3.894
    2V3OU   C15  844   2.928   3.398   4.012
    2V3OU   C13  845   3.054   3.368   4.069
    2V3OU   C14  846   3.079   3.263   4.157
    2V3OU   C16  847   2.978   3.177   4.199
    2V3OU    H6  848   2.992   3.090   4.264
    2V3OU   C12  849   3.213   3.225   4.208
    2V3OU    O2  850   3.235   3.114   4.263
    2V3OU   C10  851   3.330   3.307   4.174
    2V3OU    C8  852   3.459   3.268   4.207
    2V3OU   O10  853   3.490   3.144   4.252
    2V3OU   H26  854   3.403   3.111   4.281
    2V3OU    C6  855   3.566   3.348   4.155
    2V3OU    C5  856   3.540   3.464   4.084
    2V3OU    C4  857   3.704   3.292   4.159
    2V3OU    H4  858   3.719   3.228   4.252
    2V3OU    H5  859   3.708   3.228   4.066
    2V3OU    C2  860   3.817   3.394   4.154
    2V3OU    O6  861   3.806   3.470   4.274
    2V3OU   H21  862   3.760   3.551   4.247
    2V3OU    C3  863   3.783   3.491   4.040
    2V3OU    H2  864   3.864   3.568   4.030
    2V3OU    H3  865   3.769   3.436   3.944
    2V3OU   C25  866   3.951   3.323   4.137
    2V3OU    O7  867   3.996   3.292   4.026
    2V3OU   C26  868   4.026   3.285   4.264
    2V3OU   H22  869   4.053   3.383   4.309
    2V3OU   H23  870   4.118   3.227   4.237
    2V3OU    O8  871   3.961   3.201   4.356
    2V3OU   H24  872   3.916   3.263   4.416
    2V3OU    C1  873   3.650   3.563   4.061
    2V3OU    H1  874   3.623   3.623   3.969
    2V3OU    O3  875   3.655   3.652   4.173
    2V3OU   C19  876   3.614   3.787   4.152
    2V3OU    H9  877   3.515   3.803   4.100
    2V3OU    O4  878   3.709   3.844   4.065
    2V3OU   C20  879   3.839   3.879   4.113
    2V3OU   H10  880   3.895   3.781   4.116
    2V3OU   C24  881   3.605   3.853   4.290
    2V3OU   H16  882   3.541   3.787   4.355
    2V3OU   H17  883   3.560   3.955   4.283
    2V3OU   C23  884   3.746   3.873   4.347
    2V3OU   H15  885   3.793   3.770   4.356
    2V3OU    N1  886   3.735   3.948   4.470
    2V3OU   H19  887   3.807   3.930   4.537
    2V3OU   H20  888   3.645   3.940   4.511
    2V3OU   C21  889   3.845   3.945   4.251
    2V3OU   H11  890   3.947   3.927   4.296
    2V3OU    O5  891   3.825   4.086   4.246
    2V3OU   H18  892   3.768   4.107   4.321
    2V3OU   C22  893   3.911   3.949   3.999
    2V3OU   H12  894   3.860   4.044   3.971
    2V3OU   H13  895   3.906   3.889   3.905
    2V3OU   H14  896   4.021   3.960   4.021
    2V3OU   C11  897   3.163   3.466   4.060
    2V3OU    O1  898   3.140   3.579   4.013
    2V3OU    C9  899   3.300   3.423   4.098
    2V3OU    C7  900   3.405   3.501   4.053
    2V3OU    O9  901   3.382   3.613   3.975
    2V3OU   H25  902   3.286   3.624   3.979
    2V3OU   C17  903   2.829   3.314   4.065
    2V3OU    H7  904   2.732   3.346   4.027
    2V3OU   C18  905   2.850   3.208   4.153
    2V3OU    H8  906   2.785   3.168   4.231
    3SOL     OW  907   2.764   4.670   5.348
    3SOL    HW1  908   2.839   4.646   5.286
    3SOL    HW2  909   2.779   4.762   5.385
    4SOL     OW  910   6.904   0.045   0.102
    4SOL    HW1  911   6.919   0.142   0.119
    4SOL    HW2  912   6.830   0.033   0.037
    5SOL     OW  913   5.024   1.756   2.472
    5SOL    HW1  914   5.095   1.789   2.535
    5SOL    HW2  915   4.982   1.835   2.425
    6SOL     OW  916   5.505   1.981   2.872
    6SOL    HW1  917   5.515   2.077   2.845
    6SOL    HW2  918   5.576   1.927   2.828
    7SOL     OW  919   1.103   4.237   4.780
    7SOL    HW1  920   1.159   4.179   4.840
    7SOL    HW2  921   1.128   4.220   4.685
    8SOL     OW  922   2.516   2.293   5.143
    8SOL    HW1  923   2.488   2.379   5.185
    8SOL    HW2  924   2.473   2.216   5.191
    9SOL     OW  925   6.475   1.783   5.880
    9SOL    HW1  926   6.480   1.799   5.781
    9SOL    HW2  927   6.445   1.866   5.926
   10SOL     OW  928   3.611   5.126   4.059
   10SOL    HW1  929   3.584   5.213   4.018
   10SOL    HW2  930   3.603   5.053   3.991
   11SOL     OW  931   1.952   0.635   0.232
   11SOL    HW1  932   1.955   0.726   0.273
   11SOL    HW2  933   1.935   0.567   0.303
   12SOL     OW  934   2.553   4.569   3.739
   12SOL    HW1  935   2.500   4.649   3.711
   12SOL    HW2  936   2.648   4.596   3.756
   13SOL     OW  937   3.358   6.413   2.768
   13SOL    HW1  938   3.454   6.420   2.794
   13SOL    HW2  939   3.307   6.491   2.806
   14SOL     OW  940   4.489   5.048   5.747
   14SOL    HW1  941   4.404   5.002   5.773
   14SOL    HW2  942   4.527   5.097   5.826
   15SOL     OW  943   0.474   6.506   6.572
   15SOL    HW1  944   0.459   6.572   6.645
   15SOL    HW2  945   0.502   6.419   6.611
   16SOL     OW  946   5.076   2.668   5.993
   16SOL    HW1  947   5.029   2.665   5.905
   16SOL    HW2  948   5.113   2.578   6.014
   17SOL     OW  949   5.953   0.532   6.336
   17SOL    HW1  950   6.046   0.522   6.302
   17SOL    HW2  951   5.894   0.569   6.264
   18SOL     OW  952   3.609   1.527   5.295
   18SOL    HW1  953   3.648   1.614   5.264
   18SOL    HW2  954   3.670   1.486   5.363
   19SOL     OW  955   0.527   1.918   2.523
   19SOL    HW1  956   0.500   1.889   2.616
   19SOL    HW2  957   0.461   1.984   2.488
   20SOL     OW  958   5.819   1.671   5.511
   20SOL    HW1  959   5.797   1.766   5.535
   20SOL    HW2  960   5.737   1.615   5.516
   21SOL     OW  961   3.031   0.063   2.741
   21SOL    HW1  962   3.041   6.990   2.782
   21SOL    HW2  963   3.116   0.087   2.694
   22SOL     OW  964   1.089   6.117   5.690
   22SOL    HW1  965   1.035   6.045   5.647
   22SOL    HW2  966   1.186   6.093   5.685
   23SOL     OW  967   4.481   5.225   2.234
   23SOL    HW1  968   4.497   5.281   2.153
   23SOL    HW2  969   4.531   5.139   2.226
   24SOL     OW  970   3.901   0.391   2.239
   24SOL    HW1  971   3.820   0.445   2.264
   24SOL    HW2  972   3.981   0.451   2.232
   25SOL     OW  973   3.138   0.169   3.923
   25SOL    HW1  974   3.072   0.099   3.897
   25SOL    HW2  975   3.091   0.255   3.943
   26SOL     OW  976   1.375   2.121   0.159
   26SOL    HW1  977   1.377   2.036   0.106
   26SOL    HW2  978   1.323   2.107   0.243
   27SOL     OW  979   0.979   1.361   2.236
   27SOL    HW1  980   1.007   1.285   2.178
   27SOL    HW2  981   0.908   1.330   2.300
   28SOL     OW  982   1.164   0.808   4.321
   28SOL    HW1  983   1.076   0.840   4.285
   28SOL    HW2  984   1.223   0.783   4.245
   29SOL     OW  985   6.126   1.038   1.049
   29SOL    HW1  986   6.221   1.069   1.060
   29SOL    HW2  987   6.077   1.105   0.993
   30SOL     OW  988   3.659   0.603   4.869
   30SOL    HW1  989   3.603   0.620   4.788
   30SOL    HW2  990   3.754   0.629   4.851
   31SOL     OW  991   0.008   2.185   5.130
   31SOL    HW1  992   0.088   2.138   5.169
   31SOL    HW2  993   0.017   2.189   5.031
   32SOL     OW  994   1.282   1.763   2.173
   32SOL    HW1  995   1.195   1.718   2.187
   32SOL    HW2  996   1.314   1.803   2.259
   33SOL     OW  997   0.270   3.804   5.272
   33SOL    HW1  998   0.268   3.840   5.179
   33SOL    HW2  999   0.306   3.873   5.334
   34SOL     OW 1000   2.705   5.168   5.171
   34SOL    HW1 1001   2.628   5.220   5.210
   34SOL    HW2 1002   2.686   5.070   5.178
   35SOL     OW 1003   4.094   1.724   5.675
   35SOL    HW1 1004   4.100   1.766   5.766
   35SOL    HW2 1005   4.186   1.706   5.641
   36SOL     OW 1006   4.976   1.216   4.010
   36SOL    HW1 1007   4.905   1.185   3.947
   36SOL    HW2 1008   5.062   1.228   3.960
   37SOL     OW 1009   2.013   1.313   3.734
   37SOL    HW1 1010   2.023   1.354   3.824
   37SOL    HW2 1011   2.102   1.304   3.690
   38SOL     OW 1012   2.321   4.346   1.555
   38SOL    HW1 1013   2.265   4.302   1.484
   38SOL    HW2 1014   2.318   4.290   1.638
   39SOL     OW 1015   6.610   4.212   6.541
   39SOL    HW1 1016   6.517   4.223   6.506
   39SOL    HW2 1017   6.617   4.127   6.592
   40SOL     OW 1018   3.267   0.241   6.190
   40SOL    HW1 1019   3.342   0.226   6.255
   40SOL    HW2 1020   3.258   0.162   6.131
   41SOL     OW 1021   6.289   4.196   2.846
   41SOL    HW1 1022   6.324   4.252   2.771
   41SOL    HW2 1023   6.313   4.100   2.830
   42SOL     OW 1024   2.869   6.787   4.467
   42SOL    HW1 1025   2.912   6.781   4.377
   42SOL    HW2 1026   2.797   6.718   4.475
   43SOL     OW 1027   3.622   6.851   4.715
   43SOL    HW1 1028   3.622   6.887   4.622
   43SOL    HW2 1029   3.660   6.920   4.777
   44SOL     OW 1030   5.853   3.140   4.975
   44SOL    HW1 1031   5.876   3.062   4.918
   44SOL    HW2 1032   5.779   3.115   5.038
   45SOL     OW 1033   4.649   5.886   2.238
   45SOL    HW1 1034   4.578   5.916   2.175
   45SOL    HW2 1035   4.727   5.850   2.187
   46SOL     OW 1036   0.458   2.852   4.144
   46SOL    HW1 1037   0.520   2.868   4.068
   46SOL    HW2 1038   0.507   2.869   4.230
   47SOL     OW 1039   5.187   4.267   1.492
   47SOL    HW1 1040   5.284   4.264   1.469
   47SOL    HW2 1041   5.144   4.181   1.462
   48SOL     OW 1042   0.618   2.581   6.721
   48SOL    HW1 1043   0.632   2.484   6.739
   48SOL    HW2 1044   0.521   2.599   6.709
   49SOL     OW 1045   5.078   2.698   1.081
   49SOL    HW1 1046   5.140   2.727   1.155
   49SOL    HW2 1047   5.048   2.604   1.099
   50SOL     OW 1048   5.969   1.810   6.222
   50SOL    HW1 1049   6.043   1.782   6.160
   50SOL    HW2 1050   5.962   1.745   6.297
   51SOL     OW 1051   2.082   5.320   2.670
   51SOL    HW1 1052   1.992   5.291   2.637
   51SOL    HW2 1053   2.091   5.296   2.767
   52SOL     OW 1054   5.765   2.362   1.394
   52SOL    HW1 1055   5.735   2.266   1.387
   52SOL    HW2 1056   5.757   2.405   1.304
   53SOL     OW 1057   5.037   0.137   3.074
   53SOL    HW1 1058   5.073   0.195   3.001
   53SOL    HW2 1059   4.940   0.157   3.089
   54SOL     OW 1060   5.916   6.381   0.313
   54SOL    HW1 1061   5.960   6.396   0.401
   54SOL    HW2 1062   5.821   6.352   0.327
   55SOL     OW 1063   1.812   2.455   6.100
   55SOL    HW1 1064   1.852   2.495   6.017
   55SOL    HW2 1065   1.870   2.476   6.178
   56SOL     OW 1066   1.614   1.353   0.934
   56SOL    HW1 1067   1.531   1.376   0.885
   56SOL    HW2 1068   1.687   1.331   0.868
   57SOL     OW 1069   3.697   0.806   6.693
   57SOL    HW1 1070   3.667   0.886   6.744
   57SOL    HW2 1071   3.759   0.752   6.750
   58SOL     OW 1072   0.914   1.090   6.668
   58SOL    HW1 1073   0.927   1.024   6.743
   58SOL    HW2 1074   0.955   1.177   6.694
   59SOL     OW 1075   6.566   3.725   5.911
   59SOL    HW1 1076   6.580   3.823   5.893
   59SOL    HW2 1077   6.475   3.699   5.881
   60SOL     OW 1078   5.773   1.452   3.778
   60SOL    HW1 1079   5.719   1.515   3.723
   60SOL    HW2 1080   5.767   1.477   3.875
   61SOL     OW 1081   0.374   1.081   4.553
   61SOL    HW1 1082   0.426   1.025   4.489
   61SOL    HW2 1083   0.344   1.165   4.507
   62SOL     OW 1084   0.995   1.364   1.517
   62SOL    HW1 1085   0.918   1.409   1.564
   62SOL    HW2 1086   1.066   1.343   1.584
   63SOL     OW 1087   3.945   0.049   4.366
   63SOL    HW1 1088   3.889   0.096   4.298
   63SOL    HW2 1089   3.919   6.971   4.371
   64SOL     OW 1090   1.468   3.547   6.436
   64SOL    HW1 1091   1.547   3.577   6.382
   64SOL    HW2 1092   1.387   3.598   6.408
   65SOL     OW 1093   0.114   6.876   5.799
   65SOL    HW1 1094   0.061   6.839   5.723
   65SOL    HW2 1095   0.053   6.920   5.865
   66SOL     OW 1096   3.083   0.338   2.884
   66SOL    HW1 1097   3.157   0.310   2.945
   66SOL    HW2 1098   3.105   0.311   2.791
   67SOL     OW 1099   0.385   2.263   6.757
   67SOL    HW1 1100   0.343   2.313   6.832
   67SOL    HW2 1101   0.484   2.277   6.759
   68SOL     OW 1102   6.823   1.539   5.864
   68SOL    HW1 1103   6.813   1.636   5.887
   68SOL    HW2 1104   6.905   1.527   5.808
   69SOL     OW 1105   1.594   4.436   6.210
   69SOL    HW1 1106   1.585   4.462   6.114
   69SOL    HW2 1107   1.635   4.345   6.216
   70SOL     OW 1108   5.302   4.154   4.730
   70SOL    HW1 1109   5.382   4.122   4.680
   70SOL    HW2 1110   5.223   4.156   4.669
   71SOL     OW 1111   4.797   2.126   4.208
   71SOL    HW1 1112   4.720   2.189   4.221
   71SOL    HW2 1113   4.847   2.152   4.125
   72SOL     OW 1114   0.386   0.953   3.209
   72SOL    HW1 1115   0.315   0.961   3.140
   72SOL    HW2 1116   0.436   1.039   3.216
   73SOL     OW 1117   3.592   0.226   0.063
   73SOL    HW1 1118   3.502   0.192   0.090
   73SOL    HW2 1119   3.652   0.231   0.143
   74SOL     OW 1120   2.290   1.856   6.351
   74SOL    HW1 1121   2.267   1.867   6.448
   74SOL    HW2 1122   2.213   1.885   6.295
   75SOL     OW 1123   4.306   1.872   1.544
   75SOL    HW1 1124   4.402   1.883   1.569
   75SOL    HW2 1125   4.299   1.808   1.468
   76SOL     OW 1126   2.630   4.669   5.913
   76SOL    HW1 1127   2.594   4.607   5.843
   76SOL    HW2 1128   2.640   4.760   5.874
   77SOL     OW 1129   2.005   5.311   4.148
   77SOL    HW1 1130   1.979   5.323   4.244
   77SOL    HW2 1131   2.022   5.215   4.130
   78SOL     OW 1132   4.184   1.392   1.365
   78SOL    HW1 1133   4.255   1.322   1.367
   78SOL    HW2 1134   4.132   1.389   1.451
   79SOL     OW 1135   2.302   5.689   2.135
   79SOL    HW1 1136   2.388   5.735   2.158
   79SOL    HW2 1137   2.243   5.752   2.085
   80SOL     OW 1138   4.795   2.091   5.019
   80SOL    HW1 1139   4.702   2.083   4.983
   80SOL    HW2 1140   4.792   2.129   5.111
   81SOL     OW 1141   1.937   0.430   0.420
   81SOL    HW1 1142   2.022   0.434   0.472
   81SOL    HW2 1143   1.887   0.347   0.442
   82SOL     OW 1144   0.540   6.134   2.297
   82SOL    HW1 1145   0.472   6.203   2.272
   82SOL    HW2 1146   0.501   6.043   2.288
   83SOL     OW 1147   6.835   1.940   5.606
   83SOL    HW1 1148   6.845   2.016   5.542
   83SOL    HW2 1149   6.830   1.854   5.556
   84SOL     OW 1150   6.245   3.657   3.306
   84SOL    HW1 1151   6.327   3.613   3.343
   84SOL    HW2 1152   6.202   3.713   3.376
   85SOL     OW 1153   1.875   6.956   3.774
   85SOL    HW1 1154   1.810   6.993   3.707
   85SOL    HW2 1155   1.841   6.972   3.866
   86SOL     OW 1156   6.174   1.122   6.724
   86SOL    HW1 1157   6.248   1.055   6.732
   86SOL    HW2 1158   6.181   1.168   6.635
   87SOL     OW 1159   4.156   4.523   0.119
   87SOL    HW1 1160   4.119   4.449   0.174
   87SOL    HW2 1161   4.248   4.545   0.150
   88SOL     OW 1162   3.030   2.250   5.738
   88SOL    HW1 1163   3.027   2.331   5.796
   88SOL    HW2 1164   2.979   2.176   5.782
   89SOL     OW 1165   3.079   3.968   1.874
   89SOL    HW1 1166   3.133   3.919   1.806
   89SOL    HW2 1167   3.046   4.054   1.835
   90SOL     OW 1168   4.586   4.390   2.642
   90SOL    HW1 1169   4.527   4.410   2.720
   90SOL    HW2 1170   4.537   4.408   2.557
   91SOL     OW 1171   5.939   6.177   5.830
   91SOL    HW1 1172   5.843   6.159   5.849
   91SOL    HW2 1173   5.986   6.202   5.915
   92SOL     OW 1174   5.222   3.792   0.418
   92SOL    HW1 1175   5.251   3.805   0.513
   92SOL    HW2 1176   5.207   3.881   0.375
   93SOL     OW 1177   3.113   3.595   0.559
   93SOL    HW1 1178   3.020   3.614   0.593
   93SOL    HW2 1179   3.166   3.548   0.630
   94SOL     OW 1180   2.487   7.002   6.983
   94SOL    HW1 1181   2.448   6.914   6.954
   94SOL    HW2 1182   2.492   7.004   0.065
   95SOL     OW 1183   0.908   0.489   4.341
   95SOL    HW1 1184   0.846   0.502   4.419
   95SOL    HW2 1185   0.989   0.439   4.370
   96SOL     OW 1186   5.077   4.871   6.976
   96SOL    HW1 1187   5.119   4.961   6.988
   96SOL    HW2 1188   5.069   4.850   6.879
   97SOL     OW 1189   2.086   5.032   5.342
   97SOL    HW1 1190   1.987   5.047   5.347
   97SOL    HW2 1191   2.112   5.013   5.247
   98SOL     OW 1192   0.801   2.544   1.387
   98SOL    HW1 1193   0.872   2.536   1.318
   98SOL    HW2 1194   0.820   2.481   1.463
   99SOL     OW 1195   3.359   4.071   3.276
   99SOL    HW1 1196   3.371   4.006   3.351
   99SOL    HW2 1197   3.272   4.052   3.229
  100SOL     OW 1198   6.861   0.525   4.128
  100SOL    HW1 1199   6.947   0.558   4.089
  100SOL    HW2 1200   6.865   0.425   4.138
  101SOL     OW 1201   0.897   4.898   2.484
  101SOL    HW1 1202   0.892   4.868   2.579
  101SOL    HW2 1203   0.897   4.998   2.479
  102SOL     OW 1204   2.466   6.152   2.214
  102SOL    HW1 1205   2.524   6.216   2.163
  102SOL    HW2 1206   2.454   6.184   2.308
  103SOL     OW 1207   1.464   1.285   2.079
  103SOL    HW1 1208   1.531   1.219   2.046
  103SOL    HW2 1209   1.495   1.378   2.055
  104SOL     OW 1210   1.388   4.892   2.265
  104SOL    HW1 1211   1.316   4.884   2.333
  104SOL    HW2 1212   1.410   4.802   2.228
  105SOL     OW 1213   5.101   1.115   6.547
  105SOL    HW1 1214   5.089   1.090   6.643
  105SOL    HW2 1215   5.020   1.088   6.495
  106SOL     OW 1216   5.114   5.428   1.734
  106SOL    HW1 1217   5.029   5.428   1.682
  106SOL    HW2 1218   5.115   5.350   1.797
  107SOL     OW 1219   6.458   1.058   0.293
  107SOL    HW1 1220   6.508   1.132   0.247
  107SOL    HW2 1221   6.445   0.982   0.229
  108SOL     OW 1222   2.856   6.907   4.724
  108SOL    HW1 1223   2.833   7.004   4.726
  108SOL    HW2 1224   2.864   6.876   4.629
  109SOL     OW 1225   3.675   1.103   3.006
  109SOL    HW1 1226   3.657   1.012   2.969
  109SOL    HW2 1227   3.661   1.172   2.934
  110SOL     OW 1228   2.274   4.581   5.114
  110SOL    HW1 1229   2.364   4.577   5.159
  110SOL    HW2 1230   2.260   4.497   5.061
  111SOL     OW 1231   6.928   1.295   2.683
  111SOL    HW1 1232   6.998   1.225   2.667
  111SOL    HW2 1233   6.914   1.306   2.781
  112SOL     OW 1234   4.456   6.327   6.422
  112SOL    HW1 1235   4.541   6.281   6.448
  112SOL    HW2 1236   4.433   6.395   6.492
  113SOL     OW 1237   6.545   5.160   3.000
  113SOL    HW1 1238   6.511   5.197   2.914
  113SOL    HW2 1239   6.515   5.220   3.075
  114SOL     OW 1240   1.273   4.815   3.186
  114SOL    HW1 1241   1.256   4.785   3.092
  114SOL    HW2 1242   1.272   4.914   3.190
  115SOL     OW 1243   5.789   1.605   3.528
  115SOL    HW1 1244   5.832   1.695   3.536
  115SOL    HW2 1245   5.854   1.534   3.554
  116SOL     OW 1246   6.963   6.209   1.257
  116SOL    HW1 1247   0.007   6.203   1.178
  116SOL    HW2 1248   7.003   6.162   1.335
  117SOL     OW 1249   2.732   1.463   0.095
  117SOL    HW1 1250   2.789   1.544   0.081
  117SOL    HW2 1251   2.700   1.461   0.190
  118SOL     OW 1252   1.664   1.495   3.521
  118SOL    HW1 1253   1.756   1.510   3.486
  118SOL    HW2 1254   1.659   1.527   3.616
  119SOL     OW 1255   0.464   6.675   6.767
  119SOL    HW1 1256   0.539   6.643   6.825
  119SOL    HW2 1257   0.406   6.738   6.819
  120SOL     OW 1258   4.650   0.140   4.962
  120SOL    HW1 1259   4.555   0.134   4.930
  120SOL    HW2 1260   4.668   0.232   4.997
  121SOL     OW 1261   1.232   3.964   0.025
  121SOL    HW1 1262   1.294   3.894   7.005
  121SOL    HW2 1263   1.276   4.009   0.102
  122SOL     OW 1264   1.224   4.374   0.558
  122SOL    HW1 1265   1.228   4.296   0.620
  122SOL    HW2 1266   1.316   4.410   0.543
  123SOL     OW 1267   1.292   0.674   1.323
  123SOL    HW1 1268   1.390   0.675   1.341
  123SOL    HW2 1269   1.260   0.767   1.304
  124SOL     OW 1270   3.180   2.305   0.503
  124SOL    HW1 1271   3.184   2.395   0.458
  124SOL    HW2 1272   3.256   2.249   0.471
  125SOL     OW 1273   3.239   2.761   0.034
  125SOL    HW1 1274   3.180   2.764   6.971
  125SOL    HW2 1275   3.303   2.838   0.031
  126SOL     OW 1276   3.051   3.425   3.509
  126SOL    HW1 1277   3.148   3.403   3.501
  126SOL    HW2 1278   3.003   3.349   3.553
  127SOL     OW 1279   6.823   5.969   5.444
  127SOL    HW1 1280   6.777   6.017   5.518
  127SOL    HW2 1281   6.890   5.904   5.482
  128SOL     OW 1282   4.941   3.867   2.126
  128SOL    HW1 1283   5.031   3.896   2.159
  128SOL    HW2 1284   4.874   3.875   2.199
  129SOL     OW 1285   2.194   5.175   0.978
  129SOL    HW1 1286   2.222   5.271   0.987
  129SOL    HW2 1287   2.135   5.150   1.054
  130SOL     OW 1288   6.138   1.452   3.919
  130SOL    HW1 1289   6.178   1.543   3.913
  130SOL    HW2 1290   6.158   1.412   4.008
  131SOL     OW 1291   6.374   0.985   4.111
  131SOL    HW1 1292   6.428   0.930   4.175
  131SOL    HW2 1293   6.406   0.969   4.018
  132SOL     OW 1294   3.276   3.527   1.506
  132SOL    HW1 1295   3.297   3.436   1.471
  132SOL    HW2 1296   3.299   3.596   1.437
  133SOL     OW 1297   4.772   1.428   3.365
  133SOL    HW1 1298   4.792   1.420   3.463
  133SOL    HW2 1299   4.853   1.463   3.318
  134SOL     OW 1300   0.150   0.682   2.626
  134SOL    HW1 1301   0.163   0.585   2.647
  134SOL    HW2 1302   0.111   0.691   2.534
  135SOL     OW 1303   4.884   3.559   4.530
  135SOL    HW1 1304   4.828   3.568   4.613
  135SOL    HW2 1305   4.881   3.465   4.498
  136SOL     OW 1306   2.536   5.613   4.763
  136SOL    HW1 1307   2.595   5.680   4.717
  136SOL    HW2 1308   2.496   5.655   4.845
  137SOL     OW 1309   4.283   1.194   4.230
  137SOL    HW1 1310   4.323   1.187   4.321
  137SOL    HW2 1311   4.190   1.157   4.231
  138SOL     OW 1312   0.435   5.405   3.513
  138SOL    HW1 1313   0.430   5.414   3.414
  138SOL    HW2 1314   0.432   5.495   3.555
  139SOL     OW 1315   2.107   5.652   0.002
  139SOL    HW1 1316   2.122   5.553   0.002
  139SOL    HW2 1317   2.057   5.678   6.938
  140SOL     OW 1318   1.527   0.336   2.921
  140SOL    HW1 1319   1.441   0.380   2.894
  140SOL    HW2 1320   1.511   0.240   2.939
  141SOL     OW 1321   6.728   3.429   6.988
  141SOL    HW1 1322   6.675   3.491   6.931
  141SOL    HW2 1323   6.671   3.395   0.045
  142SOL     OW 1324   2.139   4.186   1.403
  142SOL    HW1 1325   2.182   4.098   1.385
  142SOL    HW2 1326   2.062   4.173   1.466
  143SOL     OW 1327   6.028   6.383   1.284
  143SOL    HW1 1328   6.049   6.470   1.329
  143SOL    HW2 1329   6.111   6.348   1.240
  144SOL     OW 1330   3.188   4.909   4.020
  144SOL    HW1 1331   3.199   4.902   3.921
  144SOL    HW2 1332   3.092   4.889   4.044
  145SOL     OW 1333   0.875   4.457   2.674
  145SOL    HW1 1334   0.921   4.496   2.595
  145SOL    HW2 1335   0.814   4.383   2.645
  146SOL     OW 1336   5.713   1.413   5.853
  146SOL    HW1 1337   5.633   1.375   5.806
  146SOL    HW2 1338   5.683   1.476   5.924
  147SOL     OW 1339   5.229   1.527   4.708
  147SOL    HW1 1340   5.160   1.596   4.729
  147SOL    HW2 1341   5.185   1.438   4.695
  148SOL     OW 1342   1.285   4.862   1.500
  148SOL    HW1 1343   1.311   4.939   1.559
  148SOL    HW2 1344   1.232   4.796   1.553
  149SOL     OW 1345   2.785   2.321   5.210
  149SOL    HW1 1346   2.811   2.375   5.130
  149SOL    HW2 1347   2.686   2.321   5.220
  150SOL     OW 1348   4.149   1.356   5.614
  150SOL    HW1 1349   4.058   1.349   5.655
  150SOL    HW2 1350   4.218   1.358   5.686
  151SOL     OW 1351   4.472   1.438   1.633
  151SOL    HW1 1352   4.520   1.441   1.545
  151SOL    HW2 1353   4.536   1.461   1.707
  152SOL     OW 1354   6.956   1.419   6.689
  152SOL    HW1 1355   6.884   1.442   6.624
  152SOL    HW2 1356   6.980   1.500   6.743
  153SOL     OW 1357   3.237   1.099   3.286
  153SOL    HW1 1358   3.282   1.142   3.207
  153SOL    HW2 1359   3.302   1.093   3.362
  154SOL     OW 1360   6.937   2.368   0.750
  154SOL    HW1 1361   0.013   2.375   0.782
  154SOL    HW2 1362   6.878   2.424   0.808
  155SOL     OW 1363   0.304   0.314   1.437
  155SOL    HW1 1364   0.209   0.344   1.442
  155SOL    HW2 1365   0.353   0.344   1.518
  156SOL     OW 1366   6.311   1.332   0.357
  156SOL    HW1 1367   6.365   1.333   0.274
  156SOL    HW2 1368   6.242   1.259   0.352
  157SOL     OW 1369   5.990   2.869   6.966
  157SOL    HW1 1370   5.980   2.806   6.888
  157SOL    HW2 1371   6.005   2.816   0.032
  158SOL     OW 1372   1.273   2.575   1.943
  158SOL    HW1 1373   1.269   2.563   2.042
  158SOL    HW2 1374   1.324   2.659   1.922
  159SOL     OW 1375   4.876   4.765   0.626
  159SOL    HW1 1376   4.880   4.775   0.725
  159SOL    HW2 1377   4.829   4.679   0.603
  160SOL     OW 1378   6.663   0.099   0.771
  160SOL    HW1 1379   6.574   0.118   0.730
  160SOL    HW2 1380   6.652   0.087   0.870
  161SOL     OW 1381   1.177   6.764   1.123
  161SOL    HW1 1382   1.140   6.738   1.034
  161SOL    HW2 1383   1.111   6.822   1.170
  162SOL     OW 1384   2.525   6.079   0.327
  162SOL    HW1 1385   2.466   6.142   0.379
  162SOL    HW2 1386   2.507   5.985   0.356
  163SOL     OW 1387   6.805   5.077   3.081
  163SOL    HW1 1388   6.737   5.109   3.015
  163SOL    HW2 1389   6.791   4.979   3.099
  164SOL     OW 1390   1.841   1.866   3.202
  164SOL    HW1 1391   1.746   1.867   3.171
  164SOL    HW2 1392   1.844   1.844   3.299
  165SOL     OW 1393   6.592   5.384   2.495
  165SOL    HW1 1394   6.588   5.451   2.420
  165SOL    HW2 1395   6.556   5.297   2.464
  166SOL     OW 1396   6.351   4.024   1.098
  166SOL    HW1 1397   6.302   4.111   1.092
  166SOL    HW2 1398   6.321   3.975   1.180
  167SOL     OW 1399   5.032   2.238   6.777
  167SOL    HW1 1400   5.111   2.230   6.839
  167SOL    HW2 1401   5.041   2.172   6.703
  168SOL     OW 1402   3.932   3.003   1.964
  168SOL    HW1 1403   4.012   2.949   1.988
  168SOL    HW2 1404   3.935   3.091   2.013
  169SOL     OW 1405   6.283   2.679   0.527
  169SOL    HW1 1406   6.373   2.646   0.555
  169SOL    HW2 1407   6.241   2.614   0.464
  170SOL     OW 1408   0.806   5.876   3.423
  170SOL    HW1 1409   0.835   5.790   3.465
  170SOL    HW2 1410   0.768   5.936   3.493
  171SOL     OW 1411   1.650   3.183   0.150
  171SOL    HW1 1412   1.650   3.185   0.050
  171SOL    HW2 1413   1.585   3.114   0.181
  172SOL     OW 1414   5.587   2.530   2.114
  172SOL    HW1 1415   5.604   2.628   2.121
  172SOL    HW2 1416   5.674   2.480   2.112
  173SOL     OW 1417   5.679   0.910   4.966
  173SOL    HW1 1418   5.590   0.874   4.993
  173SOL    HW2 1419   5.751   0.856   5.009
  174SOL     OW 1420   4.948   5.188   4.999
  174SOL    HW1 1421   5.028   5.246   5.014
  174SOL    HW2 1422   4.955   5.106   5.054
  175SOL     OW 1423   2.747   0.889   0.897
  175SOL    HW1 1424   2.697   0.803   0.904
  175SOL    HW2 1425   2.798   0.891   0.811
  176SOL     OW 1426   4.965   5.185   2.876
  176SOL    HW1 1427   4.921   5.133   2.948
  176SOL    HW2 1428   5.037   5.242   2.915
  177SOL     OW 1429   5.305   2.119   5.627
  177SOL    HW1 1430   5.277   2.024   5.613
  177SOL    HW2 1431   5.401   2.122   5.653
  178SOL     OW 1432   2.427   5.313   4.700
  178SOL    HW1 1433   2.443   5.402   4.741
  178SOL    HW2 1434   2.355   5.265   4.751
  179SOL     OW 1435   4.046   6.307   0.463
  179SOL    HW1 1436   3.948   6.297   0.447
  179SOL    HW2 1437   4.083   6.223   0.501
  180SOL     OW 1438   2.871   6.844   0.691
  180SOL    HW1 1439   2.855   6.865   0.787
  180SOL    HW2 1440   2.785   6.855   0.639
  181SOL     OW 1441   3.013   2.206   5.288
  181SOL    HW1 1442   2.948   2.279   5.264
  181SOL    HW2 1443   3.104   2.231   5.256
  182SOL     OW 1444   5.115   3.297   0.553
  182SOL    HW1 1445   5.027   3.278   0.597
  182SOL    HW2 1446   5.153   3.382   0.589
  183SOL     OW 1447   4.107   2.264   4.423
  183SOL    HW1 1448   4.019   2.230   4.457
  183SOL    HW2 1449   4.153   2.193   4.371
  184SOL     OW 1450   1.168   6.809   3.412
  184SOL    HW1 1451   1.107   6.774   3.483
  184SOL    HW2 1452   1.133   6.783   3.322
  185SOL     OW 1453   1.122   1.735   4.123
  185SOL    HW1 1454   1.219   1.709   4.121
  185SOL    HW2 1455   1.080   1.711   4.036
  186SOL     OW 1456   5.667   5.927   4.360
  186SOL    HW1 1457   5.720   5.871   4.296
  186SOL    HW2 1458   5.596   5.871   4.402
  187SOL     OW 1459   4.710   5.365   2.933
  187SOL    HW1 1460   4.761   5.371   2.847
  187SOL    HW2 1461   4.774   5.357   3.009
  188SOL     OW 1462   1.600   2.211   3.356
  188SOL    HW1 1463   1.517   2.169   3.394
  188SOL    HW2 1464   1.575   2.290   3.300
  189SOL     OW 1465   6.461   5.004   6.473
  189SOL    HW1 1466   6.520   5.081   6.449
  189SOL    HW2 1467   6.417   4.969   6.390
  190SOL     OW 1468   6.365   4.815   6.622
  190SOL    HW1 1469   6.359   4.830   6.721
  190SOL    HW2 1470   6.404   4.896   6.579
  191SOL     OW 1471   6.691   1.322   5.744
  191SOL    HW1 1472   6.745   1.395   5.788
  191SOL    HW2 1473   6.640   1.360   5.667
  192SOL     OW 1474   0.202   4.026   1.679
  192SOL    HW1 1475   0.275   4.085   1.710
  192SOL    HW2 1476   0.124   4.081   1.649
  193SOL     OW 1477   3.510   4.657   5.979
  193SOL    HW1 1478   3.447   4.630   5.906
  193SOL    HW2 1479   3.534   4.577   6.033
  194SOL     OW 1480   4.054   0.055   1.921
  194SOL    HW1 1481   4.118   0.124   1.885
  194SOL    HW2 1482   3.967   0.099   1.943
  195SOL     OW 1483   2.939   0.795   2.944
  195SOL    HW1 1484   2.884   0.874   2.968
  195SOL    HW2 1485   2.942   0.785   2.845
  196SOL     OW 1486   2.618   0.981   6.702
  196SOL    HW1 1487   2.560   0.918   6.752
  196SOL    HW2 1488   2.582   0.994   6.609
  197SOL     OW 1489   2.385   5.934   6.714
  197SOL    HW1 1490   2.416   6.020   6.673
  197SOL    HW2 1491   2.286   5.929   6.711
  198SOL     OW 1492   4.446   5.912   1.008
  198SOL    HW1 1493   4.410   5.819   1.014
  198SOL    HW2 1494   4.384   5.975   1.055
  199SOL     OW 1495   6.668   1.127   1.952
  199SOL    HW1 1496   6.624   1.039   1.970
  199SOL    HW2 1497   6.598   1.199   1.949
  200SOL     OW 1498   1.129   3.146   2.387
  200SOL    HW1 1499   1.121   3.240   2.353
  200SOL    HW2 1500   1.174   3.090   2.318
  201SOL     OW 1501   2.364   0.238   6.626
  201SOL    HW1 1502   2.306   0.238   6.545
  201SOL    HW2 1503   2.335   0.165   6.688
  202SOL     OW 1504   5.038   0.098   5.288
  202SOL    HW1 1505   4.949   0.053   5.290
  202SOL    HW2 1506   5.044   0.154   5.205
  203SOL     OW 1507   4.948   2.685   5.767
  203SOL    HW1 1508   4.858   2.728   5.781
  203SOL    HW2 1509   4.968   2.681   5.669
  204SOL     OW 1510   1.469   0.043   6.992
  204SOL    HW1 1511   1.522   6.976   6.995
  204SOL    HW2 1512   1.385   0.028   6.940
  205SOL     OW 1513   0.919   1.409   1.020
  205SOL    HW1 1514   0.845   1.475   1.012
  205SOL    HW2 1515   0.954   1.387   0.928
  206SOL     OW 1516   0.615   4.549   1.444
  206SOL    HW1 1517   0.532   4.537   1.390
  206SOL    HW2 1518   0.595   4.607   1.522
  207SOL     OW 1519   4.212   0.313   5.092
  207SOL    HW1 1520   4.170   0.327   5.182
  207SOL    HW2 1521   4.144   0.278   5.028
  208SOL     OW 1522   5.113   4.572   5.785
  208SOL    HW1 1523   5.197   4.519   5.776
  208SOL    HW2 1524   5.035   4.510   5.787
  209SOL     OW 1525   0.672   5.931   5.685
  209SOL    HW1 1526   0.768   5.918   5.662
  209SOL    HW2 1527   0.664   5.961   5.780
  210SOL     OW 1528   4.422   2.223   2.159
  210SOL    HW1 1529   4.467   2.295   2.105
  210SOL    HW2 1530   4.326   2.219   2.134
  211SOL     OW 1531   0.923   0.647   3.194
  211SOL    HW1 1532   0.970   0.637   3.106
  211SOL    HW2 1533   0.912   0.744   3.216
  212SOL     OW 1534   1.626   4.886   2.421
  212SOL    HW1 1535   1.649   4.932   2.506
  212SOL    HW2 1536   1.527   4.891   2.406
  213SOL     OW 1537   4.839   1.072   6.430
  213SOL    HW1 1538   4.843   1.126   6.346
  213SOL    HW2 1539   4.815   0.978   6.407
  214SOL     OW 1540   1.786   6.191   3.075
  214SOL    HW1 1541   1.868   6.245   3.055
  214SOL    HW2 1542   1.788   6.106   3.023
  215SOL     OW 1543   3.652   3.754   1.597
  215SOL    HW1 1544   3.686   3.678   1.541
  215SOL    HW2 1545   3.639   3.722   1.691
  216SOL     OW 1546   1.454   0.304   5.314
  216SOL    HW1 1547   1.409   0.381   5.270
  216SOL    HW2 1548   1.431   0.219   5.265
  217SOL     OW 1549   1.445   2.769   4.136
  217SOL    HW1 1550   1.483   2.832   4.205
  217SOL    HW2 1551   1.467   2.803   4.045
  218SOL     OW 1552   1.603   2.717   4.832
  218SOL    HW1 1553   1.651   2.801   4.809
  218SOL    HW2 1554   1.506   2.737   4.848
  219SOL     OW 1555   3.385   4.078   6.536
  219SOL    HW1 1556   3.475   4.122   6.545
  219SOL    HW2 1557   3.385   4.019   6.455
  220SOL     OW 1558   2.769   5.628   0.065
  220SOL    HW1 1559   2.778   5.708   0.006
  220SOL    HW2 1560   2.686   5.578   0.041
  221SOL     OW 1561   5.549   4.116   3.231
  221SOL    HW1 1562   5.574   4.055   3.155
  221SOL    HW2 1563   5.492   4.190   3.197
  222SOL     OW 1564   1.384   5.268   5.374
  222SOL    HW1 1565   1.294   5.291   5.335
  222SOL    HW2 1566   1.432   5.352   5.400
  223SOL     OW 1567   0.752   3.272   1.283
  223SOL    HW1 1568   0.738   3.233   1.375
  223SOL    HW2 1569   0.752   3.372   1.289
  224SOL     OW 1570   2.838   2.278   3.284
  224SOL    HW1 1571   2.814   2.317   3.373
  224SOL    HW2 1572   2.913   2.213   3.295
  225SOL     OW 1573   5.411   0.925   6.676
  225SOL    HW1 1574   5.376   0.873   6.598
  225SOL    HW2 1575   5.455   1.008   6.643
  226SOL     OW 1576   0.824   6.905   0.230
  226SOL    HW1 1577   0.738   6.886   0.184
  226SOL    HW2 1578   0.893   6.932   0.162
  227SOL     OW 1579   0.968   4.188   3.645
  227SOL    HW1 1580   0.896   4.184   3.576
  227SOL    HW2 1581   0.927   4.197   3.736
  228SOL     OW 1582   3.648   0.273   4.652
  228SOL    HW1 1583   3.557   0.232   4.662
  228SOL    HW2 1584   3.718   0.202   4.653
  229SOL     OW 1585   6.293   5.992   1.385
  229SOL    HW1 1586   6.233   6.010   1.307
  229SOL    HW2 1587   6.278   6.061   1.456
  230SOL     OW 1588   1.942   4.622   3.581
  230SOL    HW1 1589   1.955   4.659   3.673
  230SOL    HW2 1590   2.030   4.591   3.545
  231SOL     OW 1591   6.122   2.913   5.902
  231SOL    HW1 1592   6.194   2.858   5.858
  231SOL    HW2 1593   6.073   2.966   5.832
  232SOL     OW 1594   0.871   4.047   5.751
  232SOL    HW1 1595   0.930   4.111   5.801
  232SOL    HW2 1596   0.917   3.959   5.741
  233SOL     OW 1597   1.987   0.396   4.753
  233SOL    HW1 1598   1.918   0.324   4.743
  233SOL    HW2 1599   1.943   0.479   4.788
  234SOL     OW 1600   2.613   5.402   5.997
  234SOL    HW1 1601   2.520   5.373   6.020
  234SOL    HW2 1602   2.649   5.343   5.924
  235SOL     OW 1603   3.796   3.397   2.876
  235SOL    HW1 1604   3.766   3.439   2.791
  235SOL    HW2 1605   3.863   3.325   2.856
  236SOL     OW 1606   6.883   3.229   6.865
  236SOL    HW1 1607   6.789   3.209   6.835
  236SOL    HW2 1608   6.882   3.310   6.923
  237SOL     OW 1609   0.793   6.795   0.679
  237SOL    HW1 1610   0.823   6.871   0.738
  237SOL    HW2 1611   0.794   6.710   0.731
  238SOL     OW 1612   6.308   3.058   1.494
  238SOL    HW1 1613   6.284   2.997   1.419
  238SOL    HW2 1614   6.392   3.026   1.537
  239SOL     OW 1615   6.471   5.080   6.900
  239SOL    HW1 1616   6.435   4.987   6.897
  239SOL    HW2 1617   6.546   5.085   6.967
  240SOL     OW 1618   0.937   3.387   5.839
  240SOL    HW1 1619   1.019   3.331   5.826
  240SOL    HW2 1620   0.889   3.358   5.922
  241SOL     OW 1621   0.813   0.780   3.662
  241SOL    HW1 1622   0.903   0.808   3.628
  241SOL    HW2 1623   0.743   0.809   3.597
  242SOL     OW 1624   1.446   2.687   5.458
  242SOL    HW1 1625   1.501   2.769   5.474
  242SOL    HW2 1626   1.415   2.652   5.546
  243SOL     OW 1627   4.481   0.129   6.173
  243SOL    HW1 1628   4.420   0.184   6.116
  243SOL    HW2 1629   4.464   0.032   6.155
  244SOL     OW 1630   4.685   2.694   4.440
  244SOL    HW1 1631   4.598   2.650   4.418
  244SOL    HW2 1632   4.724   2.734   4.358
  245SOL     OW 1633   6.460   2.380   4.344
  245SOL    HW1 1634   6.382   2.318   4.348
  245SOL    HW2 1635   6.480   2.415   4.435
  246SOL     OW 1636   5.162   4.014   3.685
  246SOL    HW1 1637   5.191   4.108   3.668
  246SOL    HW2 1638   5.241   3.958   3.711
  247SOL     OW 1639   2.694   1.764   2.981
  247SOL    HW1 1640   2.783   1.721   2.968
  247SOL    HW2 1641   2.675   1.827   2.906
  248SOL     OW 1642   4.593   2.259   4.510
  248SOL    HW1 1643   4.551   2.169   4.518
  248SOL    HW2 1644   4.523   2.330   4.524
  249SOL     OW 1645   2.959   6.692   4.887
  249SOL    HW1 1646   2.908   6.618   4.844
  249SOL    HW2 1647   2.937   6.778   4.842
  250SOL     OW 1648   5.401   1.633   5.722
  250SOL    HW1 1649   5.350   1.681   5.650
  250SOL    HW2 1650   5.378   1.672   5.811
  251SOL     OW 1651   4.248   3.358   6.302
  251SOL    HW1 1652   4.152   3.387   6.294
  251SOL    HW2 1653   4.260   3.268   6.261
  252SOL     OW 1654   0.396   1.289   5.588
  252SOL    HW1 1655   0.366   1.383   5.571
  252SOL    HW2 1656   0.412   1.242   5.501
  253SOL     OW 1657   1.849   3.816   0.797
  253SOL    HW1 1658   1.888   3.884   0.858
  253SOL    HW2 1659   1.819   3.860   0.712
  254SOL     OW 1660   6.067   2.478   4.235
  254SOL    HW1 1661   6.047   2.384   4.265
  254SOL    HW2 1662   6.057   2.540   4.312
  255SOL     OW 1663   3.267   1.667   4.136
  255SOL    HW1 1664   3.329   1.653   4.213
  255SOL    HW2 1665   3.231   1.760   4.138
  256SOL     OW 1666   6.671   5.138   0.095
  256SOL    HW1 1667   6.714   5.228   0.104
  256SOL    HW2 1668   6.735   5.076   0.048
  257SOL     OW 1669   3.164   5.473   5.641
  257SOL    HW1 1670   3.217   5.489   5.558
  257SOL    HW2 1671   3.130   5.561   5.676
  258SOL     OW 1672   4.967   4.420   5.025
  258SOL    HW1 1673   4.915   4.475   4.960
  258SOL    HW2 1674   4.939   4.324   5.018
  259SOL     OW 1675   1.445   2.720   2.381
  259SOL    HW1 1676   1.539   2.752   2.370
  259SOL    HW2 1677   1.403   2.767   2.457
  260SOL     OW 1678   4.905   0.087   0.085
  260SOL    HW1 1679   4.839   0.130   0.023
  260SOL    HW2 1680   4.867   0.087   0.178
  261SOL     OW 1681   0.798   3.261   1.590
  261SOL    HW1 1682   0.861   3.193   1.553
  261SOL    HW2 1683   0.850   3.334   1.634
  262SOL     OW 1684   1.035   3.461   2.434
  262SOL    HW1 1685   0.989   3.454   2.522
  262SOL    HW2 1686   0.971   3.498   2.366
  263SOL     OW 1687   0.354   2.113   4.482
  263SOL    HW1 1688   0.368   2.181   4.410
  263SOL    HW2 1689   0.257   2.110   4.506
  264SOL     OW 1690   0.500   3.434   5.499
  264SOL    HW1 1691   0.423   3.449   5.561
  264SOL    HW2 1692   0.485   3.350   5.447
  265SOL     OW 1693   4.634   4.376   4.088
  265SOL    HW1 1694   4.617   4.472   4.067
  265SOL    HW2 1695   4.557   4.320   4.058
  266SOL     OW 1696   3.555   1.919   6.963
  266SOL    HW1 1697   3.598   1.989   0.002
  266SOL    HW2 1698   3.470   1.888   7.006
  267SOL     OW 1699   1.886   2.603   0.405
  267SOL    HW1 1700   1.884   2.540   0.328
  267SOL    HW2 1701   1.801   2.593   0.459
  268SOL     OW 1702   4.591   4.571   4.679
  268SOL    HW1 1703   4.669   4.633   4.671
  268SOL    HW2 1704   4.599   4.517   4.762
  269SOL     OW 1705   1.675   1.870   6.591
  269SOL    HW1 1706   1.743   1.800   6.610
  269SOL    HW2 1707   1.682   1.943   6.659
  270SOL     OW 1708   5.354   1.214   2.262
  270SOL    HW1 1709   5.272   1.258   2.226
  270SOL    HW2 1710   5.328   1.131   2.312
  271SOL     OW 1711   2.209   1.088   1.007
  271SOL    HW1 1712   2.274   1.093   0.931
  271SOL    HW2 1713   2.207   0.994   1.042
  272SOL     OW 1714   3.930   5.353   4.379
  272SOL    HW1 1715   3.991   5.431   4.395
  272SOL    HW2 1716   3.905   5.312   4.467
  273SOL     OW 1717   1.167   5.394   5.298
  273SOL    HW1 1718   1.210   5.464   5.241
  273SOL    HW2 1719   1.070   5.415   5.309
  274SOL     OW 1720   5.014   3.041   3.288
  274SOL    HW1 1721   4.935   3.004   3.240
  274SOL    HW2 1722   5.098   3.013   3.241
  275SOL     OW 1723   0.255   5.685   6.416
  275SOL    HW1 1724   0.218   5.593   6.401
  275SOL    HW2 1725   0.225   5.746   6.344
  276SOL     OW 1726   6.879   5.470   4.073
  276SOL    HW1 1727   6.934   5.388   4.085
  276SOL    HW2 1728   6.798   5.449   4.018
  277SOL     OW 1729   3.004   0.847   5.648
  277SOL    HW1 1730   3.029   0.751   5.654
  277SOL    HW2 1731   3.074   0.903   5.693
  278SOL     OW 1732   5.134   4.512   2.854
  278SOL    HW1 1733   5.074   4.438   2.824
  278SOL    HW2 1734   5.082   4.579   2.906
  279SOL     OW 1735   6.568   3.219   4.134
  279SOL    HW1 1736   6.662   3.206   4.102
  279SOL    HW2 1737   6.511   3.142   4.106
  280SOL     OW 1738   4.544   6.367   3.613
  280SOL    HW1 1739   4.595   6.330   3.691
  280SOL    HW2 1740   4.514   6.293   3.554
  281SOL     OW 1741   3.711   5.483   3.972
  281SOL    HW1 1742   3.754   5.416   3.912
  281SOL    HW2 1743   3.701   5.570   3.924
  282SOL     OW 1744   4.076   1.387   5.987
  282SOL    HW1 1745   4.000   1.339   5.944
  282SOL    HW2 1746   4.040   1.450   6.057
  283SOL     OW 1747   5.903   0.131   5.237
  283SOL    HW1 1748   5.883   0.167   5.146
  283SOL    HW2 1749   5.893   0.204   5.305
  284SOL     OW 1750   0.665   4.684   4.308
  284SOL    HW1 1751   0.671   4.769   4.257
  284SOL    HW2 1752   0.588   4.687   4.372
  285SOL     OW 1753   5.962   6.872   0.122
  285SOL    HW1 1754   5.888   6.933   0.096
  285SOL    HW2 1755   5.924   6.790   0.165
  286SOL     OW 1756   3.513   5.211   5.202
  286SOL    HW1 1757   3.438   5.211   5.268
  286SOL    HW2 1758   3.494   5.143   5.131
  287SOL     OW 1759   1.565   5.913   6.363
  287SOL    HW1 1760   1.469   5.941   6.371
  287SOL    HW2 1761   1.623   5.982   6.407
  288SOL     OW 1762   4.244   0.686   1.362
  288SOL    HW1 1763   4.203   0.608   1.314
  288SOL    HW2 1764   4.256   0.662   1.459
  289SOL     OW 1765   1.208   5.227   5.653
  289SOL    HW1 1766   1.140   5.198   5.586
  289SOL    HW2 1767   1.254   5.310   5.620
  290SOL     OW 1768   3.995   0.338   3.312
  290SOL    HW1 1769   3.926   0.297   3.252
  290SOL    HW2 1770   4.085   0.299   3.290
  291SOL     OW 1771   3.960   0.816   4.249
  291SOL    HW1 1772   4.000   0.844   4.162
  291SOL    HW2 1773   3.965   0.717   4.259
  292SOL     OW 1774   3.840   0.453   4.093
  292SOL    HW1 1775   3.886   0.499   4.169
  292SOL    HW2 1776   3.839   0.354   4.111
  293SOL     OW 1777   4.297   6.311   2.749
  293SOL    HW1 1778   4.239   6.233   2.725
  293SOL    HW2 1779   4.271   6.345   2.840
  294SOL     OW 1780   5.814   6.488   5.744
  294SOL    HW1 1781   5.896   6.509   5.798
  294SOL    HW2 1782   5.733   6.521   5.793
  295SOL     OW 1783   1.148   2.675   5.240
  295SOL    HW1 1784   1.242   2.658   5.209
  295SOL    HW2 1785   1.141   2.770   5.272
  296SOL     OW 1786   6.076   1.543   1.196
  296SOL    HW1 1787   6.135   1.525   1.117
  296SOL    HW2 1788   6.051   1.640   1.197
  297SOL     OW 1789   5.193   5.457   3.615
  297SOL    HW1 1790   5.102   5.445   3.654
  297SOL    HW2 1791   5.204   5.552   3.585
  298SOL     OW 1792   4.628   0.847   1.155
  298SOL    HW1 1793   4.529   0.855   1.145
  298SOL    HW2 1794   4.650   0.817   1.248
  299SOL     OW 1795   3.293   1.900   0.553
  299SOL    HW1 1796   3.305   1.883   0.455
  299SOL    HW2 1797   3.225   1.973   0.566
  300SOL     OW 1798   3.132   1.210   2.278
  300SOL    HW1 1799   3.178   1.122   2.292
  300SOL    HW2 1800   3.038   1.195   2.248
  301SOL     OW 1801   5.051   6.630   1.532
  301SOL    HW1 1802   5.043   6.541   1.488
  301SOL    HW2 1803   4.961   6.671   1.542
  302SOL     OW 1804   0.029   6.751   1.662
  302SOL    HW1 1805   6.994   6.682   1.613
  302SOL    HW2 1806   0.107   6.779   1.605
  303SOL     OW 1807   5.831   5.986   2.089
  303SOL    HW1 1808   5.739   5.960   2.060
  303SOL    HW2 1809   5.833   5.994   2.189
  304SOL     OW 1810   1.413   0.158   5.541
  304SOL    HW1 1811   1.444   0.224   5.472
  304SOL    HW2 1812   1.455   0.069   5.524
  305SOL     OW 1813   1.462   3.112   1.209
  305SOL    HW1 1814   1.496   3.022   1.185
  305SOL    HW2 1815   1.532   3.181   1.192
  306SOL     OW 1816   0.528   1.220   2.189
  306SOL    HW1 1817   0.477   1.305   2.173
  306SOL    HW2 1818   0.588   1.232   2.268
  307SOL     OW 1819   3.223   3.871   0.810
  307SOL    HW1 1820   3.313   3.826   0.812
  307SOL    HW2 1821   3.155   3.811   0.852
  308SOL     OW 1822   5.511   2.624   4.690
  308SOL    HW1 1823   5.446   2.698   4.708
  308SOL    HW2 1824   5.546   2.633   4.596
  309SOL     OW 1825   0.945   6.558   6.770
  309SOL    HW1 1826   0.945   6.641   6.713
  309SOL    HW2 1827   0.857   6.549   6.815
  310SOL     OW 1828   5.937   6.577   4.235
  310SOL    HW1 1829   5.986   6.532   4.160
  310SOL    HW2 1830   5.942   6.520   4.317
  311SOL     OW 1831   2.351   4.982   2.296
  311SOL    HW1 1832   2.418   5.052   2.273
  311SOL    HW2 1833   2.330   4.987   2.394
  312SOL     OW 1834   4.528   2.559   3.811
  312SOL    HW1 1835   4.513   2.512   3.724
  312SOL    HW2 1836   4.443   2.602   3.841
  313SOL     OW 1837   3.441   3.803   2.338
  313SOL    HW1 1838   3.466   3.762   2.250
  313SOL    HW2 1839   3.381   3.882   2.322
  314SOL     OW 1840   1.734   5.556   5.536
  314SOL    HW1 1841   1.809   5.586   5.476
  314SOL    HW2 1842   1.762   5.564   5.631
  315SOL     OW 1843   0.200   1.307   2.994
  315SOL    HW1 1844   0.167   1.388   3.041
  315SOL    HW2 1845   0.256   1.334   2.916
  316SOL     OW 1846   4.568   1.745   4.839
  316SOL    HW1 1847   4.497   1.749   4.769
  316SOL    HW2 1848   4.653   1.780   4.802
  317SOL     OW 1849   1.499   1.607   2.038
  317SOL    HW1 1850   1.461   1.569   1.954
  317SOL    HW2 1851   1.426   1.648   2.092
  318SOL     OW 1852   6.673   0.038   6.285
  318SOL    HW1 1853   6.710   6.964   6.278
  318SOL    HW2 1854   6.631   0.051   6.375
  319SOL     OW 1855   6.995   2.354   3.134
  319SOL    HW1 1856   6.967   2.283   3.070
  319SOL    HW2 1857   0.074   2.375   3.120
  320SOL     OW 1858   6.047   2.398   0.100
  320SOL    HW1 1859   5.956   2.423   0.066
  320SOL    HW2 1860   6.047   2.301   0.126
  321SOL     OW 1861   3.549   3.026   0.261
  321SOL    HW1 1862   3.522   2.963   0.334
  321SOL    HW2 1863   3.649   3.022   0.250
  322SOL     OW 1864   3.899   3.001   4.897
  322SOL    HW1 1865   3.805   2.969   4.884
  322SOL    HW2 1866   3.942   3.017   4.809
  323SOL     OW 1867   1.059   2.553   3.874
  323SOL    HW1 1868   1.021   2.465   3.845
  323SOL    HW2 1869   1.021   2.579   3.963
  324SOL     OW 1870   2.344   6.725   3.482
  324SOL    HW1 1871   2.246   6.731   3.500
  324SOL    HW2 1872   2.379   6.815   3.456
  325SOL     OW 1873   1.572   3.612   2.770
  325SOL    HW1 1874   1.535   3.681   2.707
  325SOL    HW2 1875   1.669   3.630   2.786
  326SOL     OW 1876   1.782   3.993   5.883
  326SOL    HW1 1877   1.880   4.008   5.878
  326SOL    HW2 1878   1.746   4.034   5.967
  327SOL     OW 1879   2.664   4.671   2.349
  327SOL    HW1 1880   2.620   4.680   2.260
  327SOL    HW2 1881   2.761   4.648   2.337
  328SOL     OW 1882   2.223   4.612   1.530
  328SOL    HW1 1883   2.236   4.519   1.563
  328SOL    HW2 1884   2.281   4.629   1.451
  329SOL     OW 1885   2.839   3.760   6.613
  329SOL    HW1 1886   2.931   3.747   6.576
  329SOL    HW2 1887   2.846   3.798   6.705
  330SOL     OW 1888   3.954   5.970   0.161
  330SOL    HW1 1889   3.866   6.014   0.178
  330SOL    HW2 1890   4.002   6.019   0.089
  331SOL     OW 1891   5.333   4.756   0.867
  331SOL    HW1 1892   5.340   4.684   0.798
  331SOL    HW2 1893   5.404   4.825   0.852
  332SOL     OW 1894   5.678   2.212   3.589
  332SOL    HW1 1895   5.734   2.144   3.542
  332SOL    HW2 1896   5.606   2.244   3.528
  333SOL     OW 1897   4.150   0.701   5.296
  333SOL    HW1 1898   4.144   0.783   5.353
  333SOL    HW2 1899   4.192   0.627   5.350
  334SOL     OW 1900   3.754   2.986   1.415
  334SOL    HW1 1901   3.770   2.894   1.379
  334SOL    HW2 1902   3.655   3.000   1.427
  335SOL     OW 1903   4.482   0.340   6.635
  335SOL    HW1 1904   4.416   0.380   6.698
  335SOL    HW2 1905   4.479   0.240   6.643
  336SOL     OW 1906   2.883   1.898   2.709
  336SOL    HW1 1907   2.829   1.865   2.631
  336SOL    HW2 1908   2.823   1.944   2.774
  337SOL     OW 1909   1.441   2.543   5.963
  337SOL    HW1 1910   1.416   2.596   6.044
  337SOL    HW2 1911   1.452   2.447   5.989
  338SOL     OW 1912   3.737   3.652   0.680
  338SOL    HW1 1913   3.790   3.568   0.692
  338SOL    HW2 1914   3.796   3.731   0.696
  339SOL     OW 1915   4.235   4.973   4.423
  339SOL    HW1 1916   4.182   5.034   4.482
  339SOL    HW2 1917   4.259   4.890   4.474
  340SOL     OW 1918   5.021   3.511   5.108
  340SOL    HW1 1919   5.077   3.475   5.035
  340SOL    HW2 1920   4.944   3.562   5.069
  341SOL     OW 1921   5.758   5.844   4.723
  341SOL    HW1 1922   5.827   5.877   4.659
  341SOL    HW2 1923   5.700   5.775   4.679
  342SOL     OW 1924   4.786   3.258   1.036
  342SOL    HW1 1925   4.829   3.195   1.101
  342SOL    HW2 1926   4.690   3.234   1.025
  343SOL     OW 1927   6.979   6.378   2.229
  343SOL    HW1 1928   6.971   6.470   2.270
  343SOL    HW2 1929   6.987   6.310   2.302
  344SOL     OW 1930   1.099   2.129   1.882
  344SOL    HW1 1931   1.115   2.222   1.850
  344SOL    HW2 1932   1.185   2.090   1.914
  345SOL     OW 1933   6.410   1.987   4.010
  345SOL    HW1 1934   6.315   2.002   4.038
  345SOL    HW2 1935   6.432   2.047   3.933
  346SOL     OW 1936   1.802   0.325   2.397
  346SOL    HW1 1937   1.804   0.243   2.455
  346SOL    HW2 1938   1.711   0.365   2.399
  347SOL     OW 1939   2.751   5.890   6.963
  347SOL    HW1 1940   2.692   5.871   6.885
  347SOL    HW2 1941   2.774   5.987   6.964
  348SOL     OW 1942   4.854   5.296   3.159
  348SOL    HW1 1943   4.940   5.244   3.156
  348SOL    HW2 1944   4.797   5.262   3.234
  349SOL     OW 1945   6.999   4.210   2.465
  349SOL    HW1 1946   0.007   4.291   2.412
  349SOL    HW2 1947   6.990   4.235   2.561
  350SOL     OW 1948   2.786   3.056   0.237
  350SOL    HW1 1949   2.810   3.127   0.171
  350SOL    HW2 1950   2.714   3.089   0.297
  351SOL     OW 1951   2.871   3.350   0.459
  351SOL    HW1 1952   2.937   3.274   0.458
  351SOL    HW2 1953   2.882   3.403   0.544
  352SOL     OW 1954   3.560   6.397   3.860
  352SOL    HW1 1955   3.536   6.453   3.781
  352SOL    HW2 1956   3.657   6.409   3.880
  353SOL     OW 1957   3.212   0.480   6.517
  353SOL    HW1 1958   3.253   0.400   6.561
  353SOL    HW2 1959   3.223   0.560   6.576
  354SOL     OW 1960   4.813   2.769   0.553
  354SOL    HW1 1961   4.740   2.838   0.565
  354SOL    HW2 1962   4.772   2.678   0.548
  355SOL     OW 1963   1.862   3.496   2.356
  355SOL    HW1 1964   1.772   3.538   2.362
  355SOL    HW2 1965   1.862   3.410   2.407
  356SOL     OW 1966   2.136   0.894   4.415
  356SOL    HW1 1967   2.099   0.857   4.329
  356SOL    HW2 1968   2.235   0.904   4.407
  357SOL     OW 1969   0.465   6.013   4.540
  357SOL    HW1 1970   0.495   5.993   4.447
  357SOL    HW2 1971   0.531   5.976   4.606
  358SOL     OW 1972   4.919   6.480   0.803
  358SOL    HW1 1973   4.995   6.512   0.859
  358SOL    HW2 1974   4.832   6.507   0.846
  359SOL     OW 1975   3.084   0.776   1.821
  359SOL    HW1 1976   3.044   0.783   1.730
  359SOL    HW2 1977   3.132   0.689   1.830
  360SOL     OW 1978   1.319   4.322   4.221
  360SOL    HW1 1979   1.311   4.276   4.309
  360SOL    HW2 1980   1.338   4.254   4.150
  361SOL     OW 1981   6.978   6.105   2.753
  361SOL    HW1 1982   6.945   6.198   2.739
  361SOL    HW2 1983   0.055   6.107   2.783
  362SOL     OW 1984   3.492   3.722   0.773
  362SOL    HW1 1985   3.518   3.778   0.852
  362SOL    HW2 1986   3.574   3.684   0.731
  363SOL     OW 1987   6.202   4.837   2.945
  363SOL    HW1 1988   6.205   4.934   2.971
  363SOL    HW2 1989   6.114   4.798   2.971
  364SOL     OW 1990   0.310   5.091   6.344
  364SOL    HW1 1991   0.212   5.089   6.323
  364SOL    HW2 1992   0.361   5.059   6.265
  365SOL     OW 1993   4.384   1.204   1.368
  365SOL    HW1 1994   4.405   1.260   1.288
  365SOL    HW2 1995   4.461   1.143   1.387
  366SOL     OW 1996   5.401   2.542   0.183
  366SOL    HW1 1997   5.388   2.497   0.271
  366SOL    HW2 1998   5.315   2.585   0.154
  367SOL     OW 1999   6.133   2.529   6.647
  367SOL    HW1 2000   6.163   2.450   6.702
  367SOL    HW2 2001   6.193   2.607   6.665
  368SOL     OW 2002   6.763   2.514   5.493
  368SOL    HW1 2003   6.729   2.439   5.550
  368SOL    HW2 2004   6.862   2.504   5.481
  369SOL     OW 2005   5.811   4.539   2.888
  369SOL    HW1 2006   5.775   4.480   2.816
  369SOL    HW2 2007   5.757   4.526   2.971
  370SOL     OW 2008   0.838   1.969   3.952
  370SOL    HW1 2009   0.898   1.994   4.028
  370SOL    HW2 2010   0.890   1.972   3.866
  371SOL     OW 2011   2.132   4.221   6.819
  371SOL    HW1 2012   2.154   4.295   6.754
  371SOL    HW2 2013   2.083   4.259   6.897
  372SOL     OW 2014   1.697   0.009   5.262
  372SOL    HW1 2015   1.687   6.972   5.345
  372SOL    HW2 2016   1.777   0.068   5.272
  373SOL     OW 2017   5.321   6.003   5.221
  373SOL    HW1 2018   5.288   6.098   5.222
  373SOL    HW2 2019   5.270   5.950   5.289
  374SOL     OW 2020   2.583   2.191   3.204
  374SOL    HW1 2021   2.659   2.252   3.225
  374SOL    HW2 2022   2.619   2.106   3.165
  375SOL     OW 2023   0.943   4.644   4.404
  375SOL    HW1 2024   0.974   4.686   4.489
  375SOL    HW2 2025   0.851   4.678   4.383
  376SOL     OW 2026   1.458   2.052   5.163
  376SOL    HW1 2027   1.482   2.146   5.185
  376SOL    HW2 2028   1.361   2.046   5.143
  377SOL     OW 2029   1.964   2.411   0.026
  377SOL    HW1 2030   1.884   2.459   7.007
  377SOL    HW2 2031   1.947   2.313   0.027
  378SOL     OW 2032   3.809   1.611   0.112
  378SOL    HW1 2033   3.832   1.666   0.032
  378SOL    HW2 2034   3.744   1.660   0.170
  379SOL     OW 2035   5.131   2.729   6.876
  379SOL    HW1 2036   5.067   2.805   6.865
  379SOL    HW2 2037   5.080   2.643   6.877
  380SOL     OW 2038   3.412   1.303   1.329
  380SOL    HW1 2039   3.445   1.380   1.274
  380SOL    HW2 2040   3.486   1.269   1.387
  381SOL     OW 2041   1.480   3.895   4.045
  381SOL    HW1 2042   1.577   3.879   4.028
  381SOL    HW2 2043   1.435   3.807   4.061
  382SOL     OW 2044   5.477   0.640   0.023
  382SOL    HW1 2045   5.504   0.548   7.014
  382SOL    HW2 2046   5.497   0.704   6.967
  383SOL     OW 2047   4.262   3.611   0.640
  383SOL    HW1 2048   4.350   3.640   0.602
  383SOL    HW2 2049   4.273   3.584   0.735
  384SOL     OW 2050   7.003   5.236   4.494
  384SOL    HW1 2051   6.980   5.263   4.588
  384SOL    HW2 2052   6.946   5.289   4.430
  385SOL     OW 2053   3.181   5.680   5.939
  385SOL    HW1 2054   3.111   5.681   6.010
  385SOL    HW2 2055   3.142   5.712   5.853
  386SOL     OW 2056   3.541   0.485   4.380
  386SOL    HW1 2057   3.629   0.476   4.427
  386SOL    HW2 2058   3.547   0.441   4.290
  387SOL     OW 2059   0.942   5.723   2.136
  387SOL    HW1 2060   1.021   5.707   2.194
  387SOL    HW2 2061   0.959   5.803   2.077
  388SOL     OW 2062   2.014   2.245   6.605
  388SOL    HW1 2063   2.077   2.281   6.536
  388SOL    HW2 2064   2.035   2.149   6.622
  389SOL     OW 2065   3.322   3.381   1.975
  389SOL    HW1 2066   3.345   3.345   1.885
  389SOL    HW2 2067   3.350   3.316   2.045
  390SOL     OW 2068   3.222   0.826   3.511
  390SOL    HW1 2069   3.212   0.799   3.607
  390SOL    HW2 2070   3.139   0.874   3.482
  391SOL     OW 2071   2.321   2.331   6.232
  391SOL    HW1 2072   2.322   2.238   6.267
  391SOL    HW2 2073   2.246   2.341   6.165
  392SOL     OW 2074   1.397   4.085   0.213
  392SOL    HW1 2075   1.486   4.114   0.180
  392SOL    HW2 2076   1.339   4.165   0.227
  393SOL     OW 2077   0.335   4.740   5.857
  393SOL    HW1 2078   0.252   4.725   5.911
  393SOL    HW2 2079   0.321   4.707   5.764
  394SOL     OW 2080   0.371   0.752   6.752
  394SOL    HW1 2081   0.341   0.842   6.719
  394SOL    HW2 2082   0.386   0.757   6.851
  395SOL     OW 2083   5.038   4.010   3.085
  395SOL    HW1 2084   5.070   3.927   3.039
  395SOL    HW2 2085   5.102   4.085   3.068
  396SOL     OW 2086   4.088   3.970   1.757
  396SOL    HW1 2087   4.045   3.882   1.778
  396SOL    HW2 2088   4.062   3.999   1.665
  397SOL     OW 2089   4.106   2.386   5.634
  397SOL    HW1 2090   4.154   2.336   5.706
  397SOL    HW2 2091   4.011   2.355   5.630
  398SOL     OW 2092   0.789   6.450   2.578
  398SOL    HW1 2093   0.790   6.457   2.478
  398SOL    HW2 2094   0.846   6.373   2.607
  399SOL     OW 2095   4.876   6.635   2.984
  399SOL    HW1 2096   4.960   6.586   2.961
  399SOL    HW2 2097   4.898   6.731   3.002
  400SOL     OW 2098   6.051   6.439   5.201
  400SOL    HW1 2099   5.958   6.418   5.233
  400SOL    HW2 2100   6.046   6.498   5.120
  401SOL     OW 2101   4.979   0.864   5.228
  401SOL    HW1 2102   4.960   0.923   5.307
  401SOL    HW2 2103   4.913   0.788   5.227
  402SOL     OW 2104   6.268   0.314   3.237
  402SOL    HW1 2105   6.219   0.244   3.289
  402SOL    HW2 2106   6.331   0.270   3.173
  403SOL     OW 2107   4.381   2.171   4.981
  403SOL    HW1 2108   4.322   2.244   4.945
  403SOL    HW2 2109   4.443   2.209   5.049
  404SOL     OW 2110   1.635   6.090   4.173
  404SOL    HW1 2111   1.591   6.032   4.104
  404SOL    HW2 2112   1.721   6.126   4.136
  405SOL     OW 2113   1.552   3.905   1.956
  405SOL    HW1 2114   1.587   3.928   2.046
  405SOL    HW2 2115   1.576   3.977   1.891
  406SOL     OW 2116   0.719   3.952   4.048
  406SOL    HW1 2117   0.812   3.984   4.068
  406SOL    HW2 2118   0.655   3.994   4.112
  407SOL     OW 2119   1.813   0.332   3.691
  407SOL    HW1 2120   1.808   0.357   3.594
  407SOL    HW2 2121   1.898   0.282   3.708
  408SOL     OW 2122   0.880   1.688   3.244
  408SOL    HW1 2123   0.787   1.652   3.232
  408SOL    HW2 2124   0.875   1.785   3.267
  409SOL     OW 2125   6.152   2.526   1.209
  409SOL    HW1 2126   6.109   2.529   1.119
  409SOL    HW2 2127   6.235   2.581   1.207
  410SOL     OW 2128   1.778   0.358   0.104
  410SOL    HW1 2129   1.686   0.319   0.097
  410SOL    HW2 2130   1.797   0.382   0.199
  411SOL     OW 2131   5.506   6.674   6.514
  411SOL    HW1 2132   5.606   6.674   6.505
  411SOL    HW2 2133   5.469   6.593   6.470
  412SOL     OW 2134   5.368   6.561   3.627
  412SOL    HW1 2135   5.351   6.468   3.595
  412SOL    HW2 2136   5.376   6.561   3.727
  413SOL     OW 2137   5.355   5.497   1.601
  413SOL    HW1 2138   5.260   5.500   1.632
  413SOL    HW2 2139   5.413   5.459   1.673
  414SOL     OW 2140   3.729   4.941   3.796
  414SOL    HW1 2141   3.654   4.914   3.856
  414SOL    HW2 2142   3.816   4.926   3.843
  415SOL     OW 2143   1.134   5.965   6.661
  415SOL    HW1 2144   1.143   5.995   6.566
  415SOL    HW2 2145   1.037   5.955   6.684
  416SOL     OW 2146   5.061   5.455   4.172
  416SOL    HW1 2147   5.130   5.505   4.119
  416SOL    HW2 2148   5.106   5.405   4.246
  417SOL     OW 2149   2.192   4.980   0.719
  417SOL    HW1 2150   2.170   5.024   0.806
  417SOL    HW2 2151   2.290   4.961   0.716
  418SOL     OW 2152   4.506   6.057   2.073
  418SOL    HW1 2153   4.523   6.148   2.034
  418SOL    HW2 2154   4.478   5.995   2.000
  419SOL     OW 2155   1.676   6.957   0.894
  419SOL    HW1 2156   1.597   6.900   0.913
  419SOL    HW2 2157   1.706   6.943   0.800
  420SOL     OW 2158   6.171   2.067   0.718
  420SOL    HW1 2159   6.200   1.983   0.764
  420SOL    HW2 2160   6.100   2.045   0.651
  421SOL     OW 2161   0.127   5.022   5.828
  421SOL    HW1 2162   0.087   5.107   5.793
  421SOL    HW2 2163   0.224   5.018   5.804
  422SOL     OW 2164   5.241   4.635   0.511
  422SOL    HW1 2165   5.282   4.591   0.431
  422SOL    HW2 2166   5.146   4.607   0.520
  423SOL     OW 2167   0.755   2.783   0.197
  423SOL    HW1 2168   0.809   2.701   0.218
  423SOL    HW2 2169   0.795   2.862   0.243
  424SOL     OW 2170   2.698   3.332   1.335
  424SOL    HW1 2171   2.765   3.406   1.328
  424SOL    HW2 2172   2.744   3.246   1.352
  425SOL     OW 2173   5.818   1.048   1.937
  425SOL    HW1 2174   5.828   1.135   1.889
  425SOL    HW2 2175   5.729   1.045   1.982
  426SOL     OW 2176   4.680   2.748   3.946
  426SOL    HW1 2177   4.625   2.695   3.881
  426SOL    HW2 2178   4.739   2.811   3.895
  427SOL     OW 2179   5.240   5.147   2.724
  427SOL    HW1 2180   5.263   5.120   2.817
  427SOL    HW2 2181   5.162   5.094   2.691
  428SOL     OW 2182   4.130   0.488   4.626
  428SOL    HW1 2183   4.222   0.475   4.662
  428SOL    HW2 2184   4.114   0.585   4.607
  429SOL     OW 2185   2.672   3.817   0.735
  429SOL    HW1 2186   2.575   3.791   0.738
  429SOL    HW2 2187   2.683   3.906   0.779
  430SOL     OW 2188   6.826   0.246   4.128
  430SOL    HW1 2189   6.782   0.249   4.038
  430SOL    HW2 2190   6.830   0.152   4.160
  431SOL     OW 2191   3.976   6.768   0.566
  431SOL    HW1 2192   4.055   6.709   0.584
  431SOL    HW2 2193   3.913   6.721   0.504
  432SOL     OW 2194   6.660   1.614   1.577
  432SOL    HW1 2195   6.579   1.569   1.614
  432SOL    HW2 2196   6.643   1.642   1.483
  433SOL     OW 2197   3.360   6.533   4.463
  433SOL    HW1 2198   3.347   6.521   4.365
  433SOL    HW2 2199   3.271   6.542   4.508
  434SOL     OW 2200   3.588   5.986   2.085
  434SOL    HW1 2201   3.685   6.006   2.073
  434SOL    HW2 2202   3.570   5.961   2.180
  435SOL     OW 2203   5.249   2.331   5.456
  435SOL    HW1 2204   5.272   2.247   5.504
  435SOL    HW2 2205   5.283   2.410   5.507
  436SOL     OW 2206   3.230   6.124   0.968
  436SOL    HW1 2207   3.281   6.162   0.891
  436SOL    HW2 2208   3.294   6.093   1.038
  437SOL     OW 2209   0.946   0.077   6.532
  437SOL    HW1 2210   0.890   0.040   6.459
  437SOL    HW2 2211   0.967   0.173   6.513
  438SOL     OW 2212   2.153   3.280   2.311
  438SOL    HW1 2213   2.160   3.181   2.302
  438SOL    HW2 2214   2.126   3.303   2.404
  439SOL     OW 2215   5.675   4.376   3.388
  439SOL    HW1 2216   5.731   4.457   3.405
  439SOL    HW2 2217   5.734   4.297   3.375
  440SOL     OW 2218   1.286   1.341   5.131
  440SOL    HW1 2219   1.233   1.421   5.159
  440SOL    HW2 2220   1.252   1.261   5.180
  441SOL     OW 2221   1.425   2.597   3.640
  441SOL    HW1 2222   1.428   2.502   3.609
  441SOL    HW2 2223   1.331   2.630   3.635
  442SOL     OW 2224   2.840   5.272   6.374
  442SOL    HW1 2225   2.858   5.196   6.313
  442SOL    HW2 2226   2.848   5.241   6.469
  443SOL     OW 2227   6.407   4.160   4.426
  443SOL    HW1 2228   6.426   4.089   4.493
  443SOL    HW2 2229   6.319   4.203   4.446
  444SOL     OW 2230   5.353   1.775   5.971
  444SOL    HW1 2231   5.259   1.806   5.954
  444SOL    HW2 2232   5.396   1.837   6.037
  445SOL     OW 2233   1.069   5.476   2.922
  445SOL    HW1 2234   0.972   5.451   2.925
  445SOL    HW2 2235   1.100   5.475   2.827
  446SOL     OW 2236   4.141   4.788   3.559
  446SOL    HW1 2237   4.170   4.738   3.477
  446SOL    HW2 2238   4.163   4.734   3.640
  447SOL     OW 2239   0.855   2.586   6.539
  447SOL    HW1 2240   0.883   2.665   6.485
  447SOL    HW2 2241   0.769   2.606   6.586
  448SOL     OW 2242   3.131   0.641   4.167
  448SOL    HW1 2243   3.094   0.585   4.242
  448SOL    HW2 2244   3.085   0.730   4.167
  449SOL     OW 2245   4.440   0.934   4.557
  449SOL    HW1 2246   4.520   0.905   4.505
  449SOL    HW2 2247   4.424   1.031   4.541
  450SOL     OW 2248   1.232   5.623   3.683
  450SOL    HW1 2249   1.173   5.677   3.623
  450SOL    HW2 2250   1.322   5.612   3.640
  451SOL     OW 2251   2.153   1.770   3.682
  451SOL    HW1 2252   2.192   1.853   3.643
  451SOL    HW2 2253   2.169   1.769   3.781
  452SOL     OW 2254   6.473   6.678   1.177
  452SOL    HW1 2255   6.420   6.624   1.111
  452SOL    HW2 2256   6.514   6.616   1.244
  453SOL     OW 2257   3.904   0.925   5.004
  453SOL    HW1 2258   3.881   0.855   5.073
  453SOL    HW2 2259   3.869   1.014   5.034
  454SOL     OW 2260   6.775   4.787   6.209
  454SOL    HW1 2261   6.820   4.785   6.120
  454SOL    HW2 2262   6.678   4.807   6.198
  455SOL     OW 2263   6.106   2.741   3.034
  455SOL    HW1 2264   6.079   2.682   3.111
  455SOL    HW2 2265   6.173   2.808   3.066
  456SOL     OW 2266   5.613   6.390   4.214
  456SOL    HW1 2267   5.676   6.468   4.210
  456SOL    HW2 2268   5.530   6.417   4.262
  457SOL     OW 2269   1.802   3.341   3.765
  457SOL    HW1 2270   1.814   3.307   3.672
  457SOL    HW2 2271   1.745   3.423   3.765
  458SOL     OW 2272   4.274   5.759   3.530
  458SOL    HW1 2273   4.182   5.781   3.500
  458SOL    HW2 2274   4.275   5.669   3.573
  459SOL     OW 2275   1.939   0.147   5.305
  459SOL    HW1 2276   2.010   0.114   5.368
  459SOL    HW2 2277   1.885   0.218   5.350
  460SOL     OW 2278   1.577   0.410   3.807
  460SOL    HW1 2279   1.651   0.367   3.756
  460SOL    HW2 2280   1.608   0.497   3.845
  461SOL     OW 2281   5.796   6.954   5.812
  461SOL    HW1 2282   5.780   0.030   5.842
  461SOL    HW2 2283   5.890   6.944   5.782
  462SOL     OW 2284   3.421   2.898   6.300
  462SOL    HW1 2285   3.414   2.981   6.356
  462SOL    HW2 2286   3.408   2.922   6.204
  463SOL     OW 2287   6.570   5.859   2.960
  463SOL    HW1 2288   6.492   5.869   2.899
  463SOL    HW2 2289   6.640   5.926   2.937
  464SOL     OW 2290   2.158   2.402   5.294
  464SOL    HW1 2291   2.258   2.398   5.283
  464SOL    HW2 2292   2.135   2.474   5.360
  465SOL     OW 2293   0.771   2.471   5.466
  465SOL    HW1 2294   0.847   2.523   5.505
  465SOL    HW2 2295   0.717   2.530   5.407
  466SOL     OW 2296   1.025   5.636   3.298
  466SOL    HW1 2297   0.939   5.614   3.343
  466SOL    HW2 2298   1.008   5.672   3.206
  467SOL     OW 2299   1.723   1.307   0.671
  467SOL    HW1 2300   1.784   1.386   0.679
  467SOL    HW2 2301   1.641   1.332   0.620
  468SOL     OW 2302   3.758   6.695   0.156
  468SOL    HW1 2303   3.793   6.657   0.242
  468SOL    HW2 2304   3.810   6.776   0.132
  469SOL     OW 2305   2.929   3.918   6.859
  469SOL    HW1 2306   2.882   4.005   6.841
  469SOL    HW2 2307   3.020   3.937   6.897
  470SOL     OW 2308   4.330   0.399   2.039
  470SOL    HW1 2309   4.295   0.475   1.985
  470SOL    HW2 2310   4.322   0.314   1.986
  471SOL     OW 2311   2.293   2.061   3.912
  471SOL    HW1 2312   2.245   2.144   3.884
  471SOL    HW2 2313   2.386   2.062   3.875
  472SOL     OW 2314   5.325   3.481   6.689
  472SOL    HW1 2315   5.421   3.502   6.674
  472SOL    HW2 2316   5.275   3.565   6.710
  473SOL     OW 2317   1.313   3.201   2.823
  473SOL    HW1 2318   1.264   3.129   2.774
  473SOL    HW2 2319   1.298   3.289   2.778
  474SOL     OW 2320   5.581   5.493   4.183
  474SOL    HW1 2321   5.650   5.429   4.151
  474SOL    HW2 2322   5.497   5.443   4.205
  475SOL     OW 2323   5.593   0.801   6.840
  475SOL    HW1 2324   5.637   0.730   6.786
  475SOL    HW2 2325   5.512   0.835   6.791
  476SOL     OW 2326   6.799   3.766   3.235
  476SOL    HW1 2327   6.841   3.722   3.315
  476SOL    HW2 2328   6.715   3.813   3.263
  477SOL     OW 2329   2.036   4.772   3.792
  477SOL    HW1 2330   2.014   4.870   3.794
  477SOL    HW2 2331   1.975   4.722   3.853
  478SOL     OW 2332   3.144   0.013   1.696
  478SOL    HW1 2333   3.231   0.058   1.718
  478SOL    HW2 2334   3.158   6.933   1.686
  479SOL     OW 2335   3.989   2.309   5.931
  479SOL    HW1 2336   4.001   2.407   5.945
  479SOL    HW2 2337   4.078   2.266   5.920
  480SOL     OW 2338   2.195   1.294   0.063
  480SOL    HW1 2339   2.180   1.346   6.997
  480SOL    HW2 2340   2.197   1.356   0.141
  481SOL     OW 2341   1.993   6.936   0.465
  481SOL    HW1 2342   2.089   6.926   0.491
  481SOL    HW2 2343   1.988   6.976   0.374
  482SOL     OW 2344   4.342   4.793   3.083
  482SOL    HW1 2345   4.425   4.806   3.028
  482SOL    HW2 2346   4.311   4.882   3.117
  483SOL     OW 2347   6.571   0.863   2.028
  483SOL    HW1 2348   6.501   0.802   1.990
  483SOL    HW2 2349   6.637   0.810   2.080
  484SOL     OW 2350   1.608   3.283   5.171
  484SOL    HW1 2351   1.615   3.383   5.172
  484SOL    HW2 2352   1.699   3.243   5.157
  485SOL     OW 2353   3.881   5.257   2.508
  485SOL    HW1 2354   3.965   5.207   2.529
  485SOL    HW2 2355   3.856   5.315   2.586
  486SOL     OW 2356   6.722   1.785   0.532
  486SOL    HW1 2357   6.699   1.789   0.629
  486SOL    HW2 2358   6.821   1.785   0.521
  487SOL     OW 2359   1.322   0.521   1.079
  487SOL    HW1 2360   1.289   0.565   1.162
  487SOL    HW2 2361   1.357   0.590   1.016
  488SOL     OW 2362   0.589   1.354   2.446
  488SOL    HW1 2363   0.498   1.395   2.437
  488SOL    HW2 2364   0.652   1.422   2.483
  489SOL     OW 2365   3.223   6.599   6.422
  489SOL    HW1 2366   3.164   6.660   6.475
  489SOL    HW2 2367   3.167   6.542   6.362
  490SOL     OW 2368   6.190   5.844   3.344
  490SOL    HW1 2369   6.243   5.912   3.293
  490SOL    HW2 2370   6.218   5.844   3.440
  491SOL     OW 2371   0.531   3.197   2.964
  491SOL    HW1 2372   0.503   3.292   2.951
  491SOL    HW2 2373   0.513   3.145   2.881
  492SOL     OW 2374   2.140   0.733   5.690
  492SOL    HW1 2375   2.048   0.711   5.660
  492SOL    HW2 2376   2.140   0.824   5.732
  493SOL     OW 2377   5.137   5.852   4.985
  493SOL    HW1 2378   5.230   5.854   5.020
  493SOL    HW2 2379   5.091   5.769   5.017
  494SOL     OW 2380   0.262   0.472   6.957
  494SOL    HW1 2381   0.240   0.411   0.015
  494SOL    HW2 2382   0.225   0.433   6.872
  495SOL     OW 2383   4.933   5.952   3.533
  495SOL    HW1 2384   4.935   5.902   3.446
  495SOL    HW2 2385   4.993   5.907   3.598
  496SOL     OW 2386   5.181   3.872   1.622
  496SOL    HW1 2387   5.219   3.915   1.703
  496SOL    HW2 2388   5.166   3.775   1.639
  497SOL     OW 2389   3.418   1.238   4.580
  497SOL    HW1 2390   3.492   1.190   4.627
  497SOL    HW2 2391   3.370   1.174   4.520
  498SOL     OW 2392   2.224   3.628   1.400
  498SOL    HW1 2393   2.190   3.541   1.435
  498SOL    HW2 2394   2.320   3.640   1.426
  499SOL     OW 2395   2.600   6.760   4.265
  499SOL    HW1 2396   2.654   6.680   4.239
  499SOL    HW2 2397   2.507   6.731   4.288
  500SOL     OW 2398   0.399   3.276   4.581
  500SOL    HW1 2399   0.428   3.202   4.642
  500SOL    HW2 2400   0.428   3.364   4.619
  501SOL     OW 2401   2.809   5.693   0.694
  501SOL    HW1 2402   2.889   5.749   0.676
  501SOL    HW2 2403   2.738   5.749   0.737
  502SOL     OW 2404   0.076   3.972   0.463
  502SOL    HW1 2405   0.129   3.993   0.380
  502SOL    HW2 2406   6.997   3.987   0.445
  503SOL     OW 2407   6.448   5.337   6.391
  503SOL    HW1 2408   6.487   5.374   6.475
  503SOL    HW2 2409   6.352   5.316   6.405
  504SOL     OW 2410   1.550   5.610   2.828
  504SOL    HW1 2411   1.529   5.616   2.925
  504SOL    HW2 2412   1.488   5.669   2.777
  505SOL     OW 2413   2.836   6.284   5.061
  505SOL    HW1 2414   2.780   6.365   5.073
  505SOL    HW2 2415   2.868   6.279   4.966
  506SOL     OW 2416   1.609   5.087   4.930
  506SOL    HW1 2417   1.708   5.074   4.938
  506SOL    HW2 2418   1.579   5.151   5.001
  507SOL     OW 2419   3.632   6.713   3.061
  507SOL    HW1 2420   3.602   6.786   3.123
  507SOL    HW2 2421   3.614   6.624   3.103
  508SOL     OW 2422   7.002   3.781   2.386
  508SOL    HW1 2423   6.978   3.697   2.337
  508SOL    HW2 2424   0.080   3.803   2.369
  509SOL     OW 2425   3.086   0.728   1.521
  509SOL    HW1 2426   3.176   0.765   1.496
  509SOL    HW2 2427   3.098   0.639   1.565
  510SOL     OW 2428   5.897   4.716   0.119
  510SOL    HW1 2429   5.925   4.764   0.036
  510SOL    HW2 2430   5.945   4.629   0.125
  511SOL     OW 2431   0.687   1.372   5.730
  511SOL    HW1 2432   0.600   1.344   5.688
  511SOL    HW2 2433   0.677   1.372   5.829
  512SOL     OW 2434   6.451   2.635   6.868
  512SOL    HW1 2435   6.512   2.579   6.811
  512SOL    HW2 2436   6.506   2.688   6.933
  513SOL     OW 2437   6.364   6.478   3.333
  513SOL    HW1 2438   6.369   6.547   3.406
  513SOL    HW2 2439   6.342   6.389   3.374
  514SOL     OW 2440   6.119   2.364   3.976
  514SOL    HW1 2441   6.120   2.265   3.990
  514SOL    HW2 2442   6.121   2.410   4.065
  515SOL     OW 2443   1.504   0.692   6.446
  515SOL    HW1 2444   1.579   0.637   6.481
  515SOL    HW2 2445   1.453   0.731   6.523
  516SOL     OW 2446   2.451   5.150   1.929
  516SOL    HW1 2447   2.474   5.198   1.845
  516SOL    HW2 2448   2.467   5.052   1.917
  517SOL     OW 2449   4.567   5.334   2.489
  517SOL    HW1 2450   4.532   5.300   2.402
  517SOL    HW2 2451   4.496   5.322   2.559
  518SOL     OW 2452   2.528   2.336   2.727
  518SOL    HW1 2453   2.562   2.351   2.634
  518SOL    HW2 2454   2.594   2.374   2.792
  519SOL     OW 2455   0.745   0.808   4.578
  519SOL    HW1 2456   0.823   0.858   4.615
  519SOL    HW2 2457   0.661   0.836   4.625
  520SOL     OW 2458   6.281   4.423   0.281
  520SOL    HW1 2459   6.264   4.412   0.183
  520SOL    HW2 2460   6.326   4.510   0.298
  521SOL     OW 2461   6.389   3.765   5.107
  521SOL    HW1 2462   6.375   3.833   5.179
  521SOL    HW2 2463   6.430   3.683   5.146
  522SOL     OW 2464   3.465   3.075   4.723
  522SOL    HW1 2465   3.403   3.033   4.657
  522SOL    HW2 2466   3.520   3.005   4.767
  523SOL     OW 2467   0.480   4.979   1.777
  523SOL    HW1 2468   0.531   5.055   1.816
  523SOL    HW2 2469   0.397   5.013   1.733
  524SOL     OW 2470   6.917   1.374   0.899
  524SOL    HW1 2471   6.991   1.410   0.957
  524SOL    HW2 2472   6.927   1.275   0.890
  525SOL     OW 2473   2.050   3.270   6.240
  525SOL    HW1 2474   2.118   3.332   6.280
  525SOL    HW2 2475   2.094   3.184   6.215
  526SOL     OW 2476   4.384   6.244   4.360
  526SOL    HW1 2477   4.409   6.159   4.406
  526SOL    HW2 2478   4.404   6.322   4.420
  527SOL     OW 2479   6.635   2.747   0.022
  527SOL    HW1 2480   6.601   2.658   0.051
  527SOL    HW2 2481   6.735   2.747   0.022
  528SOL     OW 2482   1.143   1.713   3.155
  528SOL    HW1 2483   1.044   1.713   3.165
  528SOL    HW2 2484   1.184   1.656   3.226
  529SOL     OW 2485   1.777   6.704   3.846
  529SOL    HW1 2486   1.808   6.798   3.829
  529SOL    HW2 2487   1.703   6.681   3.783
  530SOL     OW 2488   3.332   2.894   4.580
  530SOL    HW1 2489   3.398   2.861   4.513
  530SOL    HW2 2490   3.288   2.816   4.625
  531SOL     OW 2491   0.672   0.843   2.827
  531SOL    HW1 2492   0.576   0.850   2.854
  531SOL    HW2 2493   0.679   0.793   2.740
  532SOL     OW 2494   1.425   2.221   6.945
  532SOL    HW1 2495   1.346   2.273   6.913
  532SOL    HW2 2496   1.417   2.205   0.026
  533SOL     OW 2497   4.695   0.058   3.856
  533SOL    HW1 2498   4.701   0.152   3.823
  533SOL    HW2 2499   4.761   0.001   3.806
  534SOL     OW 2500   5.180   6.085   2.782
  534SOL    HW1 2501   5.178   6.028   2.864
  534SOL    HW2 2502   5.223   6.034   2.708
  535SOL     OW 2503   0.781   3.754   4.287
  535SOL    HW1 2504   0.861   3.798   4.247
  535SOL    HW2 2505   0.748   3.809   4.364
  536SOL     OW 2506   6.849   5.399   1.874
  536SOL    HW1 2507   6.814   5.443   1.791
  536SOL    HW2 2508   6.810   5.307   1.881
  537SOL     OW 2509   2.138   6.345   4.028
  537SOL    HW1 2510   2.172   6.349   4.122
  537SOL    HW2 2511   2.155   6.255   3.989
  538SOL     OW 2512   1.175   4.379   2.788
  538SOL    HW1 2513   1.246   4.380   2.858
  538SOL    HW2 2514   1.100   4.319   2.817
  539SOL     OW 2515   1.084   6.648   0.827
  539SOL    HW1 2516   1.090   6.736   0.779
  539SOL    HW2 2517   1.073   6.575   0.759
  540SOL     OW 2518   1.014   0.451   2.823
  540SOL    HW1 2519   0.937   0.474   2.764
  540SOL    HW2 2520   1.031   0.527   2.887
  541SOL     OW 2521   4.005   6.345   4.246
  541SOL    HW1 2522   4.077   6.409   4.275
  541SOL    HW2 2523   3.971   6.373   4.156
  542SOL     OW 2524   6.475   0.350   6.878
  542SOL    HW1 2525   6.570   0.343   6.848
  542SOL    HW2 2526   6.464   0.300   6.964
  543SOL     OW 2527   1.577   4.243   5.819
  543SOL    HW1 2528   1.667   4.286   5.815
  543SOL    HW2 2529   1.585   4.149   5.851
  544SOL     OW 2530   2.757   3.966   0.163
  544SOL    HW1 2531   2.734   4.035   0.094
  544SOL    HW2 2532   2.852   3.936   0.149
  545SOL     OW 2533   2.675   0.503   2.777
  545SOL    HW1 2534   2.607   0.559   2.730
  545SOL    HW2 2535   2.736   0.563   2.830
  546SOL     OW 2536   1.638   3.158   0.890
  546SOL    HW1 2537   1.686   3.234   0.846
  546SOL    HW2 2538   1.541   3.161   0.866
  547SOL     OW 2539   3.102   1.529   0.119
  547SOL    HW1 2540   3.098   1.456   0.050
  547SOL    HW2 2541   3.193   1.530   0.162
  548SOL     OW 2542   3.808   3.078   2.779
  548SOL    HW1 2543   3.772   3.032   2.861
  548SOL    HW2 2544   3.746   3.061   2.702
  549SOL     OW 2545   4.652   3.484   1.177
  549SOL    HW1 2546   4.679   3.406   1.121
  549SOL    HW2 2547   4.697   3.477   1.267
  550SOL     OW 2548   6.074   4.281   3.432
  550SOL    HW1 2549   6.166   4.247   3.418
  550SOL    HW2 2550   6.070   4.378   3.409
  551SOL     OW 2551   1.145   0.552   1.650
  551SOL    HW1 2552   1.143   0.536   1.552
  551SOL    HW2 2553   1.240   0.559   1.681
  552SOL     OW 2554   4.872   4.500   0.002
  552SOL    HW1 2555   4.792   4.519   6.963
  552SOL    HW2 2556   4.949   4.473   6.962
  553SOL     OW 2557   1.905   6.738   2.281
  553SOL    HW1 2558   1.910   6.828   2.323
  553SOL    HW2 2559   1.842   6.680   2.332
  554SOL     OW 2560   5.602   6.812   5.622
  554SOL    HW1 2561   5.663   6.890   5.615
  554SOL    HW2 2562   5.564   6.806   5.714
  555SOL     OW 2563   2.047   5.638   2.936
  555SOL    HW1 2564   1.964   5.606   2.891
  555SOL    HW2 2565   2.128   5.598   2.893
  556SOL     OW 2566   5.214   2.305   3.621
  556SOL    HW1 2567   5.240   2.217   3.582
  556SOL    HW2 2568   5.224   2.376   3.552
  557SOL     OW 2569   0.576   4.625   0.096
  557SOL    HW1 2570   0.567   4.554   0.166
  557SOL    HW2 2571   0.634   4.698   0.130
  558SOL     OW 2572   2.897   3.314   4.705
  558SOL    HW1 2573   2.822   3.287   4.765
  558SOL    HW2 2574   2.981   3.322   4.759
  559SOL     OW 2575   6.559   5.383   6.645
  559SOL    HW1 2576   6.641   5.408   6.696
  559SOL    HW2 2577   6.496   5.335   6.706
  560SOL     OW 2578   4.315   5.372   0.584
  560SOL    HW1 2579   4.333   5.274   0.573
  560SOL    HW2 2580   4.241   5.399   0.522
  561SOL     OW 2581   6.135   1.067   0.301
  561SOL    HW1 2582   6.134   0.968   0.314
  561SOL    HW2 2583   6.149   1.089   0.204
  562SOL     OW 2584   5.235   0.488   5.824
  562SOL    HW1 2585   5.305   0.526   5.765
  562SOL    HW2 2586   5.243   0.527   5.916
  563SOL     OW 2587   2.124   0.427   3.179
  563SOL    HW1 2588   2.192   0.354   3.177
  563SOL    HW2 2589   2.049   0.400   3.239
  564SOL     OW 2590   2.962   1.979   6.513
  564SOL    HW1 2591   2.886   1.950   6.454
  564SOL    HW2 2592   2.965   2.079   6.516
  565SOL     OW 2593   3.593   2.888   5.444
  565SOL    HW1 2594   3.664   2.818   5.437
  565SOL    HW2 2595   3.503   2.846   5.430
  566SOL     OW 2596   6.021   4.271   4.424
  566SOL    HW1 2597   5.984   4.296   4.513
  566SOL    HW2 2598   6.083   4.342   4.392
  567SOL     OW 2599   3.872   3.991   2.537
  567SOL    HW1 2600   3.840   3.998   2.443
  567SOL    HW2 2601   3.844   4.072   2.589
  568SOL     OW 2602   3.906   2.214   0.276
  568SOL    HW1 2603   3.894   2.299   0.226
  568SOL    HW2 2604   3.899   2.231   0.374
  569SOL     OW 2605   1.599   3.246   6.892
  569SOL    HW1 2606   1.690   3.209   6.874
  569SOL    HW2 2607   1.601   3.345   6.883
  570SOL     OW 2608   2.444   6.167   6.592
  570SOL    HW1 2609   2.496   6.243   6.553
  570SOL    HW2 2610   2.357   6.158   6.545
  571SOL     OW 2611   2.778   0.318   2.577
  571SOL    HW1 2612   2.707   0.303   2.509
  571SOL    HW2 2613   2.750   0.391   2.640
  572SOL     OW 2614   2.197   4.862   5.933
  572SOL    HW1 2615   2.248   4.890   5.852
  572SOL    HW2 2616   2.123   4.801   5.905
  573SOL     OW 2617   4.979   1.258   5.194
  573SOL    HW1 2618   5.074   1.227   5.191
  573SOL    HW2 2619   4.932   1.216   5.272
  574SOL     OW 2620   2.787   2.171   3.971
  574SOL    HW1 2621   2.725   2.103   3.933
  574SOL    HW2 2622   2.882   2.146   3.948
  575SOL     OW 2623   5.922   3.046   0.433
  575SOL    HW1 2624   5.888   3.088   0.517
  575SOL    HW2 2625   5.956   3.117   0.372
  576SOL     OW 2626   0.978   1.989   2.719
  576SOL    HW1 2627   0.926   2.020   2.798
  576SOL    HW2 2628   1.034   2.064   2.684
  577SOL     OW 2629   2.120   1.130   3.256
  577SOL    HW1 2630   2.048   1.062   3.245
  577SOL    HW2 2631   2.208   1.083   3.266
  578SOL     OW 2632   6.468   4.642   3.384
  578SOL    HW1 2633   6.393   4.694   3.425
  578SOL    HW2 2634   6.549   4.649   3.441
  579SOL     OW 2635   2.027   3.514   1.586
  579SOL    HW1 2636   2.101   3.447   1.592
  579SOL    HW2 2637   1.940   3.466   1.570
  580SOL     OW 2638   0.316   4.681   6.833
  580SOL    HW1 2639   0.377   4.626   6.775
  580SOL    HW2 2640   0.348   4.677   6.928
  581SOL     OW 2641   3.346   3.690   2.061
  581SOL    HW1 2642   3.360   3.592   2.047
  581SOL    HW2 2643   3.300   3.729   1.981
  582SOL     OW 2644   5.889   5.052   2.365
  582SOL    HW1 2645   5.912   5.037   2.461
  582SOL    HW2 2646   5.952   5.000   2.307
  583SOL     OW 2647   2.577   5.616   6.322
  583SOL    HW1 2648   2.487   5.651   6.345
  583SOL    HW2 2649   2.604   5.650   6.232
  584SOL     OW 2650   1.658   4.144   6.383
  584SOL    HW1 2651   1.742   4.193   6.405
  584SOL    HW2 2652   1.581   4.189   6.428
  585SOL     OW 2653   6.031   3.028   6.440
  585SOL    HW1 2654   6.041   2.928   6.440
  585SOL    HW2 2655   6.032   3.062   6.347
  586SOL     OW 2656   3.461   0.882   6.265
  586SOL    HW1 2657   3.365   0.908   6.264
  586SOL    HW2 2658   3.473   0.793   6.221
  587SOL     OW 2659   2.634   2.346   4.907
  587SOL    HW1 2660   2.584   2.427   4.876
  587SOL    HW2 2661   2.575   2.291   4.966
  588SOL     OW 2662   2.426   4.857   0.812
  588SOL    HW1 2663   2.364   4.802   0.868
  588SOL    HW2 2664   2.459   4.935   0.866
  589SOL     OW 2665   3.459   5.284   1.467
  589SOL    HW1 2666   3.415   5.339   1.539
  589SOL    HW2 2667   3.458   5.335   1.381
  590SOL     OW 2668   5.870   2.673   1.666
  590SOL    HW1 2669   5.770   2.675   1.667
  590SOL    HW2 2670   5.902   2.642   1.576
  591SOL     OW 2671   3.527   6.094   3.836
  591SOL    HW1 2672   3.510   6.193   3.832
  591SOL    HW2 2673   3.576   6.072   3.920
  592SOL     OW 2674   3.834   0.490   1.527
  592SOL    HW1 2675   3.854   0.477   1.429
  592SOL    HW2 2676   3.744   0.532   1.537
  593SOL     OW 2677   4.982   2.387   3.758
  593SOL    HW1 2678   5.077   2.367   3.736
  593SOL    HW2 2679   4.924   2.358   3.682
  594SOL     OW 2680   4.763   2.109   6.466
  594SOL    HW1 2681   4.792   2.192   6.417
  594SOL    HW2 2682   4.665   2.094   6.450
  595SOL     OW 2683   5.528   0.343   3.514
  595SOL    HW1 2684   5.586   0.424   3.501
  595SOL    HW2 2685   5.518   0.296   3.427
  596SOL     OW 2686   1.410   3.905   2.344
  596SOL    HW1 2687   1.367   3.970   2.281
  596SOL    HW2 2688   1.349   3.888   2.421
  597SOL     OW 2689   4.053   6.717   5.912
  597SOL    HW1 2690   3.995   6.640   5.938
  597SOL    HW2 2691   3.996   6.797   5.894
  598SOL     OW 2692   3.222   4.242   6.677
  598SOL    HW1 2693   3.267   4.187   6.607
  598SOL    HW2 2694   3.290   4.283   6.737
  599SOL     OW 2695   2.077   6.456   2.659
  599SOL    HW1 2696   2.102   6.359   2.661
  599SOL    HW2 2697   2.087   6.492   2.566
  600SOL     OW 2698   0.902   0.708   1.115
  600SOL    HW1 2699   0.884   0.789   1.171
  600SOL    HW2 2700   0.880   0.626   1.167
  601SOL     OW 2701   3.362   6.807   4.407
  601SOL    HW1 2702   3.356   6.707   4.410
  601SOL    HW2 2703   3.323   6.841   4.321
  602SOL     OW 2704   1.289   2.648   0.475
  602SOL    HW1 2705   1.285   2.713   0.399
  602SOL    HW2 2706   1.226   2.678   0.547
  603SOL     OW 2707   4.316   1.645   3.490
  603SOL    HW1 2708   4.412   1.624   3.474
  603SOL    HW2 2709   4.308   1.731   3.541
  604SOL     OW 2710   0.609   3.806   1.452
  604SOL    HW1 2711   0.585   3.797   1.548
  604SOL    HW2 2712   0.553   3.743   1.398
  605SOL     OW 2713   6.524   5.660   3.150
  605SOL    HW1 2714   6.434   5.620   3.169
  605SOL    HW2 2715   6.516   5.726   3.076
  606SOL     OW 2716   5.240   0.219   6.234
  606SOL    HW1 2717   5.169   0.162   6.194
  606SOL    HW2 2718   5.219   0.316   6.218
  607SOL     OW 2719   5.134   0.702   5.562
  607SOL    HW1 2720   5.190   0.783   5.580
  607SOL    HW2 2721   5.042   0.715   5.599
  608SOL     OW 2722   4.045   6.161   7.001
  608SOL    HW1 2723   4.102   6.160   6.919
  608SOL    HW2 2724   4.072   6.237   0.042
  609SOL     OW 2725   3.614   3.131   3.868
  609SOL    HW1 2726   3.637   3.065   3.939
  609SOL    HW2 2727   3.523   3.169   3.885
  610SOL     OW 2728   5.427   2.319   2.079
  610SOL    HW1 2729   5.412   2.248   2.149
  610SOL    HW2 2730   5.485   2.391   2.117
  611SOL     OW 2731   1.663   0.305   6.372
  611SOL    HW1 2732   1.711   0.391   6.392
  611SOL    HW2 2733   1.661   0.290   6.273
  612SOL     OW 2734   3.691   6.229   5.972
  612SOL    HW1 2735   3.633   6.269   6.042
  612SOL    HW2 2736   3.731   6.144   6.006
  613SOL     OW 2737   3.947   6.493   5.699
  613SOL    HW1 2738   3.930   6.573   5.641
  613SOL    HW2 2739   3.889   6.498   5.780
  614SOL     OW 2740   5.806   3.987   0.929
  614SOL    HW1 2741   5.847   4.071   0.964
  614SOL    HW2 2742   5.788   3.997   0.831
  615SOL     OW 2743   0.616   1.591   1.120
  615SOL    HW1 2744   0.568   1.514   1.163
  615SOL    HW2 2745   0.619   1.577   1.021
  616SOL     OW 2746   6.504   1.586   2.936
  616SOL    HW1 2747   6.537   1.495   2.910
  616SOL    HW2 2748   6.444   1.622   2.865
  617SOL     OW 2749   0.075   3.579   6.804
  617SOL    HW1 2750   0.168   3.614   6.815
  617SOL    HW2 2751   0.057   3.562   6.707
  618SOL     OW 2752   0.038   3.265   0.338
  618SOL    HW1 2753   0.091   3.341   0.374
  618SOL    HW2 2754   0.076   3.178   0.371
  619SOL     OW 2755   4.169   6.901   6.735
  619SOL    HW1 2756   4.149   6.974   6.670
  619SOL    HW2 2757   4.268   6.888   6.742
  620SOL     OW 2758   5.763   2.800   1.181
  620SOL    HW1 2759   5.820   2.812   1.262
  620SOL    HW2 2760   5.822   2.790   1.100
  621SOL     OW 2761   1.726   0.304   5.411
  621SOL    HW1 2762   1.723   0.362   5.492
  621SOL    HW2 2763   1.638   0.308   5.364
  622SOL     OW 2764   0.730   1.720   5.084
  622SOL    HW1 2765   0.735   1.726   4.984
  622SOL    HW2 2766   0.815   1.755   5.123
  623SOL     OW 2767   0.131   6.547   5.465
  623SOL    HW1 2768   0.199   6.619   5.475
  623SOL    HW2 2769   0.053   6.580   5.413
  624SOL     OW 2770   6.264   0.691   0.554
  624SOL    HW1 2771   6.283   0.630   0.631
  624SOL    HW2 2772   6.244   0.783   0.588
  625SOL     OW 2773   1.775   2.205   1.160
  625SOL    HW1 2774   1.696   2.146   1.144
  625SOL    HW2 2775   1.767   2.288   1.105
  626SOL     OW 2776   0.506   5.965   2.813
  626SOL    HW1 2777   0.536   5.878   2.852
  626SOL    HW2 2778   0.471   6.024   2.886
  627SOL     OW 2779   6.434   6.346   0.643
  627SOL    HW1 2780   6.381   6.342   0.728
  627SOL    HW2 2781   6.392   6.287   0.574
  628SOL     OW 2782   5.545   4.122   4.988
  628SOL    HW1 2783   5.614   4.174   5.039
  628SOL    HW2 2784   5.580   4.030   4.970
  629SOL     OW 2785   0.752   1.072   7.014
  629SOL    HW1 2786   0.802   1.156   6.992
  629SOL    HW2 2787   0.799   0.994   6.972
  630SOL     OW 2788   0.467   2.382   0.676
  630SOL    HW1 2789   0.487   2.288   0.705
  630SOL    HW2 2790   0.526   2.446   0.726
  631SOL     OW 2791   4.069   1.484   4.868
  631SOL    HW1 2792   4.032   1.405   4.820
  631SOL    HW2 2793   4.168   1.473   4.879
  632SOL     OW 2794   5.094   2.295   0.688
  632SOL    HW1 2795   5.077   2.269   0.593
  632SOL    HW2 2796   5.119   2.392   0.692
  633SOL     OW 2797   3.469   4.727   6.921
  633SOL    HW1 2798   3.562   4.755   6.947
  633SOL    HW2 2799   3.411   4.724   7.003
  634SOL     OW 2800   3.539   3.856   2.571
  634SOL    HW1 2801   3.523   3.834   2.475
  634SOL    HW2 2802   3.525   3.954   2.585
  635SOL     OW 2803   4.928   6.214   0.235
  635SOL    HW1 2804   4.978   6.296   0.263
  635SOL    HW2 2805   4.879   6.176   0.314
  636SOL     OW 2806   2.792   6.995   6.034
  636SOL    HW1 2807   2.803   0.054   6.097
  636SOL    HW2 2808   2.698   6.960   6.041
  637SOL     OW 2809   6.983   3.048   2.617
  637SOL    HW1 2810   6.967   2.960   2.571
  637SOL    HW2 2811   0.038   3.097   2.569
  638SOL     OW 2812   5.937   3.603   3.415
  638SOL    HW1 2813   5.853   3.602   3.469
  638SOL    HW2 2814   6.005   3.544   3.459
  639SOL     OW 2815   4.932   4.338   2.812
  639SOL    HW1 2816   4.923   4.239   2.828
  639SOL    HW2 2817   4.895   4.361   2.722
  640SOL     OW 2818   6.641   4.718   3.176
  640SOL    HW1 2819   6.600   4.803   3.142
  640SOL    HW2 2820   6.581   4.677   3.244
  641SOL     OW 2821   0.585   4.802   4.910
  641SOL    HW1 2822   0.610   4.714   4.949
  641SOL    HW2 2823   0.647   4.873   4.945
  642SOL     OW 2824   1.160   3.044   4.494
  642SOL    HW1 2825   1.233   2.996   4.542
  642SOL    HW2 2826   1.124   2.986   4.421
  643SOL     OW 2827   6.255   0.759   6.840
  643SOL    HW1 2828   6.334   0.806   6.799
  643SOL    HW2 2829   6.231   0.680   6.784
  644SOL     OW 2830   1.064   0.300   4.850
  644SOL    HW1 2831   1.037   0.322   4.757
  644SOL    HW2 2832   1.104   0.208   4.853
  645SOL     OW 2833   3.434   6.131   4.565
  645SOL    HW1 2834   3.397   6.050   4.609
  645SOL    HW2 2835   3.397   6.213   4.609
  646SOL     OW 2836   3.277   0.527   4.770
  646SOL    HW1 2837   3.209   0.480   4.713
  646SOL    HW2 2838   3.236   0.610   4.809
  647SOL     OW 2839   5.488   2.038   4.552
  647SOL    HW1 2840   5.497   1.997   4.643
  647SOL    HW2 2841   5.401   2.011   4.512
  648SOL     OW 2842   6.573   4.405   3.942
  648SOL    HW1 2843   6.594   4.314   3.905
  648SOL    HW2 2844   6.539   4.463   3.868
  649SOL     OW 2845   2.220   3.550   0.324
  649SOL    HW1 2846   2.249   3.486   0.253
  649SOL    HW2 2847   2.299   3.579   0.377
  650SOL     OW 2848   6.484   4.835   0.723
  650SOL    HW1 2849   6.527   4.778   0.794
  650SOL    HW2 2850   6.390   4.856   0.750
  651SOL     OW 2851   1.565   0.763   5.849
  651SOL    HW1 2852   1.531   0.730   5.937
  651SOL    HW2 2853   1.488   0.771   5.785
  652SOL     OW 2854   4.789   6.887   2.724
  652SOL    HW1 2855   4.705   6.832   2.717
  652SOL    HW2 2856   4.854   6.841   2.785
  653SOL     OW 2857   0.200   6.364   0.064
  653SOL    HW1 2858   0.287   6.325   0.036
  653SOL    HW2 2859   0.152   6.401   7.003
  654SOL     OW 2860   0.758   6.321   6.274
  654SOL    HW1 2861   0.835   6.341   6.214
  654SOL    HW2 2862   0.777   6.238   6.327
  655SOL     OW 2863   6.221   5.509   1.552
  655SOL    HW1 2864   6.122   5.494   1.558
  655SOL    HW2 2865   6.240   5.577   1.481
  656SOL     OW 2866   2.365   6.620   0.420
  656SOL    HW1 2867   2.320   6.584   0.502
  656SOL    HW2 2868   2.306   6.605   0.341
  657SOL     OW 2869   2.916   4.251   0.940
  657SOL    HW1 2870   2.977   4.205   1.006
  657SOL    HW2 2871   2.971   4.298   0.871
  658SOL     OW 2872   1.525   4.054   5.299
  658SOL    HW1 2873   1.440   4.094   5.265
  658SOL    HW2 2874   1.603   4.092   5.249
  659SOL     OW 2875   2.633   6.243   4.863
  659SOL    HW1 2876   2.660   6.148   4.878
  659SOL    HW2 2877   2.560   6.267   4.928
  660SOL     OW 2878   4.430   4.520   2.813
  660SOL    HW1 2879   4.447   4.616   2.833
  660SOL    HW2 2880   4.332   4.507   2.794
  661SOL     OW 2881   4.898   3.839   4.492
  661SOL    HW1 2882   4.843   3.902   4.438
  661SOL    HW2 2883   4.881   3.745   4.461
  662SOL     OW 2884   4.252   0.705   5.731
  662SOL    HW1 2885   4.207   0.625   5.772
  662SOL    HW2 2886   4.257   0.779   5.798
  663SOL     OW 2887   0.455   4.371   0.592
  663SOL    HW1 2888   0.491   4.316   0.516
  663SOL    HW2 2889   0.529   4.397   0.653
  664SOL     OW 2890   1.894   5.539   6.538
  664SOL    HW1 2891   1.825   5.587   6.485
  664SOL    HW2 2892   1.885   5.440   6.522
  665SOL     OW 2893   4.245   5.253   1.038
  665SOL    HW1 2894   4.320   5.319   1.035
  665SOL    HW2 2895   4.282   5.160   1.036
  666SOL     OW 2896   4.577   2.348   1.078
  666SOL    HW1 2897   4.654   2.394   1.035
  666SOL    HW2 2898   4.533   2.287   1.012
  667SOL     OW 2899   6.484   3.794   4.143
  667SOL    HW1 2900   6.437   3.863   4.088
  667SOL    HW2 2901   6.574   3.776   4.102
  668SOL     OW 2902   5.001   5.386   6.863
  668SOL    HW1 2903   5.000   5.422   6.769
  668SOL    HW2 2904   5.092   5.398   6.903
  669SOL     OW 2905   3.194   5.965   3.013
  669SOL    HW1 2906   3.229   5.891   3.071
  669SOL    HW2 2907   3.261   5.986   2.942
  670SOL     OW 2908   3.278   2.716   1.854
  670SOL    HW1 2909   3.263   2.624   1.817
  670SOL    HW2 2910   3.363   2.717   1.907
  671SOL     OW 2911   2.484   6.198   6.910
  671SOL    HW1 2912   2.484   6.298   6.903
  671SOL    HW2 2913   2.484   6.158   6.819
  672SOL     OW 2914   0.675   4.151   1.710
  672SOL    HW1 2915   0.706   4.071   1.761
  672SOL    HW2 2916   0.584   4.178   1.742
  673SOL     OW 2917   5.637   0.417   1.197
  673SOL    HW1 2918   5.546   0.401   1.236
  673SOL    HW2 2919   5.686   0.483   1.254
  674SOL     OW 2920   6.530   3.245   4.425
  674SOL    HW1 2921   6.458   3.177   4.414
  674SOL    HW2 2922   6.572   3.265   4.336
  675SOL     OW 2923   0.134   1.093   5.090
  675SOL    HW1 2924   0.113   1.143   5.174
  675SOL    HW2 2925   0.083   1.007   5.089
  676SOL     OW 2926   3.024   4.920   3.337
  676SOL    HW1 2927   2.945   4.909   3.277
  676SOL    HW2 2928   3.108   4.908   3.285
  677SOL     OW 2929   5.946   1.287   5.886
  677SOL    HW1 2930   5.857   1.331   5.872
  677SOL    HW2 2931   5.950   1.202   5.832
  678SOL     OW 2932   1.349   1.555   5.376
  678SOL    HW1 2933   1.421   1.497   5.415
  678SOL    HW2 2934   1.390   1.630   5.326
  679SOL     OW 2935   4.654   1.181   4.411
  679SOL    HW1 2936   4.746   1.218   4.423
  679SOL    HW2 2937   4.624   1.197   4.317
  680SOL     OW 2938   5.399   5.227   6.101
  680SOL    HW1 2939   5.372   5.278   6.182
  680SOL    HW2 2940   5.387   5.284   6.020
  681SOL     OW 2941   6.241   0.333   1.087
  681SOL    HW1 2942   6.251   0.264   1.160
  681SOL    HW2 2943   6.302   0.310   1.012
  682SOL     OW 2944   1.699   6.714   6.716
  682SOL    HW1 2945   1.778   6.729   6.775
  682SOL    HW2 2946   1.707   6.772   6.634
  683SOL     OW 2947   3.575   0.705   6.444
  683SOL    HW1 2948   3.517   0.768   6.393
  683SOL    HW2 2949   3.620   0.755   6.518
  684SOL     OW 2950   5.912   1.215   6.383
  684SOL    HW1 2951   5.889   1.298   6.435
  684SOL    HW2 2952   5.938   1.240   6.290
  685SOL     OW 2953   4.857   6.712   4.986
  685SOL    HW1 2954   4.860   6.757   4.897
  685SOL    HW2 2955   4.949   6.710   5.025
  686SOL     OW 2956   5.629   3.276   3.111
  686SOL    HW1 2957   5.575   3.356   3.088
  686SOL    HW2 2958   5.725   3.302   3.119
  687SOL     OW 2959   6.703   2.730   5.056
  687SOL    HW1 2960   6.663   2.820   5.073
  687SOL    HW2 2961   6.801   2.740   5.039
  688SOL     OW 2962   1.602   3.464   0.703
  688SOL    HW1 2963   1.569   3.544   0.754
  688SOL    HW2 2964   1.536   3.390   0.712
  689SOL     OW 2965   0.867   4.477   5.243
  689SOL    HW1 2966   0.891   4.443   5.152
  689SOL    HW2 2967   0.841   4.574   5.236
  690SOL     OW 2968   0.997   3.198   3.706
  690SOL    HW1 2969   1.075   3.208   3.643
  690SOL    HW2 2970   0.925   3.146   3.661
  691SOL     OW 2971   2.440   1.633   6.397
  691SOL    HW1 2972   2.404   1.726   6.393
  691SOL    HW2 2973   2.366   1.570   6.421
  692SOL     OW 2974   3.383   6.323   3.580
  692SOL    HW1 2975   3.471   6.286   3.552
  692SOL    HW2 2976   3.367   6.410   3.533
  693SOL     OW 2977   6.615   1.794   2.752
  693SOL    HW1 2978   6.642   1.743   2.671
  693SOL    HW2 2979   6.586   1.731   2.824
  694SOL     OW 2980   3.170   6.097   2.547
  694SOL    HW1 2981   3.241   6.124   2.613
  694SOL    HW2 2982   3.080   6.112   2.587
  695SOL     OW 2983   4.386   4.983   6.233
  695SOL    HW1 2984   4.373   4.902   6.289
  695SOL    HW2 2985   4.400   5.063   6.292
  696SOL     OW 2986   3.471   5.090   1.898
  696SOL    HW1 2987   3.467   5.173   1.952
  696SOL    HW2 2988   3.449   5.011   1.956
  697SOL     OW 2989   1.317   2.580   4.412
  697SOL    HW1 2990   1.246   2.555   4.478
  697SOL    HW2 2991   1.403   2.595   4.459
  698SOL     OW 2992   5.691   6.964   6.348
  698SOL    HW1 2993   5.624   6.890   6.357
  698SOL    HW2 2994   5.646   0.033   6.369
  699SOL     OW 2995   0.769   4.023   0.156
  699SOL    HW1 2996   0.701   3.950   0.172
  699SOL    HW2 2997   0.822   4.001   0.074
  700SOL     OW 2998   3.073   1.445   4.222
  700SOL    HW1 2999   3.161   1.484   4.194
  700SOL    HW2 3000   3.023   1.413   4.142
  701SOL     OW 3001   0.051   3.959   5.448
  701SOL    HW1 3002   6.984   3.926   5.407
  701SOL    HW2 3003   0.092   4.028   5.388
  702SOL     OW 3004   5.756   5.836   5.887
  702SOL    HW1 3005   5.737   5.930   5.915
  702SOL    HW2 3006   5.833   5.835   5.823
  703SOL     OW 3007   4.055   3.977   6.661
  703SOL    HW1 3008   4.069   3.879   6.676
  703SOL    HW2 3009   4.108   4.007   6.582
  704SOL     OW 3010   1.850   1.985   6.338
  704SOL    HW1 3011   1.771   1.975   6.398
  704SOL    HW2 3012   1.849   2.076   6.297
  705SOL     OW 3013   5.339   6.845   3.557
  705SOL    HW1 3014   5.326   6.829   3.459
  705SOL    HW2 3015   5.375   6.762   3.599
  706SOL     OW 3016   4.379   1.994   3.251
  706SOL    HW1 3017   4.354   2.075   3.198
  706SOL    HW2 3018   4.406   2.022   3.343
  707SOL     OW 3019   4.342   0.629   2.738
  707SOL    HW1 3020   4.306   0.601   2.649
  707SOL    HW2 3021   4.427   0.579   2.757
  708SOL     OW 3022   4.024   0.354   1.692
  708SOL    HW1 3023   3.953   0.391   1.633
  708SOL    HW2 3024   4.017   0.396   1.783
  709SOL     OW 3025   1.131   5.201   0.103
  709SOL    HW1 3026   1.100   5.227   0.194
  709SOL    HW2 3027   1.185   5.275   0.064
  710SOL     OW 3028   3.826   3.345   2.404
  710SOL    HW1 3029   3.926   3.346   2.405
  710SOL    HW2 3030   3.791   3.396   2.483
  711SOL     OW 3031   0.944   1.985   5.951
  711SOL    HW1 3032   1.035   1.945   5.937
  711SOL    HW2 3033   0.912   1.963   6.043
  712SOL     OW 3034   2.337   4.096   0.267
  712SOL    HW1 3035   2.298   4.010   0.299
  712SOL    HW2 3036   2.354   4.156   0.345
  713SOL     OW 3037   2.927   3.293   0.170
  713SOL    HW1 3038   3.015   3.341   0.172
  713SOL    HW2 3039   2.864   3.338   0.233
  714SOL     OW 3040   6.688   5.502   4.824
  714SOL    HW1 3041   6.674   5.485   4.922
  714SOL    HW2 3042   6.663   5.420   4.772
  715SOL     OW 3043   5.396   6.078   0.761
  715SOL    HW1 3044   5.474   6.139   0.775
  715SOL    HW2 3045   5.402   6.001   0.824
  716SOL     OW 3046   1.098   6.898   0.712
  716SOL    HW1 3047   1.181   6.952   0.726
  716SOL    HW2 3048   1.022   6.940   0.762
  717SOL     OW 3049   5.697   4.928   6.328
  717SOL    HW1 3050   5.714   4.987   6.249
  717SOL    HW2 3051   5.598   4.914   6.339
  718SOL     OW 3052   4.593   2.214   5.518
  718SOL    HW1 3053   4.614   2.285   5.586
  718SOL    HW2 3054   4.527   2.150   5.556
  719SOL     OW 3055   6.795   2.499   0.937
  719SOL    HW1 3056   6.726   2.566   0.963
  719SOL    HW2 3057   6.808   2.434   1.011
  720SOL     OW 3058   3.788   0.955   6.081
  720SOL    HW1 3059   3.782   1.048   6.117
  720SOL    HW2 3060   3.859   0.905   6.131
  721SOL     OW 3061   1.934   6.952   4.234
  721SOL    HW1 3062   1.920   0.003   4.305
  721SOL    HW2 3063   1.879   6.976   4.153
  722SOL     OW 3064   2.743   0.114   4.951
  722SOL    HW1 3065   2.706   0.031   4.910
  722SOL    HW2 3066   2.691   0.135   5.035
  723SOL     OW 3067   2.151   3.631   2.458
  723SOL    HW1 3068   2.161   3.612   2.360
  723SOL    HW2 3069   2.230   3.592   2.507
  724SOL     OW 3070   1.205   2.049   4.474
  724SOL    HW1 3071   1.121   2.001   4.502
  724SOL    HW2 3072   1.187   2.102   4.392
  725SOL     OW 3073   2.981   5.488   1.529
  725SOL    HW1 3074   2.884   5.470   1.546
  725SOL    HW2 3075   3.024   5.406   1.491
  726SOL     OW 3076   3.794   4.792   0.977
  726SOL    HW1 3077   3.860   4.866   0.962
  726SOL    HW2 3078   3.835   4.721   1.034
  727SOL     OW 3079   4.943   5.197   5.901
  727SOL    HW1 3080   4.903   5.126   5.842
  727SOL    HW2 3081   5.000   5.258   5.846
  728SOL     OW 3082   0.364   3.400   5.095
  728SOL    HW1 3083   0.324   3.434   5.180
  728SOL    HW2 3084   0.298   3.410   5.021
  729SOL     OW 3085   2.274   1.241   0.443
  729SOL    HW1 3086   2.214   1.285   0.377
  729SOL    HW2 3087   2.306   1.308   0.509
  730SOL     OW 3088   5.702   0.555   3.507
  730SOL    HW1 3089   5.654   0.630   3.553
  730SOL    HW2 3090   5.777   0.524   3.564
  731SOL     OW 3091   6.208   3.760   6.050
  731SOL    HW1 3092   6.268   3.711   5.986
  731SOL    HW2 3093   6.121   3.779   6.006
  732SOL     OW 3094   1.033   3.164   1.238
  732SOL    HW1 3095   0.965   3.237   1.245
  732SOL    HW2 3096   1.094   3.166   1.318
  733SOL     OW 3097   6.209   4.806   5.036
  733SOL    HW1 3098   6.165   4.717   5.025
  733SOL    HW2 3099   6.204   4.835   5.131
  734SOL     OW 3100   6.934   4.343   2.748
  734SOL    HW1 3101   7.002   4.389   2.804
  734SOL    HW2 3102   6.921   4.393   2.662
  735SOL     OW 3103   3.771   3.303   0.673
  735SOL    HW1 3104   3.835   3.379   0.656
  735SOL    HW2 3105   3.805   3.221   0.628
  736SOL     OW 3106   6.843   6.578   2.407
  736SOL    HW1 3107   6.892   6.652   2.362
  736SOL    HW2 3108   6.765   6.615   2.457
  737SOL     OW 3109   4.082   2.304   6.630
  737SOL    HW1 3110   4.115   2.251   6.552
  737SOL    HW2 3111   3.983   2.299   6.634
  738SOL     OW 3112   2.112   3.899   2.314
  738SOL    HW1 3113   2.021   3.883   2.275
  738SOL    HW2 3114   2.110   3.880   2.412
  739SOL     OW 3115   3.917   6.558   4.571
  739SOL    HW1 3116   3.954   6.473   4.609
  739SOL    HW2 3117   3.820   6.546   4.550
  740SOL     OW 3118   4.818   6.556   0.458
  740SOL    HW1 3119   4.721   6.566   0.477
  740SOL    HW2 3120   4.868   6.634   0.498
  741SOL     OW 3121   2.222   6.064   3.390
  741SOL    HW1 3122   2.129   6.049   3.424
  741SOL    HW2 3123   2.253   6.155   3.419
  742SOL     OW 3124   1.979   6.846   1.770
  742SOL    HW1 3125   2.041   6.923   1.758
  742SOL    HW2 3126   2.031   6.760   1.766
  743SOL     OW 3127   1.814   4.072   4.945
  743SOL    HW1 3128   1.912   4.075   4.961
  743SOL    HW2 3129   1.782   3.978   4.952
  744SOL     OW 3130   5.498   6.624   6.124
  744SOL    HW1 3131   5.527   6.716   6.150
  744SOL    HW2 3132   5.398   6.618   6.130
  745SOL     OW 3133   0.893   5.043   4.061
  745SOL    HW1 3134   0.961   4.972   4.044
  745SOL    HW2 3135   0.926   5.130   4.025
  746SOL     OW 3136   0.850   5.056   6.137
  746SOL    HW1 3137   0.794   5.138   6.129
  746SOL    HW2 3138   0.944   5.082   6.160
  747SOL     OW 3139   4.676   5.947   4.927
  747SOL    HW1 3140   4.588   5.969   4.886
  747SOL    HW2 3141   4.670   5.955   5.026
  748SOL     OW 3142   3.567   5.146   2.653
  748SOL    HW1 3143   3.481   5.098   2.637
  748SOL    HW2 3144   3.628   5.089   2.707
  749SOL     OW 3145   6.434   3.870   4.863
  749SOL    HW1 3146   6.421   3.968   4.872
  749SOL    HW2 3147   6.423   3.826   4.952
  750SOL     OW 3148   1.873   2.957   0.746
  750SOL    HW1 3149   1.892   3.053   0.727
  750SOL    HW2 3150   1.931   2.900   0.688
  751SOL     OW 3151   3.937   2.044   6.108
  751SOL    HW1 3152   3.996   1.976   6.065
  751SOL    HW2 3153   3.862   2.068   6.047
  752SOL     OW 3154   3.993   2.270   1.842
  752SOL    HW1 3155   3.950   2.339   1.784
  752SOL    HW2 3156   3.924   2.208   1.877
  753SOL     OW 3157   1.497   3.102   4.090
  753SOL    HW1 3158   1.568   3.169   4.072
  753SOL    HW2 3159   1.434   3.139   4.159
  754SOL     OW 3160   5.488   2.667   6.528
  754SOL    HW1 3161   5.537   2.676   6.441
  754SOL    HW2 3162   5.398   2.625   6.511
  755SOL     OW 3163   1.361   5.499   5.859
  755SOL    HW1 3164   1.307   5.445   5.923
  755SOL    HW2 3165   1.300   5.541   5.792
  756SOL     OW 3166   3.533   0.063   1.100
  756SOL    HW1 3167   3.512   0.155   1.132
  756SOL    HW2 3168   3.572   0.068   1.007
  757SOL     OW 3169   0.164   6.148   3.083
  757SOL    HW1 3170   0.214   6.127   3.167
  757SOL    HW2 3171   0.067   6.160   3.105
  758SOL     OW 3172   4.108   0.791   2.168
  758SOL    HW1 3173   4.163   0.856   2.219
  758SOL    HW2 3174   4.052   0.840   2.101
  759SOL     OW 3175   0.598   0.912   0.500
  759SOL    HW1 3176   0.511   0.927   0.453
  759SOL    HW2 3177   0.639   0.827   0.467
  760SOL     OW 3178   4.562   0.402   5.901
  760SOL    HW1 3179   4.572   0.489   5.949
  760SOL    HW2 3180   4.651   0.368   5.872
  761SOL     OW 3181   5.366   3.903   5.495
  761SOL    HW1 3182   5.304   3.824   5.497
  761SOL    HW2 3183   5.460   3.872   5.504
  762SOL     OW 3184   1.731   0.022   4.990
  762SOL    HW1 3185   1.824   7.006   4.981
  762SOL    HW2 3186   1.694   7.012   5.079
  763SOL     OW 3187   4.150   5.188   6.541
  763SOL    HW1 3188   4.104   5.100   6.551
  763SOL    HW2 3189   4.243   5.181   6.578
  764SOL     OW 3190   4.308   0.515   4.028
  764SOL    HW1 3191   4.376   0.583   4.002
  764SOL    HW2 3192   4.283   0.527   4.124
  765SOL     OW 3193   1.061   6.120   1.433
  765SOL    HW1 3194   1.083   6.171   1.516
  765SOL    HW2 3195   1.100   6.166   1.354
  766SOL     OW 3196   1.044   2.993   0.803
  766SOL    HW1 3197   1.114   3.056   0.837
  766SOL    HW2 3198   0.954   3.032   0.819
  767SOL     OW 3199   6.113   5.734   2.763
  767SOL    HW1 3200   6.034   5.719   2.703
  767SOL    HW2 3201   6.114   5.665   2.835
  768SOL     OW 3202   2.343   0.022   2.141
  768SOL    HW1 3203   2.339   6.940   2.149
  768SOL    HW2 3204   2.421   0.048   2.084
  769SOL     OW 3205   3.228   0.790   4.865
  769SOL    HW1 3206   3.177   0.776   4.950
  769SOL    HW2 3207   3.309   0.847   4.884
  770SOL     OW 3208   2.081   4.252   3.147
  770SOL    HW1 3209   2.089   4.253   3.047
  770SOL    HW2 3210   2.145   4.185   3.185
  771SOL     OW 3211   2.585   5.820   2.522
  771SOL    HW1 3212   2.633   5.882   2.584
  771SOL    HW2 3213   2.645   5.745   2.496
  772SOL     OW 3214   6.393   5.255   0.714
  772SOL    HW1 3215   6.368   5.254   0.617
  772SOL    HW2 3216   6.471   5.194   0.728
  773SOL     OW 3217   6.872   3.823   3.630
  773SOL    HW1 3218   6.965   3.796   3.658
  773SOL    HW2 3219   6.851   3.913   3.668
  774SOL     OW 3220   1.058   1.623   2.234
  774SOL    HW1 3221   1.057   1.640   2.332
  774SOL    HW2 3222   1.014   1.535   2.215
  775SOL     OW 3223   1.016   2.003   3.168
  775SOL    HW1 3224   1.069   2.081   3.138
  775SOL    HW2 3225   0.930   1.999   3.116
  776SOL     OW 3226   6.817   0.673   5.730
  776SOL    HW1 3227   6.733   0.629   5.698
  776SOL    HW2 3228   6.859   0.722   5.653
  777SOL     OW 3229   3.196   5.519   0.930
  777SOL    HW1 3230   3.154   5.604   0.964
  777SOL    HW2 3231   3.216   5.529   0.833
  778SOL     OW 3232   3.582   1.867   3.231
  778SOL    HW1 3233   3.549   1.854   3.324
  778SOL    HW2 3234   3.563   1.785   3.177
  779SOL     OW 3235   0.501   1.930   2.914
  779SOL    HW1 3236   0.528   2.023   2.938
  779SOL    HW2 3237   0.418   1.934   2.857
  780SOL     OW 3238   6.138   3.893   3.999
  780SOL    HW1 3239   6.200   3.910   3.922
  780SOL    HW2 3240   6.182   3.831   4.064
  781SOL     OW 3241   5.305   1.556   6.716
  781SOL    HW1 3242   5.216   1.559   6.670
  781SOL    HW2 3243   5.359   1.635   6.688
  782SOL     OW 3244   0.932   3.543   6.830
  782SOL    HW1 3245   0.950   3.535   6.928
  782SOL    HW2 3246   1.007   3.503   6.778
  783SOL     OW 3247   4.100   4.607   1.408
  783SOL    HW1 3248   4.175   4.674   1.401
  783SOL    HW2 3249   4.133   4.527   1.458
  784SOL     OW 3250   5.329   6.191   6.855
  784SOL    HW1 3251   5.376   6.272   6.890
  784SOL    HW2 3252   5.316   6.125   6.929
  785SOL     OW 3253   6.789   3.044   3.080
  785SOL    HW1 3254   6.746   3.104   3.012
  785SOL    HW2 3255   6.863   3.093   3.126
  786SOL     OW 3256   1.400   0.996   0.992
  786SOL    HW1 3257   1.454   0.969   1.072
  786SOL    HW2 3258   1.338   1.071   1.017
  787SOL     OW 3259   2.821   0.816   6.823
  787SOL    HW1 3260   2.736   0.865   6.808
  787SOL    HW2 3261   2.802   0.719   6.839
  788SOL     OW 3262   2.927   2.035   5.007
  788SOL    HW1 3263   2.898   2.085   4.925
  788SOL    HW2 3264   2.982   2.095   5.065
  789SOL     OW 3265   5.255   4.105   0.823
  789SOL    HW1 3266   5.250   4.047   0.904
  789SOL    HW2 3267   5.290   4.196   0.850
  790SOL     OW 3268   2.651   0.770   4.067
  790SOL    HW1 3269   2.648   0.826   4.150
  790SOL    HW2 3270   2.702   0.685   4.086
  791SOL     OW 3271   3.108   6.382   3.143
  791SOL    HW1 3272   3.185   6.320   3.157
  791SOL    HW2 3273   3.141   6.476   3.137
  792SOL     OW 3274   0.394   0.736   2.088
  792SOL    HW1 3275   0.307   0.694   2.060
  792SOL    HW2 3276   0.401   0.827   2.047
  793SOL     OW 3277   4.669   6.049   2.662
  793SOL    HW1 3278   4.676   6.134   2.715
  793SOL    HW2 3279   4.761   6.014   2.643
  794SOL     OW 3280   3.061   3.573   4.769
  794SOL    HW1 3281   3.094   3.626   4.691
  794SOL    HW2 3282   2.964   3.554   4.759
  795SOL     OW 3283   3.703   6.292   5.006
  795SOL    HW1 3284   3.707   6.326   4.912
  795SOL    HW2 3285   3.679   6.366   5.068
  796SOL     OW 3286   1.334   2.132   6.536
  796SOL    HW1 3287   1.400   2.117   6.462
  796SOL    HW2 3288   1.321   2.230   6.549
  797SOL     OW 3289   4.920   2.548   2.240
  797SOL    HW1 3290   4.848   2.617   2.226
  797SOL    HW2 3291   4.882   2.468   2.285
  798SOL     OW 3292   4.963   7.010   1.434
  798SOL    HW1 3293   4.896   0.042   1.378
  798SOL    HW2 3294   5.023   6.956   1.374
  799SOL     OW 3295   6.150   1.397   4.806
  799SOL    HW1 3296   6.231   1.452   4.790
  799SOL    HW2 3297   6.120   1.356   4.720
  800SOL     OW 3298   5.593   1.158   2.405
  800SOL    HW1 3299   5.632   1.242   2.444
  800SOL    HW2 3300   5.493   1.165   2.403
  801SOL     OW 3301   2.059   3.285   3.807
  801SOL    HW1 3302   2.070   3.271   3.709
  801SOL    HW2 3303   1.983   3.347   3.824
  802SOL     OW 3304   4.712   0.617   0.735
  802SOL    HW1 3305   4.615   0.593   0.738
  802SOL    HW2 3306   4.740   0.650   0.825
  803SOL     OW 3307   0.029   6.107   4.701
  803SOL    HW1 3308   0.043   6.015   4.737
  803SOL    HW2 3309   0.117   6.150   4.684
  804SOL     OW 3310   5.972   6.405   6.838
  804SOL    HW1 3311   5.925   6.427   6.753
  804SOL    HW2 3312   5.929   6.325   6.881
  805SOL     OW 3313   3.443   1.807   5.538
  805SOL    HW1 3314   3.396   1.735   5.486
  805SOL    HW2 3315   3.527   1.831   5.491
  806SOL     OW 3316   4.871   1.411   4.178
  806SOL    HW1 3317   4.882   1.396   4.276
  806SOL    HW2 3318   4.920   1.340   4.127
  807SOL     OW 3319   0.822   1.540   4.569
  807SOL    HW1 3320   0.900   1.492   4.529
  807SOL    HW2 3321   0.790   1.609   4.505
  808SOL     OW 3322   4.197   3.345   6.597
  808SOL    HW1 3323   4.280   3.331   6.543
  808SOL    HW2 3324   4.149   3.426   6.563
  809SOL     OW 3325   0.329   4.383   1.593
  809SOL    HW1 3326   0.343   4.409   1.497
  809SOL    HW2 3327   0.296   4.462   1.644
  810SOL     OW 3328   3.543   2.715   1.067
  810SOL    HW1 3329   3.520   2.803   1.109
  810SOL    HW2 3330   3.537   2.643   1.136
  811SOL     OW 3331   3.806   5.822   4.063
  811SOL    HW1 3332   3.752   5.809   3.980
  811SOL    HW2 3333   3.890   5.768   4.056
  812SOL     OW 3334   0.555   1.616   1.465
  812SOL    HW1 3335   0.588   1.522   1.452
  812SOL    HW2 3336   0.594   1.675   1.393
  813SOL     OW 3337   3.884   5.168   4.130
  813SOL    HW1 3338   3.790   5.168   4.096
  813SOL    HW2 3339   3.888   5.218   4.216
  814SOL     OW 3340   5.711   6.210   3.020
  814SOL    HW1 3341   5.626   6.255   3.046
  814SOL    HW2 3342   5.723   6.127   3.075
  815SOL     OW 3343   0.093   3.136   3.310
  815SOL    HW1 3344   0.072   3.169   3.218
  815SOL    HW2 3345   0.009   3.133   3.365
  816SOL     OW 3346   6.955   6.253   0.234
  816SOL    HW1 3347   6.982   6.347   0.255
  816SOL    HW2 3348   6.937   6.244   0.136
  817SOL     OW 3349   2.195   3.932   1.421
  817SOL    HW1 3350   2.282   3.904   1.380
  817SOL    HW2 3351   2.122   3.870   1.392
  818SOL     OW 3352   6.441   3.056   2.059
  818SOL    HW1 3353   6.528   3.011   2.041
  818SOL    HW2 3354   6.406   3.027   2.148
  819SOL     OW 3355   5.558   3.127   3.341
  819SOL    HW1 3356   5.580   3.205   3.282
  819SOL    HW2 3357   5.478   3.150   3.398
  820SOL     OW 3358   2.803   2.775   6.248
  820SOL    HW1 3359   2.742   2.783   6.169
  820SOL    HW2 3360   2.749   2.779   6.332
  821SOL     OW 3361   2.184   3.814   0.608
  821SOL    HW1 3362   2.124   3.734   0.614
  821SOL    HW2 3363   2.201   3.835   0.512
  822SOL     OW 3364   1.010   4.694   4.686
  822SOL    HW1 3365   1.044   4.773   4.635
  822SOL    HW2 3366   1.083   4.627   4.696
  823SOL     OW 3367   4.718   4.040   6.621
  823SOL    HW1 3368   4.690   4.115   6.680
  823SOL    HW2 3369   4.677   3.955   6.654
  824SOL     OW 3370   5.252   1.214   5.250
  824SOL    HW1 3371   5.301   1.139   5.294
  824SOL    HW2 3372   5.227   1.283   5.319
  825SOL     OW 3373   1.392   4.062   1.128
  825SOL    HW1 3374   1.335   4.144   1.135
  825SOL    HW2 3375   1.488   4.088   1.142
  826SOL     OW 3376   5.625   3.279   6.617
  826SOL    HW1 3377   5.718   3.253   6.592
  826SOL    HW2 3378   5.572   3.197   6.638
  827SOL     OW 3379   3.303   5.720   6.244
  827SOL    HW1 3380   3.329   5.736   6.149
  827SOL    HW2 3381   3.361   5.775   6.304
  828SOL     OW 3382   5.597   6.576   5.882
  828SOL    HW1 3383   5.512   6.544   5.840
  828SOL    HW2 3384   5.583   6.587   5.980
  829SOL     OW 3385   2.980   3.757   3.874
  829SOL    HW1 3386   2.969   3.797   3.964
  829SOL    HW2 3387   2.996   3.658   3.883
  830SOL     OW 3388   4.923   4.634   6.623
  830SOL    HW1 3389   4.992   4.705   6.635
  830SOL    HW2 3390   4.848   4.650   6.687
  831SOL     OW 3391   5.973   1.095   5.686
  831SOL    HW1 3392   5.915   1.142   5.619
  831SOL    HW2 3393   5.917   1.030   5.738
  832SOL     OW 3394   2.351   1.231   1.192
  832SOL    HW1 3395   2.422   1.182   1.244
  832SOL    HW2 3396   2.309   1.169   1.126
  833SOL     OW 3397   6.988   4.958   6.242
  833SOL    HW1 3398   0.022   4.935   6.324
  833SOL    HW2 3399   6.908   4.899   6.235
  834SOL     OW 3400   2.812   3.368   0.809
  834SOL    HW1 3401   2.766   3.290   0.768
  834SOL    HW2 3402   2.797   3.450   0.753
  835SOL     OW 3403   3.069   0.386   4.608
  835SOL    HW1 3404   3.159   0.362   4.572
  835SOL    HW2 3405   3.048   0.328   4.687
  836SOL     OW 3406   3.495   6.689   0.245
  836SOL    HW1 3407   3.532   6.686   0.338
  836SOL    HW2 3408   3.565   6.723   0.182
  837SOL     OW 3409   5.350   6.343   0.179
  837SOL    HW1 3410   5.352   6.398   0.262
  837SOL    HW2 3411   5.390   6.395   0.103
  838SOL     OW 3412   1.103   6.782   4.933
  838SOL    HW1 3413   1.031   6.731   4.885
  838SOL    HW2 3414   1.084   6.783   5.031
  839SOL     OW 3415   2.687   2.286   2.243
  839SOL    HW1 3416   2.759   2.319   2.182
  839SOL    HW2 3417   2.629   2.220   2.194
  840SOL     OW 3418   5.797   6.848   6.095
  840SOL    HW1 3419   5.819   6.912   6.022
  840SOL    HW2 3420   5.762   6.898   6.174
  841SOL     OW 3421   4.685   5.046   0.598
  841SOL    HW1 3422   4.688   5.104   0.679
  841SOL    HW2 3423   4.748   4.969   0.609
  842SOL     OW 3424   4.656   5.130   4.262
  842SOL    HW1 3425   4.732   5.190   4.236
  842SOL    HW2 3426   4.688   5.062   4.327
  843SOL     OW 3427   3.454   1.545   6.847
  843SOL    HW1 3428   3.377   1.564   6.786
  843SOL    HW2 3429   3.537   1.587   6.811
  844SOL     OW 3430   5.324   0.122   1.101
  844SOL    HW1 3431   5.277   0.037   1.124
  844SOL    HW2 3432   5.422   0.105   1.092
  845SOL     OW 3433   5.725   3.557   5.204
  845SOL    HW1 3434   5.812   3.508   5.213
  845SOL    HW2 3435   5.742   3.649   5.169
  846SOL     OW 3436   3.325   1.551   0.342
  846SOL    HW1 3437   3.270   1.523   0.420
  846SOL    HW2 3438   3.422   1.535   0.361
  847SOL     OW 3439   0.518   3.935   0.493
  847SOL    HW1 3440   0.536   3.841   0.522
  847SOL    HW2 3441   0.517   3.995   0.573
  848SOL     OW 3442   6.336   1.219   6.452
  848SOL    HW1 3443   6.412   1.194   6.513
  848SOL    HW2 3444   6.306   1.312   6.473
  849SOL     OW 3445   0.926   4.637   5.577
  849SOL    HW1 3446   0.928   4.540   5.554
  849SOL    HW2 3447   0.928   4.691   5.492
  850SOL     OW 3448   5.357   1.325   4.127
  850SOL    HW1 3449   5.428   1.257   4.144
  850SOL    HW2 3450   5.296   1.292   4.055
  851SOL     OW 3451   6.968   1.024   1.183
  851SOL    HW1 3452   6.916   0.964   1.122
  851SOL    HW2 3453   6.904   1.074   1.242
  852SOL     OW 3454   1.680   2.207   0.493
  852SOL    HW1 3455   1.739   2.270   0.544
  852SOL    HW2 3456   1.636   2.143   0.557
  853SOL     OW 3457   1.310   4.362   2.242
  853SOL    HW1 3458   1.330   4.319   2.330
  853SOL    HW2 3459   1.393   4.361   2.186
  854SOL     OW 3460   4.684   5.660   2.438
  854SOL    HW1 3461   4.675   5.594   2.364
  854SOL    HW2 3462   4.696   5.751   2.401
  855SOL     OW 3463   6.937   0.028   1.020
  855SOL    HW1 3464   6.948   0.116   0.974
  855SOL    HW2 3465   6.994   0.024   1.102
  856SOL     OW 3466   1.801   1.906   4.996
  856SOL    HW1 3467   1.816   2.003   5.013
  856SOL    HW2 3468   1.785   1.859   5.083
  857SOL     OW 3469   5.806   4.649   1.637
  857SOL    HW1 3470   5.758   4.706   1.703
  857SOL    HW2 3471   5.897   4.626   1.671
  858SOL     OW 3472   2.551   4.404   1.432
  858SOL    HW1 3473   2.465   4.398   1.483
  858SOL    HW2 3474   2.562   4.323   1.375
  859SOL     OW 3475   4.591   5.148   6.931
  859SOL    HW1 3476   4.643   5.231   6.953
  859SOL    HW2 3477   4.575   5.095   7.014
  860SOL     OW 3478   4.203   4.382   0.855
  860SOL    HW1 3479   4.289   4.334   0.870
  860SOL    HW2 3480   4.174   4.427   0.940
  861SOL     OW 3481   2.357   0.174   4.913
  861SOL    HW1 3482   2.333   0.107   4.983
  861SOL    HW2 3483   2.409   0.249   4.955
  862SOL     OW 3484   7.001   4.827   5.691
  862SOL    HW1 3485   0.036   4.894   5.743
  862SOL    HW2 3486   6.958   4.872   5.612
  863SOL     OW 3487   1.131   0.713   0.505
  863SOL    HW1 3488   1.134   0.813   0.510
  863SOL    HW2 3489   1.123   0.675   0.596
  864SOL     OW 3490   4.984   4.580   3.868
  864SOL    HW1 3491   4.968   4.648   3.796
  864SOL    HW2 3492   4.959   4.489   3.834
  865SOL     OW 3493   2.134   6.265   4.850
  865SOL    HW1 3494   2.043   6.246   4.888
  865SOL    HW2 3495   2.203   6.216   4.902
  866SOL     OW 3496   2.085   2.480   1.951
  866SOL    HW1 3497   2.092   2.383   1.928
  866SOL    HW2 3498   2.130   2.535   1.881
  867SOL     OW 3499   4.091   3.056   1.259
  867SOL    HW1 3500   4.108   2.967   1.217
  867SOL    HW2 3501   4.006   3.095   1.224
  868SOL     OW 3502   5.801   6.274   1.129
  868SOL    HW1 3503   5.886   6.315   1.162
  868SOL    HW2 3504   5.729   6.288   1.197
  869SOL     OW 3505   6.718   5.488   3.107
  869SOL    HW1 3506   6.717   5.430   3.188
  869SOL    HW2 3507   6.655   5.564   3.119
  870SOL     OW 3508   5.762   3.101   6.869
  870SOL    HW1 3509   5.798   3.033   6.932
  870SOL    HW2 3510   5.684   3.063   6.819
  871SOL     OW 3511   5.523   3.710   1.896
  871SOL    HW1 3512   5.442   3.656   1.870
  871SOL    HW2 3513   5.598   3.647   1.919
  872SOL     OW 3514   6.061   4.159   4.068
  872SOL    HW1 3515   6.103   4.078   4.027
  872SOL    HW2 3516   6.115   4.240   4.043
  873SOL     OW 3517   5.334   0.135   3.472
  873SOL    HW1 3518   5.393   0.087   3.536
  873SOL    HW2 3519   5.389   0.167   3.394
  874SOL     OW 3520   1.808   4.472   5.509
  874SOL    HW1 3521   1.729   4.450   5.452
  874SOL    HW2 3522   1.887   4.489   5.449
  875SOL     OW 3523   4.669   3.762   1.046
  875SOL    HW1 3524   4.656   3.667   1.073
  875SOL    HW2 3525   4.722   3.810   1.117
  876SOL     OW 3526   0.485   5.729   3.542
  876SOL    HW1 3527   0.440   5.712   3.454
  876SOL    HW2 3528   0.459   5.819   3.577
  877SOL     OW 3529   3.644   4.943   0.177
  877SOL    HW1 3530   3.671   4.905   0.266
  877SOL    HW2 3531   3.651   4.872   0.107
  878SOL     OW 3532   4.239   5.980   6.184
  878SOL    HW1 3533   4.248   5.944   6.091
  878SOL    HW2 3534   4.151   6.026   6.194
  879SOL     OW 3535   3.543   2.010   1.932
  879SOL    HW1 3536   3.593   2.030   2.017
  879SOL    HW2 3537   3.570   2.074   1.861
  880SOL     OW 3538   3.242   4.659   0.075
  880SOL    HW1 3539   3.190   4.726   0.128
  880SOL    HW2 3540   3.212   4.662   6.998
  881SOL     OW 3541   4.024   4.542   5.436
  881SOL    HW1 3542   4.107   4.487   5.433
  881SOL    HW2 3543   4.046   4.637   5.412
  882SOL     OW 3544   1.461   1.184   4.135
  882SOL    HW1 3545   1.493   1.091   4.153
  882SOL    HW2 3546   1.464   1.237   4.220
  883SOL     OW 3547   4.829   5.470   4.636
  883SOL    HW1 3548   4.801   5.530   4.710
  883SOL    HW2 3549   4.819   5.375   4.665
  884SOL     OW 3550   0.207   3.340   1.551
  884SOL    HW1 3551   0.257   3.253   1.551
  884SOL    HW2 3552   0.155   3.349   1.635
  885SOL     OW 3553   5.294   5.819   6.620
  885SOL    HW1 3554   5.347   5.875   6.684
  885SOL    HW2 3555   5.215   5.780   6.668
  886SOL     OW 3556   4.266   0.269   0.503
  886SOL    HW1 3557   4.308   0.275   0.594
  886SOL    HW2 3558   4.335   0.289   0.434
  887SOL     OW 3559   4.438   6.869   4.777
  887SOL    HW1 3560   4.465   6.773   4.767
  887SOL    HW2 3561   4.408   6.886   4.870
  888SOL     OW 3562   5.961   6.550   3.506
  888SOL    HW1 3563   5.878   6.515   3.550
  888SOL    HW2 3564   6.032   6.480   3.509
  889SOL     OW 3565   0.678   6.561   6.385
  889SOL    HW1 3566   0.719   6.495   6.322
  889SOL    HW2 3567   0.607   6.516   6.439
  890SOL     OW 3568   2.736   5.134   2.086
  890SOL    HW1 3569   2.830   5.164   2.102
  890SOL    HW2 3570   2.736   5.052   2.030
  891SOL     OW 3571   5.940   3.733   1.558
  891SOL    HW1 3572   6.015   3.754   1.495
  891SOL    HW2 3573   5.856   3.718   1.506
  892SOL     OW 3574   3.615   4.032   0.407
  892SOL    HW1 3575   3.631   3.940   0.444
  892SOL    HW2 3576   3.541   4.028   0.339
  893SOL     OW 3577   2.637   1.207   1.989
  893SOL    HW1 3578   2.632   1.114   1.954
  893SOL    HW2 3579   2.634   1.272   1.913
  894SOL     OW 3580   1.922   3.449   4.274
  894SOL    HW1 3581   1.837   3.396   4.282
  894SOL    HW2 3582   1.963   3.432   4.185
  895SOL     OW 3583   1.919   5.773   4.881
  895SOL    HW1 3584   1.848   5.841   4.899
  895SOL    HW2 3585   1.971   5.756   4.964
  896SOL     OW 3586   5.569   5.946   2.496
  896SOL    HW1 3587   5.528   5.926   2.408
  896SOL    HW2 3588   5.533   6.033   2.531
  897SOL     OW 3589   5.562   0.812   0.237
  897SOL    HW1 3590   5.549   0.750   0.160
  897SOL    HW2 3591   5.527   0.770   0.321
  898SOL     OW 3592   3.738   5.794   3.579
  898SOL    HW1 3593   3.827   5.839   3.570
  898SOL    HW2 3594   3.676   5.828   3.509
  899SOL     OW 3595   0.413   5.046   6.830
  899SOL    HW1 3596   0.378   5.125   6.880
  899SOL    HW2 3597   0.346   4.972   6.832
  900SOL     OW 3598   5.070   5.934   1.394
  900SOL    HW1 3599   5.066   6.026   1.433
  900SOL    HW2 3600   5.010   5.928   1.314
  901SOL     OW 3601   0.534   1.199   5.330
  901SOL    HW1 3602   0.599   1.207   5.254
  901SOL    HW2 3603   0.550   1.113   5.379
  902SOL     OW 3604   0.368   1.304   6.029
  902SOL    HW1 3605   0.355   1.236   6.101
  902SOL    HW2 3606   0.292   1.300   5.964
  903SOL     OW 3607   6.633   3.778   6.459
  903SOL    HW1 3608   6.707   3.808   6.398
  903SOL    HW2 3609   6.592   3.695   6.423
  904SOL     OW 3610   1.557   2.181   4.203
  904SOL    HW1 3611   1.542   2.226   4.115
  904SOL    HW2 3612   1.495   2.103   4.212
  905SOL     OW 3613   4.764   2.940   6.266
  905SOL    HW1 3614   4.682   2.978   6.310
  905SOL    HW2 3615   4.792   2.999   6.191
  906SOL     OW 3616   0.471   3.725   6.415
  906SOL    HW1 3617   0.492   3.822   6.413
  906SOL    HW2 3618   0.472   3.689   6.321
  907SOL     OW 3619   5.422   2.731   3.616
  907SOL    HW1 3620   5.451   2.825   3.603
  907SOL    HW2 3621   5.346   2.711   3.554
  908SOL     OW 3622   1.881   6.591   3.592
  908SOL    HW1 3623   1.791   6.634   3.586
  908SOL    HW2 3624   1.917   6.602   3.685
  909SOL     OW 3625   2.260   0.643   1.227
  909SOL    HW1 3626   2.216   0.554   1.243
  909SOL    HW2 3627   2.338   0.653   1.289
  910SOL     OW 3628   2.623   0.319   0.656
  910SOL    HW1 3629   2.594   0.357   0.744
  910SOL    HW2 3630   2.720   0.340   0.641
  911SOL     OW 3631   6.417   5.632   1.194
  911SOL    HW1 3632   6.487   5.703   1.203
  911SOL    HW2 3633   6.460   5.543   1.184
  912SOL     OW 3634   6.703   0.559   5.186
  912SOL    HW1 3635   6.618   0.569   5.238
  912SOL    HW2 3636   6.714   0.638   5.125
  913SOL     OW 3637   2.084   0.296   3.804
  913SOL    HW1 3638   2.159   0.232   3.785
  913SOL    HW2 3639   2.106   0.349   3.885
  914SOL     OW 3640   2.801   5.643   5.560
  914SOL    HW1 3641   2.785   5.550   5.594
  914SOL    HW2 3642   2.770   5.709   5.628
  915SOL     OW 3643   1.100   3.633   0.980
  915SOL    HW1 3644   1.102   3.613   1.078
  915SOL    HW2 3645   1.167   3.705   0.960
  916SOL     OW 3646   1.287   2.347   2.727
  916SOL    HW1 3647   1.333   2.289   2.794
  916SOL    HW2 3648   1.355   2.403   2.679
  917SOL     OW 3649   4.689   0.752   1.409
  917SOL    HW1 3650   4.641   0.803   1.480
  917SOL    HW2 3651   4.666   0.655   1.417
  918SOL     OW 3652   2.387   6.043   0.099
  918SOL    HW1 3653   2.419   6.097   0.021
  918SOL    HW2 3654   2.453   6.048   0.173
  919SOL     OW 3655   0.665   5.776   1.967
  919SOL    HW1 3656   0.647   5.684   1.932
  919SOL    HW2 3657   0.670   5.774   2.067
  920SOL     OW 3658   1.804   0.318   2.999
  920SOL    HW1 3659   1.708   0.299   2.978
  920SOL    HW2 3660   1.853   0.232   3.014
  921SOL     OW 3661   5.394   4.739   3.757
  921SOL    HW1 3662   5.419   4.830   3.790
  921SOL    HW2 3663   5.364   4.745   3.661
  922SOL     OW 3664   3.665   2.762   6.366
  922SOL    HW1 3665   3.601   2.807   6.304
  922SOL    HW2 3666   3.628   2.763   6.459
  923SOL     OW 3667   3.009   5.643   0.384
  923SOL    HW1 3668   3.006   5.737   0.420
  923SOL    HW2 3669   3.032   5.646   0.287
  924SOL     OW 3670   5.524   3.333   2.042
  924SOL    HW1 3671   5.445   3.273   2.025
  924SOL    HW2 3672   5.494   3.428   2.043
  925SOL     OW 3673   6.837   1.702   5.460
  925SOL    HW1 3674   6.741   1.676   5.466
  925SOL    HW2 3675   6.888   1.632   5.410
  926SOL     OW 3676   5.698   1.059   6.905
  926SOL    HW1 3677   5.704   0.966   6.870
  926SOL    HW2 3678   5.621   1.106   6.861
  927SOL     OW 3679   5.351   4.237   3.970
  927SOL    HW1 3680   5.333   4.216   4.066
  927SOL    HW2 3681   5.394   4.158   3.926
  928SOL     OW 3682   2.026   0.686   0.683
  928SOL    HW1 3683   1.993   0.592   0.684
  928SOL    HW2 3684   1.985   0.737   0.758
  929SOL     OW 3685   6.997   1.794   0.991
  929SOL    HW1 3686   0.031   1.710   0.975
  929SOL    HW2 3687   6.901   1.779   0.969
  930SOL     OW 3688   6.485   5.916   4.482
  930SOL    HW1 3689   6.457   5.851   4.554
  930SOL    HW2 3690   6.557   5.874   4.427
  931SOL     OW 3691   0.312   3.443   3.787
  931SOL    HW1 3692   0.355   3.497   3.715
  931SOL    HW2 3693   0.383   3.400   3.843
  932SOL     OW 3694   2.757   6.614   1.667
  932SOL    HW1 3695   2.666   6.586   1.698
  932SOL    HW2 3696   2.807   6.656   1.744
  933SOL     OW 3697   0.824   5.236   2.023
  933SOL    HW1 3698   0.864   5.307   2.082
  933SOL    HW2 3699   0.837   5.146   2.065
  934SOL     OW 3700   2.151   0.714   4.143
  934SOL    HW1 3701   2.208   0.639   4.175
  934SOL    HW2 3702   2.147   0.712   4.043
  935SOL     OW 3703   4.975   4.108   5.286
  935SOL    HW1 3704   5.021   4.174   5.345
  935SOL    HW2 3705   4.911   4.054   5.340
  936SOL     OW 3706   1.039   6.939   5.848
  936SOL    HW1 3707   0.963   6.982   5.896
  936SOL    HW2 3708   1.074   7.001   5.778
  937SOL     OW 3709   5.080   1.917   5.676
  937SOL    HW1 3710   5.110   1.888   5.585
  937SOL    HW2 3711   5.008   1.986   5.667
  938SOL     OW 3712   7.016   5.237   6.203
  938SOL    HW1 3713   6.938   5.266   6.148
  938SOL    HW2 3714   7.012   5.138   6.218
  939SOL     OW 3715   4.944   1.457   5.504
  939SOL    HW1 3716   5.007   1.509   5.447
  939SOL    HW2 3717   4.965   1.472   5.601
  940SOL     OW 3718   6.723   3.129   2.695
  940SOL    HW1 3719   6.796   3.104   2.632
  940SOL    HW2 3720   6.719   3.064   2.770
  941SOL     OW 3721   6.409   0.934   3.838
  941SOL    HW1 3722   6.353   0.895   3.764
  941SOL    HW2 3723   6.505   0.936   3.809
  942SOL     OW 3724   5.005   0.953   4.464
  942SOL    HW1 3725   5.028   0.857   4.447
  942SOL    HW2 3726   5.007   1.004   4.378
  943SOL     OW 3727   1.164   3.208   3.506
  943SOL    HW1 3728   1.225   3.133   3.480
  943SOL    HW2 3729   1.114   3.241   3.425
  944SOL     OW 3730   6.547   3.048   6.594
  944SOL    HW1 3731   6.609   3.125   6.611
  944SOL    HW2 3732   6.463   3.061   6.646
  945SOL     OW 3733   6.576   4.457   5.499
  945SOL    HW1 3734   6.480   4.480   5.483
  945SOL    HW2 3735   6.627   4.540   5.523
  946SOL     OW 3736   5.396   2.862   6.005
  946SOL    HW1 3737   5.483   2.878   6.051
  946SOL    HW2 3738   5.321   2.880   6.069
  947SOL     OW 3739   3.186   3.587   5.039
  947SOL    HW1 3740   3.146   3.548   4.955
  947SOL    HW2 3741   3.167   3.686   5.041
  948SOL     OW 3742   4.695   1.117   1.056
  948SOL    HW1 3743   4.792   1.135   1.070
  948SOL    HW2 3744   4.674   1.022   1.077
  949SOL     OW 3745   0.018   6.368   6.457
  949SOL    HW1 3746   0.035   6.333   6.365
  949SOL    HW2 3747   0.073   6.449   6.473
  950SOL     OW 3748   4.248   5.260   2.492
  950SOL    HW1 3749   4.229   5.162   2.489
  950SOL    HW2 3750   4.245   5.297   2.399
  951SOL     OW 3751   1.823   0.758   1.821
  951SOL    HW1 3752   1.731   0.760   1.861
  951SOL    HW2 3753   1.873   0.840   1.849
  952SOL     OW 3754   5.485   1.221   1.745
  952SOL    HW1 3755   5.407   1.195   1.688
  952SOL    HW2 3756   5.475   1.183   1.836
  953SOL     OW 3757   5.052   5.614   5.070
  953SOL    HW1 3758   5.138   5.571   5.100
  953SOL    HW2 3759   4.981   5.597   5.138
  954SOL     OW 3760   5.179   6.043   0.573
  954SOL    HW1 3761   5.104   6.108   0.586
  954SOL    HW2 3762   5.243   6.050   0.649
  955SOL     OW 3763   0.598   5.105   3.162
  955SOL    HW1 3764   0.670   5.097   3.093
  955SOL    HW2 3765   0.582   5.016   3.204
  956SOL     OW 3766   0.738   1.938   2.182
  956SOL    HW1 3767   0.820   1.884   2.162
  956SOL    HW2 3768   0.762   2.035   2.188
  957SOL     OW 3769   1.565   4.463   4.157
  957SOL    HW1 3770   1.482   4.418   4.190
  957SOL    HW2 3771   1.631   4.393   4.129
  958SOL     OW 3772   4.771   2.504   1.396
  958SOL    HW1 3773   4.717   2.509   1.480
  958SOL    HW2 3774   4.716   2.539   1.320
  959SOL     OW 3775   2.536   4.868   3.107
  959SOL    HW1 3776   2.518   4.954   3.060
  959SOL    HW2 3777   2.486   4.794   3.061
  960SOL     OW 3778   0.277   6.074   4.069
  960SOL    HW1 3779   0.312   6.050   3.979
  960SOL    HW2 3780   0.350   6.118   4.123
  961SOL     OW 3781   4.840   6.404   3.158
  961SOL    HW1 3782   4.924   6.377   3.204
  961SOL    HW2 3783   4.851   6.496   3.119
  962SOL     OW 3784   1.695   1.434   4.149
  962SOL    HW1 3785   1.686   1.387   4.062
  962SOL    HW2 3786   1.642   1.386   4.219
  963SOL     OW 3787   6.085   1.225   6.095
  963SOL    HW1 3788   6.036   1.241   6.009
  963SOL    HW2 3789   6.182   1.248   6.083
  964SOL     OW 3790   6.250   3.453   0.699
  964SOL    HW1 3791   6.316   3.519   0.664
  964SOL    HW2 3792   6.298   3.386   0.758
  965SOL     OW 3793   5.604   1.597   0.869
  965SOL    HW1 3794   5.547   1.534   0.816
  965SOL    HW2 3795   5.547   1.667   0.911
  966SOL     OW 3796   6.326   1.751   2.036
  966SOL    HW1 3797   6.365   1.660   2.042
  966SOL    HW2 3798   6.278   1.761   1.949
  967SOL     OW 3799   1.358   5.548   0.584
  967SOL    HW1 3800   1.304   5.471   0.618
  967SOL    HW2 3801   1.300   5.630   0.581
  968SOL     OW 3802   4.495   2.437   1.990
  968SOL    HW1 3803   4.574   2.490   1.958
  968SOL    HW2 3804   4.430   2.425   1.915
  969SOL     OW 3805   4.319   5.906   5.907
  969SOL    HW1 3806   4.325   5.812   5.941
  969SOL    HW2 3807   4.405   5.930   5.861
  970SOL     OW 3808   4.456   1.039   5.044
  970SOL    HW1 3809   4.534   1.038   5.107
  970SOL    HW2 3810   4.485   1.002   4.956
  971SOL     OW 3811   0.560   1.845   3.247
  971SOL    HW1 3812   0.632   1.859   3.314
  971SOL    HW2 3813   0.542   1.747   3.238
  972SOL     OW 3814   5.609   3.558   1.230
  972SOL    HW1 3815   5.695   3.507   1.239
  972SOL    HW2 3816   5.532   3.496   1.244
  973SOL     OW 3817   0.157   4.446   6.348
  973SOL    HW1 3818   0.127   4.541   6.363
  973SOL    HW2 3819   0.240   4.429   6.401
  974SOL     OW 3820   4.456   0.688   2.252
  974SOL    HW1 3821   4.488   0.775   2.290
  974SOL    HW2 3822   4.383   0.652   2.310
  975SOL     OW 3823   1.864   5.286   6.515
  975SOL    HW1 3824   1.955   5.263   6.481
  975SOL    HW2 3825   1.806   5.206   6.511
  976SOL     OW 3826   5.775   2.929   2.917
  976SOL    HW1 3827   5.842   2.997   2.948
  976SOL    HW2 3828   5.762   2.860   2.990
  977SOL     OW 3829   2.756   1.258   3.584
  977SOL    HW1 3830   2.665   1.238   3.619
  977SOL    HW2 3831   2.805   1.173   3.568
  978SOL     OW 3832   4.878   4.171   5.618
  978SOL    HW1 3833   4.927   4.094   5.577
  978SOL    HW2 3834   4.781   4.162   5.599
  979SOL     OW 3835   6.677   1.635   2.529
  979SOL    HW1 3836   6.640   1.620   2.437
  979SOL    HW2 3837   6.773   1.608   2.531
  980SOL     OW 3838   4.928   2.009   3.643
  980SOL    HW1 3839   4.931   2.109   3.638
  980SOL    HW2 3840   4.987   1.970   3.572
  981SOL     OW 3841   1.554   1.339   5.162
  981SOL    HW1 3842   1.456   1.355   5.158
  981SOL    HW2 3843   1.582   1.283   5.084
  982SOL     OW 3844   2.175   1.821   3.951
  982SOL    HW1 3845   2.196   1.792   4.044
  982SOL    HW2 3846   2.211   1.914   3.936
  983SOL     OW 3847   6.264   2.316   2.979
  983SOL    HW1 3848   6.190   2.297   2.914
  983SOL    HW2 3849   6.298   2.408   2.965
  984SOL     OW 3850   3.545   0.950   4.107
  984SOL    HW1 3851   3.553   0.866   4.160
  984SOL    HW2 3852   3.608   1.018   4.144
  985SOL     OW 3853   5.342   4.700   6.419
  985SOL    HW1 3854   5.368   4.725   6.512
  985SOL    HW2 3855   5.249   4.730   6.401
  986SOL     OW 3856   5.603   4.997   0.211
  986SOL    HW1 3857   5.535   5.043   0.269
  986SOL    HW2 3858   5.618   4.904   0.245
  987SOL     OW 3859   4.214   6.316   1.415
  987SOL    HW1 3860   4.310   6.293   1.432
  987SOL    HW2 3861   4.192   6.300   1.319
  988SOL     OW 3862   3.774   3.299   1.309
  988SOL    HW1 3863   3.723   3.219   1.277
  988SOL    HW2 3864   3.853   3.313   1.249
  989SOL     OW 3865   6.884   0.910   5.407
  989SOL    HW1 3866   6.872   0.975   5.332
  989SOL    HW2 3867   6.951   0.946   5.472
  990SOL     OW 3868   4.556   0.470   2.751
  990SOL    HW1 3869   4.601   0.381   2.740
  990SOL    HW2 3870   4.621   0.536   2.789
  991SOL     OW 3871   1.674   2.429   4.868
  991SOL    HW1 3872   1.774   2.430   4.864
  991SOL    HW2 3873   1.639   2.518   4.840
  992SOL     OW 3874   1.143   4.269   1.100
  992SOL    HW1 3875   1.056   4.245   1.058
  992SOL    HW2 3876   1.128   4.296   1.196
  993SOL     OW 3877   1.649   5.470   2.257
  993SOL    HW1 3878   1.666   5.496   2.161
  993SOL    HW2 3879   1.702   5.389   2.279
  994SOL     OW 3880   3.561   3.298   2.387
  994SOL    HW1 3881   3.660   3.315   2.383
  994SOL    HW2 3882   3.519   3.365   2.448
  995SOL     OW 3883   2.826   1.740   6.203
  995SOL    HW1 3884   2.920   1.738   6.167
  995SOL    HW2 3885   2.762   1.721   6.129
  996SOL     OW 3886   1.584   4.049   4.303
  996SOL    HW1 3887   1.486   4.044   4.285
  996SOL    HW2 3888   1.621   4.134   4.265
  997SOL     OW 3889   6.860   0.580   1.699
  997SOL    HW1 3890   6.864   0.672   1.738
  997SOL    HW2 3891   6.768   0.561   1.666
  998SOL     OW 3892   4.839   6.654   3.629
  998SOL    HW1 3893   4.889   6.574   3.661
  998SOL    HW2 3894   4.772   6.626   3.560
  999SOL     OW 3895   5.718   4.986   1.392
  999SOL    HW1 3896   5.708   5.058   1.461
  999SOL    HW2 3897   5.803   4.935   1.409
 1000SOL     OW 3898   1.294   1.111   2.428
 1000SOL    HW1 3899   1.361   1.168   2.381
 1000SOL    HW2 3900   1.233   1.169   2.482
 1001SOL     OW 3901   6.241   6.834   0.211
 1001SOL    HW1 3902   6.158   6.863   0.162
 1001SOL    HW2 3903   6.262   6.900   0.283
 1002SOL     OW 3904   5.925   1.885   6.548
 1002SOL    HW1 3905   5.935   1.985   6.549
 1002SOL    HW2 3906   5.953   1.848   6.637
 1003SOL     OW 3907   2.447   6.629   1.761
 1003SOL    HW1 3908   2.444   6.678   1.674
 1003SOL    HW2 3909   2.490   6.686   1.830
 1004SOL     OW 3910   6.879   0.417   1.208
 1004SOL    HW1 3911   6.950   0.378   1.149
 1004SOL    HW2 3912   6.879   0.516   1.199
 1005SOL     OW 3913   0.426   1.532   2.961
 1005SOL    HW1 3914   0.508   1.487   2.998
 1005SOL    HW2 3915   0.398   1.605   3.023
 1006SOL     OW 3916   1.584   5.906   1.727
 1006SOL    HW1 3917   1.542   5.845   1.659
 1006SOL    HW2 3918   1.540   5.996   1.723
 1007SOL     OW 3919   5.673   0.350   4.200
 1007SOL    HW1 3920   5.747   0.360   4.134
 1007SOL    HW2 3921   5.598   0.299   4.157
 1008SOL     OW 3922   2.077   3.001   4.798
 1008SOL    HW1 3923   2.140   2.926   4.776
 1008SOL    HW2 3924   2.100   3.081   4.742
 1009SOL     OW 3925   0.796   6.359   4.202
 1009SOL    HW1 3926   0.767   6.454   4.216
 1009SOL    HW2 3927   0.749   6.300   4.269
 1010SOL     OW 3928   3.580   2.321   6.242
 1010SOL    HW1 3929   3.508   2.257   6.268
 1010SOL    HW2 3930   3.539   2.405   6.206
 1011SOL     OW 3931   2.877   5.070   2.470
 1011SOL    HW1 3932   2.865   5.126   2.388
 1011SOL    HW2 3933   2.793   5.019   2.487
 1012SOL     OW 3934   7.012   6.521   0.291
 1012SOL    HW1 3935   0.002   6.587   0.217
 1012SOL    HW2 3936   0.008   6.567   0.379
 1013SOL     OW 3937   0.196   1.469   6.198
 1013SOL    HW1 3938   0.240   1.414   6.127
 1013SOL    HW2 3939   0.138   1.411   6.255
 1014SOL     OW 3940   5.207   5.342   6.569
 1014SOL    HW1 3941   5.232   5.299   6.655
 1014SOL    HW2 3942   5.132   5.407   6.585
 1015SOL     OW 3943   2.040   6.884   5.480
 1015SOL    HW1 3944   2.037   6.829   5.396
 1015SOL    HW2 3945   2.134   6.884   5.516
 1016SOL     OW 3946   2.550   3.833   0.245
 1016SOL    HW1 3947   2.626   3.880   0.199
 1016SOL    HW2 3948   2.516   3.760   0.185
 1017SOL     OW 3949   4.444   2.838   0.948
 1017SOL    HW1 3950   4.364   2.854   0.890
 1017SOL    HW2 3951   4.431   2.752   0.998
 1018SOL     OW 3952   1.587   2.904   3.897
 1018SOL    HW1 3953   1.575   2.983   3.956
 1018SOL    HW2 3954   1.498   2.877   3.859
 1019SOL     OW 3955   1.344   0.497   0.057
 1019SOL    HW1 3956   1.325   0.495   0.155
 1019SOL    HW2 3957   1.388   0.584   0.034
 1020SOL     OW 3958   0.995   6.949   1.227
 1020SOL    HW1 3959   0.957   6.956   1.319
 1020SOL    HW2 3960   0.976   0.015   1.176
 1021SOL     OW 3961   5.913   0.967   1.203
 1021SOL    HW1 3962   5.922   1.007   1.294
 1021SOL    HW2 3963   5.985   1.005   1.144
 1022SOL     OW 3964   3.976   4.732   6.403
 1022SOL    HW1 3965   3.890   4.693   6.369
 1022SOL    HW2 3966   4.010   4.677   6.479
 1023SOL     OW 3967   6.405   0.041   1.629
 1023SOL    HW1 3968   6.381   0.110   1.560
 1023SOL    HW2 3969   6.498   0.010   1.612
 1024SOL     OW 3970   5.983   3.548   4.108
 1024SOL    HW1 3971   5.991   3.459   4.062
 1024SOL    HW2 3972   6.001   3.536   4.206
 1025SOL     OW 3973   3.378   4.133   0.745
 1025SOL    HW1 3974   3.341   4.043   0.765
 1025SOL    HW2 3975   3.333   4.170   0.664
 1026SOL     OW 3976   1.911   1.765   1.475
 1026SOL    HW1 3977   1.936   1.741   1.568
 1026SOL    HW2 3978   1.982   1.734   1.412
 1027SOL     OW 3979   2.490   6.214   0.998
 1027SOL    HW1 3980   2.520   6.229   1.092
 1027SOL    HW2 3981   2.568   6.226   0.936
 1028SOL     OW 3982   4.315   5.936   0.263
 1028SOL    HW1 3983   4.224   5.921   0.225
 1028SOL    HW2 3984   4.369   5.852   0.256
 1029SOL     OW 3985   2.223   0.333   0.220
 1029SOL    HW1 3986   2.218   0.380   0.308
 1029SOL    HW2 3987   2.143   0.358   0.165
 1030SOL     OW 3988   3.753   3.516   1.464
 1030SOL    HW1 3989   3.737   3.490   1.559
 1030SOL    HW2 3990   3.749   3.435   1.406
 1031SOL     OW 3991   5.387   5.114   0.320
 1031SOL    HW1 3992   5.362   5.200   0.365
 1031SOL    HW2 3993   5.304   5.063   0.297
 1032SOL     OW 3994   1.614   1.952   4.534
 1032SOL    HW1 3995   1.601   1.854   4.548
 1032SOL    HW2 3996   1.658   1.991   4.615
 1033SOL     OW 3997   1.702   6.609   1.317
 1033SOL    HW1 3998   1.690   6.686   1.255
 1033SOL    HW2 3999   1.781   6.555   1.288
 1034SOL     OW 4000   1.225   5.645   5.147
 1034SOL    HW1 4001   1.130   5.639   5.176
 1034SOL    HW2 4002   1.230   5.686   5.056
 1035SOL     OW 4003   2.500   1.301   3.698
 1035SOL    HW1 4004   2.561   1.377   3.721
 1035SOL    HW2 4005   2.467   1.258   3.782
 1036SOL     OW 4006   3.605   0.619   1.572
 1036SOL    HW1 4007   3.598   0.718   1.563
 1036SOL    HW2 4008   3.517   0.582   1.603
 1037SOL     OW 4009   2.359   0.879   2.003
 1037SOL    HW1 4010   2.367   0.781   1.983
 1037SOL    HW2 4011   2.449   0.922   1.995
 1038SOL     OW 4012   1.298   0.879   5.654
 1038SOL    HW1 4013   1.259   0.907   5.741
 1038SOL    HW2 4014   1.244   0.804   5.616
 1039SOL     OW 4015   4.103   3.000   5.844
 1039SOL    HW1 4016   4.140   2.940   5.773
 1039SOL    HW2 4017   4.012   2.969   5.870
 1040SOL     OW 4018   5.124   3.003   2.410
 1040SOL    HW1 4019   5.209   3.054   2.398
 1040SOL    HW2 4020   5.122   2.926   2.347
 1041SOL     OW 4021   6.817   6.768   4.073
 1041SOL    HW1 4022   6.794   6.803   3.983
 1041SOL    HW2 4023   6.812   6.668   4.073
 1042SOL     OW 4024   3.483   4.919   2.202
 1042SOL    HW1 4025   3.536   4.866   2.136
 1042SOL    HW2 4026   3.386   4.912   2.180
 1043SOL     OW 4027   4.743   1.338   5.358
 1043SOL    HW1 4028   4.718   1.418   5.304
 1043SOL    HW2 4029   4.823   1.359   5.414
 1044SOL     OW 4030   4.692   4.359   1.754
 1044SOL    HW1 4031   4.765   4.357   1.822
 1044SOL    HW2 4032   4.614   4.308   1.788
 1045SOL     OW 4033   2.456   7.017   2.376
 1045SOL    HW1 4034   2.408   0.054   2.445
 1045SOL    HW2 4035   2.397   7.004   2.297
 1046SOL     OW 4036   2.061   6.893   0.059
 1046SOL    HW1 4037   2.125   6.957   0.102
 1046SOL    HW2 4038   1.968   6.915   0.087
 1047SOL     OW 4039   1.239   6.263   2.543
 1047SOL    HW1 4040   1.200   6.337   2.488
 1047SOL    HW2 4041   1.275   6.192   2.483
 1048SOL     OW 4042   4.941   5.348   5.612
 1048SOL    HW1 4043   4.878   5.409   5.658
 1048SOL    HW2 4044   4.931   5.357   5.513
 1049SOL     OW 4045   6.785   4.805   4.608
 1049SOL    HW1 4046   6.869   4.849   4.640
 1049SOL    HW2 4047   6.721   4.874   4.578
 1050SOL     OW 4048   3.083   5.292   0.656
 1050SOL    HW1 4049   3.049   5.238   0.733
 1050SOL    HW2 4050   3.010   5.351   0.623
 1051SOL     OW 4051   2.880   5.211   0.354
 1051SOL    HW1 4052   2.913   5.238   0.263
 1051SOL    HW2 4053   2.942   5.246   0.424
 1052SOL     OW 4054   4.678   6.792   4.092
 1052SOL    HW1 4055   4.656   6.761   4.185
 1052SOL    HW2 4056   4.644   6.885   4.078
 1053SOL     OW 4057   5.300   5.495   2.734
 1053SOL    HW1 4058   5.387   5.493   2.686
 1053SOL    HW2 4059   5.247   5.413   2.711
 1054SOL     OW 4060   2.930   4.694   5.876
 1054SOL    HW1 4061   3.002   4.649   5.928
 1054SOL    HW2 4062   2.855   4.629   5.861
 1055SOL     OW 4063   5.799   6.942   4.334
 1055SOL    HW1 4064   5.811   6.939   4.235
 1055SOL    HW2 4065   5.820   0.016   4.367
 1056SOL     OW 4066   1.506   5.703   5.638
 1056SOL    HW1 4067   1.543   5.777   5.692
 1056SOL    HW2 4068   1.580   5.658   5.587
 1057SOL     OW 4069   3.452   3.532   2.552
 1057SOL    HW1 4070   3.392   3.485   2.616
 1057SOL    HW2 4071   3.428   3.629   2.549
 1058SOL     OW 4072   5.054   1.485   1.913
 1058SOL    HW1 4073   5.149   1.483   1.944
 1058SOL    HW2 4074   4.995   1.519   1.986
 1059SOL     OW 4075   2.301   0.826   1.060
 1059SOL    HW1 4076   2.289   0.752   1.126
 1059SOL    HW2 4077   2.395   0.823   1.024
 1060SOL     OW 4078   0.384   2.639   4.497
 1060SOL    HW1 4079   0.311   2.580   4.530
 1060SOL    HW2 4080   0.446   2.585   4.439
 1061SOL     OW 4081   5.255   3.868   1.308
 1061SOL    HW1 4082   5.235   3.860   1.405
 1061SOL    HW2 4083   5.354   3.872   1.294
 1062SOL     OW 4084   6.657   5.080   5.954
 1062SOL    HW1 4085   6.569   5.093   6.000
 1062SOL    HW2 4086   6.647   5.013   5.881
 1063SOL     OW 4087   1.405   4.328   1.645
 1063SOL    HW1 4088   1.391   4.283   1.733
 1063SOL    HW2 4089   1.408   4.427   1.657
 1064SOL     OW 4090   1.299   4.001   1.745
 1064SOL    HW1 4091   1.296   4.026   1.648
 1064SOL    HW2 4092   1.294   3.902   1.754
 1065SOL     OW 4093   4.642   0.416   4.169
 1065SOL    HW1 4094   4.608   0.509   4.180
 1065SOL    HW2 4095   4.591   0.369   4.097
 1066SOL     OW 4096   5.682   1.182   4.078
 1066SOL    HW1 4097   5.749   1.142   4.141
 1066SOL    HW2 4098   5.659   1.117   4.007
 1067SOL     OW 4099   1.666   2.803   0.318
 1067SOL    HW1 4100   1.631   2.717   0.355
 1067SOL    HW2 4101   1.590   2.856   0.280
 1068SOL     OW 4102   5.318   4.173   1.928
 1068SOL    HW1 4103   5.339   4.149   1.833
 1068SOL    HW2 4104   5.282   4.093   1.975
 1069SOL     OW 4105   5.021   5.246   1.399
 1069SOL    HW1 4106   5.079   5.190   1.458
 1069SOL    HW2 4107   4.965   5.188   1.341
 1070SOL     OW 4108   1.616   0.610   0.301
 1070SOL    HW1 4109   1.684   0.639   0.368
 1070SOL    HW2 4110   1.536   0.670   0.306
 1071SOL     OW 4111   4.096   0.000   3.294
 1071SOL    HW1 4112   4.157   6.952   3.338
 1071SOL    HW2 4113   4.021   0.022   3.356
 1072SOL     OW 4114   1.600   5.956   1.033
 1072SOL    HW1 4115   1.621   5.909   0.947
 1072SOL    HW2 4116   1.608   5.893   1.109
 1073SOL     OW 4117   3.315   6.123   2.784
 1073SOL    HW1 4118   3.406   6.085   2.772
 1073SOL    HW2 4119   3.321   6.223   2.788
 1074SOL     OW 4120   1.894   5.300   1.124
 1074SOL    HW1 4121   1.919   5.349   1.207
 1074SOL    HW2 4122   1.829   5.355   1.071
 1075SOL     OW 4123   4.234   6.481   3.360
 1075SOL    HW1 4124   4.260   6.388   3.335
 1075SOL    HW2 4125   4.307   6.524   3.413
 1076SOL     OW 4126   0.430   4.589   4.782
 1076SOL    HW1 4127   0.414   4.630   4.692
 1076SOL    HW2 4128   0.515   4.625   4.821
 1077SOL     OW 4129   6.149   0.080   0.106
 1077SOL    HW1 4130   6.103   0.090   0.194
 1077SOL    HW2 4131   6.085   0.101   0.033
 1078SOL     OW 4132   2.011   1.012   2.480
 1078SOL    HW1 4133   1.983   1.023   2.385
 1078SOL    HW2 4134   1.974   0.927   2.517
 1079SOL     OW 4135   1.826   5.595   2.594
 1079SOL    HW1 4136   1.895   5.584   2.522
 1079SOL    HW2 4137   1.826   5.513   2.652
 1080SOL     OW 4138   2.040   4.194   3.414
 1080SOL    HW1 4139   2.133   4.217   3.440
 1080SOL    HW2 4140   2.027   4.210   3.316
 1081SOL     OW 4141   6.906   0.104   5.275
 1081SOL    HW1 4142   6.937   0.184   5.326
 1081SOL    HW2 4143   6.835   0.057   5.328
 1082SOL     OW 4144   2.185   1.113   5.561
 1082SOL    HW1 4145   2.144   1.145   5.475
 1082SOL    HW2 4146   2.243   1.185   5.599
 1083SOL     OW 4147   3.905   4.255   1.302
 1083SOL    HW1 4148   3.855   4.238   1.387
 1083SOL    HW2 4149   3.913   4.170   1.251
 1084SOL     OW 4150   6.388   5.966   0.512
 1084SOL    HW1 4151   6.393   5.905   0.432
 1084SOL    HW2 4152   6.361   5.914   0.592
 1085SOL     OW 4153   2.044   4.685   3.104
 1085SOL    HW1 4154   1.991   4.711   3.185
 1085SOL    HW2 4155   2.141   4.693   3.124
 1086SOL     OW 4156   6.814   6.024   2.977
 1086SOL    HW1 4157   6.853   6.044   2.887
 1086SOL    HW2 4158   6.818   6.105   3.035
 1087SOL     OW 4159   5.703   2.374   5.741
 1087SOL    HW1 4160   5.736   2.336   5.828
 1087SOL    HW2 4161   5.685   2.471   5.752
 1088SOL     OW 4162   5.961   4.770   3.202
 1088SOL    HW1 4163   6.006   4.855   3.228
 1088SOL    HW2 4164   5.940   4.772   3.104
 1089SOL     OW 4165   1.340   0.071   4.608
 1089SOL    HW1 4166   1.300   0.033   4.525
 1089SOL    HW2 4167   1.270   0.072   4.680
 1090SOL     OW 4168   3.082   1.413   3.784
 1090SOL    HW1 4169   3.180   1.415   3.808
 1090SOL    HW2 4170   3.072   1.404   3.685
 1091SOL     OW 4171   1.817   2.924   4.704
 1091SOL    HW1 4172   1.817   2.880   4.615
 1091SOL    HW2 4173   1.909   2.957   4.726
 1092SOL     OW 4174   3.040   3.682   0.859
 1092SOL    HW1 4175   3.042   3.594   0.906
 1092SOL    HW2 4176   2.990   3.673   0.773
 1093SOL     OW 4177   1.837   2.283   2.645
 1093SOL    HW1 4178   1.921   2.242   2.680
 1093SOL    HW2 4179   1.858   2.367   2.595
 1094SOL     OW 4180   0.948   0.002   3.099
 1094SOL    HW1 4181   1.001   6.937   3.117
 1094SOL    HW2 4182   0.992   0.080   3.145
 1095SOL     OW 4183   6.697   2.306   5.651
 1095SOL    HW1 4184   6.723   2.326   5.746
 1095SOL    HW2 4185   6.599   2.283   5.649
 1096SOL     OW 4186   3.797   4.716   1.684
 1096SOL    HW1 4187   3.716   4.689   1.737
 1096SOL    HW2 4188   3.770   4.779   1.612
 1097SOL     OW 4189   0.740   4.341   4.330
 1097SOL    HW1 4190   0.668   4.293   4.380
 1097SOL    HW2 4191   0.742   4.437   4.359
 1098SOL     OW 4192   5.392   2.735   0.741
 1098SOL    HW1 4193   5.316   2.674   0.719
 1098SOL    HW2 4194   5.361   2.804   0.807
 1099SOL     OW 4195   4.163   1.419   4.505
 1099SOL    HW1 4196   4.235   1.481   4.474
 1099SOL    HW2 4197   4.090   1.472   4.549
 1100SOL     OW 4198   2.559   2.236   6.590
 1100SOL    HW1 4199   2.656   2.230   6.616
 1100SOL    HW2 4200   2.551   2.228   6.491
 1101SOL     OW 4201   5.328   2.892   0.972
 1101SOL    HW1 4202   5.303   2.817   1.033
 1101SOL    HW2 4203   5.245   2.940   0.944
 1102SOL     OW 4204   1.551   5.345   3.155
 1102SOL    HW1 4205   1.487   5.278   3.119
 1102SOL    HW2 4206   1.547   5.344   3.255
 1103SOL     OW 4207   3.023   1.081   1.235
 1103SOL    HW1 4208   3.053   0.988   1.213
 1103SOL    HW2 4209   3.088   1.147   1.197
 1104SOL     OW 4210   1.918   3.649   6.346
 1104SOL    HW1 4211   1.875   3.730   6.306
 1104SOL    HW2 4212   1.902   3.571   6.285
 1105SOL     OW 4213   5.186   3.706   5.201
 1105SOL    HW1 4214   5.191   3.697   5.300
 1105SOL    HW2 4215   5.110   3.651   5.166
 1106SOL     OW 4216   0.957   1.759   0.554
 1106SOL    HW1 4217   0.973   1.740   0.651
 1106SOL    HW2 4218   0.990   1.850   0.532
 1107SOL     OW 4219   0.791   0.555   6.497
 1107SOL    HW1 4220   0.766   0.617   6.423
 1107SOL    HW2 4221   0.720   0.557   6.568
 1108SOL     OW 4222   2.466   0.586   6.125
 1108SOL    HW1 4223   2.495   0.566   6.218
 1108SOL    HW2 4224   2.468   0.502   6.070
 1109SOL     OW 4225   4.396   5.680   4.612
 1109SOL    HW1 4226   4.401   5.747   4.538
 1109SOL    HW2 4227   4.472   5.695   4.676
 1110SOL     OW 4228   2.895   1.548   2.431
 1110SOL    HW1 4229   2.951   1.614   2.481
 1110SOL    HW2 4230   2.898   1.569   2.333
 1111SOL     OW 4231   5.854   5.968   0.291
 1111SOL    HW1 4232   5.817   6.036   0.355
 1111SOL    HW2 4233   5.837   5.998   0.197
 1112SOL     OW 4234   6.009   0.963   2.705
 1112SOL    HW1 4235   6.051   1.051   2.723
 1112SOL    HW2 4236   6.045   0.894   2.768
 1113SOL     OW 4237   6.115   3.381   2.204
 1113SOL    HW1 4238   6.098   3.423   2.293
 1113SOL    HW2 4239   6.165   3.445   2.146
 1114SOL     OW 4240   4.583   0.859   6.508
 1114SOL    HW1 4241   4.667   0.824   6.549
 1114SOL    HW2 4242   4.505   0.804   6.540
 1115SOL     OW 4243   3.964   3.271   0.019
 1115SOL    HW1 4244   3.892   3.211   7.003
 1115SOL    HW2 4245   3.939   3.304   0.111
 1116SOL     OW 4246   5.773   5.465   4.430
 1116SOL    HW1 4247   5.708   5.427   4.364
 1116SOL    HW2 4248   5.866   5.457   4.395
 1117SOL     OW 4249   2.200   2.618   1.743
 1117SOL    HW1 4250   2.143   2.611   1.661
 1117SOL    HW2 4251   2.246   2.706   1.744
 1118SOL     OW 4252   1.702   4.883   2.002
 1118SOL    HW1 4253   1.737   4.817   1.935
 1118SOL    HW2 4254   1.732   4.857   2.093
 1119SOL     OW 4255   3.986   4.256   1.565
 1119SOL    HW1 4256   4.007   4.209   1.479
 1119SOL    HW2 4257   4.064   4.314   1.590
 1120SOL     OW 4258   5.065   6.227   5.299
 1120SOL    HW1 4259   5.153   6.253   5.260
 1120SOL    HW2 4260   5.056   6.265   5.391
 1121SOL     OW 4261   5.208   4.105   2.312
 1121SOL    HW1 4262   5.149   4.172   2.356
 1121SOL    HW2 4263   5.303   4.121   2.339
 1122SOL     OW 4264   5.019   3.199   5.554
 1122SOL    HW1 4265   5.052   3.250   5.474
 1122SOL    HW2 4266   5.005   3.103   5.529
 1123SOL     OW 4267   5.164   1.665   2.116
 1123SOL    HW1 4268   5.145   1.618   2.202
 1123SOL    HW2 4269   5.099   1.740   2.104
 1124SOL     OW 4270   6.126   3.783   5.299
 1124SOL    HW1 4271   6.032   3.817   5.301
 1124SOL    HW2 4272   6.188   3.858   5.279
 1125SOL     OW 4273   1.997   1.329   5.028
 1125SOL    HW1 4274   2.079   1.275   5.010
 1125SOL    HW2 4275   2.017   1.426   5.011
 1126SOL     OW 4276   5.596   6.761   0.338
 1126SOL    HW1 4277   5.581   6.837   0.400
 1126SOL    HW2 4278   5.694   6.755   0.315
 1127SOL     OW 4279   4.863   5.679   4.885
 1127SOL    HW1 4280   4.814   5.753   4.930
 1127SOL    HW2 4281   4.937   5.646   4.944
 1128SOL     OW 4282   4.956   2.328   5.423
 1128SOL    HW1 4283   4.930   2.391   5.497
 1128SOL    HW2 4284   5.056   2.326   5.415
 1129SOL     OW 4285   4.058   0.160   0.307
 1129SOL    HW1 4286   3.975   0.144   0.360
 1129SOL    HW2 4287   4.114   0.228   0.352
 1130SOL     OW 4288   2.000   3.867   1.053
 1130SOL    HW1 4289   1.991   3.950   0.999
 1130SOL    HW2 4290   1.961   3.881   1.144
 1131SOL     OW 4291   0.874   6.323   5.675
 1131SOL    HW1 4292   0.886   6.244   5.735
 1131SOL    HW2 4293   0.789   6.370   5.697
 1132SOL     OW 4294   4.463   6.833   6.768
 1132SOL    HW1 4295   4.523   6.774   6.714
 1132SOL    HW2 4296   4.502   6.847   6.859
 1133SOL     OW 4297   7.014   1.726   0.549
 1133SOL    HW1 4298   0.086   1.763   0.573
 1133SOL    HW2 4299   7.002   1.637   0.595
 1134SOL     OW 4300   5.614   1.805   0.651
 1134SOL    HW1 4301   5.564   1.719   0.640
 1134SOL    HW2 4302   5.654   1.809   0.742
 1135SOL     OW 4303   2.989   1.622   2.887
 1135SOL    HW1 4304   3.067   1.631   2.824
 1135SOL    HW2 4305   2.909   1.592   2.836
 1136SOL     OW 4306   3.287   5.027   5.305
 1136SOL    HW1 4307   3.329   4.944   5.269
 1136SOL    HW2 4308   3.316   5.040   5.400
 1137SOL     OW 4309   1.176   2.815   0.255
 1137SOL    HW1 4310   1.143   2.724   0.229
 1137SOL    HW2 4311   1.109   2.884   0.229
 1138SOL     OW 4312   0.843   1.718   6.240
 1138SOL    HW1 4313   0.904   1.674   6.306
 1138SOL    HW2 4314   0.868   1.814   6.230
 1139SOL     OW 4315   2.555   6.356   1.806
 1139SOL    HW1 4316   2.592   6.346   1.898
 1139SOL    HW2 4317   2.514   6.447   1.797
 1140SOL     OW 4318   3.831   1.725   2.032
 1140SOL    HW1 4319   3.771   1.753   1.958
 1140SOL    HW2 4320   3.779   1.721   2.117
 1141SOL     OW 4321   6.601   5.893   6.275
 1141SOL    HW1 4322   6.505   5.865   6.276
 1141SOL    HW2 4323   6.608   5.989   6.249
 1142SOL     OW 4324   4.280   0.322   4.416
 1142SOL    HW1 4325   4.317   0.341   4.507
 1142SOL    HW2 4326   4.295   0.226   4.393
 1143SOL     OW 4327   3.197   2.119   2.454
 1143SOL    HW1 4328   3.275   2.098   2.395
 1143SOL    HW2 4329   3.119   2.146   2.398
 1144SOL     OW 4330   6.804   5.007   4.823
 1144SOL    HW1 4331   6.794   4.971   4.915
 1144SOL    HW2 4332   6.893   4.981   4.786
 1145SOL     OW 4333   0.273   4.221   3.115
 1145SOL    HW1 4334   0.366   4.204   3.148
 1145SOL    HW2 4335   0.225   4.134   3.105
 1146SOL     OW 4336   5.155   0.741   0.794
 1146SOL    HW1 4337   5.158   0.663   0.732
 1146SOL    HW2 4338   5.218   0.811   0.762
 1147SOL     OW 4339   0.869   4.745   0.267
 1147SOL    HW1 4340   0.897   4.742   0.363
 1147SOL    HW2 4341   0.942   4.788   0.213
 1148SOL     OW 4342   3.602   6.909   0.630
 1148SOL    HW1 4343   3.587   6.818   0.590
 1148SOL    HW2 4344   3.570   6.910   0.724
 1149SOL     OW 4345   5.600   3.752   3.287
 1149SOL    HW1 4346   5.699   3.761   3.279
 1149SOL    HW2 4347   5.576   3.725   3.381
 1150SOL     OW 4348   1.119   4.078   0.843
 1150SOL    HW1 4349   1.042   4.141   0.859
 1150SOL    HW2 4350   1.196   4.130   0.806
 1151SOL     OW 4351   5.030   5.525   6.632
 1151SOL    HW1 4352   5.042   5.615   6.673
 1151SOL    HW2 4353   4.994   5.535   6.539
 1152SOL     OW 4354   0.874   6.161   5.916
 1152SOL    HW1 4355   0.796   6.100   5.921
 1152SOL    HW2 4356   0.957   6.109   5.893
 1153SOL     OW 4357   2.498   0.247   1.641
 1153SOL    HW1 4358   2.399   0.244   1.653
 1153SOL    HW2 4359   2.519   0.270   1.546
 1154SOL     OW 4360   0.346   3.405   2.039
 1154SOL    HW1 4361   0.348   3.306   2.053
 1154SOL    HW2 4362   0.274   3.427   1.972
 1155SOL     OW 4363   3.071   5.104   6.984
 1155SOL    HW1 4364   3.030   5.026   0.013
 1155SOL    HW2 4365   3.086   5.081   6.888
 1156SOL     OW 4366   1.925   0.262   4.281
 1156SOL    HW1 4367   1.835   0.259   4.236
 1156SOL    HW2 4368   1.922   0.327   4.357
 1157SOL     OW 4369   6.150   1.587   4.232
 1157SOL    HW1 4370   6.105   1.498   4.232
 1157SOL    HW2 4371   6.087   1.658   4.200
 1158SOL     OW 4372   6.972   5.272   5.505
 1158SOL    HW1 4373   6.884   5.319   5.493
 1158SOL    HW2 4374   0.009   5.284   5.423
 1159SOL     OW 4375   5.274   0.263   2.910
 1159SOL    HW1 4376   5.234   0.351   2.883
 1159SOL    HW2 4377   5.293   0.209   2.828
 1160SOL     OW 4378   3.839   3.949   1.608
 1160SOL    HW1 4379   3.810   3.862   1.569
 1160SOL    HW2 4380   3.822   4.023   1.542
 1161SOL     OW 4381   4.954   0.050   5.855
 1161SOL    HW1 4382   5.007   0.040   5.771
 1161SOL    HW2 4383   4.866   0.092   5.834
 1162SOL     OW 4384   3.845   3.049   0.526
 1162SOL    HW1 4385   3.914   3.121   0.516
 1162SOL    HW2 4386   3.863   2.976   0.460
 1163SOL     OW 4387   5.358   3.143   1.968
 1163SOL    HW1 4388   5.443   3.100   1.937
 1163SOL    HW2 4389   5.283   3.077   1.963
 1164SOL     OW 4390   5.285   2.621   4.005
 1164SOL    HW1 4391   5.263   2.526   4.026
 1164SOL    HW2 4392   5.203   2.669   3.975
 1165SOL     OW 4393   2.268   4.728   4.049
 1165SOL    HW1 4394   2.192   4.672   4.082
 1165SOL    HW2 4395   2.256   4.746   3.951
 1166SOL     OW 4396   3.754   0.790   0.070
 1166SOL    HW1 4397   3.710   0.738   0.143
 1166SOL    HW2 4398   3.838   0.832   0.105
 1167SOL     OW 4399   2.967   6.962   6.548
 1167SOL    HW1 4400   3.008   6.986   6.636
 1167SOL    HW2 4401   2.888   0.003   6.530
 1168SOL     OW 4402   6.856   6.779   2.202
 1168SOL    HW1 4403   6.828   6.803   2.109
 1168SOL    HW2 4404   6.779   6.794   2.265
 1169SOL     OW 4405   6.588   2.763   0.338
 1169SOL    HW1 4406   6.556   2.781   0.245
 1169SOL    HW2 4407   6.641   2.841   0.371
 1170SOL     OW 4408   4.677   0.907   1.897
 1170SOL    HW1 4409   4.756   0.848   1.881
 1170SOL    HW2 4410   4.694   0.965   1.977
 1171SOL     OW 4411   2.103   6.182   0.202
 1171SOL    HW1 4412   2.095   6.154   0.298
 1171SOL    HW2 4413   2.181   6.136   0.160
 1172SOL     OW 4414   3.560   4.162   3.086
 1172SOL    HW1 4415   3.509   4.164   3.000
 1172SOL    HW2 4416   3.496   4.155   3.162
 1173SOL     OW 4417   2.898   0.163   6.223
 1173SOL    HW1 4418   2.989   0.124   6.206
 1173SOL    HW2 4419   2.868   0.138   6.315
 1174SOL     OW 4420   2.944   5.102   0.924
 1174SOL    HW1 4421   2.869   5.162   0.952
 1174SOL    HW2 4422   2.916   5.049   0.844
 1175SOL     OW 4423   5.111   3.412   6.529
 1175SOL    HW1 4424   5.080   3.321   6.502
 1175SOL    HW2 4425   5.199   3.404   6.577
 1176SOL     OW 4426   5.774   4.085   0.671
 1176SOL    HW1 4427   5.835   4.156   0.637
 1176SOL    HW2 4428   5.695   4.127   0.717
 1177SOL     OW 4429   6.976   1.495   5.323
 1177SOL    HW1 4430   6.882   1.461   5.314
 1177SOL    HW2 4431   0.016   1.448   5.257
 1178SOL     OW 4432   3.805   3.535   1.090
 1178SOL    HW1 4433   3.809   3.442   1.055
 1178SOL    HW2 4434   3.897   3.567   1.112
 1179SOL     OW 4435   2.899   5.459   0.570
 1179SOL    HW1 4436   2.833   5.484   0.641
 1179SOL    HW2 4437   2.927   5.540   0.520
 1180SOL     OW 4438   2.885   0.223   3.589
 1180SOL    HW1 4439   2.853   0.153   3.525
 1180SOL    HW2 4440   2.970   0.264   3.554
 1181SOL     OW 4441   0.347   2.710   4.916
 1181SOL    HW1 4442   0.336   2.624   4.865
 1181SOL    HW2 4443   0.355   2.690   5.013
 1182SOL     OW 4444   2.098   5.322   3.438
 1182SOL    HW1 4445   2.045   5.312   3.522
 1182SOL    HW2 4446   2.047   5.378   3.373
 1183SOL     OW 4447   3.503   5.460   2.456
 1183SOL    HW1 4448   3.438   5.416   2.394
 1183SOL    HW2 4449   3.488   5.427   2.550
 1184SOL     OW 4450   3.929   1.588   5.246
 1184SOL    HW1 4451   3.961   1.628   5.331
 1184SOL    HW2 4452   3.896   1.495   5.263
 1185SOL     OW 4453   2.237   0.076   0.142
 1185SOL    HW1 4454   2.226   0.143   0.215
 1185SOL    HW2 4455   2.332   0.076   0.111
 1186SOL     OW 4456   5.937   6.625   6.139
 1186SOL    HW1 4457   5.964   6.576   6.056
 1186SOL    HW2 4458   5.880   6.704   6.113
 1187SOL     OW 4459   5.557   5.909   4.918
 1187SOL    HW1 4460   5.640   5.900   4.862
 1187SOL    HW2 4461   5.565   5.851   4.999
 1188SOL     OW 4462   3.474   6.547   6.588
 1188SOL    HW1 4463   3.460   6.519   6.682
 1188SOL    HW2 4464   3.390   6.588   6.552
 1189SOL     OW 4465   5.294   0.464   1.789
 1189SOL    HW1 4466   5.223   0.452   1.858
 1189SOL    HW2 4467   5.252   0.486   1.701
 1190SOL     OW 4468   4.210   4.807   4.848
 1190SOL    HW1 4469   4.119   4.784   4.884
 1190SOL    HW2 4470   4.249   4.881   4.903
 1191SOL     OW 4471   4.314   5.871   5.038
 1191SOL    HW1 4472   4.287   5.775   5.030
 1191SOL    HW2 4473   4.293   5.903   5.131
 1192SOL     OW 4474   5.631   5.196   2.815
 1192SOL    HW1 4475   5.605   5.266   2.881
 1192SOL    HW2 4476   5.565   5.193   2.740
 1193SOL     OW 4477   6.540   0.437   4.298
 1193SOL    HW1 4478   6.562   0.482   4.212
 1193SOL    HW2 4479   6.552   0.502   4.374
 1194SOL     OW 4480   0.134   1.328   1.052
 1194SOL    HW1 4481   0.205   1.263   1.027
 1194SOL    HW2 4482   0.133   1.340   1.151
 1195SOL     OW 4483   5.838   2.399   0.766
 1195SOL    HW1 4484   5.757   2.356   0.807
 1195SOL    HW2 4485   5.811   2.485   0.722
 1196SOL     OW 4486   6.983   4.740   2.177
 1196SOL    HW1 4487   0.031   4.746   2.102
 1196SOL    HW2 4488   6.961   4.644   2.194
 1197SOL     OW 4489   3.938   5.974   4.945
 1197SOL    HW1 4490   3.984   6.058   4.916
 1197SOL    HW2 4491   3.977   5.943   5.032
 1198SOL     OW 4492   2.165   2.833   2.484
 1198SOL    HW1 4493   2.265   2.830   2.496
 1198SOL    HW2 4494   2.141   2.792   2.396
 1199SOL     OW 4495   3.694   2.950   3.003
 1199SOL    HW1 4496   3.700   2.857   3.039
 1199SOL    HW2 4497   3.600   2.983   3.014
 1200SOL     OW 4498   3.692   4.095   4.733
 1200SOL    HW1 4499   3.740   4.057   4.654
 1200SOL    HW2 4500   3.744   4.078   4.816
 1201SOL     OW 4501   0.408   1.213   4.229
 1201SOL    HW1 4502   0.490   1.157   4.222
 1201SOL    HW2 4503   0.336   1.174   4.171
 1202SOL     OW 4504   6.521   0.765   5.672
 1202SOL    HW1 4505   6.484   0.814   5.751
 1202SOL    HW2 4506   6.513   0.667   5.687
 1203SOL     OW 4507   6.286   6.822   1.691
 1203SOL    HW1 4508   6.325   6.912   1.672
 1203SOL    HW2 4509   6.324   6.786   1.776
 1204SOL     OW 4510   4.197   1.548   0.417
 1204SOL    HW1 4511   4.114   1.512   0.374
 1204SOL    HW2 4512   4.174   1.589   0.505
 1205SOL     OW 4513   3.968   3.526   6.487
 1205SOL    HW1 4514   3.874   3.537   6.519
 1205SOL    HW2 4515   3.969   3.467   6.406
 1206SOL     OW 4516   1.010   1.890   4.836
 1206SOL    HW1 4517   0.982   1.984   4.857
 1206SOL    HW2 4518   1.025   1.880   4.738
 1207SOL     OW 4519   0.892   6.959   0.483
 1207SOL    HW1 4520   0.856   6.955   0.390
 1207SOL    HW2 4521   0.863   6.878   0.534
 1208SOL     OW 4522   3.418   4.134   2.591
 1208SOL    HW1 4523   3.344   4.108   2.530
 1208SOL    HW2 4524   3.470   4.210   2.552
 1209SOL     OW 4525   5.465   6.808   4.538
 1209SOL    HW1 4526   5.410   6.778   4.460
 1209SOL    HW2 4527   5.525   6.883   4.510
 1210SOL     OW 4528   4.430   6.891   3.647
 1210SOL    HW1 4529   4.480   6.830   3.708
 1210SOL    HW2 4530   4.464   6.985   3.658
 1211SOL     OW 4531   1.716   3.241   3.073
 1211SOL    HW1 4532   1.690   3.174   3.143
 1211SOL    HW2 4533   1.661   3.227   2.991
 1212SOL     OW 4534   0.090   1.811   5.713
 1212SOL    HW1 4535   0.142   1.787   5.631
 1212SOL    HW2 4536   0.017   1.874   5.689
 1213SOL     OW 4537   5.716   3.414   4.955
 1213SOL    HW1 4538   5.774   3.335   4.972
 1213SOL    HW2 4539   5.706   3.467   5.039
 1214SOL     OW 4540   1.400   3.249   4.676
 1214SOL    HW1 4541   1.332   3.229   4.747
 1214SOL    HW2 4542   1.396   3.346   4.652
 1215SOL     OW 4543   1.828   5.265   2.619
 1215SOL    HW1 4544   1.775   5.275   2.535
 1215SOL    HW2 4545   1.780   5.310   2.694
 1216SOL     OW 4546   0.265   6.959   1.056
 1216SOL    HW1 4547   0.210   6.928   1.133
 1216SOL    HW2 4548   0.225   6.925   0.971
 1217SOL     OW 4549   2.360   5.768   1.022
 1217SOL    HW1 4550   2.311   5.837   0.969
 1217SOL    HW2 4551   2.321   5.761   1.114
 1218SOL     OW 4552   0.579   3.257   4.953
 1218SOL    HW1 4553   0.600   3.160   4.965
 1218SOL    HW2 4554   0.483   3.273   4.973
 1219SOL     OW 4555   4.483   5.124   1.648
 1219SOL    HW1 4556   4.555   5.055   1.657
 1219SOL    HW2 4557   4.467   5.144   1.552
 1220SOL     OW 4558   5.278   4.036   2.828
 1220SOL    HW1 4559   5.375   4.044   2.848
 1220SOL    HW2 4560   5.259   3.946   2.789
 1221SOL     OW 4561   5.943   3.997   6.426
 1221SOL    HW1 4562   5.901   3.944   6.500
 1221SOL    HW2 4563   6.023   3.948   6.392
 1222SOL     OW 4564   6.585   0.148   0.441
 1222SOL    HW1 4565   6.489   0.172   0.458
 1222SOL    HW2 4566   6.594   0.048   0.442
 1223SOL     OW 4567   5.369   1.496   0.774
 1223SOL    HW1 4568   5.309   1.484   0.853
 1223SOL    HW2 4569   5.354   1.586   0.735
 1224SOL     OW 4570   3.180   5.872   0.400
 1224SOL    HW1 4571   3.233   5.788   0.395
 1224SOL    HW2 4572   3.188   5.923   0.314
 1225SOL     OW 4573   4.061   2.886   1.053
 1225SOL    HW1 4574   3.975   2.938   1.056
 1225SOL    HW2 4575   4.098   2.888   0.961
 1226SOL     OW 4576   4.724   5.936   0.662
 1226SOL    HW1 4577   4.822   5.918   0.676
 1226SOL    HW2 4578   4.686   5.980   0.744
 1227SOL     OW 4579   6.160   5.076   5.962
 1227SOL    HW1 4580   6.163   5.007   5.890
 1227SOL    HW2 4581   6.090   5.144   5.940
 1228SOL     OW 4582   3.953   3.496   0.653
 1228SOL    HW1 4583   3.959   3.494   0.554
 1228SOL    HW2 4584   4.040   3.527   0.692
 1229SOL     OW 4585   1.760   6.346   1.582
 1229SOL    HW1 4586   1.846   6.370   1.536
 1229SOL    HW2 4587   1.705   6.428   1.594
 1230SOL     OW 4588   5.512   5.740   2.660
 1230SOL    HW1 4589   5.532   5.649   2.624
 1230SOL    HW2 4590   5.563   5.808   2.608
 1231SOL     OW 4591   1.192   2.274   6.095
 1231SOL    HW1 4592   1.173   2.218   6.176
 1231SOL    HW2 4593   1.286   2.307   6.100
 1232SOL     OW 4594   4.638   1.058   5.264
 1232SOL    HW1 4595   4.587   1.002   5.330
 1232SOL    HW2 4596   4.723   1.090   5.307
 1233SOL     OW 4597   1.305   5.529   3.280
 1233SOL    HW1 4598   1.364   5.562   3.354
 1233SOL    HW2 4599   1.218   5.578   3.284
 1234SOL     OW 4600   6.933   2.518   6.409
 1234SOL    HW1 4601   6.854   2.551   6.460
 1234SOL    HW2 4602   6.928   2.549   6.314
 1235SOL     OW 4603   6.699   4.532   0.162
 1235SOL    HW1 4604   6.600   4.538   0.171
 1235SOL    HW2 4605   6.740   4.620   0.187
 1236SOL     OW 4606   4.384   1.827   1.123
 1236SOL    HW1 4607   4.409   1.837   1.219
 1236SOL    HW2 4608   4.286   1.844   1.113
 1237SOL     OW 4609   1.518   5.957   4.882
 1237SOL    HW1 4610   1.480   5.988   4.970
 1237SOL    HW2 4611   1.486   5.865   4.862
 1238SOL     OW 4612   0.296   0.032   3.818
 1238SOL    HW1 4613   0.234   6.990   3.769
 1238SOL    HW2 4614   0.276   0.027   3.916
 1239SOL     OW 4615   6.206   5.855   5.097
 1239SOL    HW1 4616   6.255   5.916   5.034
 1239SOL    HW2 4617   6.270   5.818   5.164
 1240SOL     OW 4618   6.069   4.866   2.271
 1240SOL    HW1 4619   6.158   4.888   2.231
 1240SOL    HW2 4620   6.073   4.776   2.314
 1241SOL     OW 4621   6.822   4.563   5.113
 1241SOL    HW1 4622   6.787   4.517   5.195
 1241SOL    HW2 4623   6.903   4.516   5.080
 1242SOL     OW 4624   2.175   3.347   0.619
 1242SOL    HW1 4625   2.182   3.446   0.626
 1242SOL    HW2 4626   2.266   3.306   0.634
 1243SOL     OW 4627   0.729   1.315   4.682
 1243SOL    HW1 4628   0.734   1.265   4.595
 1243SOL    HW2 4629   0.772   1.404   4.671
 1244SOL     OW 4630   5.146   6.536   5.456
 1244SOL    HW1 4631   5.125   6.564   5.363
 1244SOL    HW2 4632   5.227   6.585   5.488
 1245SOL     OW 4633   5.272   5.324   0.728
 1245SOL    HW1 4634   5.286   5.226   0.745
 1245SOL    HW2 4635   5.361   5.369   0.720
 1246SOL     OW 4636   3.523   1.119   2.342
 1246SOL    HW1 4637   3.474   1.041   2.303
 1246SOL    HW2 4638   3.490   1.203   2.299
 1247SOL     OW 4639   5.774   0.239   5.026
 1247SOL    HW1 4640   5.679   0.262   5.046
 1247SOL    HW2 4641   5.793   0.253   4.928
 1248SOL     OW 4642   1.435   6.360   4.131
 1248SOL    HW1 4643   1.450   6.458   4.138
 1248SOL    HW2 4644   1.520   6.311   4.150
 1249SOL     OW 4645   6.927   4.286   1.872
 1249SOL    HW1 4646   6.973   4.317   1.789
 1249SOL    HW2 4647   6.857   4.353   1.898
 1250SOL     OW 4648   6.045   3.552   4.406
 1250SOL    HW1 4649   5.971   3.615   4.383
 1250SOL    HW2 4650   6.133   3.600   4.397
 1251SOL     OW 4651   2.227   0.854   2.888
 1251SOL    HW1 4652   2.258   0.777   2.945
 1251SOL    HW2 4653   2.292   0.930   2.896
 1252SOL     OW 4654   3.393   5.031   6.727
 1252SOL    HW1 4655   3.462   4.960   6.744
 1252SOL    HW2 4656   3.398   5.099   6.800
 1253SOL     OW 4657   2.785   0.215   1.375
 1253SOL    HW1 4658   2.752   0.309   1.368
 1253SOL    HW2 4659   2.883   0.212   1.355
 1254SOL     OW 4660   6.294   3.009   2.594
 1254SOL    HW1 4661   6.345   2.927   2.567
 1254SOL    HW2 4662   6.358   3.083   2.615
 1255SOL     OW 4663   6.014   2.772   6.125
 1255SOL    HW1 4664   5.988   2.676   6.115
 1255SOL    HW2 4665   6.054   2.805   6.040
 1256SOL     OW 4666   0.567   6.019   3.528
 1256SOL    HW1 4667   0.621   6.070   3.461
 1256SOL    HW2 4668   0.534   6.082   3.598
 1257SOL     OW 4669   0.156   4.844   4.271
 1257SOL    HW1 4670   0.067   4.826   4.314
 1257SOL    HW2 4671   0.160   4.939   4.242
 1258SOL     OW 4672   1.814   5.951   2.964
 1258SOL    HW1 4673   1.798   5.897   3.047
 1258SOL    HW2 4674   1.853   5.892   2.894
 1259SOL     OW 4675   2.965   6.164   5.454
 1259SOL    HW1 4676   2.972   6.066   5.439
 1259SOL    HW2 4677   3.055   6.200   5.481
 1260SOL     OW 4678   3.370   0.923   1.153
 1260SOL    HW1 4679   3.396   0.874   1.237
 1260SOL    HW2 4680   3.443   0.987   1.129
 1261SOL     OW 4681   0.207   3.987   0.218
 1261SOL    HW1 4682   0.133   3.929   0.183
 1261SOL    HW2 4683   0.294   3.959   0.178
 1262SOL     OW 4684   4.868   5.428   1.567
 1262SOL    HW1 4685   4.798   5.494   1.541
 1262SOL    HW2 4686   4.888   5.368   1.490
 1263SOL     OW 4687   6.438   1.681   0.747
 1263SOL    HW1 4688   6.456   1.609   0.680
 1263SOL    HW2 4689   6.431   1.769   0.701
 1264SOL     OW 4690   0.950   3.504   1.949
 1264SOL    HW1 4691   0.887   3.471   2.019
 1264SOL    HW2 4692   1.041   3.516   1.988
 1265SOL     OW 4693   6.517   4.481   3.683
 1265SOL    HW1 4694   6.420   4.500   3.695
 1265SOL    HW2 4695   6.561   4.557   3.636
 1266SOL     OW 4696   2.139   0.654   3.883
 1266SOL    HW1 4697   2.236   0.675   3.874
 1266SOL    HW2 4698   2.087   0.706   3.815
 1267SOL     OW 4699   5.218   5.953   0.988
 1267SOL    HW1 4700   5.125   5.972   0.955
 1267SOL    HW2 4701   5.238   6.012   1.066
 1268SOL     OW 4702   4.487   2.280   6.680
 1268SOL    HW1 4703   4.523   2.257   6.589
 1268SOL    HW2 4704   4.411   2.219   6.702
 1269SOL     OW 4705   5.754   6.041   5.093
 1269SOL    HW1 4706   5.835   6.095   5.072
 1269SOL    HW2 4707   5.726   5.989   5.012
 1270SOL     OW 4708   2.079   3.378   4.062
 1270SOL    HW1 4709   2.104   3.362   3.967
 1270SOL    HW2 4710   2.113   3.467   4.091
 1271SOL     OW 4711   3.828   1.880   3.869
 1271SOL    HW1 4712   3.733   1.906   3.887
 1271SOL    HW2 4713   3.889   1.944   3.915
 1272SOL     OW 4714   6.499   6.060   1.150
 1272SOL    HW1 4715   6.578   6.100   1.104
 1272SOL    HW2 4716   6.415   6.085   1.103
 1273SOL     OW 4717   1.663   4.625   6.949
 1273SOL    HW1 4718   1.727   4.688   6.992
 1273SOL    HW2 4719   1.575   4.670   6.936
 1274SOL     OW 4720   6.333   2.990   1.816
 1274SOL    HW1 4721   6.402   2.999   1.744
 1274SOL    HW2 4722   6.374   3.012   1.905
 1275SOL     OW 4723   3.913   0.118   3.744
 1275SOL    HW1 4724   3.932   0.216   3.739
 1275SOL    HW2 4725   3.999   0.067   3.737
 1276SOL     OW 4726   7.005   0.893   3.302
 1276SOL    HW1 4727   7.004   0.981   3.350
 1276SOL    HW2 4728   6.923   0.886   3.245
 1277SOL     OW 4729   0.269   0.347   4.781
 1277SOL    HW1 4730   0.214   0.293   4.845
 1277SOL    HW2 4731   0.347   0.292   4.751
 1278SOL     OW 4732   1.246   1.168   5.391
 1278SOL    HW1 4733   1.337   1.148   5.428
 1278SOL    HW2 4734   1.203   1.083   5.361
 1279SOL     OW 4735   2.723   6.503   0.500
 1279SOL    HW1 4736   2.816   6.473   0.519
 1279SOL    HW2 4737   2.660   6.455   0.561
 1280SOL     OW 4738   2.795   6.298   3.750
 1280SOL    HW1 4739   2.873   6.321   3.693
 1280SOL    HW2 4740   2.813   6.213   3.799
 1281SOL     OW 4741   1.138   5.968   3.115
 1281SOL    HW1 4742   1.055   5.999   3.161
 1281SOL    HW2 4743   1.122   5.879   3.073
 1282SOL     OW 4744   0.416   1.188   0.229
 1282SOL    HW1 4745   0.342   1.228   0.175
 1282SOL    HW2 4746   0.472   1.131   0.170
 1283SOL     OW 4747   5.493   2.832   5.286
 1283SOL    HW1 4748   5.475   2.770   5.209
 1283SOL    HW2 4749   5.408   2.853   5.333
 1284SOL     OW 4750   4.109   3.630   1.624
 1284SOL    HW1 4751   4.084   3.537   1.649
 1284SOL    HW2 4752   4.197   3.653   1.666
 1285SOL     OW 4753   5.693   3.422   5.874
 1285SOL    HW1 4754   5.768   3.373   5.829
 1285SOL    HW2 4755   5.608   3.407   5.824
 1286SOL     OW 4756   4.846   4.467   2.515
 1286SOL    HW1 4757   4.844   4.548   2.457
 1286SOL    HW2 4758   4.756   4.452   2.556
 1287SOL     OW 4759   4.694   3.902   5.814
 1287SOL    HW1 4760   4.744   3.974   5.767
 1287SOL    HW2 4761   4.701   3.915   5.913
 1288SOL     OW 4762   6.198   3.853   0.638
 1288SOL    HW1 4763   6.104   3.835   0.611
 1288SOL    HW2 4764   6.209   3.836   0.736
 1289SOL     OW 4765   0.419   5.953   1.928
 1289SOL    HW1 4766   0.504   5.900   1.931
 1289SOL    HW2 4767   0.346   5.903   1.975
 1290SOL     OW 4768   1.517   0.279   0.110
 1290SOL    HW1 4769   1.460   0.360   0.099
 1290SOL    HW2 4770   1.483   0.206   0.050
 1291SOL     OW 4771   0.337   3.392   5.886
 1291SOL    HW1 4772   0.327   3.388   5.985
 1291SOL    HW2 4773   0.428   3.360   5.860
 1292SOL     OW 4774   5.955   5.356   2.600
 1292SOL    HW1 4775   5.925   5.359   2.695
 1292SOL    HW2 4776   6.011   5.275   2.584
 1293SOL     OW 4777   1.953   1.136   6.566
 1293SOL    HW1 4778   2.025   1.146   6.498
 1293SOL    HW2 4779   1.869   1.103   6.522
 1294SOL     OW 4780   1.174   3.479   0.571
 1294SOL    HW1 4781   1.242   3.472   0.499
 1294SOL    HW2 4782   1.178   3.571   0.612
 1295SOL     OW 4783   6.515   3.755   2.553
 1295SOL    HW1 4784   6.614   3.755   2.538
 1295SOL    HW2 4785   6.469   3.745   2.465
 1296SOL     OW 4786   4.011   0.475   5.619
 1296SOL    HW1 4787   4.001   0.558   5.674
 1296SOL    HW2 4788   4.099   0.477   5.570
 1297SOL     OW 4789   5.841   0.606   6.602
 1297SOL    HW1 4790   5.891   0.684   6.640
 1297SOL    HW2 4791   5.887   0.573   6.520
 1298SOL     OW 4792   6.172   3.974   3.122
 1298SOL    HW1 4793   6.150   4.072   3.126
 1298SOL    HW2 4794   6.101   3.927   3.070
 1299SOL     OW 4795   0.862   3.594   3.054
 1299SOL    HW1 4796   0.855   3.500   3.022
 1299SOL    HW2 4797   0.897   3.652   2.980
 1300SOL     OW 4798   3.485   4.047   1.786
 1300SOL    HW1 4799   3.508   3.976   1.853
 1300SOL    HW2 4800   3.564   4.105   1.771
 1301SOL     OW 4801   0.158   5.949   2.100
 1301SOL    HW1 4802   0.126   5.940   2.194
 1301SOL    HW2 4803   0.107   6.023   2.055
 1302SOL     OW 4804   2.462   0.433   5.050
 1302SOL    HW1 4805   2.472   0.497   4.974
 1302SOL    HW2 4806   2.435   0.483   5.132
 1303SOL     OW 4807   4.813   2.124   1.075
 1303SOL    HW1 4808   4.819   2.190   1.149
 1303SOL    HW2 4809   4.737   2.061   1.092
 1304SOL     OW 4810   1.524   1.338   6.650
 1304SOL    HW1 4811   1.584   1.359   6.573
 1304SOL    HW2 4812   1.520   1.238   6.663
 1305SOL     OW 4813   5.558   4.310   6.759
 1305SOL    HW1 4814   5.547   4.217   6.793
 1305SOL    HW2 4815   5.598   4.306   6.667
 1306SOL     OW 4816   0.998   4.738   5.328
 1306SOL    HW1 4817   1.092   4.770   5.340
 1306SOL    HW2 4818   0.944   4.809   5.281
 1307SOL     OW 4819   1.749   2.488   4.392
 1307SOL    HW1 4820   1.848   2.501   4.396
 1307SOL    HW2 4821   1.728   2.392   4.410
 1308SOL     OW 4822   4.426   5.278   4.387
 1308SOL    HW1 4823   4.473   5.361   4.417
 1308SOL    HW2 4824   4.490   5.219   4.338
 1309SOL     OW 4825   5.873   3.259   5.768
 1309SOL    HW1 4826   5.929   3.180   5.791
 1309SOL    HW2 4827   5.887   3.283   5.672
 1310SOL     OW 4828   0.098   3.744   4.838
 1310SOL    HW1 4829   0.011   3.724   4.882
 1310SOL    HW2 4830   0.084   3.751   4.739
 1311SOL     OW 4831   6.483   6.804   3.852
 1311SOL    HW1 4832   6.512   6.709   3.841
 1311SOL    HW2 4833   6.556   6.865   3.823
 1312SOL     OW 4834   0.979   0.330   6.475
 1312SOL    HW1 4835   0.912   0.404   6.486
 1312SOL    HW2 4836   1.069   0.361   6.506
 1313SOL     OW 4837   1.196   4.876   4.801
 1313SOL    HW1 4838   1.116   4.817   4.813
 1313SOL    HW2 4839   1.212   4.892   4.703
 1314SOL     OW 4840   2.942   1.972   5.843
 1314SOL    HW1 4841   3.021   1.913   5.858
 1314SOL    HW2 4842   2.861   1.916   5.826
 1315SOL     OW 4843   0.341   0.982   0.399
 1315SOL    HW1 4844   0.276   1.027   0.461
 1315SOL    HW2 4845   0.360   1.043   0.321
 1316SOL     OW 4846   2.424   6.461   3.862
 1316SOL    HW1 4847   2.333   6.475   3.825
 1316SOL    HW2 4848   2.419   6.402   3.943
 1317SOL     OW 4849   0.481   3.857   4.656
 1317SOL    HW1 4850   0.414   3.833   4.586
 1317SOL    HW2 4851   0.497   3.778   4.715
 1318SOL     OW 4852   0.004   0.301   0.575
 1318SOL    HW1 4853   6.956   0.227   0.587
 1318SOL    HW2 4854   0.084   0.267   0.525
 1319SOL     OW 4855   6.364   0.835   0.107
 1319SOL    HW1 4856   6.441   0.775   0.084
 1319SOL    HW2 4857   6.331   0.880   0.024
 1320SOL     OW 4858   6.202   3.780   0.225
 1320SOL    HW1 4859   6.267   3.815   0.292
 1320SOL    HW2 4860   6.120   3.837   0.225
 1321SOL     OW 4861   4.304   2.405   6.275
 1321SOL    HW1 4862   4.223   2.355   6.306
 1321SOL    HW2 4863   4.288   2.504   6.284
 1322SOL     OW 4864   4.979   0.749   3.461
 1322SOL    HW1 4865   4.970   0.661   3.415
 1322SOL    HW2 4866   5.075   0.770   3.475
 1323SOL     OW 4867   5.305   1.875   5.493
 1323SOL    HW1 4868   5.219   1.870   5.443
 1323SOL    HW2 4869   5.381   1.874   5.428
 1324SOL     OW 4870   1.334   2.843   1.164
 1324SOL    HW1 4871   1.396   2.839   1.086
 1324SOL    HW2 4872   1.369   2.783   1.237
 1325SOL     OW 4873   1.867   6.920   2.020
 1325SOL    HW1 4874   1.909   6.904   2.110
 1325SOL    HW2 4875   1.917   6.868   1.951
 1326SOL     OW 4876   5.266   2.773   4.731
 1326SOL    HW1 4877   5.270   2.855   4.675
 1326SOL    HW2 4878   5.209   2.789   4.812
 1327SOL     OW 4879   2.626   4.961   2.461
 1327SOL    HW1 4880   2.572   4.970   2.545
 1327SOL    HW2 4881   2.615   4.869   2.424
 1328SOL     OW 4882   1.445   2.732   0.901
 1328SOL    HW1 4883   1.411   2.640   0.921
 1328SOL    HW2 4884   1.542   2.727   0.878
 1329SOL     OW 4885   0.557   2.079   0.823
 1329SOL    HW1 4886   0.458   2.082   0.836
 1329SOL    HW2 4887   0.581   1.996   0.773
 1330SOL     OW 4888   6.468   0.920   1.397
 1330SOL    HW1 4889   6.369   0.933   1.402
 1330SOL    HW2 4890   6.490   0.823   1.403
 1331SOL     OW 4891   4.807   2.230   3.290
 1331SOL    HW1 4892   4.763   2.146   3.258
 1331SOL    HW2 4893   4.859   2.271   3.215
 1332SOL     OW 4894   3.886   6.952   0.074
 1332SOL    HW1 4895   3.953   6.974   0.145
 1332SOL    HW2 4896   3.930   6.900   0.001
 1333SOL     OW 4897   3.689   3.305   6.516
 1333SOL    HW1 4898   3.729   3.276   6.429
 1333SOL    HW2 4899   3.753   3.366   6.563
 1334SOL     OW 4900   0.111   2.474   5.150
 1334SOL    HW1 4901   0.080   2.393   5.202
 1334SOL    HW2 4902   0.063   2.477   5.062
 1335SOL     OW 4903   2.814   0.105   2.926
 1335SOL    HW1 4904   2.869   0.042   2.981
 1335SOL    HW2 4905   2.873   0.152   2.861
 1336SOL     OW 4906   1.995   1.681   6.568
 1336SOL    HW1 4907   2.001   1.614   6.494
 1336SOL    HW2 4908   1.913   1.662   6.622
 1337SOL     OW 4909   1.267   1.791   4.870
 1337SOL    HW1 4910   1.282   1.752   4.779
 1337SOL    HW2 4911   1.176   1.832   4.874
 1338SOL     OW 4912   4.215   2.744   6.069
 1338SOL    HW1 4913   4.291   2.738   6.133
 1338SOL    HW2 4914   4.138   2.791   6.112
 1339SOL     OW 4915   0.959   0.057   0.073
 1339SOL    HW1 4916   1.010   0.107   0.002
 1339SOL    HW2 4917   0.867   0.094   0.079
 1340SOL     OW 4918   0.816   1.531   1.641
 1340SOL    HW1 4919   0.819   1.610   1.580
 1340SOL    HW2 4920   0.730   1.480   1.626
 1341SOL     OW 4921   4.141   0.532   5.887
 1341SOL    HW1 4922   4.115   0.524   5.983
 1341SOL    HW2 4923   4.150   0.440   5.847
 1342SOL     OW 4924   1.865   4.708   5.994
 1342SOL    HW1 4925   1.869   4.730   5.897
 1342SOL    HW2 4926   1.884   4.610   6.007
 1343SOL     OW 4927   3.979   5.936   2.523
 1343SOL    HW1 4928   4.025   5.847   2.525
 1343SOL    HW2 4929   3.934   5.948   2.434
 1344SOL     OW 4930   6.588   4.135   3.840
 1344SOL    HW1 4931   6.576   4.036   3.849
 1344SOL    HW2 4932   6.500   4.177   3.817
 1345SOL     OW 4933   1.466   1.727   3.356
 1345SOL    HW1 4934   1.433   1.637   3.385
 1345SOL    HW2 4935   1.534   1.761   3.420
 1346SOL     OW 4936   1.321   0.149   3.168
 1346SOL    HW1 4937   1.316   0.233   3.222
 1346SOL    HW2 4938   1.309   0.070   3.227
 1347SOL     OW 4939   6.087   6.505   4.005
 1347SOL    HW1 4940   6.051   6.592   3.971
 1347SOL    HW2 4941   6.181   6.493   3.974
 1348SOL     OW 4942   5.557   5.656   3.121
 1348SOL    HW1 4943   5.578   5.734   3.180
 1348SOL    HW2 4944   5.476   5.677   3.065
 1349SOL     OW 4945   4.730   2.634   6.129
 1349SOL    HW1 4946   4.786   2.700   6.179
 1349SOL    HW2 4947   4.779   2.548   6.122
 1350SOL     OW 4948   4.064   4.637   6.894
 1350SOL    HW1 4949   4.136   4.702   6.870
 1350SOL    HW2 4950   4.086   4.592   6.981
 1351SOL     OW 4951   6.918   2.171   2.946
 1351SOL    HW1 4952   7.009   2.204   2.923
 1351SOL    HW2 4953   6.901   2.084   2.901
 1352SOL     OW 4954   0.688   0.512   3.129
 1352SOL    HW1 4955   0.644   0.502   3.218
 1352SOL    HW2 4956   0.774   0.560   3.139
 1353SOL     OW 4957   6.349   3.926   5.797
 1353SOL    HW1 4958   6.252   3.906   5.795
 1353SOL    HW2 4959   6.366   4.004   5.858
 1354SOL     OW 4960   0.474   2.158   0.308
 1354SOL    HW1 4961   0.516   2.185   0.395
 1354SOL    HW2 4962   0.430   2.069   0.318
 1355SOL     OW 4963   5.800   2.527   6.201
 1355SOL    HW1 4964   5.748   2.476   6.133
 1355SOL    HW2 4965   5.875   2.470   6.235
 1356SOL     OW 4966   3.282   3.345   3.779
 1356SOL    HW1 4967   3.306   3.381   3.689
 1356SOL    HW2 4968   3.185   3.320   3.781
 1357SOL     OW 4969   1.216   4.120   5.810
 1357SOL    HW1 4970   1.195   4.213   5.778
 1357SOL    HW2 4971   1.210   4.056   5.734
 1358SOL     OW 4972   3.911   1.307   5.725
 1358SOL    HW1 4973   3.847   1.366   5.775
 1358SOL    HW2 4974   3.863   1.226   5.693
 1359SOL     OW 4975   6.692   4.765   1.565
 1359SOL    HW1 4976   6.762   4.825   1.604
 1359SOL    HW2 4977   6.612   4.818   1.540
 1360SOL     OW 4978   4.161   3.538   2.253
 1360SOL    HW1 4979   4.108   3.526   2.337
 1360SOL    HW2 4980   4.255   3.562   2.275
 1361SOL     OW 4981   6.946   6.540   5.880
 1361SOL    HW1 4982   0.001   6.506   5.820
 1361SOL    HW2 4983   6.912   6.627   5.845
 1362SOL     OW 4984   2.852   3.592   4.266
 1362SOL    HW1 4985   2.885   3.508   4.308
 1362SOL    HW2 4986   2.777   3.630   4.321
 1363SOL     OW 4987   6.358   5.942   3.617
 1363SOL    HW1 4988   6.454   5.964   3.638
 1363SOL    HW2 4989   6.325   6.007   3.548
 1364SOL     OW 4990   0.660   2.253   0.513
 1364SOL    HW1 4991   0.708   2.223   0.596
 1364SOL    HW2 4992   0.646   2.352   0.517
 1365SOL     OW 4993   0.609   3.297   5.857
 1365SOL    HW1 4994   0.659   3.380   5.833
 1365SOL    HW2 4995   0.655   3.218   5.817
 1366SOL     OW 4996   0.264   4.224   0.756
 1366SOL    HW1 4997   0.302   4.137   0.787
 1366SOL    HW2 4998   0.336   4.277   0.710
 1367SOL     OW 4999   1.387   5.883   3.235
 1367SOL    HW1 5000   1.462   5.949   3.238
 1367SOL    HW2 5001   1.302   5.930   3.212
 1368SOL     OW 5002   6.756   0.913   4.053
 1368SOL    HW1 5003   6.693   0.837   4.041
 1368SOL    HW2 5004   6.721   0.975   4.124
 1369SOL     OW 5005   2.162   0.317   2.359
 1369SOL    HW1 5006   2.138   0.258   2.281
 1369SOL    HW2 5007   2.079   0.338   2.411
 1370SOL     OW 5008   5.561   2.261   3.919
 1370SOL    HW1 5009   5.523   2.178   3.879
 1370SOL    HW2 5010   5.525   2.341   3.870
 1371SOL     OW 5011   4.973   1.731   5.052
 1371SOL    HW1 5012   4.928   1.643   5.040
 1371SOL    HW2 5013   4.933   1.778   5.131
 1372SOL     OW 5014   1.065   1.963   0.958
 1372SOL    HW1 5015   1.144   2.022   0.947
 1372SOL    HW2 5016   1.041   1.956   1.054
 1373SOL     OW 5017   4.358   2.124   0.007
 1373SOL    HW1 5018   4.290   2.195   0.020
 1373SOL    HW2 5019   4.322   2.054   6.964
 1374SOL     OW 5020   4.838   3.114   0.443
 1374SOL    HW1 5021   4.880   3.171   0.513
 1374SOL    HW2 5022   4.763   3.061   0.483
 1375SOL     OW 5023   0.427   6.854   6.347
 1375SOL    HW1 5024   0.507   6.818   6.396
 1375SOL    HW2 5025   0.408   6.947   6.379
 1376SOL     OW 5026   3.593   4.819   5.502
 1376SOL    HW1 5027   3.657   4.885   5.463
 1376SOL    HW2 5028   3.633   4.778   5.585
 1377SOL     OW 5029   0.973   3.621   3.313
 1377SOL    HW1 5030   0.949   3.551   3.380
 1377SOL    HW2 5031   0.927   3.602   3.226
 1378SOL     OW 5032   5.929   2.578   5.356
 1378SOL    HW1 5033   5.876   2.497   5.380
 1378SOL    HW2 5034   5.956   2.626   5.440
 1379SOL     OW 5035   4.184   5.776   3.197
 1379SOL    HW1 5036   4.255   5.824   3.144
 1379SOL    HW2 5037   4.220   5.690   3.232
 1380SOL     OW 5038   0.335   6.070   3.310
 1380SOL    HW1 5039   0.395   6.145   3.340
 1380SOL    HW2 5040   0.325   6.004   3.384
 1381SOL     OW 5041   5.698   1.681   6.952
 1381SOL    HW1 5042   5.705   1.654   0.031
 1381SOL    HW2 5043   5.745   1.768   6.938
 1382SOL     OW 5044   4.998   3.391   1.381
 1382SOL    HW1 5045   5.089   3.350   1.372
 1382SOL    HW2 5046   4.939   3.328   1.432
 1383SOL     OW 5047   1.221   0.106   1.589
 1383SOL    HW1 5048   1.209   0.018   1.635
 1383SOL    HW2 5049   1.244   0.176   1.656
 1384SOL     OW 5050   4.652   0.149   2.276
 1384SOL    HW1 5051   4.691   0.231   2.318
 1384SOL    HW2 5052   4.630   0.083   2.348
 1385SOL     OW 5053   2.791   4.705   3.782
 1385SOL    HW1 5054   2.842   4.741   3.703
 1385SOL    HW2 5055   2.820   4.753   3.865
 1386SOL     OW 5056   3.018   0.884   4.093
 1386SOL    HW1 5057   2.971   0.901   4.007
 1386SOL    HW2 5058   3.116   0.902   4.082
 1387SOL     OW 5059   4.230   5.499   2.849
 1387SOL    HW1 5060   4.266   5.592   2.857
 1387SOL    HW2 5061   4.153   5.488   2.911
 1388SOL     OW 5062   6.602   0.137   2.109
 1388SOL    HW1 5063   6.602   0.149   2.010
 1388SOL    HW2 5064   6.508   0.129   2.142
 1389SOL     OW 5065   6.306   1.270   4.087
 1389SOL    HW1 5066   6.296   1.308   4.180
 1389SOL    HW2 5067   6.335   1.175   4.093
 1390SOL     OW 5068   0.271   3.483   0.137
 1390SOL    HW1 5069   0.323   3.512   0.056
 1390SOL    HW2 5070   0.175   3.471   0.112
 1391SOL     OW 5071   6.694   6.231   4.654
 1391SOL    HW1 5072   6.779   6.264   4.615
 1391SOL    HW2 5073   6.704   6.135   4.680
 1392SOL     OW 5074   5.229   6.175   5.818
 1392SOL    HW1 5075   5.257   6.104   5.753
 1392SOL    HW2 5076   5.175   6.245   5.770
 1393SOL     OW 5077   6.428   4.878   5.427
 1393SOL    HW1 5078   6.366   4.810   5.465
 1393SOL    HW2 5079   6.377   4.938   5.365
 1394SOL     OW 5080   3.309   5.009   5.843
 1394SOL    HW1 5081   3.298   5.107   5.861
 1394SOL    HW2 5082   3.222   4.962   5.858
 1395SOL     OW 5083   2.540   4.498   5.119
 1395SOL    HW1 5084   2.570   4.497   5.215
 1395SOL    HW2 5085   2.619   4.494   5.059
 1396SOL     OW 5086   1.071   1.576   5.256
 1396SOL    HW1 5087   1.108   1.561   5.347
 1396SOL    HW2 5088   1.145   1.599   5.193
 1397SOL     OW 5089   0.247   7.013   4.085
 1397SOL    HW1 5090   0.240   6.963   4.172
 1397SOL    HW2 5091   0.190   0.076   4.089
 1398SOL     OW 5092   3.241   0.685   6.699
 1398SOL    HW1 5093   3.290   0.755   6.750
 1398SOL    HW2 5094   3.209   0.613   6.762
 1399SOL     OW 5095   3.420   5.384   0.682
 1399SOL    HW1 5096   3.340   5.445   0.679
 1399SOL    HW2 5097   3.486   5.412   0.613
 1400SOL     OW 5098   0.067   1.687   3.798
 1400SOL    HW1 5099   0.119   1.769   3.822
 1400SOL    HW2 5100   0.130   1.610   3.786
 1401SOL     OW 5101   6.340   0.940   4.912
 1401SOL    HW1 5102   6.428   0.975   4.882
 1401SOL    HW2 5103   6.347   0.905   5.005
 1402SOL     OW 5104   6.470   3.505   6.493
 1402SOL    HW1 5105   6.381   3.510   6.539
 1402SOL    HW2 5106   6.456   3.514   6.394
 1403SOL     OW 5107   2.620   2.524   1.577
 1403SOL    HW1 5108   2.707   2.504   1.622
 1403SOL    HW2 5109   2.607   2.461   1.501
 1404SOL     OW 5110   6.419   6.555   0.447
 1404SOL    HW1 5111   6.424   6.484   0.517
 1404SOL    HW2 5112   6.333   6.545   0.396
 1405SOL     OW 5113   2.451   3.387   0.662
 1405SOL    HW1 5114   2.501   3.309   0.623
 1405SOL    HW2 5115   2.457   3.465   0.600
 1406SOL     OW 5116   0.598   5.649   0.947
 1406SOL    HW1 5117   0.560   5.560   0.969
 1406SOL    HW2 5118   0.693   5.653   0.976
 1407SOL     OW 5119   0.354   3.126   2.069
 1407SOL    HW1 5120   0.285   3.060   2.039
 1407SOL    HW2 5121   0.421   3.081   2.128
 1408SOL     OW 5122   5.395   0.865   6.075
 1408SOL    HW1 5123   5.482   0.913   6.090
 1408SOL    HW2 5124   5.383   0.796   6.146
 1409SOL     OW 5125   6.625   0.236   4.854
 1409SOL    HW1 5126   6.680   0.313   4.822
 1409SOL    HW2 5127   6.575   0.263   4.936
 1410SOL     OW 5128   1.274   3.685   6.283
 1410SOL    HW1 5129   1.340   3.680   6.208
 1410SOL    HW2 5130   1.206   3.754   6.262
 1411SOL     OW 5131   3.729   6.791   0.925
 1411SOL    HW1 5132   3.777   6.878   0.911
 1411SOL    HW2 5133   3.631   6.805   0.914
 1412SOL     OW 5134   1.346   2.030   0.879
 1412SOL    HW1 5135   1.394   1.945   0.899
 1412SOL    HW2 5136   1.379   2.067   0.792
 1413SOL     OW 5137   1.741   2.090   5.406
 1413SOL    HW1 5138   1.720   2.154   5.331
 1413SOL    HW2 5139   1.680   2.109   5.483
 1414SOL     OW 5140   2.830   1.196   1.671
 1414SOL    HW1 5141   2.867   1.151   1.753
 1414SOL    HW2 5142   2.842   1.295   1.680
 1415SOL     OW 5143   2.293   1.091   4.168
 1415SOL    HW1 5144   2.335   1.027   4.232
 1415SOL    HW2 5145   2.196   1.100   4.188
 1416SOL     OW 5146   5.414   5.263   4.192
 1416SOL    HW1 5147   5.480   5.191   4.214
 1416SOL    HW2 5148   5.328   5.244   4.239
 1417SOL     OW 5149   2.958   2.214   6.901
 1417SOL    HW1 5150   3.025   2.288   6.909
 1417SOL    HW2 5151   2.996   2.131   6.941
 1418SOL     OW 5152   3.411   4.099   2.872
 1418SOL    HW1 5153   3.393   4.101   2.774
 1418SOL    HW2 5154   3.325   4.086   2.922
 1419SOL     OW 5155   2.633   5.610   4.423
 1419SOL    HW1 5156   2.650   5.542   4.352
 1419SOL    HW2 5157   2.559   5.579   4.483
 1420SOL     OW 5158   2.552   6.807   1.947
 1420SOL    HW1 5159   2.618   6.791   2.020
 1420SOL    HW2 5160   2.572   6.894   1.903
 1421SOL     OW 5161   2.188   4.866   3.410
 1421SOL    HW1 5162   2.182   4.958   3.449
 1421SOL    HW2 5163   2.279   4.828   3.426
 1422SOL     OW 5164   1.275   3.945   0.407
 1422SOL    HW1 5165   1.333   3.987   0.337
 1422SOL    HW2 5166   1.226   4.016   0.457
 1423SOL     OW 5167   4.964   6.290   3.392
 1423SOL    HW1 5168   4.908   6.262   3.469
 1423SOL    HW2 5169   5.007   6.378   3.412
 1424SOL     OW 5170   6.871   5.003   5.552
 1424SOL    HW1 5171   6.809   5.031   5.625
 1424SOL    HW2 5172   6.926   5.081   5.523
 1425SOL     OW 5173   1.928   5.617   5.343
 1425SOL    HW1 5174   2.000   5.588   5.406
 1425SOL    HW2 5175   1.917   5.549   5.271
 1426SOL     OW 5176   1.922   4.187   6.445
 1426SOL    HW1 5177   1.939   4.144   6.533
 1426SOL    HW2 5178   1.988   4.154   6.378
 1427SOL     OW 5179   0.268   0.203   3.489
 1427SOL    HW1 5180   0.350   0.153   3.516
 1427SOL    HW2 5181   0.259   0.201   3.390
 1428SOL     OW 5182   0.206   3.207   6.941
 1428SOL    HW1 5183   0.177   3.302   6.928
 1428SOL    HW2 5184   0.132   3.155   6.982
 1429SOL     OW 5185   4.093   1.459   6.957
 1429SOL    HW1 5186   3.997   1.467   6.984
 1429SOL    HW2 5187   4.141   1.398   0.003
 1430SOL     OW 5188   1.506   4.749   3.834
 1430SOL    HW1 5189   1.606   4.756   3.836
 1430SOL    HW2 5190   1.466   4.829   3.878
 1431SOL     OW 5191   2.785   1.878   0.898
 1431SOL    HW1 5192   2.850   1.854   0.970
 1431SOL    HW2 5193   2.715   1.807   0.891
 1432SOL     OW 5194   2.626   1.778   1.882
 1432SOL    HW1 5195   2.665   1.781   1.790
 1432SOL    HW2 5196   2.660   1.855   1.935
 1433SOL     OW 5197   4.363   0.772   5.123
 1433SOL    HW1 5198   4.337   0.852   5.069
 1433SOL    HW2 5199   4.299   0.759   5.198
 1434SOL     OW 5200   0.578   0.390   6.099
 1434SOL    HW1 5201   0.559   0.357   6.006
 1434SOL    HW2 5202   0.511   0.461   6.123
 1435SOL     OW 5203   6.566   6.882   2.960
 1435SOL    HW1 5204   6.615   6.955   2.911
 1435SOL    HW2 5205   6.606   6.793   2.936
 1436SOL     OW 5206   5.220   4.048   6.681
 1436SOL    HW1 5207   5.258   3.972   6.628
 1436SOL    HW2 5208   5.127   4.068   6.648
 1437SOL     OW 5209   2.952   2.011   4.644
 1437SOL    HW1 5210   2.858   2.045   4.641
 1437SOL    HW2 5211   2.991   2.029   4.734
 1438SOL     OW 5212   2.813   6.285   1.698
 1438SOL    HW1 5213   2.729   6.338   1.707
 1438SOL    HW2 5214   2.837   6.278   1.601
 1439SOL     OW 5215   6.148   5.788   1.009
 1439SOL    HW1 5216   6.213   5.716   1.034
 1439SOL    HW2 5217   6.164   5.869   1.065
 1440SOL     OW 5218   2.803   3.181   6.872
 1440SOL    HW1 5219   2.877   3.142   6.927
 1440SOL    HW2 5220   2.818   3.280   6.861
 1441SOL     OW 5221   6.322   0.723   3.638
 1441SOL    HW1 5222   6.419   0.703   3.648
 1441SOL    HW2 5223   6.287   0.681   3.554
 1442SOL     OW 5224   6.951   5.655   6.630
 1442SOL    HW1 5225   7.017   5.665   6.705
 1442SOL    HW2 5226   6.996   5.612   6.552
 1443SOL     OW 5227   0.792   2.700   4.311
 1443SOL    HW1 5228   0.722   2.767   4.333
 1443SOL    HW2 5229   0.862   2.699   4.383
 1444SOL     OW 5230   4.714   5.361   0.681
 1444SOL    HW1 5231   4.629   5.414   0.688
 1444SOL    HW2 5232   4.774   5.385   0.758
 1445SOL     OW 5233   1.362   2.717   2.823
 1445SOL    HW1 5234   1.300   2.785   2.863
 1445SOL    HW2 5235   1.362   2.634   2.880
 1446SOL     OW 5236   5.733   1.964   0.197
 1446SOL    HW1 5237   5.683   1.993   0.278
 1446SOL    HW2 5238   5.820   1.923   0.225
 1447SOL     OW 5239   6.099   6.069   4.803
 1447SOL    HW1 5240   6.075   6.131   4.728
 1447SOL    HW2 5241   6.056   5.980   4.787
 1448SOL     OW 5242   6.759   2.356   5.205
 1448SOL    HW1 5243   6.795   2.429   5.264
 1448SOL    HW2 5244   6.680   2.391   5.155
 1449SOL     OW 5245   0.980   2.434   6.753
 1449SOL    HW1 5246   0.971   2.486   6.669
 1449SOL    HW2 5247   0.890   2.402   6.783
 1450SOL     OW 5248   1.264   2.319   1.146
 1450SOL    HW1 5249   1.292   2.353   1.236
 1450SOL    HW2 5250   1.174   2.276   1.153
 1451SOL     OW 5251   0.692   6.844   2.300
 1451SOL    HW1 5252   0.696   6.930   2.351
 1451SOL    HW2 5253   0.615   6.790   2.334
 1452SOL     OW 5254   4.562   1.778   5.111
 1452SOL    HW1 5255   4.555   1.801   5.014
 1452SOL    HW2 5256   4.472   1.785   5.154
 1453SOL     OW 5257   0.050   3.746   5.919
 1453SOL    HW1 5258   0.003   3.757   6.006
 1453SOL    HW2 5259   0.009   3.670   5.868
 1454SOL     OW 5260   0.489   2.955   2.219
 1454SOL    HW1 5261   0.572   2.988   2.264
 1454SOL    HW2 5262   0.506   2.865   2.180
 1455SOL     OW 5263   1.484   0.274   1.484
 1455SOL    HW1 5264   1.406   0.215   1.502
 1455SOL    HW2 5265   1.492   0.292   1.386
 1456SOL     OW 5266   6.885   6.248   5.799
 1456SOL    HW1 5267   6.928   6.327   5.843
 1456SOL    HW2 5268   6.861   6.271   5.705
 1457SOL     OW 5269   0.505   6.793   1.697
 1457SOL    HW1 5270   0.481   6.757   1.607
 1457SOL    HW2 5271   0.433   6.854   1.729
 1458SOL     OW 5272   5.809   5.338   4.129
 1458SOL    HW1 5273   5.831   5.272   4.202
 1458SOL    HW2 5274   5.887   5.397   4.113
 1459SOL     OW 5275   3.278   6.026   5.724
 1459SOL    HW1 5276   3.259   5.982   5.812
 1459SOL    HW2 5277   3.319   5.959   5.663
 1460SOL     OW 5278   0.282   0.050   5.376
 1460SOL    HW1 5279   0.238   0.135   5.407
 1460SOL    HW2 5280   0.324   0.004   5.454
 1461SOL     OW 5281   6.105   4.492   2.974
 1461SOL    HW1 5282   6.173   4.559   3.002
 1461SOL    HW2 5283   6.014   4.534   2.978
 1462SOL     OW 5284   1.594   0.656   0.041
 1462SOL    HW1 5285   1.598   0.756   0.042
 1462SOL    HW2 5286   1.605   0.621   0.133
 1463SOL     OW 5287   6.880   5.222   6.901
 1463SOL    HW1 5288   6.965   5.273   6.921
 1463SOL    HW2 5289   6.891   5.127   6.929
 1464SOL     OW 5290   6.989   6.153   2.023
 1464SOL    HW1 5291   6.997   6.233   2.083
 1464SOL    HW2 5292   6.938   6.081   2.071
 1465SOL     OW 5293   1.472   0.536   3.552
 1465SOL    HW1 5294   1.432   0.625   3.573
 1465SOL    HW2 5295   1.494   0.488   3.637
 1466SOL     OW 5296   2.615   2.413   2.478
 1466SOL    HW1 5297   2.538   2.477   2.466
 1466SOL    HW2 5298   2.660   2.400   2.390
 1467SOL     OW 5299   1.817   1.375   2.946
 1467SOL    HW1 5300   1.832   1.459   2.998
 1467SOL    HW2 5301   1.904   1.339   2.914
 1468SOL     OW 5302   2.982   5.370   2.806
 1468SOL    HW1 5303   2.891   5.335   2.788
 1468SOL    HW2 5304   2.977   5.444   2.873
 1469SOL     OW 5305   0.731   0.728   2.069
 1469SOL    HW1 5306   0.792   0.793   2.115
 1469SOL    HW2 5307   0.653   0.708   2.129
 1470SOL     OW 5308   1.060   1.965   2.276
 1470SOL    HW1 5309   1.155   1.963   2.308
 1470SOL    HW2 5310   1.031   2.060   2.263
 1471SOL     OW 5311   0.835   0.152   0.679
 1471SOL    HW1 5312   0.888   0.103   0.610
 1471SOL    HW2 5313   0.871   0.244   0.690
 1472SOL     OW 5314   2.895   5.277   5.320
 1472SOL    HW1 5315   2.833   5.214   5.272
 1472SOL    HW2 5316   2.986   5.236   5.326
 1473SOL     OW 5317   4.315   5.322   5.107
 1473SOL    HW1 5318   4.333   5.417   5.082
 1473SOL    HW2 5319   4.300   5.268   5.024
 1474SOL     OW 5320   5.744   5.219   2.215
 1474SOL    HW1 5321   5.803   5.156   2.264
 1474SOL    HW2 5322   5.771   5.223   2.118
 1475SOL     OW 5323   5.876   0.704   1.900
 1475SOL    HW1 5324   5.885   0.718   1.999
 1475SOL    HW2 5325   5.836   0.785   1.858
 1476SOL     OW 5326   3.633   0.601   1.260
 1476SOL    HW1 5327   3.564   0.619   1.190
 1476SOL    HW2 5328   3.694   0.680   1.267
 1477SOL     OW 5329   2.998   6.724   5.719
 1477SOL    HW1 5330   3.004   6.777   5.804
 1477SOL    HW2 5331   3.089   6.695   5.692
 1478SOL     OW 5332   6.351   5.291   5.777
 1478SOL    HW1 5333   6.387   5.383   5.792
 1478SOL    HW2 5334   6.406   5.225   5.829
 1479SOL     OW 5335   2.042   2.385   1.111
 1479SOL    HW1 5336   2.028   2.483   1.125
 1479SOL    HW2 5337   1.979   2.334   1.169
 1480SOL     OW 5338   3.114   0.843   4.627
 1480SOL    HW1 5339   3.166   0.806   4.705
 1480SOL    HW2 5340   3.102   0.941   4.638
 1481SOL     OW 5341   6.612   2.995   6.922
 1481SOL    HW1 5342   6.638   2.985   6.826
 1481SOL    HW2 5343   6.624   2.907   6.969
 1482SOL     OW 5344   4.262   1.335   2.040
 1482SOL    HW1 5345   4.228   1.384   1.960
 1482SOL    HW2 5346   4.193   1.268   2.070
 1483SOL     OW 5347   4.415   1.831   6.272
 1483SOL    HW1 5348   4.315   1.834   6.268
 1483SOL    HW2 5349   4.451   1.802   6.183
 1484SOL     OW 5350   5.433   4.668   4.023
 1484SOL    HW1 5351   5.427   4.760   4.061
 1484SOL    HW2 5352   5.426   4.672   3.923
 1485SOL     OW 5353   3.727   1.135   4.243
 1485SOL    HW1 5354   3.730   1.075   4.323
 1485SOL    HW2 5355   3.745   1.229   4.271
 1486SOL     OW 5356   5.749   1.034   2.719
 1486SOL    HW1 5357   5.841   1.001   2.700
 1486SOL    HW2 5358   5.741   1.130   2.692
 1487SOL     OW 5359   0.577   2.557   0.011
 1487SOL    HW1 5360   0.677   2.561   0.011
 1487SOL    HW2 5361   0.540   2.650   0.002
 1488SOL     OW 5362   5.393   0.641   3.688
 1488SOL    HW1 5363   5.324   0.714   3.689
 1488SOL    HW2 5364   5.405   0.608   3.594
 1489SOL     OW 5365   3.881   4.749   5.967
 1489SOL    HW1 5366   3.974   4.724   5.938
 1489SOL    HW2 5367   3.876   4.749   6.067
 1490SOL     OW 5368   0.933   3.615   1.373
 1490SOL    HW1 5369   0.899   3.701   1.336
 1490SOL    HW2 5370   0.984   3.633   1.457
 1491SOL     OW 5371   6.115   4.626   2.372
 1491SOL    HW1 5372   6.107   4.538   2.325
 1491SOL    HW2 5373   6.208   4.638   2.407
 1492SOL     OW 5374   6.378   0.837   2.632
 1492SOL    HW1 5375   6.315   0.801   2.701
 1492SOL    HW2 5376   6.470   0.805   2.651
 1493SOL     OW 5377   3.359   6.835   5.892
 1493SOL    HW1 5378   3.314   6.823   5.803
 1493SOL    HW2 5379   3.340   6.755   5.950
 1494SOL     OW 5380   4.712   1.571   6.360
 1494SOL    HW1 5381   4.717   1.670   6.373
 1494SOL    HW2 5382   4.730   1.525   6.447
 1495SOL     OW 5383   0.129   3.132   5.455
 1495SOL    HW1 5384   0.209   3.154   5.400
 1495SOL    HW2 5385   0.140   3.170   5.547
 1496SOL     OW 5386   0.052   1.538   1.542
 1496SOL    HW1 5387   7.007   1.587   1.482
 1496SOL    HW2 5388   0.122   1.601   1.576
 1497SOL     OW 5389   5.762   3.337   2.693
 1497SOL    HW1 5390   5.720   3.256   2.734
 1497SOL    HW2 5391   5.699   3.414   2.699
 1498SOL     OW 5392   2.573   4.495   6.765
 1498SOL    HW1 5393   2.482   4.484   6.805
 1498SOL    HW2 5394   2.574   4.451   6.675
 1499SOL     OW 5395   0.769   2.742   5.673
 1499SOL    HW1 5396   0.855   2.793   5.670
 1499SOL    HW2 5397   0.750   2.716   5.768
 1500SOL     OW 5398   0.174   0.027   0.087
 1500SOL    HW1 5399   0.157   7.011   0.179
 1500SOL    HW2 5400   0.087   0.041   0.040
 1501SOL     OW 5401   4.877   2.512   6.565
 1501SOL    HW1 5402   4.846   2.458   6.487
 1501SOL    HW2 5403   4.827   2.483   6.647
 1502SOL     OW 5404   4.087   0.412   7.013
 1502SOL    HW1 5405   4.111   0.509   7.010
 1502SOL    HW2 5406   3.991   0.400   6.987
 1503SOL     OW 5407   1.405   3.106   1.847
 1503SOL    HW1 5408   1.395   3.008   1.861
 1503SOL    HW2 5409   1.501   3.132   1.854
 1504SOL     OW 5410   0.222   0.281   4.435
 1504SOL    HW1 5411   0.194   0.372   4.464
 1504SOL    HW2 5412   0.312   0.286   4.393
 1505SOL     OW 5413   4.892   0.282   4.870
 1505SOL    HW1 5414   4.821   0.214   4.889
 1505SOL    HW2 5415   4.957   0.285   4.945
 1506SOL     OW 5416   0.859   6.171   6.965
 1506SOL    HW1 5417   0.828   6.147   0.039
 1506SOL    HW2 5418   0.800   6.242   6.927
 1507SOL     OW 5419   0.539   1.719   5.976
 1507SOL    HW1 5420   0.630   1.681   5.993
 1507SOL    HW2 5421   0.480   1.699   6.054
 1508SOL     OW 5422   6.326   1.356   1.499
 1508SOL    HW1 5423   6.233   1.363   1.462
 1508SOL    HW2 5424   6.392   1.369   1.425
 1509SOL     OW 5425   4.003   1.823   5.427
 1509SOL    HW1 5426   4.041   1.915   5.420
 1509SOL    HW2 5427   4.034   1.781   5.512
 1510SOL     OW 5428   5.049   1.711   4.796
 1510SOL    HW1 5429   5.063   1.800   4.752
 1510SOL    HW2 5430   5.044   1.723   4.895
 1511SOL     OW 5431   3.882   2.984   3.584
 1511SOL    HW1 5432   3.943   3.049   3.540
 1511SOL    HW2 5433   3.880   3.000   3.682
 1512SOL     OW 5434   0.107   5.183   0.725
 1512SOL    HW1 5435   0.028   5.170   0.664
 1512SOL    HW2 5436   0.130   5.096   0.769
 1513SOL     OW 5437   4.069   0.354   5.324
 1513SOL    HW1 5438   4.068   0.375   5.421
 1513SOL    HW2 5439   3.992   0.400   5.279
 1514SOL     OW 5440   3.954   2.106   5.690
 1514SOL    HW1 5441   3.886   2.034   5.677
 1514SOL    HW2 5442   3.914   2.194   5.666
 1515SOL     OW 5443   5.549   1.880   2.383
 1515SOL    HW1 5444   5.495   1.850   2.304
 1515SOL    HW2 5445   5.582   1.973   2.368
 1516SOL     OW 5446   6.797   5.832   6.456
 1516SOL    HW1 5447   6.816   5.742   6.495
 1516SOL    HW2 5448   6.723   5.824   6.388
 1517SOL     OW 5449   4.557   6.272   3.135
 1517SOL    HW1 5450   4.646   6.311   3.109
 1517SOL    HW2 5451   4.534   6.198   3.072
 1518SOL     OW 5452   0.968   2.457   0.470
 1518SOL    HW1 5453   0.954   2.402   0.552
 1518SOL    HW2 5454   0.958   2.554   0.492
 1519SOL     OW 5455   6.731   4.750   1.860
 1519SOL    HW1 5456   6.683   4.833   1.830
 1519SOL    HW2 5457   6.827   4.757   1.835
 1520SOL     OW 5458   0.409   4.223   1.787
 1520SOL    HW1 5459   0.394   4.281   1.707
 1520SOL    HW2 5460   0.341   4.244   1.857
 1521SOL     OW 5461   1.872   3.874   6.190
 1521SOL    HW1 5462   1.947   3.940   6.194
 1521SOL    HW2 5463   1.834   3.874   6.097
 1522SOL     OW 5464   5.524   6.197   4.909
 1522SOL    HW1 5465   5.555   6.232   4.997
 1522SOL    HW2 5466   5.541   6.098   4.905
 1523SOL     OW 5467   4.694   5.831   0.139
 1523SOL    HW1 5468   4.599   5.802   0.150
 1523SOL    HW2 5469   4.744   5.818   0.225
 1524SOL     OW 5470   2.439   1.935   2.390
 1524SOL    HW1 5471   2.370   1.884   2.339
 1524SOL    HW2 5472   2.490   1.873   2.449
 1525SOL     OW 5473   6.869   3.494   0.404
 1525SOL    HW1 5474   6.931   3.564   0.369
 1525SOL    HW2 5475   6.778   3.535   0.419
 1526SOL     OW 5476   0.039   0.943   6.848
 1526SOL    HW1 5477   7.018   0.865   6.800
 1526SOL    HW2 5478   0.031   0.929   6.947
 1527SOL     OW 5479   4.294   1.155   4.859
 1527SOL    HW1 5480   4.359   1.112   4.922
 1527SOL    HW2 5481   4.334   1.158   4.767
 1528SOL     OW 5482   4.125   5.095   2.764
 1528SOL    HW1 5483   4.186   5.130   2.836
 1528SOL    HW2 5484   4.173   5.095   2.676
 1529SOL     OW 5485   4.586   0.491   0.332
 1529SOL    HW1 5486   4.503   0.465   0.283
 1529SOL    HW2 5487   4.611   0.419   0.396
 1530SOL     OW 5488   3.704   2.057   2.274
 1530SOL    HW1 5489   3.787   2.047   2.219
 1530SOL    HW2 5490   3.648   2.132   2.238
 1531SOL     OW 5491   4.450   7.012   5.696
 1531SOL    HW1 5492   4.377   6.983   5.757
 1531SOL    HW2 5493   4.426   6.989   5.601
 1532SOL     OW 5494   3.175   3.204   6.355
 1532SOL    HW1 5495   3.144   3.298   6.339
 1532SOL    HW2 5496   3.238   3.203   6.433
 1533SOL     OW 5497   6.212   4.592   6.525
 1533SOL    HW1 5498   6.263   4.669   6.565
 1533SOL    HW2 5499   6.167   4.541   6.598
 1534SOL     OW 5500   2.730   4.648   6.935
 1534SOL    HW1 5501   2.695   4.687   0.002
 1534SOL    HW2 5502   2.657   4.643   6.867
 1535SOL     OW 5503   5.083   6.655   4.537
 1535SOL    HW1 5504   5.022   6.713   4.484
 1535SOL    HW2 5505   5.068   6.559   4.513
 1536SOL     OW 5506   3.515   4.247   5.802
 1536SOL    HW1 5507   3.450   4.181   5.765
 1536SOL    HW2 5508   3.525   4.232   5.900
 1537SOL     OW 5509   4.585   6.105   3.776
 1537SOL    HW1 5510   4.606   6.145   3.865
 1537SOL    HW2 5511   4.487   6.084   3.772
 1538SOL     OW 5512   3.522   6.405   6.852
 1538SOL    HW1 5513   3.621   6.416   6.860
 1538SOL    HW2 5514   3.486   6.368   6.938
 1539SOL     OW 5515   4.828   4.225   1.486
 1539SOL    HW1 5516   4.790   4.243   1.577
 1539SOL    HW2 5517   4.869   4.134   1.485
 1540SOL     OW 5518   0.946   5.866   5.595
 1540SOL    HW1 5519   0.988   5.883   5.506
 1540SOL    HW2 5520   0.968   5.774   5.626
 1541SOL     OW 5521   3.335   3.073   3.929
 1541SOL    HW1 5522   3.313   3.171   3.923
 1541SOL    HW2 5523   3.296   3.025   3.850
 1542SOL     OW 5524   6.330   0.183   2.609
 1542SOL    HW1 5525   6.376   0.144   2.529
 1542SOL    HW2 5526   6.279   0.110   2.656
 1543SOL     OW 5527   3.010   4.999   5.442
 1543SOL    HW1 5528   3.083   5.063   5.468
 1543SOL    HW2 5529   3.026   4.966   5.349
 1544SOL     OW 5530   3.070   3.275   2.623
 1544SOL    HW1 5531   3.084   3.310   2.531
 1544SOL    HW2 5532   3.062   3.175   2.620
 1545SOL     OW 5533   5.121   0.706   3.196
 1545SOL    HW1 5534   5.206   0.741   3.235
 1545SOL    HW2 5535   5.095   0.621   3.242
 1546SOL     OW 5536   3.905   6.952   5.877
 1546SOL    HW1 5537   3.922   6.989   5.785
 1546SOL    HW2 5538   3.820   6.899   5.876
 1547SOL     OW 5539   1.639   3.968   2.771
 1547SOL    HW1 5540   1.548   4.009   2.761
 1547SOL    HW2 5541   1.648   3.930   2.863
 1548SOL     OW 5542   5.737   3.769   5.794
 1548SOL    HW1 5543   5.763   3.726   5.707
 1548SOL    HW2 5544   5.666   3.714   5.838
 1549SOL     OW 5545   4.638   1.359   2.227
 1549SOL    HW1 5546   4.597   1.374   2.137
 1549SOL    HW2 5547   4.598   1.422   2.294
 1550SOL     OW 5548   3.316   3.712   6.907
 1550SOL    HW1 5549   3.262   3.720   6.991
 1550SOL    HW2 5550   3.282   3.778   6.840
 1551SOL     OW 5551   2.582   4.004   6.164
 1551SOL    HW1 5552   2.609   3.960   6.078
 1551SOL    HW2 5553   2.521   4.080   6.144
 1552SOL     OW 5554   0.707   6.186   0.487
 1552SOL    HW1 5555   0.747   6.277   0.489
 1552SOL    HW2 5556   0.627   6.186   0.427
 1553SOL     OW 5557   0.500   1.985   5.890
 1553SOL    HW1 5558   0.545   1.896   5.883
 1553SOL    HW2 5559   0.460   1.995   5.981
 1554SOL     OW 5560   4.090   2.180   2.844
 1554SOL    HW1 5561   4.157   2.194   2.771
 1554SOL    HW2 5562   4.032   2.101   2.821
 1555SOL     OW 5563   4.724   2.411   6.773
 1555SOL    HW1 5564   4.648   2.367   6.723
 1555SOL    HW2 5565   4.720   2.384   6.869
 1556SOL     OW 5566   3.591   1.452   0.398
 1556SOL    HW1 5567   3.605   1.398   0.315
 1556SOL    HW2 5568   3.676   1.459   0.449
 1557SOL     OW 5569   2.643   1.723   5.993
 1557SOL    HW1 5570   2.678   1.760   5.907
 1557SOL    HW2 5571   2.546   1.748   6.002
 1558SOL     OW 5572   5.255   0.661   4.741
 1558SOL    HW1 5573   5.164   0.701   4.748
 1558SOL    HW2 5574   5.323   0.727   4.770
 1559SOL     OW 5575   0.828   2.480   0.225
 1559SOL    HW1 5576   0.883   2.459   0.306
 1559SOL    HW2 5577   0.732   2.485   0.251
 1560SOL     OW 5578   0.543   0.897   6.108
 1560SOL    HW1 5579   0.588   0.820   6.062
 1560SOL    HW2 5580   0.506   0.959   6.039
 1561SOL     OW 5581   6.322   6.681   4.127
 1561SOL    HW1 5582   6.315   6.583   4.109
 1561SOL    HW2 5583   6.374   6.725   4.054
 1562SOL     OW 5584   3.883   5.705   2.927
 1562SOL    HW1 5585   3.821   5.692   3.004
 1562SOL    HW2 5586   3.976   5.683   2.955
 1563SOL     OW 5587   1.922   0.269   5.678
 1563SOL    HW1 5588   1.943   0.225   5.765
 1563SOL    HW2 5589   1.851   0.339   5.692
 1564SOL     OW 5590   1.592   2.670   3.444
 1564SOL    HW1 5591   1.683   2.658   3.484
 1564SOL    HW2 5592   1.523   2.646   3.511
 1565SOL     OW 5593   4.351   4.793   4.574
 1565SOL    HW1 5594   4.443   4.819   4.601
 1565SOL    HW2 5595   4.299   4.764   4.654
 1566SOL     OW 5596   5.951   4.751   2.933
 1566SOL    HW1 5597   5.905   4.667   2.903
 1566SOL    HW2 5598   5.920   4.828   2.877
 1567SOL     OW 5599   6.083   6.080   0.560
 1567SOL    HW1 5600   6.063   6.157   0.500
 1567SOL    HW2 5601   6.000   6.026   0.574
 1568SOL     OW 5602   1.756   6.193   1.025
 1568SOL    HW1 5603   1.705   6.265   1.072
 1568SOL    HW2 5604   1.718   6.104   1.049
 1569SOL     OW 5605   4.123   6.189   3.612
 1569SOL    HW1 5606   4.195   6.159   3.675
 1569SOL    HW2 5607   4.149   6.166   3.519
 1570SOL     OW 5608   2.228   0.438   0.478
 1570SOL    HW1 5609   2.208   0.384   0.560
 1570SOL    HW2 5610   2.325   0.459   0.475
 1571SOL     OW 5611   5.329   2.085   1.354
 1571SOL    HW1 5612   5.328   2.004   1.413
 1571SOL    HW2 5613   5.366   2.162   1.405
 1572SOL     OW 5614   0.488   6.727   1.041
 1572SOL    HW1 5615   0.587   6.734   1.049
 1572SOL    HW2 5616   0.450   6.818   1.024
 1573SOL     OW 5617   5.331   3.616   1.456
 1573SOL    HW1 5618   5.254   3.569   1.499
 1573SOL    HW2 5619   5.324   3.609   1.356
 1574SOL     OW 5620   6.837   0.856   1.802
 1574SOL    HW1 5621   6.846   0.847   1.902
 1574SOL    HW2 5622   6.922   0.894   1.765
 1575SOL     OW 5623   4.276   1.256   0.730
 1575SOL    HW1 5624   4.260   1.245   0.632
 1575SOL    HW2 5625   4.340   1.186   0.762
 1576SOL     OW 5626   1.614   6.719   3.623
 1576SOL    HW1 5627   1.533   6.664   3.600
 1576SOL    HW2 5628   1.586   6.805   3.664
 1577SOL     OW 5629   2.884   1.506   4.954
 1577SOL    HW1 5630   2.874   1.569   4.877
 1577SOL    HW2 5631   2.915   1.556   5.034
 1578SOL     OW 5632   6.426   2.863   5.572
 1578SOL    HW1 5633   6.503   2.811   5.535
 1578SOL    HW2 5634   6.460   2.949   5.611
 1579SOL     OW 5635   0.117   1.388   2.315
 1579SOL    HW1 5636   0.184   1.429   2.254
 1579SOL    HW2 5637   0.123   1.288   2.309
 1580SOL     OW 5638   2.949   3.939   4.981
 1580SOL    HW1 5639   3.011   4.011   5.012
 1580SOL    HW2 5640   2.945   3.939   4.881
 1581SOL     OW 5641   0.438   3.644   4.821
 1581SOL    HW1 5642   0.366   3.577   4.838
 1581SOL    HW2 5643   0.459   3.693   4.906
 1582SOL     OW 5644   1.220   6.963   4.403
 1582SOL    HW1 5645   1.202   6.875   4.448
 1582SOL    HW2 5646   1.142   6.987   4.345
 1583SOL     OW 5647   1.078   4.748   3.365
 1583SOL    HW1 5648   1.133   4.787   3.291
 1583SOL    HW2 5649   0.989   4.795   3.369
 1584SOL     OW 5650   1.086   6.770   5.200
 1584SOL    HW1 5651   1.059   6.861   5.230
 1584SOL    HW2 5652   1.036   6.701   5.252
 1585SOL     OW 5653   6.103   1.983   3.735
 1585SOL    HW1 5654   6.172   1.983   3.807
 1585SOL    HW2 5655   6.132   2.044   3.661
 1586SOL     OW 5656   3.712   4.984   1.830
 1586SOL    HW1 5657   3.667   4.905   1.873
 1586SOL    HW2 5658   3.648   5.061   1.826
 1587SOL     OW 5659   2.966   6.122   6.398
 1587SOL    HW1 5660   3.033   6.124   6.471
 1587SOL    HW2 5661   2.909   6.040   6.406
 1588SOL     OW 5662   4.717   1.610   3.021
 1588SOL    HW1 5663   4.808   1.650   3.017
 1588SOL    HW2 5664   4.722   1.522   3.069
 1589SOL     OW 5665   5.484   4.257   1.490
 1589SOL    HW1 5666   5.560   4.193   1.481
 1589SOL    HW2 5667   5.497   4.333   1.427
 1590SOL     OW 5668   3.052   5.908   6.632
 1590SOL    HW1 5669   3.124   5.978   6.633
 1590SOL    HW2 5670   3.010   5.903   6.722
 1591SOL     OW 5671   6.722   5.270   2.704
 1591SOL    HW1 5672   6.682   5.180   2.723
 1591SOL    HW2 5673   6.676   5.311   2.625
 1592SOL     OW 5674   2.372   4.465   0.616
 1592SOL    HW1 5675   2.455   4.519   0.625
 1592SOL    HW2 5676   2.354   4.417   0.702
 1593SOL     OW 5677   1.092   6.641   4.323
 1593SOL    HW1 5678   1.098   6.721   4.262
 1593SOL    HW2 5679   1.085   6.558   4.268
 1594SOL     OW 5680   7.012   6.248   2.484
 1594SOL    HW1 5681   0.057   6.183   2.526
 1594SOL    HW2 5682   6.993   6.322   2.548
 1595SOL     OW 5683   1.342   5.216   6.786
 1595SOL    HW1 5684   1.290   5.147   6.737
 1595SOL    HW2 5685   1.438   5.212   6.760
 1596SOL     OW 5686   0.371   2.590   4.111
 1596SOL    HW1 5687   0.389   2.573   4.014
 1596SOL    HW2 5688   0.400   2.683   4.134
 1597SOL     OW 5689   1.820   6.467   6.756
 1597SOL    HW1 5690   1.819   6.456   6.855
 1597SOL    HW2 5691   1.769   6.549   6.731
 1598SOL     OW 5692   1.114   3.469   6.628
 1598SOL    HW1 5693   1.213   3.455   6.622
 1598SOL    HW2 5694   1.082   3.513   6.543
 1599SOL     OW 5695   4.459   4.412   5.738
 1599SOL    HW1 5696   4.481   4.486   5.802
 1599SOL    HW2 5697   4.414   4.338   5.786
 1600SOL     OW 5698   5.333   1.551   5.075
 1600SOL    HW1 5699   5.256   1.567   5.013
 1600SOL    HW2 5700   5.380   1.467   5.049
 1601SOL     OW 5701   0.001   4.892   4.716
 1601SOL    HW1 5702   0.086   4.938   4.692
 1601SOL    HW2 5703   0.014   4.840   4.800
 1602SOL     OW 5704   2.238   5.096   3.559
 1602SOL    HW1 5705   2.220   5.192   3.537
 1602SOL    HW2 5706   2.295   5.090   3.641
 1603SOL     OW 5707   6.475   6.154   2.789
 1603SOL    HW1 5708   6.550   6.201   2.742
 1603SOL    HW2 5709   6.399   6.217   2.803
 1604SOL     OW 5710   6.446   4.628   0.309
 1604SOL    HW1 5711   6.406   4.720   0.315
 1604SOL    HW2 5712   6.510   4.614   0.384
 1605SOL     OW 5713   6.667   6.451   2.029
 1605SOL    HW1 5714   6.741   6.458   1.962
 1605SOL    HW2 5715   6.706   6.434   2.120
 1606SOL     OW 5716   3.526   0.656   5.093
 1606SOL    HW1 5717   3.555   0.650   4.998
 1606SOL    HW2 5718   3.436   0.701   5.098
 1607SOL     OW 5719   3.892   2.324   0.573
 1607SOL    HW1 5720   3.938   2.412   0.584
 1607SOL    HW2 5721   3.793   2.339   0.568
 1608SOL     OW 5722   1.022   0.043   4.270
 1608SOL    HW1 5723   1.008   0.113   4.199
 1608SOL    HW2 5724   0.935   7.017   4.290
 1609SOL     OW 5725   4.447   0.593   0.666
 1609SOL    HW1 5726   4.428   0.609   0.569
 1609SOL    HW2 5727   4.363   0.565   0.712
 1610SOL     OW 5728   5.591   4.574   6.365
 1610SOL    HW1 5729   5.648   4.620   6.432
 1610SOL    HW2 5730   5.494   4.588   6.386
 1611SOL     OW 5731   2.783   3.769   1.364
 1611SOL    HW1 5732   2.759   3.809   1.453
 1611SOL    HW2 5733   2.701   3.728   1.324
 1612SOL     OW 5734   2.529   1.030   4.988
 1612SOL    HW1 5735   2.453   0.995   4.931
 1612SOL    HW2 5736   2.546   1.126   4.965
 1613SOL     OW 5737   1.862   5.291   1.555
 1613SOL    HW1 5738   1.786   5.309   1.617
 1613SOL    HW2 5739   1.862   5.194   1.528
 1614SOL     OW 5740   6.556   3.413   0.207
 1614SOL    HW1 5741   6.516   3.322   0.196
 1614SOL    HW2 5742   6.495   3.482   0.167
 1615SOL     OW 5743   6.539   5.401   1.203
 1615SOL    HW1 5744   6.575   5.406   1.110
 1615SOL    HW2 5745   6.467   5.332   1.207
 1616SOL     OW 5746   3.490   2.100   4.783
 1616SOL    HW1 5747   3.501   2.015   4.835
 1616SOL    HW2 5748   3.395   2.132   4.791
 1617SOL     OW 5749   5.944   0.440   2.071
 1617SOL    HW1 5750   6.000   0.498   2.130
 1617SOL    HW2 5751   5.900   0.369   2.126
 1618SOL     OW 5752   1.348   4.218   1.885
 1618SOL    HW1 5753   1.340   4.129   1.839
 1618SOL    HW2 5754   1.261   4.240   1.931
 1619SOL     OW 5755   0.711   2.586   2.898
 1619SOL    HW1 5756   0.663   2.637   2.970
 1619SOL    HW2 5757   0.796   2.549   2.936
 1620SOL     OW 5758   2.693   5.355   1.356
 1620SOL    HW1 5759   2.745   5.280   1.399
 1620SOL    HW2 5760   2.753   5.405   1.294
 1621SOL     OW 5761   0.398   1.271   0.537
 1621SOL    HW1 5762   0.461   1.240   0.466
 1621SOL    HW2 5763   0.442   1.261   0.627
 1622SOL     OW 5764   0.444   2.312   4.613
 1622SOL    HW1 5765   0.423   2.228   4.563
 1622SOL    HW2 5766   0.509   2.367   4.560
 1623SOL     OW 5767   2.362   3.456   5.319
 1623SOL    HW1 5768   2.264   3.463   5.301
 1623SOL    HW2 5769   2.410   3.533   5.277
 1624SOL     OW 5770   2.553   1.223   5.337
 1624SOL    HW1 5771   2.479   1.157   5.328
 1624SOL    HW2 5772   2.640   1.178   5.316
 1625SOL     OW 5773   1.321   5.566   1.653
 1625SOL    HW1 5774   1.381   5.500   1.698
 1625SOL    HW2 5775   1.241   5.583   1.710
 1626SOL     OW 5776   3.472   2.542   6.134
 1626SOL    HW1 5777   3.399   2.576   6.192
 1626SOL    HW2 5778   3.434   2.501   6.051
 1627SOL     OW 5779   6.309   2.689   3.974
 1627SOL    HW1 5780   6.319   2.612   3.911
 1627SOL    HW2 5781   6.350   2.665   4.062
 1628SOL     OW 5782   4.463   4.588   0.108
 1628SOL    HW1 5783   4.398   4.664   0.100
 1628SOL    HW2 5784   4.542   4.617   0.163
 1629SOL     OW 5785   2.635   0.993   3.883
 1629SOL    HW1 5786   2.644   0.903   3.927
 1629SOL    HW2 5787   2.687   1.061   3.935
 1630SOL     OW 5788   1.528   6.139   5.992
 1630SOL    HW1 5789   1.536   6.217   6.055
 1630SOL    HW2 5790   1.441   6.093   6.007
 1631SOL     OW 5791   0.143   1.748   6.257
 1631SOL    HW1 5792   0.113   1.773   6.165
 1631SOL    HW2 5793   0.177   1.654   6.256
 1632SOL     OW 5794   0.253   1.764   6.748
 1632SOL    HW1 5795   0.268   1.788   6.652
 1632SOL    HW2 5796   0.313   1.689   6.773
 1633SOL     OW 5797   4.986   2.541   4.187
 1633SOL    HW1 5798   5.028   2.468   4.240
 1633SOL    HW2 5799   4.892   2.555   4.216
 1634SOL     OW 5800   3.787   5.087   6.586
 1634SOL    HW1 5801   3.726   5.161   6.560
 1634SOL    HW2 5802   3.801   5.088   6.685
 1635SOL     OW 5803   6.963   5.734   5.553
 1635SOL    HW1 5804   6.977   5.680   5.471
 1635SOL    HW2 5805   6.886   5.696   5.606
 1636SOL     OW 5806   2.659   4.180   1.329
 1636SOL    HW1 5807   2.746   4.191   1.377
 1636SOL    HW2 5808   2.629   4.085   1.336
 1637SOL     OW 5809   0.322   0.238   3.226
 1637SOL    HW1 5810   0.240   0.220   3.172
 1637SOL    HW2 5811   0.401   0.246   3.166
 1638SOL     OW 5812   0.418   4.205   4.052
 1638SOL    HW1 5813   0.496   4.185   4.111
 1638SOL    HW2 5814   0.351   4.259   4.102
 1639SOL     OW 5815   4.404   0.077   3.114
 1639SOL    HW1 5816   4.398   7.005   3.071
 1639SOL    HW2 5817   4.401   0.066   3.214
 1640SOL     OW 5818   5.814   1.506   0.729
 1640SOL    HW1 5819   5.783   1.417   0.694
 1640SOL    HW2 5820   5.743   1.544   0.789
 1641SOL     OW 5821   5.051   2.844   4.280
 1641SOL    HW1 5822   5.022   2.751   4.256
 1641SOL    HW2 5823   5.053   2.854   4.379
 1642SOL     OW 5824   6.126   3.836   6.305
 1642SOL    HW1 5825   6.135   3.787   6.218
 1642SOL    HW2 5826   6.207   3.820   6.361
 1643SOL     OW 5827   2.875   4.982   4.027
 1643SOL    HW1 5828   2.901   5.070   3.989
 1643SOL    HW2 5829   2.810   4.995   4.102
 1644SOL     OW 5830   0.381   2.949   1.302
 1644SOL    HW1 5831   0.357   2.957   1.206
 1644SOL    HW2 5832   0.478   2.972   1.315
 1645SOL     OW 5833   2.643   6.095   5.727
 1645SOL    HW1 5834   2.545   6.076   5.731
 1645SOL    HW2 5835   2.657   6.194   5.727
 1646SOL     OW 5836   2.577   5.829   0.836
 1646SOL    HW1 5837   2.550   5.887   0.760
 1646SOL    HW2 5838   2.497   5.803   0.890
 1647SOL     OW 5839   5.899   2.570   4.752
 1647SOL    HW1 5840   5.954   2.536   4.828
 1647SOL    HW2 5841   5.805   2.535   4.760
 1648SOL     OW 5842   6.032   6.357   0.565
 1648SOL    HW1 5843   6.028   6.300   0.647
 1648SOL    HW2 5844   6.111   6.418   0.571
 1649SOL     OW 5845   3.861   0.075   4.647
 1649SOL    HW1 5846   3.959   0.063   4.627
 1649SOL    HW2 5847   3.807   0.031   4.574
 1650SOL     OW 5848   1.769   6.832   5.510
 1650SOL    HW1 5849   1.866   6.850   5.497
 1650SOL    HW2 5850   1.748   6.739   5.481
 1651SOL     OW 5851   0.458   1.427   1.736
 1651SOL    HW1 5852   0.529   1.376   1.688
 1651SOL    HW2 5853   0.489   1.522   1.749
 1652SOL     OW 5854   1.545   3.428   2.052
 1652SOL    HW1 5855   1.553   3.505   1.989
 1652SOL    HW2 5856   1.523   3.462   2.143
 1653SOL     OW 5857   0.701   0.040   1.284
 1653SOL    HW1 5858   0.748   0.005   1.364
 1653SOL    HW2 5859   0.716   6.997   1.206
 1654SOL     OW 5860   6.745   3.337   2.059
 1654SOL    HW1 5861   6.786   3.267   2.118
 1654SOL    HW2 5862   6.789   3.335   1.970
 1655SOL     OW 5863   5.986   2.483   5.006
 1655SOL    HW1 5864   5.908   2.459   5.064
 1655SOL    HW2 5865   6.060   2.519   5.063
 1656SOL     OW 5866   1.995   4.581   2.638
 1656SOL    HW1 5867   2.024   4.634   2.558
 1656SOL    HW2 5868   2.026   4.486   2.629
 1657SOL     OW 5869   0.007   1.068   4.371
 1657SOL    HW1 5870   0.043   1.062   4.278
 1657SOL    HW2 5871   6.992   1.161   4.389
 1658SOL     OW 5872   1.006   0.190   1.786
 1658SOL    HW1 5873   0.953   0.201   1.870
 1658SOL    HW2 5874   1.099   0.220   1.801
 1659SOL     OW 5875   3.919   0.947   5.574
 1659SOL    HW1 5876   4.013   0.916   5.559
 1659SOL    HW2 5877   3.857   0.870   5.563
 1660SOL     OW 5878   0.978   5.302   3.912
 1660SOL    HW1 5879   1.018   5.233   3.851
 1660SOL    HW2 5880   0.931   5.371   3.857
 1661SOL     OW 5881   3.234   1.470   2.209
 1661SOL    HW1 5882   3.171   1.396   2.231
 1661SOL    HW2 5883   3.185   1.557   2.205
 1662SOL     OW 5884   6.717   1.110   4.245
 1662SOL    HW1 5885   6.635   1.069   4.284
 1662SOL    HW2 5886   6.692   1.191   4.192
 1663SOL     OW 5887   3.174   0.833   3.113
 1663SOL    HW1 5888   3.160   0.908   3.178
 1663SOL    HW2 5889   3.087   0.811   3.069
 1664SOL     OW 5890   2.591   6.831   3.922
 1664SOL    HW1 5891   2.666   6.804   3.983
 1664SOL    HW2 5892   2.586   6.769   3.844
 1665SOL     OW 5893   0.653   0.878   3.123
 1665SOL    HW1 5894   0.645   0.853   3.026
 1665SOL    HW2 5895   0.565   0.866   3.168
 1666SOL     OW 5896   5.429   3.504   0.648
 1666SOL    HW1 5897   5.444   3.429   0.713
 1666SOL    HW2 5898   5.469   3.480   0.560
 1667SOL     OW 5899   6.386   6.895   1.318
 1667SOL    HW1 5900   6.446   6.910   1.396
 1667SOL    HW2 5901   6.420   6.819   1.263
 1668SOL     OW 5902   5.196   5.954   5.447
 1668SOL    HW1 5903   5.239   5.972   5.536
 1668SOL    HW2 5904   5.099   5.936   5.460
 1669SOL     OW 5905   6.553   6.190   6.374
 1669SOL    HW1 5906   6.643   6.182   6.417
 1669SOL    HW2 5907   6.495   6.113   6.402
 1670SOL     OW 5908   6.704   4.515   6.361
 1670SOL    HW1 5909   6.711   4.599   6.414
 1670SOL    HW2 5910   6.773   4.516   6.288
 1671SOL     OW 5911   4.133   3.370   0.932
 1671SOL    HW1 5912   4.208   3.327   0.984
 1671SOL    HW2 5913   4.171   3.434   0.866
 1672SOL     OW 5914   1.946   3.763   1.530
 1672SOL    HW1 5915   2.006   3.684   1.517
 1672SOL    HW2 5916   1.986   3.822   1.600
 1673SOL     OW 5917   6.750   2.006   4.418
 1673SOL    HW1 5918   6.652   2.024   4.416
 1673SOL    HW2 5919   6.767   1.918   4.464
 1674SOL     OW 5920   0.729   3.826   2.648
 1674SOL    HW1 5921   0.728   3.875   2.561
 1674SOL    HW2 5922   0.783   3.879   2.714
 1675SOL     OW 5923   4.129   0.244   5.850
 1675SOL    HW1 5924   4.140   0.210   5.757
 1675SOL    HW2 5925   4.072   0.181   5.902
 1676SOL     OW 5926   2.493   1.239   2.235
 1676SOL    HW1 5927   2.556   1.231   2.158
 1676SOL    HW2 5928   2.466   1.148   2.266
 1677SOL     OW 5929   3.998   3.479   5.652
 1677SOL    HW1 5930   4.035   3.422   5.726
 1677SOL    HW2 5931   3.936   3.425   5.595
 1678SOL     OW 5932   5.097   4.733   4.921
 1678SOL    HW1 5933   5.195   4.719   4.936
 1678SOL    HW2 5934   5.052   4.747   5.009
 1679SOL     OW 5935   2.116   3.089   5.066
 1679SOL    HW1 5936   2.208   3.058   5.045
 1679SOL    HW2 5937   2.053   3.058   4.995
 1680SOL     OW 5938   0.572   2.523   4.297
 1680SOL    HW1 5939   0.664   2.564   4.297
 1680SOL    HW2 5940   0.520   2.559   4.219
 1681SOL     OW 5941   6.188   6.027   0.813
 1681SOL    HW1 5942   6.270   5.970   0.810
 1681SOL    HW2 5943   6.167   6.062   0.721
 1682SOL     OW 5944   0.283   1.962   4.881
 1682SOL    HW1 5945   0.297   1.880   4.825
 1682SOL    HW2 5946   0.365   2.019   4.877
 1683SOL     OW 5947   3.851   5.990   1.190
 1683SOL    HW1 5948   3.849   6.065   1.124
 1683SOL    HW2 5949   3.764   5.987   1.240
 1684SOL     OW 5950   1.109   6.210   3.010
 1684SOL    HW1 5951   1.100   6.111   3.025
 1684SOL    HW2 5952   1.199   6.228   2.970
 1685SOL     OW 5953   2.747   0.974   6.223
 1685SOL    HW1 5954   2.726   0.909   6.151
 1685SOL    HW2 5955   2.673   0.976   6.290
 1686SOL     OW 5956   2.329   4.825   5.043
 1686SOL    HW1 5957   2.426   4.840   5.066
 1686SOL    HW2 5958   2.303   4.732   5.069
 1687SOL     OW 5959   2.061   2.963   1.530
 1687SOL    HW1 5960   2.081   2.885   1.470
 1687SOL    HW2 5961   2.023   3.037   1.475
 1688SOL     OW 5962   1.965   2.536   3.911
 1688SOL    HW1 5963   1.965   2.559   4.008
 1688SOL    HW2 5964   2.048   2.572   3.868
 1689SOL     OW 5965   4.820   0.762   2.212
 1689SOL    HW1 5966   4.838   0.702   2.290
 1689SOL    HW2 5967   4.793   0.707   2.133
 1690SOL     OW 5968   1.582   3.185   3.436
 1690SOL    HW1 5969   1.543   3.211   3.524
 1690SOL    HW2 5970   1.550   3.248   3.366
 1691SOL     OW 5971   5.418   4.344   3.124
 1691SOL    HW1 5972   5.422   4.366   3.222
 1691SOL    HW2 5973   5.492   4.390   3.077
 1692SOL     OW 5974   5.907   0.382   1.809
 1692SOL    HW1 5975   5.859   0.465   1.781
 1692SOL    HW2 5976   5.932   0.388   1.905
 1693SOL     OW 5977   0.263   1.945   2.707
 1693SOL    HW1 5978   0.224   1.991   2.628
 1693SOL    HW2 5979   0.221   1.855   2.718
 1694SOL     OW 5980   5.200   0.403   3.528
 1694SOL    HW1 5981   5.230   0.309   3.547
 1694SOL    HW2 5982   5.264   0.445   3.462
 1695SOL     OW 5983   2.886   1.423   5.949
 1695SOL    HW1 5984   2.949   1.468   5.885
 1695SOL    HW2 5985   2.794   1.460   5.936
 1696SOL     OW 5986   4.842   4.590   0.855
 1696SOL    HW1 5987   4.914   4.622   0.917
 1696SOL    HW2 5988   4.847   4.490   0.849
 1697SOL     OW 5989   5.674   6.119   1.757
 1697SOL    HW1 5990   5.772   6.129   1.741
 1697SOL    HW2 5991   5.629   6.207   1.748
 1698SOL     OW 5992   5.337   0.902   0.668
 1698SOL    HW1 5993   5.304   0.996   0.670
 1698SOL    HW2 5994   5.434   0.899   0.690
 1699SOL     OW 5995   2.830   1.240   1.063
 1699SOL    HW1 5996   2.861   1.270   0.973
 1699SOL    HW2 5997   2.877   1.155   1.088
 1700SOL     OW 5998   6.471   2.740   3.170
 1700SOL    HW1 5999   6.412   2.805   3.123
 1700SOL    HW2 6000   6.525   2.788   3.239
 1701SOL     OW 6001   5.753   3.621   6.066
 1701SOL    HW1 6002   5.719   3.562   5.993
 1701SOL    HW2 6003   5.785   3.565   6.142
 1702SOL     OW 6004   6.753   2.725   0.702
 1702SOL    HW1 6005   6.852   2.721   0.687
 1702SOL    HW2 6006   6.707   2.666   0.636
 1703SOL     OW 6007   4.118   3.489   2.805
 1703SOL    HW1 6008   4.131   3.390   2.797
 1703SOL    HW2 6009   4.080   3.511   2.894
 1704SOL     OW 6010   0.686   1.274   1.925
 1704SOL    HW1 6011   0.630   1.245   2.003
 1704SOL    HW2 6012   0.714   1.369   1.938
 1705SOL     OW 6013   3.790   2.705   1.321
 1705SOL    HW1 6014   3.815   2.667   1.232
 1705SOL    HW2 6015   3.737   2.638   1.372
 1706SOL     OW 6016   4.667   0.488   1.416
 1706SOL    HW1 6017   4.596   0.452   1.476
 1706SOL    HW2 6018   4.657   0.450   1.325
 1707SOL     OW 6019   4.680   2.140   2.394
 1707SOL    HW1 6020   4.619   2.218   2.381
 1707SOL    HW2 6021   4.643   2.080   2.465
 1708SOL     OW 6022   4.870   5.104   2.193
 1708SOL    HW1 6023   4.954   5.054   2.215
 1708SOL    HW2 6024   4.791   5.045   2.205
 1709SOL     OW 6025   2.414   5.907   1.591
 1709SOL    HW1 6026   2.416   5.952   1.680
 1709SOL    HW2 6027   2.507   5.882   1.564
 1710SOL     OW 6028   5.607   4.815   3.506
 1710SOL    HW1 6029   5.655   4.802   3.593
 1710SOL    HW2 6030   5.515   4.778   3.514
 1711SOL     OW 6031   1.188   4.521   4.758
 1711SOL    HW1 6032   1.201   4.429   4.795
 1711SOL    HW2 6033   1.277   4.562   4.737
 1712SOL     OW 6034   0.465   2.891   6.369
 1712SOL    HW1 6035   0.383   2.908   6.316
 1712SOL    HW2 6036   0.471   2.957   6.444
 1713SOL     OW 6037   3.801   2.338   1.445
 1713SOL    HW1 6038   3.886   2.299   1.479
 1713SOL    HW2 6039   3.815   2.375   1.353
 1714SOL     OW 6040   4.483   1.801   6.000
 1714SOL    HW1 6041   4.450   1.716   5.960
 1714SOL    HW2 6042   4.546   1.846   5.936
 1715SOL     OW 6043   6.785   3.762   2.564
 1715SOL    HW1 6044   6.826   3.728   2.480
 1715SOL    HW2 6045   6.849   3.823   2.610
 1716SOL     OW 6046   4.720   0.258   2.718
 1716SOL    HW1 6047   4.679   0.195   2.784
 1716SOL    HW2 6048   4.810   0.224   2.691
 1717SOL     OW 6049   2.073   6.589   6.100
 1717SOL    HW1 6050   2.120   6.542   6.025
 1717SOL    HW2 6051   2.106   6.553   6.187
 1718SOL     OW 6052   2.318   2.380   2.221
 1718SOL    HW1 6053   2.383   2.373   2.146
 1718SOL    HW2 6054   2.351   2.327   2.299
 1719SOL     OW 6055   2.452   4.115   0.905
 1719SOL    HW1 6056   2.403   4.035   0.940
 1719SOL    HW2 6057   2.395   4.163   0.838
 1720SOL     OW 6058   0.247   1.814   0.675
 1720SOL    HW1 6059   0.290   1.772   0.755
 1720SOL    HW2 6060   0.219   1.907   0.697
 1721SOL     OW 6061   1.168   6.898   2.742
 1721SOL    HW1 6062   1.111   6.964   2.693
 1721SOL    HW2 6063   1.113   6.817   2.764
 1722SOL     OW 6064   4.859   2.275   3.973
 1722SOL    HW1 6065   4.914   2.291   3.891
 1722SOL    HW2 6066   4.839   2.362   4.017
 1723SOL     OW 6067   6.844   2.604   2.248
 1723SOL    HW1 6068   6.767   2.640   2.300
 1723SOL    HW2 6069   6.829   2.507   2.228
 1724SOL     OW 6070   6.207   1.977   1.196
 1724SOL    HW1 6071   6.191   2.050   1.130
 1724SOL    HW2 6072   6.158   1.895   1.167
 1725SOL     OW 6073   2.100   4.497   6.934
 1725SOL    HW1 6074   2.075   4.590   6.909
 1725SOL    HW2 6075   2.199   4.488   6.939
 1726SOL     OW 6076   5.731   4.271   5.112
 1726SOL    HW1 6077   5.819   4.231   5.090
 1726SOL    HW2 6078   5.738   4.325   5.196
 1727SOL     OW 6079   3.701   3.140   4.568
 1727SOL    HW1 6080   3.679   3.227   4.525
 1727SOL    HW2 6081   3.638   3.123   4.643
 1728SOL     OW 6082   5.668   4.947   4.526
 1728SOL    HW1 6083   5.626   5.031   4.491
 1728SOL    HW2 6084   5.601   4.898   4.582
 1729SOL     OW 6085   2.115   3.569   3.598
 1729SOL    HW1 6086   2.130   3.471   3.611
 1729SOL    HW2 6087   2.142   3.595   3.505
 1730SOL     OW 6088   6.319   0.204   5.279
 1730SOL    HW1 6089   6.284   0.177   5.368
 1730SOL    HW2 6090   6.293   0.298   5.259
 1731SOL     OW 6091   0.157   4.993   2.015
 1731SOL    HW1 6092   0.240   5.005   2.068
 1731SOL    HW2 6093   0.077   5.005   2.074
 1732SOL     OW 6094   2.626   4.434   5.404
 1732SOL    HW1 6095   2.617   4.389   5.493
 1732SOL    HW2 6096   2.678   4.519   5.415
 1733SOL     OW 6097   1.036   3.733   2.830
 1733SOL    HW1 6098   0.966   3.802   2.819
 1733SOL    HW2 6099   1.112   3.770   2.883
 1734SOL     OW 6100   4.806   3.227   1.776
 1734SOL    HW1 6101   4.888   3.252   1.828
 1734SOL    HW2 6102   4.761   3.149   1.820
 1735SOL     OW 6103   5.848   5.997   1.131
 1735SOL    HW1 6104   5.810   6.088   1.119
 1735SOL    HW2 6105   5.812   5.936   1.061
 1736SOL     OW 6106   4.166   2.601   1.132
 1736SOL    HW1 6107   4.099   2.673   1.112
 1736SOL    HW2 6108   4.258   2.640   1.134
 1737SOL     OW 6109   2.943   0.916   4.356
 1737SOL    HW1 6110   2.994   0.980   4.415
 1737SOL    HW2 6111   2.974   0.926   4.262
 1738SOL     OW 6112   2.023   1.518   3.916
 1738SOL    HW1 6113   2.105   1.575   3.918
 1738SOL    HW2 6114   1.953   1.558   3.976
 1739SOL     OW 6115   5.562   2.130   5.689
 1739SOL    HW1 6116   5.621   2.059   5.651
 1739SOL    HW2 6117   5.618   2.211   5.710
 1740SOL     OW 6118   0.634   1.501   6.330
 1740SOL    HW1 6119   0.643   1.558   6.412
 1740SOL    HW2 6120   0.725   1.470   6.301
 1741SOL     OW 6121   2.099   0.435   4.059
 1741SOL    HW1 6122   2.135   0.514   4.009
 1741SOL    HW2 6123   2.000   0.432   4.050
 1742SOL     OW 6124   4.808   6.405   6.032
 1742SOL    HW1 6125   4.772   6.313   6.049
 1742SOL    HW2 6126   4.800   6.427   5.935
 1743SOL     OW 6127   2.056   2.235   2.173
 1743SOL    HW1 6128   2.125   2.307   2.167
 1743SOL    HW2 6129   2.096   2.154   2.217
 1744SOL     OW 6130   0.730   0.555   1.608
 1744SOL    HW1 6131   0.738   0.606   1.694
 1744SOL    HW2 6132   0.780   0.469   1.616
 1745SOL     OW 6133   6.241   0.597   3.424
 1745SOL    HW1 6134   6.221   0.586   3.327
 1745SOL    HW2 6135   6.166   0.559   3.478
 1746SOL     OW 6136   2.362   4.618   5.524
 1746SOL    HW1 6137   2.321   4.550   5.463
 1746SOL    HW2 6138   2.401   4.692   5.470
 1747SOL     OW 6139   5.722   1.252   3.149
 1747SOL    HW1 6140   5.633   1.260   3.194
 1747SOL    HW2 6141   5.718   1.180   3.080
 1748SOL     OW 6142   0.404   1.029   3.823
 1748SOL    HW1 6143   0.384   1.066   3.733
 1748SOL    HW2 6144   0.391   0.930   3.823
 1749SOL     OW 6145   2.577   6.861   5.183
 1749SOL    HW1 6146   2.616   6.829   5.096
 1749SOL    HW2 6147   2.645   6.914   5.232
 1750SOL     OW 6148   6.572   0.146   3.402
 1750SOL    HW1 6149   6.547   0.195   3.319
 1750SOL    HW2 6150   6.518   0.180   3.479
 1751SOL     OW 6151   4.266   5.499   4.370
 1751SOL    HW1 6152   4.276   5.519   4.468
 1751SOL    HW2 6153   4.322   5.419   4.347
 1752SOL     OW 6154   0.320   2.197   2.168
 1752SOL    HW1 6155   0.279   2.188   2.077
 1752SOL    HW2 6156   0.320   2.293   2.195
 1753SOL     OW 6157   0.248   2.130   0.759
 1753SOL    HW1 6158   0.165   2.129   0.814
 1753SOL    HW2 6159   0.224   2.132   0.662
 1754SOL     OW 6160   3.301   3.507   1.021
 1754SOL    HW1 6161   3.351   3.591   1.043
 1754SOL    HW2 6162   3.208   3.514   1.057
 1755SOL     OW 6163   5.958   6.174   2.389
 1755SOL    HW1 6164   5.946   6.244   2.460
 1755SOL    HW2 6165   6.041   6.192   2.337
 1756SOL     OW 6166   4.208   4.138   5.806
 1756SOL    HW1 6167   4.247   4.061   5.856
 1756SOL    HW2 6168   4.224   4.127   5.708
 1757SOL     OW 6169   2.633   5.014   4.856
 1757SOL    HW1 6170   2.671   5.106   4.852
 1757SOL    HW2 6171   2.594   4.989   4.767
 1758SOL     OW 6172   2.613   0.302   3.977
 1758SOL    HW1 6173   2.594   0.210   4.010
 1758SOL    HW2 6174   2.530   0.340   3.935
 1759SOL     OW 6175   1.339   5.328   6.089
 1759SOL    HW1 6176   1.258   5.319   6.030
 1759SOL    HW2 6177   1.415   5.277   6.050
 1760SOL     OW 6178   5.437   2.146   1.884
 1760SOL    HW1 6179   5.354   2.092   1.871
 1760SOL    HW2 6180   5.427   2.203   1.966
 1761SOL     OW 6181   0.361   0.487   0.768
 1761SOL    HW1 6182   0.263   0.507   0.766
 1761SOL    HW2 6183   0.381   0.425   0.844
 1762SOL     OW 6184   0.093   2.136   4.757
 1762SOL    HW1 6185   0.141   2.070   4.815
 1762SOL    HW2 6186   0.075   2.094   4.668
 1763SOL     OW 6187   1.316   3.658   4.013
 1763SOL    HW1 6188   1.379   3.585   3.989
 1763SOL    HW2 6189   1.291   3.651   4.110
 1764SOL     OW 6190   2.240   4.095   2.062
 1764SOL    HW1 6191   2.259   4.050   2.149
 1764SOL    HW2 6192   2.190   4.032   2.002
 1765SOL     OW 6193   4.156   1.792   0.119
 1765SOL    HW1 6194   4.205   1.705   0.124
 1765SOL    HW2 6195   4.126   1.818   0.211
 1766SOL     OW 6196   4.859   3.596   3.029
 1766SOL    HW1 6197   4.911   3.605   3.114
 1766SOL    HW2 6198   4.762   3.588   3.050
 1767SOL     OW 6199   6.483   4.013   3.141
 1767SOL    HW1 6200   6.489   3.932   3.083
 1767SOL    HW2 6201   6.387   4.034   3.160
 1768SOL     OW 6202   3.648   1.280   4.970
 1768SOL    HW1 6203   3.714   1.241   5.034
 1768SOL    HW2 6204   3.557   1.277   5.010
 1769SOL     OW 6205   4.558   2.573   5.123
 1769SOL    HW1 6206   4.516   2.578   5.032
 1769SOL    HW2 6207   4.657   2.582   5.114
 1770SOL     OW 6208   0.324   5.373   4.548
 1770SOL    HW1 6209   0.282   5.391   4.637
 1770SOL    HW2 6210   0.342   5.460   4.502
 1771SOL     OW 6211   2.306   4.768   0.142
 1771SOL    HW1 6212   2.278   4.822   0.222
 1771SOL    HW2 6213   2.332   4.828   0.068
 1772SOL     OW 6214   3.069   6.343   3.599
 1772SOL    HW1 6215   3.116   6.328   3.686
 1772SOL    HW2 6216   3.118   6.412   3.546
 1773SOL     OW 6217   2.808   4.775   6.181
 1773SOL    HW1 6218   2.770   4.731   6.100
 1773SOL    HW2 6219   2.744   4.846   6.213
 1774SOL     OW 6220   4.720   6.855   2.028
 1774SOL    HW1 6221   4.753   6.850   2.122
 1774SOL    HW2 6222   4.672   6.942   2.014
 1775SOL     OW 6223   1.091   4.669   3.878
 1775SOL    HW1 6224   1.121   4.743   3.939
 1775SOL    HW2 6225   1.169   4.609   3.859
 1776SOL     OW 6226   3.594   0.926   5.166
 1776SOL    HW1 6227   3.530   0.961   5.099
 1776SOL    HW2 6228   3.623   0.834   5.141
 1777SOL     OW 6229   3.513   5.188   5.506
 1777SOL    HW1 6230   3.529   5.165   5.602
 1777SOL    HW2 6231   3.600   5.189   5.456
 1778SOL     OW 6232   4.680   2.738   5.854
 1778SOL    HW1 6233   4.584   2.766   5.857
 1778SOL    HW2 6234   4.705   2.696   5.941
 1779SOL     OW 6235   4.602   1.410   4.591
 1779SOL    HW1 6236   4.658   1.333   4.561
 1779SOL    HW2 6237   4.606   1.418   4.691
 1780SOL     OW 6238   3.124   3.775   6.117
 1780SOL    HW1 6239   3.210   3.788   6.069
 1780SOL    HW2 6240   3.073   3.699   6.076
 1781SOL     OW 6241   4.049   5.687   3.762
 1781SOL    HW1 6242   4.141   5.649   3.751
 1781SOL    HW2 6243   3.983   5.629   3.713
 1782SOL     OW 6244   2.905   1.983   3.352
 1782SOL    HW1 6245   2.843   2.035   3.412
 1782SOL    HW2 6246   2.983   2.040   3.328
 1783SOL     OW 6247   1.734   3.874   6.436
 1783SOL    HW1 6248   1.675   3.954   6.447
 1783SOL    HW2 6249   1.786   3.882   6.351
 1784SOL     OW 6250   3.135   1.146   5.035
 1784SOL    HW1 6251   3.047   1.164   4.992
 1784SOL    HW2 6252   3.133   1.055   5.077
 1785SOL     OW 6253   5.523   5.563   3.438
 1785SOL    HW1 6254   5.516   5.608   3.349
 1785SOL    HW2 6255   5.556   5.628   3.506
 1786SOL     OW 6256   1.509   2.866   1.530
 1786SOL    HW1 6257   1.572   2.829   1.598
 1786SOL    HW2 6258   1.486   2.794   1.464
 1787SOL     OW 6259   2.415   0.927   4.349
 1787SOL    HW1 6260   2.500   0.957   4.307
 1787SOL    HW2 6261   2.435   0.869   4.428
 1788SOL     OW 6262   3.012   3.093   0.004
 1788SOL    HW1 6263   2.996   3.170   0.066
 1788SOL    HW2 6264   3.062   3.021   0.052
 1789SOL     OW 6265   6.363   1.676   2.312
 1789SOL    HW1 6266   6.458   1.694   2.287
 1789SOL    HW2 6267   6.304   1.695   2.235
 1790SOL     OW 6268   4.213   6.512   4.322
 1790SOL    HW1 6269   4.221   6.611   4.304
 1790SOL    HW2 6270   4.258   6.491   4.409
 1791SOL     OW 6271   0.161   1.383   4.052
 1791SOL    HW1 6272   0.202   1.302   4.012
 1791SOL    HW2 6273   0.209   1.407   4.136
 1792SOL     OW 6274   7.007   2.382   3.920
 1792SOL    HW1 6275   6.984   2.341   4.008
 1792SOL    HW2 6276   6.980   2.479   3.920
 1793SOL     OW 6277   6.763   0.398   3.830
 1793SOL    HW1 6278   6.757   0.304   3.798
 1793SOL    HW2 6279   6.776   0.459   3.751
 1794SOL     OW 6280   5.361   5.926   6.280
 1794SOL    HW1 6281   5.335   5.832   6.299
 1794SOL    HW2 6282   5.327   5.986   6.353
 1795SOL     OW 6283   0.227   3.016   2.336
 1795SOL    HW1 6284   0.324   3.015   2.310
 1795SOL    HW2 6285   0.179   2.944   2.287
 1796SOL     OW 6286   1.901   0.599   4.240
 1796SOL    HW1 6287   1.927   0.533   4.310
 1796SOL    HW2 6288   1.982   0.634   4.194
 1797SOL     OW 6289   1.247   1.061   6.429
 1797SOL    HW1 6290   1.338   1.099   6.446
 1797SOL    HW2 6291   1.244   0.967   6.464
 1798SOL     OW 6292   5.056   2.124   4.845
 1798SOL    HW1 6293   4.975   2.154   4.896
 1798SOL    HW2 6294   5.136   2.172   4.879
 1799SOL     OW 6295   6.474   1.546   6.011
 1799SOL    HW1 6296   6.466   1.622   5.946
 1799SOL    HW2 6297   6.388   1.536   6.061
 1800SOL     OW 6298   4.492   5.314   3.098
 1800SOL    HW1 6299   4.514   5.328   3.194
 1800SOL    HW2 6300   4.577   5.311   3.045
 1801SOL     OW 6301   0.880   0.892   2.214
 1801SOL    HW1 6302   0.979   0.887   2.223
 1801SOL    HW2 6303   0.851   0.988   2.223
 1802SOL     OW 6304   5.368   5.203   1.972
 1802SOL    HW1 6305   5.271   5.221   1.952
 1802SOL    HW2 6306   5.387   5.226   2.067
 1803SOL     OW 6307   7.010   5.987   0.206
 1803SOL    HW1 6308   7.001   6.086   0.216
 1803SOL    HW2 6309   0.088   5.963   0.195
 1804SOL     OW 6310   2.049   4.102   5.770
 1804SOL    HW1 6311   1.973   4.149   5.725
 1804SOL    HW2 6312   2.083   4.029   5.711
 1805SOL     OW 6313   6.653   3.747   5.582
 1805SOL    HW1 6314   6.716   3.816   5.618
 1805SOL    HW2 6315   6.703   3.666   5.554
 1806SOL     OW 6316   1.416   0.757   0.413
 1806SOL    HW1 6317   1.433   0.844   0.458
 1806SOL    HW2 6318   1.317   0.743   0.403
 1807SOL     OW 6319   4.901   2.392   6.110
 1807SOL    HW1 6320   5.001   2.389   6.108
 1807SOL    HW2 6321   4.865   2.390   6.016
 1808SOL     OW 6322   0.021   3.310   6.148
 1808SOL    HW1 6323   0.036   3.236   6.082
 1808SOL    HW2 6324   6.960   3.365   6.120
 1809SOL     OW 6325   2.184   3.228   4.262
 1809SOL    HW1 6326   2.143   3.137   4.271
 1809SOL    HW2 6327   2.138   3.278   4.188
 1810SOL     OW 6328   2.557   0.679   5.157
 1810SOL    HW1 6329   2.544   0.716   5.065
 1810SOL    HW2 6330   2.636   0.617   5.157
 1811SOL     OW 6331   4.397   4.598   3.633
 1811SOL    HW1 6332   4.445   4.511   3.645
 1811SOL    HW2 6333   4.378   4.612   3.535
 1812SOL     OW 6334   3.876   6.495   5.975
 1812SOL    HW1 6335   3.791   6.505   6.028
 1812SOL    HW2 6336   3.927   6.416   6.009
 1813SOL     OW 6337   4.960   4.540   0.443
 1813SOL    HW1 6338   4.986   4.501   0.531
 1813SOL    HW2 6339   4.891   4.482   0.400
 1814SOL     OW 6340   0.005   0.934   0.111
 1814SOL    HW1 6341   0.086   0.976   0.150
 1814SOL    HW2 6342   6.962   0.905   0.184
 1815SOL     OW 6343   5.949   2.448   1.864
 1815SOL    HW1 6344   5.879   2.393   1.818
 1815SOL    HW2 6345   5.974   2.525   1.805
 1816SOL     OW 6346   2.376   3.887   1.025
 1816SOL    HW1 6347   2.292   3.845   0.988
 1816SOL    HW2 6348   2.454   3.828   1.004
 1817SOL     OW 6349   3.131   6.822   3.292
 1817SOL    HW1 6350   3.046   6.863   3.260
 1817SOL    HW2 6351   3.181   6.888   3.348
 1818SOL     OW 6352   1.880   7.014   2.344
 1818SOL    HW1 6353   1.886   0.013   2.442
 1818SOL    HW2 6354   1.949   0.051   2.296
 1819SOL     OW 6355   0.287   5.237   1.543
 1819SOL    HW1 6356   0.274   5.185   1.627
 1819SOL    HW2 6357   0.203   5.237   1.490
 1820SOL     OW 6358   4.776   0.659   2.805
 1820SOL    HW1 6359   4.738   0.696   2.889
 1820SOL    HW2 6360   4.851   0.717   2.773
 1821SOL     OW 6361   2.576   0.641   1.884
 1821SOL    HW1 6362   2.600   0.544   1.886
 1821SOL    HW2 6363   2.517   0.659   1.806
 1822SOL     OW 6364   2.391   2.679   1.221
 1822SOL    HW1 6365   2.369   2.590   1.181
 1822SOL    HW2 6366   2.358   2.751   1.159
 1823SOL     OW 6367   2.684   5.719   3.358
 1823SOL    HW1 6368   2.724   5.810   3.354
 1823SOL    HW2 6369   2.633   5.708   3.444
 1824SOL     OW 6370   3.883   3.764   1.397
 1824SOL    HW1 6371   3.981   3.773   1.385
 1824SOL    HW2 6372   3.861   3.673   1.432
 1825SOL     OW 6373   1.322   1.931   3.772
 1825SOL    HW1 6374   1.413   1.969   3.758
 1825SOL    HW2 6375   1.319   1.885   3.861
 1826SOL     OW 6376   3.193   0.389   0.877
 1826SOL    HW1 6377   3.183   0.318   0.947
 1826SOL    HW2 6378   3.121   0.458   0.889
 1827SOL     OW 6379   0.314   6.093   1.328
 1827SOL    HW1 6380   0.274   6.018   1.275
 1827SOL    HW2 6381   0.257   6.112   1.408
 1828SOL     OW 6382   0.919   2.327   0.701
 1828SOL    HW1 6383   0.895   2.262   0.774
 1828SOL    HW2 6384   0.999   2.381   0.729
 1829SOL     OW 6385   2.625   0.547   3.691
 1829SOL    HW1 6386   2.605   0.644   3.679
 1829SOL    HW2 6387   2.559   0.493   3.640
 1830SOL     OW 6388   6.006   6.241   4.026
 1830SOL    HW1 6389   6.057   6.178   3.967
 1830SOL    HW2 6390   6.031   6.335   4.003
 1831SOL     OW 6391   6.050   0.290   2.542
 1831SOL    HW1 6392   6.113   0.222   2.502
 1831SOL    HW2 6393   6.013   0.254   2.627
 1832SOL     OW 6394   4.611   1.429   1.387
 1832SOL    HW1 6395   4.603   1.529   1.389
 1832SOL    HW2 6396   4.558   1.394   1.310
 1833SOL     OW 6397   5.093   0.289   6.476
 1833SOL    HW1 6398   4.999   0.261   6.455
 1833SOL    HW2 6399   5.154   0.257   6.403
 1834SOL     OW 6400   2.625   4.153   0.341
 1834SOL    HW1 6401   2.692   4.120   0.274
 1834SOL    HW2 6402   2.553   4.203   0.293
 1835SOL     OW 6403   0.243   3.840   2.359
 1835SOL    HW1 6404   0.244   3.902   2.437
 1835SOL    HW2 6405   0.305   3.763   2.377
 1836SOL     OW 6406   4.897   2.814   1.387
 1836SOL    HW1 6407   4.988   2.771   1.390
 1836SOL    HW2 6408   4.889   2.877   1.464
 1837SOL     OW 6409   1.098   1.147   4.796
 1837SOL    HW1 6410   1.161   1.223   4.812
 1837SOL    HW2 6411   1.105   1.081   4.872
 1838SOL     OW 6412   0.257   1.430   4.362
 1838SOL    HW1 6413   0.318   1.357   4.331
 1838SOL    HW2 6414   0.243   1.423   4.461
 1839SOL     OW 6415   5.748   2.378   5.424
 1839SOL    HW1 6416   5.691   2.329   5.359
 1839SOL    HW2 6417   5.723   2.351   5.517
 1840SOL     OW 6418   3.626   6.628   1.711
 1840SOL    HW1 6419   3.571   6.546   1.701
 1840SOL    HW2 6420   3.587   6.686   1.783
 1841SOL     OW 6421   2.286   1.070   3.659
 1841SOL    HW1 6422   2.219   0.996   3.656
 1841SOL    HW2 6423   2.296   1.102   3.754
 1842SOL     OW 6424   1.650   5.743   0.279
 1842SOL    HW1 6425   1.621   5.671   0.342
 1842SOL    HW2 6426   1.737   5.718   0.237
 1843SOL     OW 6427   6.489   2.434   3.146
 1843SOL    HW1 6428   6.484   2.534   3.145
 1843SOL    HW2 6429   6.584   2.405   3.152
 1844SOL     OW 6430   3.007   0.162   5.736
 1844SOL    HW1 6431   3.019   0.218   5.818
 1844SOL    HW2 6432   3.096   0.126   5.708
 1845SOL     OW 6433   2.322   0.258   5.306
 1845SOL    HW1 6434   2.260   0.291   5.377
 1845SOL    HW2 6435   2.324   0.323   5.231
 1846SOL     OW 6436   4.072   2.365   1.074
 1846SOL    HW1 6437   4.132   2.285   1.083
 1846SOL    HW2 6438   4.118   2.445   1.112
 1847SOL     OW 6439   1.749   1.205   0.088
 1847SOL    HW1 6440   1.789   1.124   0.046
 1847SOL    HW2 6441   1.649   1.202   0.077
 1848SOL     OW 6442   1.012   6.720   3.618
 1848SOL    HW1 6443   0.916   6.732   3.595
 1848SOL    HW2 6444   1.036   6.623   3.617
 1849SOL     OW 6445   3.994   2.576   0.565
 1849SOL    HW1 6446   4.063   2.622   0.510
 1849SOL    HW2 6447   3.915   2.636   0.577
 1850SOL     OW 6448   0.930   2.359   2.021
 1850SOL    HW1 6449   0.936   2.299   2.101
 1850SOL    HW2 6450   0.912   2.453   2.051
 1851SOL     OW 6451   0.004   2.753   0.692
 1851SOL    HW1 6452   0.071   2.825   0.709
 1851SOL    HW2 6453   0.018   2.716   0.600
 1852SOL     OW 6454   6.547   4.330   2.230
 1852SOL    HW1 6455   6.539   4.253   2.293
 1852SOL    HW2 6456   6.463   4.385   2.235
 1853SOL     OW 6457   6.973   2.484   2.681
 1853SOL    HW1 6458   6.944   2.447   2.593
 1853SOL    HW2 6459   6.984   2.409   2.747
 1854SOL     OW 6460   2.602   6.164   2.865
 1854SOL    HW1 6461   2.568   6.108   2.940
 1854SOL    HW2 6462   2.600   6.260   2.892
 1855SOL     OW 6463   5.459   3.109   5.623
 1855SOL    HW1 6464   5.545   3.112   5.673
 1855SOL    HW2 6465   5.390   3.061   5.678
 1856SOL     OW 6466   6.284   3.558   5.868
 1856SOL    HW1 6467   6.295   3.519   5.777
 1856SOL    HW2 6468   6.201   3.521   5.911
 1857SOL     OW 6469   4.634   1.513   5.676
 1857SOL    HW1 6470   4.714   1.500   5.617
 1857SOL    HW2 6471   4.626   1.436   5.739
 1858SOL     OW 6472   5.869   4.044   3.836
 1858SOL    HW1 6473   5.902   4.104   3.909
 1858SOL    HW2 6474   5.792   4.087   3.789
 1859SOL     OW 6475   5.179   2.074   2.667
 1859SOL    HW1 6476   5.252   2.097   2.603
 1859SOL    HW2 6477   5.184   1.978   2.692
 1860SOL     OW 6478   6.201   0.455   5.288
 1860SOL    HW1 6479   6.185   0.444   5.190
 1860SOL    HW2 6480   6.116   0.479   5.333
 1861SOL     OW 6481   6.128   0.086   2.378
 1861SOL    HW1 6482   6.047   0.110   2.324
 1861SOL    HW2 6483   6.119   7.010   2.411
 1862SOL     OW 6484   2.228   0.314   6.120
 1862SOL    HW1 6485   2.188   0.404   6.139
 1862SOL    HW2 6486   2.314   0.326   6.071
 1863SOL     OW 6487   1.158   2.155   2.565
 1863SOL    HW1 6488   1.179   2.185   2.472
 1863SOL    HW2 6489   1.209   2.211   2.630
 1864SOL     OW 6490   1.426   0.048   5.230
 1864SOL    HW1 6491   1.355   6.997   5.243
 1864SOL    HW2 6492   1.516   0.003   5.225
 1865SOL     OW 6493   3.319   6.674   6.116
 1865SOL    HW1 6494   3.312   6.679   6.215
 1865SOL    HW2 6495   3.278   6.589   6.084
 1866SOL     OW 6496   4.462   5.110   3.453
 1866SOL    HW1 6497   4.524   5.031   3.449
 1866SOL    HW2 6498   4.400   5.099   3.531
 1867SOL     OW 6499   0.559   4.210   0.402
 1867SOL    HW1 6500   0.564   4.114   0.427
 1867SOL    HW2 6501   0.558   4.219   0.302
 1868SOL     OW 6502   4.791   3.720   6.426
 1868SOL    HW1 6503   4.744   3.789   6.480
 1868SOL    HW2 6504   4.870   3.761   6.380
 1869SOL     OW 6505   5.933   2.989   5.714
 1869SOL    HW1 6506   5.863   2.939   5.765
 1869SOL    HW2 6507   5.899   3.011   5.623
 1870SOL     OW 6508   1.439   3.119   5.573
 1870SOL    HW1 6509   1.487   3.091   5.490
 1870SOL    HW2 6510   1.501   3.169   5.633
 1871SOL     OW 6511   0.563   0.715   0.104
 1871SOL    HW1 6512   0.608   0.633   0.068
 1871SOL    HW2 6513   0.601   0.738   0.194
 1872SOL     OW 6514   3.948   1.729   6.589
 1872SOL    HW1 6515   4.008   1.696   6.662
 1872SOL    HW2 6516   3.878   1.661   6.569
 1873SOL     OW 6517   5.127   1.268   5.519
 1873SOL    HW1 6518   5.101   1.252   5.614
 1873SOL    HW2 6519   5.068   1.338   5.479
 1874SOL     OW 6520   3.052   1.620   0.475
 1874SOL    HW1 6521   3.047   1.681   0.554
 1874SOL    HW2 6522   3.032   1.671   0.392
 1875SOL     OW 6523   0.283   0.723   0.058
 1875SOL    HW1 6524   0.263   0.632   0.020
 1875SOL    HW2 6525   0.381   0.732   0.072
 1876SOL     OW 6526   3.234   6.428   5.993
 1876SOL    HW1 6527   3.237   6.329   5.987
 1876SOL    HW2 6528   3.294   6.468   5.923
 1877SOL     OW 6529   0.482   0.590   2.914
 1877SOL    HW1 6530   0.579   0.573   2.928
 1877SOL    HW2 6531   0.434   0.502   2.908
 1878SOL     OW 6532   6.712   2.579   3.869
 1878SOL    HW1 6533   6.780   2.580   3.943
 1878SOL    HW2 6534   6.647   2.505   3.885
 1879SOL     OW 6535   1.507   4.966   3.997
 1879SOL    HW1 6536   1.605   4.983   3.988
 1879SOL    HW2 6537   1.489   4.924   4.087
 1880SOL     OW 6538   6.797   0.896   4.462
 1880SOL    HW1 6539   6.833   0.964   4.398
 1880SOL    HW2 6540   6.827   0.805   4.435
 1881SOL     OW 6541   6.033   3.008   2.558
 1881SOL    HW1 6542   6.131   3.002   2.576
 1881SOL    HW2 6543   6.017   3.076   2.486
 1882SOL     OW 6544   0.670   3.232   6.476
 1882SOL    HW1 6545   0.768   3.248   6.485
 1882SOL    HW2 6546   0.621   3.285   6.546
 1883SOL     OW 6547   1.043   2.064   3.767
 1883SOL    HW1 6548   1.139   2.057   3.740
 1883SOL    HW2 6549   0.989   2.000   3.713
 1884SOL     OW 6550   6.778   2.978   0.371
 1884SOL    HW1 6551   6.788   3.058   0.312
 1884SOL    HW2 6552   6.832   2.992   0.455
 1885SOL     OW 6553   1.598   2.581   6.280
 1885SOL    HW1 6554   1.685   2.570   6.233
 1885SOL    HW2 6555   1.600   2.531   6.366
 1886SOL     OW 6556   2.449   0.704   1.439
 1886SOL    HW1 6557   2.534   0.748   1.466
 1886SOL    HW2 6558   2.387   0.700   1.518
 1887SOL     OW 6559   0.833   5.762   4.915
 1887SOL    HW1 6560   0.902   5.783   4.984
 1887SOL    HW2 6561   0.823   5.839   4.852
 1888SOL     OW 6562   2.162   2.519   6.894
 1888SOL    HW1 6563   2.088   2.469   6.938
 1888SOL    HW2 6564   2.224   2.556   6.964
 1889SOL     OW 6565   0.328   2.953   6.034
 1889SOL    HW1 6566   0.391   3.031   6.037
 1889SOL    HW2 6567   0.309   2.930   5.938
 1890SOL     OW 6568   1.596   6.576   4.765
 1890SOL    HW1 6569   1.510   6.529   4.783
 1890SOL    HW2 6570   1.591   6.623   4.676
 1891SOL     OW 6571   5.225   1.986   1.858
 1891SOL    HW1 6572   5.173   2.002   1.774
 1891SOL    HW2 6573   5.163   1.962   1.932
 1892SOL     OW 6574   2.376   1.137   2.494
 1892SOL    HW1 6575   2.288   1.182   2.514
 1892SOL    HW2 6576   2.450   1.192   2.532
 1893SOL     OW 6577   3.824   3.020   0.227
 1893SOL    HW1 6578   3.894   2.951   0.247
 1893SOL    HW2 6579   3.791   3.008   0.134
 1894SOL     OW 6580   3.733   3.805   3.779
 1894SOL    HW1 6581   3.640   3.820   3.812
 1894SOL    HW2 6582   3.740   3.713   3.740
 1895SOL     OW 6583   5.086   0.283   1.567
 1895SOL    HW1 6584   5.033   0.207   1.607
 1895SOL    HW2 6585   5.181   0.278   1.600
 1896SOL     OW 6586   5.605   0.192   1.444
 1896SOL    HW1 6587   5.587   0.245   1.361
 1896SOL    HW2 6588   5.633   0.253   1.518
 1897SOL     OW 6589   1.652   4.807   1.444
 1897SOL    HW1 6590   1.687   4.730   1.497
 1897SOL    HW2 6591   1.700   4.890   1.471
 1898SOL     OW 6592   2.207   6.104   3.123
 1898SOL    HW1 6593   2.214   6.050   3.207
 1898SOL    HW2 6594   2.172   6.046   3.050
 1899SOL     OW 6595   1.177   0.874   2.276
 1899SOL    HW1 6596   1.220   0.804   2.333
 1899SOL    HW2 6597   1.196   0.965   2.314
 1900SOL     OW 6598   1.254   0.255   6.105
 1900SOL    HW1 6599   1.188   0.238   6.032
 1900SOL    HW2 6600   1.342   0.281   6.064
 1901SOL     OW 6601   1.995   1.572   0.907
 1901SOL    HW1 6602   2.073   1.539   0.962
 1901SOL    HW2 6603   1.915   1.583   0.966
 1902SOL     OW 6604   2.044   2.174   4.799
 1902SOL    HW1 6605   2.068   2.087   4.757
 1902SOL    HW2 6606   2.101   2.190   4.879
 1903SOL     OW 6607   6.887   3.341   2.402
 1903SOL    HW1 6608   6.906   3.391   2.486
 1903SOL    HW2 6609   6.972   3.301   2.367
 1904SOL     OW 6610   5.048   5.563   3.369
 1904SOL    HW1 6611   5.104   5.597   3.445
 1904SOL    HW2 6612   5.010   5.641   3.318
 1905SOL     OW 6613   1.359   0.275   3.924
 1905SOL    HW1 6614   1.428   0.320   3.868
 1905SOL    HW2 6615   1.394   0.186   3.954
 1906SOL     OW 6616   2.045   0.508   5.109
 1906SOL    HW1 6617   2.047   0.516   5.209
 1906SOL    HW2 6618   2.038   0.412   5.084
 1907SOL     OW 6619   3.558   0.447   1.994
 1907SOL    HW1 6620   3.545   0.536   1.953
 1907SOL    HW2 6621   3.568   0.378   1.923
 1908SOL     OW 6622   3.703   6.787   5.406
 1908SOL    HW1 6623   3.693   6.877   5.449
 1908SOL    HW2 6624   3.708   6.798   5.307
 1909SOL     OW 6625   0.113   3.747   2.712
 1909SOL    HW1 6626   0.059   3.816   2.664
 1909SOL    HW2 6627   0.201   3.735   2.666
 1910SOL     OW 6628   0.394   3.944   6.716
 1910SOL    HW1 6629   0.325   4.009   6.684
 1910SOL    HW2 6630   0.470   3.941   6.650
 1911SOL     OW 6631   6.613   3.401   5.133
 1911SOL    HW1 6632   6.640   3.391   5.229
 1911SOL    HW2 6633   6.516   3.422   5.128
 1912SOL     OW 6634   3.588   5.728   0.700
 1912SOL    HW1 6635   3.555   5.668   0.773
 1912SOL    HW2 6636   3.577   5.823   0.727
 1913SOL     OW 6637   2.156   6.533   4.753
 1913SOL    HW1 6638   2.091   6.572   4.817
 1913SOL    HW2 6639   2.143   6.433   4.749
 1914SOL     OW 6640   3.694   3.006   5.680
 1914SOL    HW1 6641   3.607   2.994   5.728
 1914SOL    HW2 6642   3.688   2.964   5.589
 1915SOL     OW 6643   3.555   1.875   5.164
 1915SOL    HW1 6644   3.566   1.847   5.069
 1915SOL    HW2 6645   3.500   1.958   5.169
 1916SOL     OW 6646   4.350   5.743   1.584
 1916SOL    HW1 6647   4.433   5.697   1.616
 1916SOL    HW2 6648   4.288   5.758   1.661
 1917SOL     OW 6649   2.417   3.047   5.885
 1917SOL    HW1 6650   2.402   3.145   5.897
 1917SOL    HW2 6651   2.392   3.000   5.970
 1918SOL     OW 6652   1.061   1.340   5.491
 1918SOL    HW1 6653   1.106   1.427   5.512
 1918SOL    HW2 6654   1.129   1.267   5.485
 1919SOL     OW 6655   2.066   0.639   1.869
 1919SOL    HW1 6656   1.979   0.653   1.821
 1919SOL    HW2 6657   2.072   0.702   1.946
 1920SOL     OW 6658   0.499   3.941   2.995
 1920SOL    HW1 6659   0.486   3.962   2.898
 1920SOL    HW2 6660   0.410   3.925   3.038
 1921SOL     OW 6661   1.430   3.753   5.982
 1921SOL    HW1 6662   1.397   3.708   5.899
 1921SOL    HW2 6663   1.399   3.849   5.982
 1922SOL     OW 6664   2.161   3.709   0.918
 1922SOL    HW1 6665   2.112   3.682   0.835
 1922SOL    HW2 6666   2.098   3.749   0.984
 1923SOL     OW 6667   4.191   0.876   5.529
 1923SOL    HW1 6668   4.242   0.817   5.591
 1923SOL    HW2 6669   4.254   0.941   5.485
 1924SOL     OW 6670   4.784   5.793   0.400
 1924SOL    HW1 6671   4.718   5.763   0.468
 1924SOL    HW2 6672   4.806   5.889   0.415
 1925SOL     OW 6673   1.541   4.867   0.946
 1925SOL    HW1 6674   1.449   4.884   0.982
 1925SOL    HW2 6675   1.568   4.943   0.887
 1926SOL     OW 6676   2.566   0.121   2.824
 1926SOL    HW1 6677   2.651   0.142   2.873
 1926SOL    HW2 6678   2.574   0.153   2.729
 1927SOL     OW 6679   2.371   4.438   6.967
 1927SOL    HW1 6680   2.362   4.338   6.962
 1927SOL    HW2 6681   2.424   4.462   0.031
 1928SOL     OW 6682   6.643   4.140   5.473
 1928SOL    HW1 6683   6.693   4.213   5.521
 1928SOL    HW2 6684   6.567   4.109   5.529
 1929SOL     OW 6685   1.957   6.769   1.493
 1929SOL    HW1 6686   1.984   6.690   1.438
 1929SOL    HW2 6687   1.940   6.740   1.587
 1930SOL     OW 6688   3.718   3.883   6.628
 1930SOL    HW1 6689   3.791   3.858   6.691
 1930SOL    HW2 6690   3.647   3.933   6.678
 1931SOL     OW 6691   1.425   2.675   1.339
 1931SOL    HW1 6692   1.343   2.648   1.390
 1931SOL    HW2 6693   1.467   2.595   1.298
 1932SOL     OW 6694   4.620   2.548   3.184
 1932SOL    HW1 6695   4.613   2.625   3.120
 1932SOL    HW2 6696   4.639   2.465   3.132
 1933SOL     OW 6697   2.053   3.046   1.128
 1933SOL    HW1 6698   2.058   2.976   1.056
 1933SOL    HW2 6699   2.091   3.132   1.094
 1934SOL     OW 6700   0.084   6.937   5.235
 1934SOL    HW1 6701   0.153   7.006   5.260
 1934SOL    HW2 6702   7.016   6.983   5.215
 1935SOL     OW 6703   4.318   6.016   3.692
 1935SOL    HW1 6704   4.360   6.046   3.606
 1935SOL    HW2 6705   4.287   5.921   3.682
 1936SOL     OW 6706   5.400   4.202   3.610
 1936SOL    HW1 6707   5.371   4.295   3.632
 1936SOL    HW2 6708   5.456   4.203   3.527
 1937SOL     OW 6709   4.457   6.259   0.830
 1937SOL    HW1 6710   4.528   6.190   0.845
 1937SOL    HW2 6711   4.398   6.264   0.910
 1938SOL     OW 6712   1.728   1.742   2.143
 1938SOL    HW1 6713   1.686   1.765   2.231
 1938SOL    HW2 6714   1.664   1.688   2.089
 1939SOL     OW 6715   6.913   6.771   4.345
 1939SOL    HW1 6716   6.847   6.798   4.416
 1939SOL    HW2 6717   6.875   6.792   4.255
 1940SOL     OW 6718   5.947   5.426   0.946
 1940SOL    HW1 6719   5.868   5.487   0.947
 1940SOL    HW2 6720   5.939   5.362   0.870
 1941SOL     OW 6721   1.077   3.309   4.546
 1941SOL    HW1 6722   1.000   3.322   4.483
 1941SOL    HW2 6723   1.105   3.213   4.544
 1942SOL     OW 6724   5.549   3.294   1.483
 1942SOL    HW1 6725   5.522   3.233   1.557
 1942SOL    HW2 6726   5.576   3.382   1.520
 1943SOL     OW 6727   1.987   6.939   3.297
 1943SOL    HW1 6728   1.990   6.840   3.282
 1943SOL    HW2 6729   1.969   6.958   3.393
 1944SOL     OW 6730   6.290   3.268   0.319
 1944SOL    HW1 6731   6.283   3.365   0.295
 1944SOL    HW2 6732   6.371   3.253   0.376
 1945SOL     OW 6733   3.961   5.564   0.459
 1945SOL    HW1 6734   4.051   5.536   0.425
 1945SOL    HW2 6735   3.896   5.564   0.383
 1946SOL     OW 6736   6.012   6.751   0.923
 1946SOL    HW1 6737   5.965   6.667   0.896
 1946SOL    HW2 6738   6.087   6.769   0.859
 1947SOL     OW 6739   5.257   6.300   4.393
 1947SOL    HW1 6740   5.266   6.303   4.293
 1947SOL    HW2 6741   5.341   6.332   4.436
 1948SOL     OW 6742   6.428   5.332   3.200
 1948SOL    HW1 6743   6.384   5.411   3.158
 1948SOL    HW2 6744   6.373   5.302   3.278
 1949SOL     OW 6745   3.444   3.448   6.602
 1949SOL    HW1 6746   3.489   3.370   6.559
 1949SOL    HW2 6747   3.450   3.527   6.541
 1950SOL     OW 6748   3.855   3.061   1.066
 1950SOL    HW1 6749   3.767   3.074   1.114
 1950SOL    HW2 6750   3.872   3.139   1.006
 1951SOL     OW 6751   6.708   4.731   6.953
 1951SOL    HW1 6752   6.636   4.755   6.888
 1951SOL    HW2 6753   6.687   4.642   6.995
 1952SOL     OW 6754   4.948   4.317   1.276
 1952SOL    HW1 6755   4.983   4.407   1.303
 1952SOL    HW2 6756   4.906   4.272   1.354
 1953SOL     OW 6757   6.033   1.506   5.548
 1953SOL    HW1 6758   5.960   1.575   5.541
 1953SOL    HW2 6759   6.025   1.442   5.471
 1954SOL     OW 6760   6.739   0.210   1.275
 1954SOL    HW1 6761   6.800   0.282   1.240
 1954SOL    HW2 6762   6.790   0.152   1.339
 1955SOL     OW 6763   0.545   0.284   3.047
 1955SOL    HW1 6764   0.561   0.275   2.949
 1955SOL    HW2 6765   0.592   0.365   3.082
 1956SOL     OW 6766   4.795   6.750   1.565
 1956SOL    HW1 6767   4.782   6.846   1.541
 1956SOL    HW2 6768   4.707   6.709   1.589
 1957SOL     OW 6769   5.424   4.456   3.454
 1957SOL    HW1 6770   5.521   4.431   3.462
 1957SOL    HW2 6771   5.413   4.552   3.478
 1958SOL     OW 6772   4.409   1.739   1.874
 1958SOL    HW1 6773   4.433   1.802   1.800
 1958SOL    HW2 6774   4.460   1.763   1.956
 1959SOL     OW 6775   1.366   6.990   3.912
 1959SOL    HW1 6776   1.287   6.943   3.871
 1959SOL    HW2 6777   1.446   6.977   3.853
 1960SOL     OW 6778   0.510   3.963   2.733
 1960SOL    HW1 6779   0.579   3.899   2.697
 1960SOL    HW2 6780   0.441   3.980   2.663
 1961SOL     OW 6781   6.535   4.477   5.116
 1961SOL    HW1 6782   6.604   4.438   5.055
 1961SOL    HW2 6783   6.534   4.577   5.105
 1962SOL     OW 6784   1.525   6.339   2.456
 1962SOL    HW1 6785   1.471   6.293   2.527
 1962SOL    HW2 6786   1.482   6.427   2.433
 1963SOL     OW 6787   0.888   1.674   1.417
 1963SOL    HW1 6788   0.943   1.607   1.367
 1963SOL    HW2 6789   0.839   1.732   1.352
 1964SOL     OW 6790   4.320   4.870   1.699
 1964SOL    HW1 6791   4.375   4.951   1.719
 1964SOL    HW2 6792   4.286   4.875   1.605
 1965SOL     OW 6793   1.314   3.203   4.281
 1965SOL    HW1 6794   1.272   3.143   4.349
 1965SOL    HW2 6795   1.341   3.289   4.325
 1966SOL     OW 6796   0.611   6.161   1.229
 1966SOL    HW1 6797   0.578   6.167   1.323
 1966SOL    HW2 6798   0.682   6.090   1.223
 1967SOL     OW 6799   5.410   3.072   3.972
 1967SOL    HW1 6800   5.461   2.986   3.977
 1967SOL    HW2 6801   5.428   3.126   4.054
 1968SOL     OW 6802   1.772   0.565   5.338
 1968SOL    HW1 6803   1.690   0.528   5.381
 1968SOL    HW2 6804   1.794   0.513   5.256
 1969SOL     OW 6805   2.602   1.475   0.711
 1969SOL    HW1 6806   2.694   1.472   0.672
 1969SOL    HW2 6807   2.591   1.400   0.776
 1970SOL     OW 6808   2.346   6.985   5.761
 1970SOL    HW1 6809   2.407   6.964   5.838
 1970SOL    HW2 6810   2.251   6.981   5.792
 1971SOL     OW 6811   0.231   0.471   5.259
 1971SOL    HW1 6812   0.204   0.399   5.322
 1971SOL    HW2 6813   0.320   0.449   5.218
 1972SOL     OW 6814   5.451   2.123   1.108
 1972SOL    HW1 6815   5.390   2.102   1.032
 1972SOL    HW2 6816   5.404   2.107   1.195
 1973SOL     OW 6817   2.819   3.721   0.369
 1973SOL    HW1 6818   2.882   3.743   0.295
 1973SOL    HW2 6819   2.725   3.730   0.335
 1974SOL     OW 6820   5.251   0.415   4.904
 1974SOL    HW1 6821   5.242   0.498   4.848
 1974SOL    HW2 6822   5.290   0.342   4.848
 1975SOL     OW 6823   1.884   1.921   4.457
 1975SOL    HW1 6824   1.915   1.848   4.518
 1975SOL    HW2 6825   1.785   1.932   4.465
 1976SOL     OW 6826   6.748   6.544   0.447
 1976SOL    HW1 6827   6.656   6.564   0.412
 1976SOL    HW2 6828   6.801   6.497   0.376
 1977SOL     OW 6829   1.854   3.078   5.182
 1977SOL    HW1 6830   1.876   3.091   5.279
 1977SOL    HW2 6831   1.922   3.123   5.126
 1978SOL     OW 6832   2.000   5.832   3.197
 1978SOL    HW1 6833   2.075   5.793   3.250
 1978SOL    HW2 6834   2.036   5.900   3.133
 1979SOL     OW 6835   5.468   4.748   6.677
 1979SOL    HW1 6836   5.465   4.847   6.691
 1979SOL    HW2 6837   5.553   4.723   6.631
 1980SOL     OW 6838   3.689   6.955   4.026
 1980SOL    HW1 6839   3.625   7.016   4.072
 1980SOL    HW2 6840   3.653   6.931   3.936
 1981SOL     OW 6841   5.995   3.694   2.129
 1981SOL    HW1 6842   5.979   3.711   2.226
 1981SOL    HW2 6843   6.088   3.660   2.115
 1982SOL     OW 6844   6.764   4.387   4.162
 1982SOL    HW1 6845   6.741   4.342   4.249
 1982SOL    HW2 6846   6.688   4.378   4.098
 1983SOL     OW 6847   1.560   6.920   1.344
 1983SOL    HW1 6848   1.655   6.915   1.314
 1983SOL    HW2 6849   1.556   6.921   1.444
 1984SOL     OW 6850   5.060   2.833   4.891
 1984SOL    HW1 6851   4.992   2.830   4.818
 1984SOL    HW2 6852   5.017   2.860   4.977
 1985SOL     OW 6853   0.186   6.412   2.829
 1985SOL    HW1 6854   0.240   6.383   2.751
 1985SOL    HW2 6855   0.245   6.421   2.909
 1986SOL     OW 6856   2.869   1.022   7.012
 1986SOL    HW1 6857   2.862   0.964   6.931
 1986SOL    HW2 6858   2.799   1.093   7.009
 1987SOL     OW 6859   2.364   1.757   3.190
 1987SOL    HW1 6860   2.398   1.850   3.179
 1987SOL    HW2 6861   2.441   1.693   3.187
 1988SOL     OW 6862   6.671   3.382   0.736
 1988SOL    HW1 6863   6.745   3.316   0.749
 1988SOL    HW2 6864   6.637   3.375   0.642
 1989SOL     OW 6865   2.080   5.845   5.153
 1989SOL    HW1 6866   2.098   5.807   5.244
 1989SOL    HW2 6867   2.008   5.914   5.160
 1990SOL     OW 6868   3.889   5.656   0.706
 1990SOL    HW1 6869   3.929   5.630   0.618
 1990SOL    HW2 6870   3.794   5.684   0.693
 1991SOL     OW 6871   2.903   6.143   0.333
 1991SOL    HW1 6872   2.915   6.138   0.234
 1991SOL    HW2 6873   2.829   6.207   0.355
 1992SOL     OW 6874   0.084   0.513   0.193
 1992SOL    HW1 6875   0.152   0.442   0.175
 1992SOL    HW2 6876   0.124   0.584   0.251
 1993SOL     OW 6877   3.837   1.697   5.905
 1993SOL    HW1 6878   3.904   1.771   5.914
 1993SOL    HW2 6879   3.813   1.685   5.808
 1994SOL     OW 6880   0.097   2.391   0.504
 1994SOL    HW1 6881   0.029   2.436   0.562
 1994SOL    HW2 6882   0.103   2.439   0.416
 1995SOL     OW 6883   4.757   2.946   3.498
 1995SOL    HW1 6884   4.807   2.884   3.437
 1995SOL    HW2 6885   4.669   2.970   3.457
 1996SOL     OW 6886   2.424   2.175   0.839
 1996SOL    HW1 6887   2.418   2.274   0.833
 1996SOL    HW2 6888   2.520   2.147   0.841
 1997SOL     OW 6889   3.879   2.175   4.525
 1997SOL    HW1 6890   3.809   2.158   4.456
 1997SOL    HW2 6891   3.844   2.147   4.615
 1998SOL     OW 6892   1.646   3.636   0.519
 1998SOL    HW1 6893   1.734   3.631   0.473
 1998SOL    HW2 6894   1.644   3.569   0.594
 1999SOL     OW 6895   1.827   6.538   6.360
 1999SOL    HW1 6896   1.788   6.619   6.404
 1999SOL    HW2 6897   1.924   6.554   6.341
 2000SOL     OW 6898   3.820   2.581   5.753
 2000SOL    HW1 6899   3.826   2.667   5.701
 2000SOL    HW2 6900   3.781   2.600   5.843
 2001SOL     OW 6901   2.195   1.169   1.488
 2001SOL    HW1 6902   2.190   1.083   1.437
 2001SOL    HW2 6903   2.263   1.161   1.560
 2002SOL     OW 6904   0.365   4.588   0.476
 2002SOL    HW1 6905   0.431   4.523   0.512
 2002SOL    HW2 6906   0.277   4.575   0.523
 2003SOL     OW 6907   6.875   5.042   2.506
 2003SOL    HW1 6908   6.968   5.045   2.544
 2003SOL    HW2 6909   6.871   5.102   2.426
 2004SOL     OW 6910   5.844   1.026   4.239
 2004SOL    HW1 6911   5.795   0.961   4.297
 2004SOL    HW2 6912   5.941   1.001   4.235
 2005SOL     OW 6913   0.142   4.605   0.655
 2005SOL    HW1 6914   0.220   4.597   0.717
 2005SOL    HW2 6915   0.112   4.701   0.653
 2006SOL     OW 6916   5.465   0.269   3.265
 2006SOL    HW1 6917   5.383   0.320   3.239
 2006SOL    HW2 6918   5.536   0.283   3.197
 2007SOL     OW 6919   5.021   4.349   0.974
 2007SOL    HW1 6920   4.949   4.281   0.986
 2007SOL    HW2 6921   5.032   4.402   1.058
 2008SOL     OW 6922   2.157   3.868   3.637
 2008SOL    HW1 6923   2.137   3.770   3.632
 2008SOL    HW2 6924   2.074   3.919   3.612
 2009SOL     OW 6925   4.961   0.162   2.592
 2009SOL    HW1 6926   5.004   0.096   2.531
 2009SOL    HW2 6927   5.026   0.189   2.663
 2010SOL     OW 6928   2.846   1.461   1.660
 2010SOL    HW1 6929   2.854   1.507   1.572
 2010SOL    HW2 6930   2.910   1.503   1.725
 2011SOL     OW 6931   0.501   0.822   4.741
 2011SOL    HW1 6932   0.417   0.775   4.768
 2011SOL    HW2 6933   0.481   0.918   4.722
 2012SOL     OW 6934   1.149   3.734   2.496
 2012SOL    HW1 6935   1.083   3.662   2.479
 2012SOL    HW2 6936   1.103   3.823   2.494
 2013SOL     OW 6937   5.919   3.139   3.620
 2013SOL    HW1 6938   5.982   3.149   3.698
 2013SOL    HW2 6939   5.922   3.222   3.565
 2014SOL     OW 6940   2.692   6.801   3.072
 2014SOL    HW1 6941   2.721   6.741   2.999
 2014SOL    HW2 6942   2.633   6.752   3.135
 2015SOL     OW 6943   2.494   0.375   0.926
 2015SOL    HW1 6944   2.405   0.417   0.941
 2015SOL    HW2 6945   2.490   0.279   0.955
 2016SOL     OW 6946   1.642   5.577   6.024
 2016SOL    HW1 6947   1.558   5.606   5.980
 2016SOL    HW2 6948   1.620   5.520   6.104
 2017SOL     OW 6949   3.970   0.582   3.420
 2017SOL    HW1 6950   3.971   0.488   3.387
 2017SOL    HW2 6951   3.895   0.632   3.377
 2018SOL     OW 6952   5.783   2.936   3.754
 2018SOL    HW1 6953   5.842   3.003   3.708
 2018SOL    HW2 6954   5.837   2.854   3.776
 2019SOL     OW 6955   5.316   3.799   6.566
 2019SOL    HW1 6956   5.393   3.738   6.551
 2019SOL    HW2 6957   5.281   3.788   6.659
 2020SOL     OW 6958   2.024   6.824   6.480
 2020SOL    HW1 6959   2.064   6.829   6.388
 2020SOL    HW2 6960   2.097   6.805   6.546
 2021SOL     OW 6961   6.578   6.719   4.860
 2021SOL    HW1 6962   6.497   6.776   4.844
 2021SOL    HW2 6963   6.618   6.692   4.773
 2022SOL     OW 6964   1.705   4.445   3.825
 2022SOL    HW1 6965   1.662   4.409   3.742
 2022SOL    HW2 6966   1.705   4.374   3.895
 2023SOL     OW 6967   0.398   0.534   6.528
 2023SOL    HW1 6968   0.428   0.459   6.469
 2023SOL    HW2 6969   0.472   0.561   6.590
 2024SOL     OW 6970   0.193   5.411   3.787
 2024SOL    HW1 6971   0.224   5.322   3.756
 2024SOL    HW2 6972   0.272   5.469   3.806
 2025SOL     OW 6973   4.171   0.931   4.050
 2025SOL    HW1 6974   4.266   0.901   4.041
 2025SOL    HW2 6975   4.149   0.945   4.146
 2026SOL     OW 6976   6.425   2.410   6.133
 2026SOL    HW1 6977   6.362   2.426   6.210
 2026SOL    HW2 6978   6.515   2.384   6.169
 2027SOL     OW 6979   1.438   0.299   1.206
 2027SOL    HW1 6980   1.397   0.387   1.183
 2027SOL    HW2 6981   1.400   0.228   1.147
 2028SOL     OW 6982   3.531   5.842   4.608
 2028SOL    HW1 6983   3.506   5.832   4.512
 2028SOL    HW2 6984   3.474   5.781   4.663
 2029SOL     OW 6985   5.996   1.921   0.250
 2029SOL    HW1 6986   6.049   2.005   0.264
 2029SOL    HW2 6987   6.015   1.857   0.324
 2030SOL     OW 6988   2.891   0.553   3.727
 2030SOL    HW1 6989   2.928   0.489   3.659
 2030SOL    HW2 6990   2.791   0.551   3.723
 2031SOL     OW 6991   6.554   5.995   1.503
 2031SOL    HW1 6992   6.521   5.911   1.546
 2031SOL    HW2 6993   6.497   6.016   1.423
 2032SOL     OW 6994   4.035   1.330   1.577
 2032SOL    HW1 6995   3.995   1.414   1.615
 2032SOL    HW2 6996   4.099   1.292   1.644
 2033SOL     OW 6997   2.299   1.944   0.379
 2033SOL    HW1 6998   2.216   1.993   0.353
 2033SOL    HW2 6999   2.278   1.846   0.386
 2034SOL     OW 7000   2.637   4.904   5.721
 2034SOL    HW1 7001   2.576   4.902   5.642
 2034SOL    HW2 7002   2.731   4.920   5.691
 2035SOL     OW 7003   6.446   6.668   3.553
 2035SOL    HW1 7004   6.376   6.677   3.624
 2035SOL    HW2 7005   6.535   6.695   3.590
 2036SOL     OW 7006   1.328   3.472   2.660
 2036SOL    HW1 7007   1.331   3.438   2.566
 2036SOL    HW2 7008   1.401   3.539   2.674
 2037SOL     OW 7009   6.285   2.739   5.773
 2037SOL    HW1 7010   6.343   2.768   5.698
 2037SOL    HW2 7011   6.248   2.648   5.754
 2038SOL     OW 7012   2.164   1.461   0.283
 2038SOL    HW1 7013   2.069   1.430   0.276
 2038SOL    HW2 7014   2.177   1.542   0.226
 2039SOL     OW 7015   6.750   6.026   3.427
 2039SOL    HW1 7016   6.815   6.011   3.502
 2039SOL    HW2 7017   6.692   5.945   3.417
 2040SOL     OW 7018   1.637   2.401   0.014
 2040SOL    HW1 7019   1.640   2.378   0.112
 2040SOL    HW2 7020   1.562   2.350   6.989
 2041SOL     OW 7021   0.871   0.238   5.108
 2041SOL    HW1 7022   0.924   0.161   5.146
 2041SOL    HW2 7023   0.917   0.272   5.026
 2042SOL     OW 7024   5.191   6.151   6.392
 2042SOL    HW1 7025   5.176   6.137   6.294
 2042SOL    HW2 7026   5.105   6.136   6.441
 2043SOL     OW 7027   6.499   2.809   2.597
 2043SOL    HW1 7028   6.467   2.719   2.626
 2043SOL    HW2 7029   6.572   2.840   2.658
 2044SOL     OW 7030   6.237   0.619   1.052
 2044SOL    HW1 7031   6.319   0.660   1.011
 2044SOL    HW2 7032   6.243   0.519   1.044
 2045SOL     OW 7033   1.359   4.731   4.416
 2045SOL    HW1 7034   1.283   4.710   4.354
 2045SOL    HW2 7035   1.359   4.665   4.492
 2046SOL     OW 7036   6.149   1.753   4.906
 2046SOL    HW1 7037   6.093   1.835   4.901
 2046SOL    HW2 7038   6.112   1.691   4.976
 2047SOL     OW 7039   0.129   2.552   0.267
 2047SOL    HW1 7040   0.225   2.537   0.288
 2047SOL    HW2 7041   0.104   2.498   0.186
 2048SOL     OW 7042   0.124   0.072   4.866
 2048SOL    HW1 7043   0.051   0.111   4.922
 2048SOL    HW2 7044   0.095   7.002   4.829
 2049SOL     OW 7045   5.824   1.491   4.332
 2049SOL    HW1 7046   5.839   1.586   4.361
 2049SOL    HW2 7047   5.732   1.463   4.360
 2050SOL     OW 7048   6.465   2.639   4.200
 2050SOL    HW1 7049   6.483   2.541   4.208
 2050SOL    HW2 7050   6.550   2.688   4.180
 2051SOL     OW 7051   1.729   6.103   6.497
 2051SOL    HW1 7052   1.768   6.055   6.576
 2051SOL    HW2 7053   1.802   6.128   6.434
 2052SOL     OW 7054   1.733   2.447   1.061
 2052SOL    HW1 7055   1.744   2.418   0.966
 2052SOL    HW2 7056   1.790   2.528   1.078
 2053SOL     OW 7057   6.948   5.439   4.722
 2053SOL    HW1 7058   6.871   5.478   4.772
 2053SOL    HW2 7059   6.998   5.376   4.781
 2054SOL     OW 7060   3.274   3.805   2.860
 2054SOL    HW1 7061   3.211   3.727   2.858
 2054SOL    HW2 7062   3.367   3.772   2.873
 2055SOL     OW 7063   5.877   2.864   4.880
 2055SOL    HW1 7064   5.927   2.788   4.838
 2055SOL    HW2 7065   5.804   2.828   4.938
 2056SOL     OW 7066   4.231   5.453   1.516
 2056SOL    HW1 7067   4.230   5.543   1.559
 2056SOL    HW2 7068   4.203   5.384   1.584
 2057SOL     OW 7069   5.000   3.734   5.649
 2057SOL    HW1 7070   5.062   3.764   5.722
 2057SOL    HW2 7071   4.966   3.642   5.670
 2058SOL     OW 7072   0.311   6.480   2.550
 2058SOL    HW1 7073   0.281   6.387   2.531
 2058SOL    HW2 7074   0.389   6.479   2.613
 2059SOL     OW 7075   2.035   6.311   6.757
 2059SOL    HW1 7076   1.950   6.357   6.729
 2059SOL    HW2 7077   2.014   6.243   6.827
 2060SOL     OW 7078   0.719   3.872   1.794
 2060SOL    HW1 7079   0.741   3.850   1.889
 2060SOL    HW2 7080   0.650   3.809   1.761
 2061SOL     OW 7081   1.582   2.249   2.602
 2061SOL    HW1 7082   1.681   2.263   2.607
 2061SOL    HW2 7083   1.535   2.336   2.617
 2062SOL     OW 7084   0.065   6.100   5.592
 2062SOL    HW1 7085   0.125   6.135   5.520
 2062SOL    HW2 7086   0.008   6.174   5.627
 2063SOL     OW 7087   1.059   6.383   5.174
 2063SOL    HW1 7088   1.004   6.362   5.093
 2063SOL    HW2 7089   1.041   6.477   5.204
 2064SOL     OW 7090   0.060   2.425   4.814
 2064SOL    HW1 7091   6.984   2.453   4.831
 2064SOL    HW2 7092   0.062   2.327   4.792
 2065SOL     OW 7093   6.311   2.716   6.088
 2065SOL    HW1 7094   6.326   2.694   5.992
 2065SOL    HW2 7095   6.395   2.697   6.140
 2066SOL     OW 7096   6.816   3.967   5.325
 2066SOL    HW1 7097   6.744   4.004   5.384
 2066SOL    HW2 7098   6.828   4.027   5.246
 2067SOL     OW 7099   6.900   5.114   1.009
 2067SOL    HW1 7100   6.952   5.048   0.955
 2067SOL    HW2 7101   6.870   5.189   0.950
 2068SOL     OW 7102   3.588   0.313   4.180
 2068SOL    HW1 7103   3.675   0.265   4.174
 2068SOL    HW2 7104   3.578   0.374   4.102
 2069SOL     OW 7105   6.885   2.224   4.121
 2069SOL    HW1 7106   6.796   2.263   4.098
 2069SOL    HW2 7107   6.886   2.127   4.095
 2070SOL     OW 7108   1.018   1.726   0.825
 2070SOL    HW1 7109   1.019   1.795   0.897
 2070SOL    HW2 7110   1.104   1.674   0.828
 2071SOL     OW 7111   6.149   0.909   5.908
 2071SOL    HW1 7112   6.134   0.926   6.006
 2071SOL    HW2 7113   6.248   0.908   5.890
 2072SOL     OW 7114   4.576   5.488   4.486
 2072SOL    HW1 7115   4.663   5.476   4.533
 2072SOL    HW2 7116   4.508   5.526   4.550
 2073SOL     OW 7117   4.254   6.120   5.257
 2073SOL    HW1 7118   4.235   6.165   5.344
 2073SOL    HW2 7119   4.348   6.139   5.229
 2074SOL     OW 7120   1.755   2.697   6.590
 2074SOL    HW1 7121   1.791   2.738   6.506
 2074SOL    HW2 7122   1.830   2.663   6.646
 2075SOL     OW 7123   6.847   2.725   2.716
 2075SOL    HW1 7124   6.887   2.639   2.684
 2075SOL    HW2 7125   6.771   2.705   2.778
 2076SOL     OW 7126   5.569   6.067   6.149
 2076SOL    HW1 7127   5.564   6.164   6.173
 2076SOL    HW2 7128   5.491   6.018   6.190
 2077SOL     OW 7129   6.775   2.113   2.022
 2077SOL    HW1 7130   6.829   2.084   2.101
 2077SOL    HW2 7131   6.746   2.032   1.970
 2078SOL     OW 7132   2.134   5.258   6.543
 2078SOL    HW1 7133   2.219   5.293   6.582
 2078SOL    HW2 7134   2.113   5.169   6.584
 2079SOL     OW 7135   0.204   1.038   3.011
 2079SOL    HW1 7136   0.209   1.135   3.035
 2079SOL    HW2 7137   0.125   1.022   2.952
 2080SOL     OW 7138   2.785   1.074   4.995
 2080SOL    HW1 7139   2.696   1.038   5.023
 2080SOL    HW2 7140   2.794   1.065   4.895
 2081SOL     OW 7141   0.913   6.756   4.523
 2081SOL    HW1 7142   0.867   6.708   4.598
 2081SOL    HW2 7143   0.968   6.691   4.471
 2082SOL     OW 7144   1.062   6.440   3.528
 2082SOL    HW1 7145   1.045   6.418   3.432
 2082SOL    HW2 7146   1.148   6.399   3.557
 2083SOL     OW 7147   1.409   6.087   5.093
 2083SOL    HW1 7148   1.334   6.091   5.158
 2083SOL    HW2 7149   1.451   6.177   5.083
 2084SOL     OW 7150   0.875   2.627   1.999
 2084SOL    HW1 7151   0.831   2.713   1.974
 2084SOL    HW2 7152   0.948   2.644   2.065
 2085SOL     OW 7153   4.979   6.570   1.157
 2085SOL    HW1 7154   5.071   6.543   1.128
 2085SOL    HW2 7155   4.975   6.670   1.164
 2086SOL     OW 7156   3.564   5.951   0.112
 2086SOL    HW1 7157   3.617   6.028   0.146
 2086SOL    HW2 7158   3.539   5.967   0.016
 2087SOL     OW 7159   4.443   2.136   0.908
 2087SOL    HW1 7160   4.353   2.176   0.889
 2087SOL    HW2 7161   4.489   2.115   0.821
 2088SOL     OW 7162   1.649   5.646   6.409
 2088SOL    HW1 7163   1.653   5.566   6.349
 2088SOL    HW2 7164   1.612   5.724   6.358
 2089SOL     OW 7165   4.500   2.449   5.400
 2089SOL    HW1 7166   4.565   2.524   5.415
 2089SOL    HW2 7167   4.535   2.366   5.444
 2090SOL     OW 7168   4.957   2.922   5.524
 2090SOL    HW1 7169   4.999   2.833   5.505
 2090SOL    HW2 7170   4.920   2.923   5.617
 2091SOL     OW 7171   6.851   5.750   0.999
 2091SOL    HW1 7172   6.920   5.769   0.929
 2091SOL    HW2 7173   6.843   5.652   1.013
 2092SOL     OW 7174   5.744   3.422   0.748
 2092SOL    HW1 7175   5.784   3.473   0.672
 2092SOL    HW2 7176   5.784   3.453   0.834
 2093SOL     OW 7177   3.391   1.795   1.904
 2093SOL    HW1 7178   3.430   1.730   1.969
 2093SOL    HW2 7179   3.438   1.883   1.913
 2094SOL     OW 7180   5.259   1.737   1.215
 2094SOL    HW1 7181   5.198   1.814   1.196
 2094SOL    HW2 7182   5.343   1.747   1.162
 2095SOL     OW 7183   6.058   6.763   3.874
 2095SOL    HW1 7184   5.958   6.760   3.871
 2095SOL    HW2 7185   6.089   6.858   3.878
 2096SOL     OW 7186   4.678   5.633   3.451
 2096SOL    HW1 7187   4.682   5.633   3.352
 2096SOL    HW2 7188   4.665   5.727   3.484
 2097SOL     OW 7189   2.890   3.422   6.946
 2097SOL    HW1 7190   2.929   3.374   0.007
 2097SOL    HW2 7191   2.912   3.519   6.952
 2098SOL     OW 7192   4.055   6.112   2.927
 2098SOL    HW1 7193   4.039   6.027   2.977
 2098SOL    HW2 7194   3.976   6.172   2.938
 2099SOL     OW 7195   4.509   1.051   6.873
 2099SOL    HW1 7196   4.580   1.078   6.808
 2099SOL    HW2 7197   4.508   1.116   6.949
 2100SOL     OW 7198   5.240   1.511   0.487
 2100SOL    HW1 7199   5.239   1.460   0.573
 2100SOL    HW2 7200   5.148   1.545   0.468
 2101SOL     OW 7201   6.735   6.068   1.008
 2101SOL    HW1 7202   6.754   5.970   1.014
 2101SOL    HW2 7203   6.802   6.118   1.062
 2102SOL     OW 7204   4.596   3.575   1.685
 2102SOL    HW1 7205   4.654   3.622   1.751
 2102SOL    HW2 7206   4.648   3.558   1.601
 2103SOL     OW 7207   3.881   4.131   0.195
 2103SOL    HW1 7208   3.931   4.056   0.239
 2103SOL    HW2 7209   3.820   4.174   0.262
 2104SOL     OW 7210   1.351   4.523   1.920
 2104SOL    HW1 7211   1.267   4.470   1.934
 2104SOL    HW2 7212   1.424   4.462   1.892
 2105SOL     OW 7213   4.341   5.142   6.744
 2105SOL    HW1 7214   4.287   5.150   6.828
 2105SOL    HW2 7215   4.437   5.161   6.764
 2106SOL     OW 7216   4.990   3.769   0.817
 2106SOL    HW1 7217   4.952   3.755   0.726
 2106SOL    HW2 7218   4.946   3.847   0.861
 2107SOL     OW 7219   6.029   2.687   5.592
 2107SOL    HW1 7220   6.014   2.661   5.687
 2107SOL    HW2 7221   6.061   2.782   5.588
 2108SOL     OW 7222   6.083   5.768   4.838
 2108SOL    HW1 7223   6.013   5.696   4.832
 2108SOL    HW2 7224   6.090   5.798   4.934
 2109SOL     OW 7225   2.871   5.920   2.416
 2109SOL    HW1 7226   2.785   5.870   2.403
 2109SOL    HW2 7227   2.935   5.895   2.344
 2110SOL     OW 7228   3.741   0.601   6.242
 2110SOL    HW1 7229   3.699   0.633   6.327
 2110SOL    HW2 7230   3.830   0.645   6.230
 2111SOL     OW 7231   1.810   3.185   5.501
 2111SOL    HW1 7232   1.840   3.090   5.505
 2111SOL    HW2 7233   1.722   3.190   5.453
 2112SOL     OW 7234   5.029   2.216   0.071
 2112SOL    HW1 7235   5.025   2.141   0.138
 2112SOL    HW2 7236   5.099   2.195   0.003
 2113SOL     OW 7237   2.022   0.245   5.055
 2113SOL    HW1 7238   2.089   0.199   4.997
 2113SOL    HW2 7239   2.018   0.200   5.144
 2114SOL     OW 7240   1.893   2.592   6.814
 2114SOL    HW1 7241   1.986   2.569   6.842
 2114SOL    HW2 7242   1.845   2.509   6.787
 2115SOL     OW 7243   0.841   4.188   2.352
 2115SOL    HW1 7244   0.833   4.276   2.305
 2115SOL    HW2 7245   0.933   4.152   2.341
 2116SOL     OW 7246   1.315   3.308   1.352
 2116SOL    HW1 7247   1.359   3.244   1.289
 2116SOL    HW2 7248   1.314   3.269   1.444
 2117SOL     OW 7249   5.509   3.948   1.382
 2117SOL    HW1 7250   5.498   3.875   1.449
 2117SOL    HW2 7251   5.599   3.990   1.394
 2118SOL     OW 7252   6.345   3.492   2.455
 2118SOL    HW1 7253   6.339   3.542   2.542
 2118SOL    HW2 7254   6.253   3.462   2.428
 2119SOL     OW 7255   1.958   1.196   0.949
 2119SOL    HW1 7256   1.971   1.292   0.978
 2119SOL    HW2 7257   2.048   1.153   0.941
 2120SOL     OW 7258   0.044   2.813   2.200
 2120SOL    HW1 7259   7.002   2.867   2.259
 2120SOL    HW2 7260   0.031   2.716   2.219
 2121SOL     OW 7261   2.067   2.687   6.070
 2121SOL    HW1 7262   2.018   2.653   5.990
 2121SOL    HW2 7263   2.143   2.746   6.041
 2122SOL     OW 7264   5.826   6.261   5.585
 2122SOL    HW1 7265   5.839   6.357   5.611
 2122SOL    HW2 7266   5.876   6.202   5.648
 2123SOL     OW 7267   6.375   6.481   2.334
 2123SOL    HW1 7268   6.364   6.421   2.413
 2123SOL    HW2 7269   6.471   6.478   2.304
 2124SOL     OW 7270   2.917   1.719   0.016
 2124SOL    HW1 7271   2.940   1.752   6.942
 2124SOL    HW2 7272   2.981   1.647   0.042
 2125SOL     OW 7273   0.625   5.481   2.297
 2125SOL    HW1 7274   0.532   5.453   2.275
 2125SOL    HW2 7275   0.680   5.480   2.214
 2126SOL     OW 7276   3.637   2.718   6.004
 2126SOL    HW1 7277   3.604   2.656   6.076
 2126SOL    HW2 7278   3.578   2.709   5.924
 2127SOL     OW 7279   0.837   1.871   5.475
 2127SOL    HW1 7280   0.824   1.924   5.559
 2127SOL    HW2 7281   0.748   1.838   5.443
 2128SOL     OW 7282   5.736   2.352   1.655
 2128SOL    HW1 7283   5.641   2.368   1.683
 2128SOL    HW2 7284   5.742   2.350   1.556
 2129SOL     OW 7285   4.394   4.579   4.332
 2129SOL    HW1 7286   4.452   4.501   4.356
 2129SOL    HW2 7287   4.352   4.616   4.414
 2130SOL     OW 7288   2.417   1.198   1.630
 2130SOL    HW1 7289   2.433   1.280   1.685
 2130SOL    HW2 7290   2.502   1.144   1.626
 2131SOL     OW 7291   4.962   1.668   1.084
 2131SOL    HW1 7292   5.021   1.587   1.076
 2131SOL    HW2 7293   4.932   1.697   0.993
 2132SOL     OW 7294   3.122   1.309   6.977
 2132SOL    HW1 7295   3.088   1.279   6.889
 2132SOL    HW2 7296   3.136   1.229   0.019
 2133SOL     OW 7297   3.641   2.202   0.822
 2133SOL    HW1 7298   3.580   2.239   0.893
 2133SOL    HW2 7299   3.701   2.133   0.863
 2134SOL     OW 7300   0.995   0.962   4.641
 2134SOL    HW1 7301   1.038   1.040   4.687
 2134SOL    HW2 7302   1.062   0.889   4.632
 2135SOL     OW 7303   0.506   1.515   4.652
 2135SOL    HW1 7304   0.570   1.451   4.695
 2135SOL    HW2 7305   0.534   1.532   4.558
 2136SOL     OW 7306   1.472   3.463   4.310
 2136SOL    HW1 7307   1.395   3.525   4.326
 2136SOL    HW2 7308   1.538   3.473   4.384
 2137SOL     OW 7309   0.344   6.543   4.202
 2137SOL    HW1 7310   0.372   6.637   4.223
 2137SOL    HW2 7311   0.313   6.537   4.108
 2138SOL     OW 7312   6.211   2.746   1.789
 2138SOL    HW1 7313   6.156   2.713   1.865
 2138SOL    HW2 7314   6.249   2.835   1.811
 2139SOL     OW 7315   3.956   1.308   3.387
 2139SOL    HW1 7316   3.901   1.383   3.424
 2139SOL    HW2 7317   4.051   1.337   3.380
 2140SOL     OW 7318   2.973   6.172   3.407
 2140SOL    HW1 7319   2.898   6.199   3.347
 2140SOL    HW2 7320   2.998   6.248   3.467
 2141SOL     OW 7321   6.558   3.052   1.588
 2141SOL    HW1 7322   6.616   3.108   1.646
 2141SOL    HW2 7323   6.614   3.003   1.521
 2142SOL     OW 7324   1.350   2.081   3.518
 2142SOL    HW1 7325   1.401   1.997   3.540
 2142SOL    HW2 7326   1.252   2.061   3.517
 2143SOL     OW 7327   3.160   5.091   1.110
 2143SOL    HW1 7328   3.067   5.095   1.072
 2143SOL    HW2 7329   3.216   5.162   1.069
 2144SOL     OW 7330   1.977   0.771   2.841
 2144SOL    HW1 7331   2.075   0.793   2.848
 2144SOL    HW2 7332   1.958   0.686   2.890
 2145SOL     OW 7333   3.447   5.460   4.153
 2145SOL    HW1 7334   3.543   5.457   4.182
 2145SOL    HW2 7335   3.436   5.407   4.068
 2146SOL     OW 7336   3.043   3.721   1.987
 2146SOL    HW1 7337   2.950   3.694   2.011
 2146SOL    HW2 7338   3.044   3.816   1.957
 2147SOL     OW 7339   6.805   1.345   0.241
 2147SOL    HW1 7340   6.808   1.277   0.168
 2147SOL    HW2 7341   6.720   1.396   0.236
 2148SOL     OW 7342   5.099   3.097   4.285
 2148SOL    HW1 7343   5.126   3.140   4.198
 2148SOL    HW2 7344   5.113   2.998   4.279
 2149SOL     OW 7345   3.844   0.441   1.266
 2149SOL    HW1 7346   3.834   0.377   1.189
 2149SOL    HW2 7347   3.760   0.493   1.278
 2150SOL     OW 7348   3.266   2.070   2.122
 2150SOL    HW1 7349   3.318   2.135   2.067
 2150SOL    HW2 7350   3.168   2.084   2.107
 2151SOL     OW 7351   2.683   1.637   4.137
 2151SOL    HW1 7352   2.593   1.596   4.121
 2151SOL    HW2 7353   2.696   1.652   4.235
 2152SOL     OW 7354   4.126   6.365   2.268
 2152SOL    HW1 7355   4.163   6.318   2.348
 2152SOL    HW2 7356   4.036   6.327   2.246
 2153SOL     OW 7357   4.061   0.636   3.964
 2153SOL    HW1 7358   4.129   0.563   3.973
 2153SOL    HW2 7359   4.104   0.724   3.984
 2154SOL     OW 7360   3.416   6.025   4.913
 2154SOL    HW1 7361   3.443   6.053   5.006
 2154SOL    HW2 7362   3.499   6.004   4.860
 2155SOL     OW 7363   1.496   4.867   0.425
 2155SOL    HW1 7364   1.491   4.948   0.367
 2155SOL    HW2 7365   1.592   4.847   0.447
 2156SOL     OW 7366   2.610   0.387   1.846
 2156SOL    HW1 7367   2.547   0.365   1.771
 2156SOL    HW2 7368   2.704   0.386   1.811
 2157SOL     OW 7369   6.520   0.998   3.154
 2157SOL    HW1 7370   6.493   1.050   3.073
 2157SOL    HW2 7371   6.438   0.964   3.200
 2158SOL     OW 7372   3.856   6.565   0.880
 2158SOL    HW1 7373   3.803   6.648   0.896
 2158SOL    HW2 7374   3.951   6.590   0.857
 2159SOL     OW 7375   1.558   6.062   5.509
 2159SOL    HW1 7376   1.612   5.999   5.454
 2159SOL    HW2 7377   1.492   6.011   5.564
 2160SOL     OW 7378   4.341   3.711   1.744
 2160SOL    HW1 7379   4.344   3.810   1.729
 2160SOL    HW2 7380   4.420   3.668   1.700
 2161SOL     OW 7381   5.204   3.547   3.580
 2161SOL    HW1 7382   5.186   3.463   3.630
 2161SOL    HW2 7383   5.133   3.615   3.600
 2162SOL     OW 7384   2.650   0.470   0.276
 2162SOL    HW1 7385   2.745   0.502   0.278
 2162SOL    HW2 7386   2.612   0.473   0.368
 2163SOL     OW 7387   6.835   5.509   6.262
 2163SOL    HW1 7388   6.849   5.412   6.240
 2163SOL    HW2 7389   6.771   5.517   6.338
 2164SOL     OW 7390   1.676   1.608   0.005
 2164SOL    HW1 7391   1.712   1.700   0.018
 2164SOL    HW2 7392   1.599   1.594   0.067
 2165SOL     OW 7393   1.470   1.511   3.012
 2165SOL    HW1 7394   1.413   1.442   2.968
 2165SOL    HW2 7395   1.522   1.468   3.086
 2166SOL     OW 7396   2.071   2.329   5.629
 2166SOL    HW1 7397   2.006   2.273   5.681
 2166SOL    HW2 7398   2.064   2.424   5.659
 2167SOL     OW 7399   2.407   0.393   2.680
 2167SOL    HW1 7400   2.451   0.398   2.590
 2167SOL    HW2 7401   2.366   0.303   2.691
 2168SOL     OW 7402   6.474   2.039   4.401
 2168SOL    HW1 7403   6.409   2.115   4.394
 2168SOL    HW2 7404   6.426   1.953   4.380
 2169SOL     OW 7405   5.563   2.155   6.595
 2169SOL    HW1 7406   5.540   2.245   6.556
 2169SOL    HW2 7407   5.605   2.098   6.525
 2170SOL     OW 7408   5.903   4.683   5.116
 2170SOL    HW1 7409   5.865   4.743   5.045
 2170SOL    HW2 7410   5.919   4.592   5.077
 2171SOL     OW 7411   6.271   2.858   0.717
 2171SOL    HW1 7412   6.356   2.910   0.706
 2171SOL    HW2 7413   6.270   2.780   0.654
 2172SOL     OW 7414   2.864   1.445   0.578
 2172SOL    HW1 7415   2.927   1.518   0.551
 2172SOL    HW2 7416   2.853   1.380   0.503
 2173SOL     OW 7417   3.662   0.465   5.529
 2173SOL    HW1 7418   3.576   0.426   5.564
 2173SOL    HW2 7419   3.705   0.519   5.602
 2174SOL     OW 7420   6.589   4.936   5.698
 2174SOL    HW1 7421   6.536   4.861   5.737
 2174SOL    HW2 7422   6.547   4.966   5.612
 2175SOL     OW 7423   2.912   2.269   2.974
 2175SOL    HW1 7424   2.934   2.257   3.071
 2175SOL    HW2 7425   2.992   2.247   2.919
 2176SOL     OW 7426   1.011   2.057   1.442
 2176SOL    HW1 7427   0.918   2.084   1.467
 2176SOL    HW2 7428   1.077   2.112   1.493
 2177SOL     OW 7429   6.522   0.446   2.052
 2177SOL    HW1 7430   6.490   0.372   1.993
 2177SOL    HW2 7431   6.612   0.423   2.089
 2178SOL     OW 7432   0.764   4.321   0.543
 2178SOL    HW1 7433   0.697   4.270   0.490
 2178SOL    HW2 7434   0.847   4.266   0.554
 2179SOL     OW 7435   2.121   5.305   4.551
 2179SOL    HW1 7436   2.141   5.394   4.591
 2179SOL    HW2 7437   2.199   5.275   4.496
 2180SOL     OW 7438   2.944   3.109   1.757
 2180SOL    HW1 7439   2.992   3.022   1.746
 2180SOL    HW2 7440   3.011   3.183   1.768
 2181SOL     OW 7441   4.486   4.173   5.879
 2181SOL    HW1 7442   4.450   4.080   5.891
 2181SOL    HW2 7443   4.497   4.216   5.969
 2182SOL     OW 7444   6.368   3.358   6.131
 2182SOL    HW1 7445   6.420   3.332   6.050
 2182SOL    HW2 7446   6.278   3.393   6.102
 2183SOL     OW 7447   3.709   3.765   0.425
 2183SOL    HW1 7448   3.802   3.767   0.388
 2183SOL    HW2 7449   3.711   3.725   0.516
 2184SOL     OW 7450   3.332   0.758   5.320
 2184SOL    HW1 7451   3.374   0.841   5.356
 2184SOL    HW2 7452   3.403   0.689   5.302
 2185SOL     OW 7453   2.008   1.548   1.667
 2185SOL    HW1 7454   1.937   1.578   1.731
 2185SOL    HW2 7455   2.049   1.463   1.702
 2186SOL     OW 7456   0.179   4.414   2.337
 2186SOL    HW1 7457   0.264   4.382   2.295
 2186SOL    HW2 7458   0.199   4.490   2.399
 2187SOL     OW 7459   0.511   1.107   1.817
 2187SOL    HW1 7460   0.563   1.189   1.840
 2187SOL    HW2 7461   0.435   1.131   1.756
 2188SOL     OW 7462   4.696   5.772   3.819
 2188SOL    HW1 7463   4.603   5.739   3.839
 2188SOL    HW2 7464   4.720   5.844   3.885
 2189SOL     OW 7465   1.356   6.800   6.202
 2189SOL    HW1 7466   1.268   6.769   6.240
 2189SOL    HW2 7467   1.355   6.899   6.193
 2190SOL     OW 7468   6.428   2.229   1.419
 2190SOL    HW1 7469   6.465   2.136   1.414
 2190SOL    HW2 7470   6.329   2.227   1.405
 2191SOL     OW 7471   3.837   1.901   6.310
 2191SOL    HW1 7472   3.876   1.962   6.240
 2191SOL    HW2 7473   3.804   1.956   6.387
 2192SOL     OW 7474   4.112   0.044   4.724
 2192SOL    HW1 7475   4.092   0.109   4.798
 2192SOL    HW2 7476   4.194   0.075   4.676
 2193SOL     OW 7477   6.677   5.664   6.088
 2193SOL    HW1 7478   6.686   5.762   6.102
 2193SOL    HW2 7479   6.742   5.615   6.146
 2194SOL     OW 7480   2.373   5.545   0.208
 2194SOL    HW1 7481   2.444   5.474   0.204
 2194SOL    HW2 7482   2.360   5.584   0.117
 2195SOL     OW 7483   6.907   6.777   1.901
 2195SOL    HW1 7484   6.946   6.784   1.809
 2195SOL    HW2 7485   6.888   6.869   1.935
 2196SOL     OW 7486   2.032   0.580   5.948
 2196SOL    HW1 7487   2.093   0.659   5.944
 2196SOL    HW2 7488   1.948   0.600   5.899
 2197SOL     OW 7489   5.013   4.014   1.397
 2197SOL    HW1 7490   4.972   3.955   1.328
 2197SOL    HW2 7491   5.048   3.959   1.472
 2198SOL     OW 7492   6.926   2.707   0.022
 2198SOL    HW1 7493   6.986   2.627   0.012
 2198SOL    HW2 7494   6.965   2.769   0.089
 2199SOL     OW 7495   5.103   6.868   1.197
 2199SOL    HW1 7496   5.197   6.865   1.164
 2199SOL    HW2 7497   5.042   6.902   1.125
 2200SOL     OW 7498   3.947   0.328   4.466
 2200SOL    HW1 7499   4.012   0.361   4.534
 2200SOL    HW2 7500   3.972   0.236   4.437
 2201SOL     OW 7501   6.284   4.004   2.446
 2201SOL    HW1 7502   6.351   3.936   2.417
 2201SOL    HW2 7503   6.199   3.958   2.472
 2202SOL     OW 7504   3.370   5.344   4.822
 2202SOL    HW1 7505   3.371   5.395   4.908
 2202SOL    HW2 7506   3.320   5.259   4.835
 2203SOL     OW 7507   3.282   1.964   2.708
 2203SOL    HW1 7508   3.247   1.894   2.770
 2203SOL    HW2 7509   3.235   1.958   2.621
 2204SOL     OW 7510   3.734   1.502   6.625
 2204SOL    HW1 7511   3.699   1.547   6.707
 2204SOL    HW2 7512   3.660   1.450   6.581
 2205SOL     OW 7513   1.195   0.400   6.588
 2205SOL    HW1 7514   1.281   0.371   6.545
 2205SOL    HW2 7515   1.206   0.397   6.687
 2206SOL     OW 7516   3.160   4.061   5.533
 2206SOL    HW1 7517   3.154   3.999   5.454
 2206SOL    HW2 7518   3.075   4.113   5.540
 2207SOL     OW 7519   1.949   4.470   6.430
 2207SOL    HW1 7520   1.928   4.372   6.429
 2207SOL    HW2 7521   2.013   4.490   6.504
 2208SOL     OW 7522   1.455   4.610   1.646
 2208SOL    HW1 7523   1.471   4.689   1.588
 2208SOL    HW2 7524   1.541   4.563   1.664
 2209SOL     OW 7525   1.304   5.959   5.591
 2209SOL    HW1 7526   1.300   5.919   5.683
 2209SOL    HW2 7527   1.225   5.929   5.538
 2210SOL     OW 7528   0.747   5.310   3.247
 2210SOL    HW1 7529   0.696   5.225   3.234
 2210SOL    HW2 7530   0.749   5.333   3.344
 2211SOL     OW 7531   5.441   1.342   5.799
 2211SOL    HW1 7532   5.384   1.341   5.882
 2211SOL    HW2 7533   5.419   1.423   5.745
 2212SOL     OW 7534   0.398   6.310   6.865
 2212SOL    HW1 7535   0.312   6.288   6.819
 2212SOL    HW2 7536   0.475   6.279   6.810
 2213SOL     OW 7537   4.546   2.596   4.829
 2213SOL    HW1 7538   4.456   2.576   4.792
 2213SOL    HW2 7539   4.593   2.662   4.770
 2214SOL     OW 7540   4.561   0.625   5.272
 2214SOL    HW1 7541   4.521   0.712   5.241
 2214SOL    HW2 7542   4.498   0.550   5.250
 2215SOL     OW 7543   7.002   1.039   5.606
 2215SOL    HW1 7544   0.042   1.115   5.636
 2215SOL    HW2 7545   6.925   1.029   5.669
 2216SOL     OW 7546   1.705   0.538   6.538
 2216SOL    HW1 7547   1.696   0.565   6.634
 2216SOL    HW2 7548   1.768   0.600   6.492
 2217SOL     OW 7549   3.486   0.328   1.150
 2217SOL    HW1 7550   3.569   0.383   1.155
 2217SOL    HW2 7551   3.423   0.356   1.223
 2218SOL     OW 7552   1.197   6.707   0.500
 2218SOL    HW1 7553   1.161   6.799   0.518
 2218SOL    HW2 7554   1.217   6.699   0.402
 2219SOL     OW 7555   1.691   3.961   3.359
 2219SOL    HW1 7556   1.666   3.881   3.304
 2219SOL    HW2 7557   1.701   4.040   3.298
 2220SOL     OW 7558   0.532   1.399   4.027
 2220SOL    HW1 7559   0.486   1.487   4.044
 2220SOL    HW2 7560   0.505   1.334   4.098
 2221SOL     OW 7561   0.065   1.600   0.066
 2221SOL    HW1 7562   0.027   1.560   0.150
 2221SOL    HW2 7563   0.134   1.669   0.091
 2222SOL     OW 7564   4.018   0.780   1.023
 2222SOL    HW1 7565   4.020   0.844   0.947
 2222SOL    HW2 7566   4.042   0.828   1.108
 2223SOL     OW 7567   5.650   5.329   3.452
 2223SOL    HW1 7568   5.635   5.427   3.442
 2223SOL    HW2 7569   5.565   5.285   3.483
 2224SOL     OW 7570   1.713   4.590   1.214
 2224SOL    HW1 7571   1.662   4.609   1.298
 2224SOL    HW2 7572   1.796   4.540   1.236
 2225SOL     OW 7573   6.653   4.755   2.849
 2225SOL    HW1 7574   6.595   4.714   2.919
 2225SOL    HW2 7575   6.653   4.696   2.767
 2226SOL     OW 7576   3.505   3.258   0.683
 2226SOL    HW1 7577   3.494   3.358   0.680
 2226SOL    HW2 7578   3.601   3.235   0.673
 2227SOL     OW 7579   6.226   4.188   6.643
 2227SOL    HW1 7580   6.269   4.138   6.567
 2227SOL    HW2 7581   6.294   4.205   6.714
 2228SOL     OW 7582   3.203   5.595   0.668
 2228SOL    HW1 7583   3.164   5.686   0.682
 2228SOL    HW2 7584   3.176   5.560   0.578
 2229SOL     OW 7585   4.707   1.985   3.894
 2229SOL    HW1 7586   4.785   1.923   3.888
 2229SOL    HW2 7587   4.623   1.933   3.876
 2230SOL     OW 7588   1.079   6.188   3.795
 2230SOL    HW1 7589   1.111   6.260   3.857
 2230SOL    HW2 7590   1.110   6.099   3.829
 2231SOL     OW 7591   1.712   1.921   2.493
 2231SOL    HW1 7592   1.671   2.003   2.452
 2231SOL    HW2 7593   1.658   1.893   2.572
 2232SOL     OW 7594   0.691   3.087   4.550
 2232SOL    HW1 7595   0.669   3.183   4.535
 2232SOL    HW2 7596   0.729   3.076   4.642
 2233SOL     OW 7597   3.288   5.023   0.183
 2233SOL    HW1 7598   3.379   4.984   0.169
 2233SOL    HW2 7599   3.253   5.058   0.096
 2234SOL     OW 7600   4.467   2.468   0.746
 2234SOL    HW1 7601   4.523   2.550   0.758
 2234SOL    HW2 7602   4.372   2.488   0.771
 2235SOL     OW 7603   1.623   0.123   0.318
 2235SOL    HW1 7604   1.547   0.067   0.352
 2235SOL    HW2 7605   1.590   0.186   0.248
 2236SOL     OW 7606   0.708   4.508   1.149
 2236SOL    HW1 7607   0.799   4.549   1.141
 2236SOL    HW2 7608   0.681   4.506   1.245
 2237SOL     OW 7609   6.385   3.475   4.526
 2237SOL    HW1 7610   6.413   3.389   4.483
 2237SOL    HW2 7611   6.466   3.521   4.563
 2238SOL     OW 7612   6.885   5.211   2.279
 2238SOL    HW1 7613   6.846   5.295   2.243
 2238SOL    HW2 7614   6.985   5.221   2.286
 2239SOL     OW 7615   4.009   4.866   3.847
 2239SOL    HW1 7616   4.034   4.914   3.931
 2239SOL    HW2 7617   4.075   4.793   3.830
 2240SOL     OW 7618   6.343   5.211   3.420
 2240SOL    HW1 7619   6.315   5.225   3.515
 2240SOL    HW2 7620   6.415   5.142   3.415
 2241SOL     OW 7621   0.008   5.868   2.311
 2241SOL    HW1 7622   6.982   5.883   2.400
 2241SOL    HW2 7623   0.090   5.813   2.324
 2242SOL     OW 7624   5.227   1.267   3.520
 2242SOL    HW1 7625   5.194   1.360   3.504
 2242SOL    HW2 7626   5.227   1.216   3.434
 2243SOL     OW 7627   1.983   6.166   5.179
 2243SOL    HW1 7628   1.934   6.172   5.092
 2243SOL    HW2 7629   1.917   6.167   5.254
 2244SOL     OW 7630   3.851   0.865   3.147
 2244SOL    HW1 7631   3.828   0.832   3.239
 2244SOL    HW2 7632   3.817   0.958   3.136
 2245SOL     OW 7633   0.517   2.228   2.427
 2245SOL    HW1 7634   0.502   2.200   2.332
 2245SOL    HW2 7635   0.532   2.327   2.430
 2246SOL     OW 7636   1.722   2.480   5.736
 2246SOL    HW1 7637   1.750   2.384   5.730
 2246SOL    HW2 7638   1.721   2.520   5.645
 2247SOL     OW 7639   2.769   2.153   5.963
 2247SOL    HW1 7640   2.682   2.142   5.917
 2247SOL    HW2 7641   2.833   2.082   5.932
 2248SOL     OW 7642   5.257   4.248   5.994
 2248SOL    HW1 7643   5.262   4.281   6.088
 2248SOL    HW2 7644   5.283   4.321   5.931
 2249SOL     OW 7645   6.158   6.453   2.979
 2249SOL    HW1 7646   6.102   6.502   2.912
 2249SOL    HW2 7647   6.142   6.492   3.070
 2250SOL     OW 7648   5.441   3.951   1.113
 2250SOL    HW1 7649   5.508   3.903   1.056
 2250SOL    HW2 7650   5.484   3.976   1.200
 2251SOL     OW 7651   6.151   1.815   0.545
 2251SOL    HW1 7652   6.113   1.736   0.592
 2251SOL    HW2 7653   6.228   1.852   0.597
 2252SOL     OW 7654   6.458   2.474   5.173
 2252SOL    HW1 7655   6.456   2.545   5.102
 2252SOL    HW2 7656   6.367   2.466   5.213
 2253SOL     OW 7657   0.869   2.959   6.584
 2253SOL    HW1 7658   0.899   3.052   6.561
 2253SOL    HW2 7659   0.809   2.962   6.663
 2254SOL     OW 7660   2.144   3.183   5.931
 2254SOL    HW1 7661   2.181   3.155   5.842
 2254SOL    HW2 7662   2.162   3.280   5.946
 2255SOL     OW 7663   6.332   2.386   0.931
 2255SOL    HW1 7664   6.407   2.338   0.885
 2255SOL    HW2 7665   6.359   2.480   0.949
 2256SOL     OW 7666   3.764   5.675   2.058
 2256SOL    HW1 7667   3.834   5.615   2.018
 2256SOL    HW2 7668   3.806   5.762   2.085
 2257SOL     OW 7669   1.157   2.517   4.623
 2257SOL    HW1 7670   1.090   2.502   4.695
 2257SOL    HW2 7671   1.240   2.464   4.643
 2258SOL     OW 7672   1.553   5.609   4.228
 2258SOL    HW1 7673   1.538   5.597   4.326
 2258SOL    HW2 7674   1.473   5.577   4.178
 2259SOL     OW 7675   5.201   3.617   6.348
 2259SOL    HW1 7676   5.295   3.589   6.328
 2259SOL    HW2 7677   5.166   3.563   6.424
 2260SOL     OW 7678   4.587   4.404   3.089
 2260SOL    HW1 7679   4.532   4.438   3.013
 2260SOL    HW2 7680   4.626   4.315   3.066
 2261SOL     OW 7681   5.915   6.539   0.744
 2261SOL    HW1 7682   5.842   6.544   0.677
 2261SOL    HW2 7683   6.003   6.557   0.700
 2262SOL     OW 7684   5.721   2.212   2.752
 2262SOL    HW1 7685   5.748   2.268   2.830
 2262SOL    HW2 7686   5.799   2.154   2.725
 2263SOL     OW 7687   2.312   6.062   5.997
 2263SOL    HW1 7688   2.338   6.026   6.086
 2263SOL    HW2 7689   2.223   6.024   5.970
 2264SOL     OW 7690   3.255   4.031   2.377
 2264SOL    HW1 7691   3.234   3.946   2.425
 2264SOL    HW2 7692   3.205   4.034   2.290
 2265SOL     OW 7693   0.340   1.116   3.571
 2265SOL    HW1 7694   0.316   1.199   3.521
 2265SOL    HW2 7695   0.305   1.036   3.522
 2266SOL     OW 7696   6.811   1.478   1.260
 2266SOL    HW1 7697   6.815   1.427   1.175
 2266SOL    HW2 7698   6.894   1.459   1.314
 2267SOL     OW 7699   5.633   2.734   4.448
 2267SOL    HW1 7700   5.702   2.781   4.393
 2267SOL    HW2 7701   5.661   2.639   4.461
 2268SOL     OW 7702   6.344   5.875   0.232
 2268SOL    HW1 7703   6.323   5.787   0.190
 2268SOL    HW2 7704   6.435   5.905   0.206
 2269SOL     OW 7705   5.859   5.594   5.091
 2269SOL    HW1 7706   5.822   5.583   5.183
 2269SOL    HW2 7707   5.786   5.580   5.024
 2270SOL     OW 7708   3.511   3.853   1.036
 2270SOL    HW1 7709   3.528   3.946   1.070
 2270SOL    HW2 7710   3.563   3.788   1.091
 2271SOL     OW 7711   6.302   4.377   1.201
 2271SOL    HW1 7712   6.315   4.429   1.116
 2271SOL    HW2 7713   6.217   4.407   1.245
 2272SOL     OW 7714   5.966   2.237   4.837
 2272SOL    HW1 7715   5.944   2.299   4.913
 2272SOL    HW2 7716   5.898   2.250   4.764
 2273SOL     OW 7717   1.905   1.591   3.096
 2273SOL    HW1 7718   1.878   1.679   3.135
 2273SOL    HW2 7719   2.003   1.590   3.079
 2274SOL     OW 7720   1.292   3.341   5.119
 2274SOL    HW1 7721   1.222   3.332   5.190
 2274SOL    HW2 7722   1.380   3.311   5.156
 2275SOL     OW 7723   4.382   0.096   4.608
 2275SOL    HW1 7724   4.393   0.046   4.694
 2275SOL    HW2 7725   4.459   0.076   4.547
 2276SOL     OW 7726   3.331   5.303   1.061
 2276SOL    HW1 7727   3.406   5.347   1.110
 2276SOL    HW2 7728   3.289   5.368   0.998
 2277SOL     OW 7729   3.278   3.375   4.549
 2277SOL    HW1 7730   3.207   3.309   4.524
 2277SOL    HW2 7731   3.327   3.341   4.629
 2278SOL     OW 7732   4.458   6.975   3.343
 2278SOL    HW1 7733   4.493   6.882   3.336
 2278SOL    HW2 7734   4.382   6.977   3.408
 2279SOL     OW 7735   5.708   4.506   3.754
 2279SOL    HW1 7736   5.617   4.480   3.787
 2279SOL    HW2 7737   5.719   4.605   3.761
 2280SOL     OW 7738   6.600   6.354   4.889
 2280SOL    HW1 7739   6.518   6.397   4.852
 2280SOL    HW2 7740   6.647   6.303   4.817
 2281SOL     OW 7741   3.198   1.575   1.346
 2281SOL    HW1 7742   3.285   1.596   1.302
 2281SOL    HW2 7743   3.123   1.615   1.293
 2282SOL     OW 7744   5.283   6.293   4.776
 2282SOL    HW1 7745   5.241   6.211   4.737
 2282SOL    HW2 7746   5.354   6.267   4.841
 2283SOL     OW 7747   6.550   3.628   1.933
 2283SOL    HW1 7748   6.567   3.574   1.850
 2283SOL    HW2 7749   6.577   3.575   2.013
 2284SOL     OW 7750   2.809   2.138   1.608
 2284SOL    HW1 7751   2.794   2.153   1.706
 2284SOL    HW2 7752   2.725   2.103   1.567
 2285SOL     OW 7753   1.303   3.505   0.328
 2285SOL    HW1 7754   1.266   3.589   0.289
 2285SOL    HW2 7755   1.389   3.482   0.283
 2286SOL     OW 7756   6.813   5.698   5.115
 2286SOL    HW1 7757   6.857   5.692   5.025
 2286SOL    HW2 7758   6.804   5.794   5.142
 2287SOL     OW 7759   2.527   3.114   1.664
 2287SOL    HW1 7760   2.560   3.047   1.598
 2287SOL    HW2 7761   2.427   3.114   1.662
 2288SOL     OW 7762   0.626   5.912   3.946
 2288SOL    HW1 7763   0.684   5.989   3.975
 2288SOL    HW2 7764   0.682   5.845   3.897
 2289SOL     OW 7765   5.613   2.987   1.844
 2289SOL    HW1 7766   5.704   2.951   1.822
 2289SOL    HW2 7767   5.564   2.920   1.900
 2290SOL     OW 7768   2.921   3.225   2.091
 2290SOL    HW1 7769   2.977   3.152   2.051
 2290SOL    HW2 7770   2.867   3.269   2.019
 2291SOL     OW 7771   2.038   1.923   1.144
 2291SOL    HW1 7772   2.082   1.996   1.090
 2291SOL    HW2 7773   1.950   1.955   1.177
 2292SOL     OW 7774   5.221   3.631   3.973
 2292SOL    HW1 7775   5.193   3.676   3.889
 2292SOL    HW2 7776   5.157   3.557   3.995
 2293SOL     OW 7777   5.898   1.144   0.411
 2293SOL    HW1 7778   5.977   1.126   0.352
 2293SOL    HW2 7779   5.844   1.060   0.421
 2294SOL     OW 7780   3.073   1.742   6.117
 2294SOL    HW1 7781   3.105   1.817   6.060
 2294SOL    HW2 7782   3.146   1.712   6.178
 2295SOL     OW 7783   6.641   0.856   2.383
 2295SOL    HW1 7784   6.658   0.844   2.481
 2295SOL    HW2 7785   6.604   0.771   2.345
 2296SOL     OW 7786   2.526   4.953   2.707
 2296SOL    HW1 7787   2.564   4.870   2.748
 2296SOL    HW2 7788   2.524   5.026   2.775
 2297SOL     OW 7789   4.624   4.872   5.585
 2297SOL    HW1 7790   4.696   4.809   5.617
 2297SOL    HW2 7791   4.590   4.925   5.663
 2298SOL     OW 7792   3.635   3.595   3.329
 2298SOL    HW1 7793   3.582   3.632   3.253
 2298SOL    HW2 7794   3.704   3.662   3.358
 2299SOL     OW 7795   4.866   4.142   5.017
 2299SOL    HW1 7796   4.829   4.126   4.926
 2299SOL    HW2 7797   4.917   4.061   5.047
 2300SOL     OW 7798   3.482   6.819   3.313
 2300SOL    HW1 7799   3.499   6.884   3.387
 2300SOL    HW2 7800   3.393   6.837   3.272
 2301SOL     OW 7801   3.388   2.872   4.110
 2301SOL    HW1 7802   3.393   2.958   4.059
 2301SOL    HW2 7803   3.306   2.821   4.082
 2302SOL     OW 7804   4.115   0.479   1.241
 2302SOL    HW1 7805   4.016   0.465   1.242
 2302SOL    HW2 7806   4.146   0.486   1.146
 2303SOL     OW 7807   2.561   3.010   1.403
 2303SOL    HW1 7808   2.523   3.052   1.320
 2303SOL    HW2 7809   2.521   2.920   1.416
 2304SOL     OW 7810   6.184   5.738   3.736
 2304SOL    HW1 7811   6.207   5.750   3.833
 2304SOL    HW2 7812   6.266   5.746   3.681
 2305SOL     OW 7813   1.600   0.679   3.894
 2305SOL    HW1 7814   1.666   0.717   3.958
 2305SOL    HW2 7815   1.576   0.747   3.825
 2306SOL     OW 7816   1.403   5.246   2.474
 2306SOL    HW1 7817   1.306   5.225   2.484
 2306SOL    HW2 7818   1.441   5.275   2.562
 2307SOL     OW 7819   1.215   3.288   5.545
 2307SOL    HW1 7820   1.299   3.235   5.534
 2307SOL    HW2 7821   1.180   3.275   5.638
 2308SOL     OW 7822   2.597   4.952   1.170
 2308SOL    HW1 7823   2.664   4.878   1.165
 2308SOL    HW2 7824   2.646   5.039   1.183
 2309SOL     OW 7825   1.649   0.457   4.182
 2309SOL    HW1 7826   1.558   0.490   4.206
 2309SOL    HW2 7827   1.718   0.509   4.233
 2310SOL     OW 7828   5.650   6.570   2.432
 2310SOL    HW1 7829   5.740   6.536   2.402
 2310SOL    HW2 7830   5.578   6.520   2.384
 2311SOL     OW 7831   1.941   5.632   6.801
 2311SOL    HW1 7832   1.914   5.593   6.713
 2311SOL    HW2 7833   1.862   5.634   6.862
 2312SOL     OW 7834   3.640   5.408   3.416
 2312SOL    HW1 7835   3.599   5.321   3.389
 2312SOL    HW2 7836   3.733   5.391   3.450
 2313SOL     OW 7837   5.129   4.955   1.995
 2313SOL    HW1 7838   5.201   4.900   2.038
 2313SOL    HW2 7839   5.091   4.904   1.918
 2314SOL     OW 7840   3.604   6.056   2.928
 2314SOL    HW1 7841   3.669   6.122   2.967
 2314SOL    HW2 7842   3.655   5.985   2.879
 2315SOL     OW 7843   5.469   3.685   5.898
 2315SOL    HW1 7844   5.472   3.598   5.947
 2315SOL    HW2 7845   5.427   3.755   5.956
 2316SOL     OW 7846   5.075   1.969   3.425
 2316SOL    HW1 7847   5.008   1.922   3.367
 2316SOL    HW2 7848   5.099   2.056   3.382
 2317SOL     OW 7849   0.833   5.170   2.993
 2317SOL    HW1 7850   0.818   5.235   3.068
 2317SOL    HW2 7851   0.800   5.209   2.908
 2318SOL     OW 7852   6.907   2.726   3.689
 2318SOL    HW1 7853   7.005   2.724   3.711
 2318SOL    HW2 7854   6.857   2.671   3.756
 2319SOL     OW 7855   2.062   4.074   5.048
 2319SOL    HW1 7856   2.049   4.127   5.132
 2319SOL    HW2 7857   2.154   4.035   5.047
 2320SOL     OW 7858   6.808   2.289   4.465
 2320SOL    HW1 7859   6.729   2.256   4.516
 2320SOL    HW2 7860   6.820   2.234   4.383
 2321SOL     OW 7861   3.911   0.718   5.188
 2321SOL    HW1 7862   4.006   0.710   5.219
 2321SOL    HW2 7863   3.855   0.648   5.234
 2322SOL     OW 7864   2.086   1.872   5.615
 2322SOL    HW1 7865   1.990   1.850   5.600
 2322SOL    HW2 7866   2.123   1.812   5.686
 2323SOL     OW 7867   3.276   5.652   3.424
 2323SOL    HW1 7868   3.313   5.560   3.437
 2323SOL    HW2 7869   3.186   5.645   3.382
 2324SOL     OW 7870   0.335   5.902   2.593
 2324SOL    HW1 7871   0.393   5.926   2.671
 2324SOL    HW2 7872   0.311   5.805   2.598
 2325SOL     OW 7873   1.289   3.717   1.748
 2325SOL    HW1 7874   1.303   3.650   1.822
 2325SOL    HW2 7875   1.376   3.733   1.702
 2326SOL     OW 7876   2.287   3.945   6.280
 2326SOL    HW1 7877   2.387   3.946   6.278
 2326SOL    HW2 7878   2.256   3.867   6.335
 2327SOL     OW 7879   4.790   3.039   4.596
 2327SOL    HW1 7880   4.785   2.963   4.531
 2327SOL    HW2 7881   4.699   3.080   4.607
 2328SOL     OW 7882   5.222   0.872   3.419
 2328SOL    HW1 7883   5.161   0.938   3.375
 2328SOL    HW2 7884   5.284   0.921   3.481
 2329SOL     OW 7885   1.149   5.152   4.453
 2329SOL    HW1 7886   1.141   5.225   4.520
 2329SOL    HW2 7887   1.103   5.179   4.369
 2330SOL     OW 7888   0.185   5.063   1.733
 2330SOL    HW1 7889   0.151   5.074   1.826
 2330SOL    HW2 7890   0.112   5.032   1.673
 2331SOL     OW 7891   6.874   4.549   5.895
 2331SOL    HW1 7892   6.894   4.528   5.799
 2331SOL    HW2 7893   6.856   4.647   5.904
 2332SOL     OW 7894   5.189   2.174   5.867
 2332SOL    HW1 7895   5.124   2.099   5.880
 2332SOL    HW2 7896   5.216   2.178   5.770
 2333SOL     OW 7897   0.554   5.048   2.378
 2333SOL    HW1 7898   0.572   5.126   2.437
 2333SOL    HW2 7899   0.629   5.038   2.312
 2334SOL     OW 7900   2.996   6.773   0.009
 2334SOL    HW1 7901   2.935   6.822   0.072
 2334SOL    HW2 7902   3.077   6.742   0.058
 2335SOL     OW 7903   6.107   0.884   3.101
 2335SOL    HW1 7904   6.045   0.871   3.179
 2335SOL    HW2 7905   6.193   0.922   3.133
 2336SOL     OW 7906   4.732   1.295   5.795
 2336SOL    HW1 7907   4.784   1.298   5.880
 2336SOL    HW2 7908   4.757   1.213   5.743
 2337SOL     OW 7909   5.283   0.427   3.167
 2337SOL    HW1 7910   5.343   0.506   3.160
 2337SOL    HW2 7911   5.284   0.376   3.081
 2338SOL     OW 7912   0.593   6.931   0.090
 2338SOL    HW1 7913   0.629   0.005   0.073
 2338SOL    HW2 7914   0.509   6.918   0.038
 2339SOL     OW 7915   3.374   3.141   5.447
 2339SOL    HW1 7916   3.441   3.072   5.476
 2339SOL    HW2 7917   3.301   3.147   5.515
 2340SOL     OW 7918   3.682   6.559   5.220
 2340SOL    HW1 7919   3.777   6.584   5.201
 2340SOL    HW2 7920   3.674   6.523   5.313
 2341SOL     OW 7921   5.329   4.386   0.302
 2341SOL    HW1 7922   5.249   4.346   0.257
 2341SOL    HW2 7923   5.362   4.324   0.374
 2342SOL     OW 7924   0.492   6.647   5.835
 2342SOL    HW1 7925   0.516   6.652   5.932
 2342SOL    HW2 7926   0.394   6.629   5.826
 2343SOL     OW 7927   1.358   6.476   0.935
 2343SOL    HW1 7928   1.293   6.417   0.887
 2343SOL    HW2 7929   1.348   6.570   0.900
 2344SOL     OW 7930   3.053   1.776   2.542
 2344SOL    HW1 7931   3.138   1.744   2.585
 2344SOL    HW2 7932   3.002   1.832   2.608
 2345SOL     OW 7933   1.178   0.033   4.856
 2345SOL    HW1 7934   1.266   0.069   4.885
 2345SOL    HW2 7935   1.157   6.969   4.910
 2346SOL     OW 7936   4.667   2.878   5.151
 2346SOL    HW1 7937   4.690   2.869   5.054
 2346SOL    HW2 7938   4.684   2.972   5.180
 2347SOL     OW 7939   1.831   4.134   1.976
 2347SOL    HW1 7940   1.901   4.063   1.972
 2347SOL    HW2 7941   1.873   4.221   1.999
 2348SOL     OW 7942   2.364   6.341   3.446
 2348SOL    HW1 7943   2.350   6.382   3.355
 2348SOL    HW2 7944   2.313   6.394   3.514
 2349SOL     OW 7945   0.023   6.271   6.216
 2349SOL    HW1 7946   0.104   6.267   6.158
 2349SOL    HW2 7947   6.959   6.252   6.161
 2350SOL     OW 7948   3.114   0.563   5.648
 2350SOL    HW1 7949   3.104   0.570   5.549
 2350SOL    HW2 7950   3.196   0.509   5.669
 2351SOL     OW 7951   2.754   5.167   3.741
 2351SOL    HW1 7952   2.720   5.083   3.700
 2351SOL    HW2 7953   2.725   5.172   3.836
 2352SOL     OW 7954   6.337   4.242   3.807
 2352SOL    HW1 7955   6.293   4.301   3.876
 2352SOL    HW2 7956   6.269   4.180   3.768
 2353SOL     OW 7957   2.506   3.974   5.483
 2353SOL    HW1 7958   2.495   3.975   5.384
 2353SOL    HW2 7959   2.503   3.880   5.517
 2354SOL     OW 7960   3.393   2.529   0.064
 2354SOL    HW1 7961   3.336   2.611   0.060
 2354SOL    HW2 7962   3.465   2.542   0.133
 2355SOL     OW 7963   0.885   6.966   0.925
 2355SOL    HW1 7964   0.946   0.025   0.945
 2355SOL    HW2 7965   0.792   7.000   0.910
 2356SOL     OW 7966   2.069   4.753   2.059
 2356SOL    HW1 7967   1.985   4.794   2.094
 2356SOL    HW2 7968   2.115   4.702   2.132
 2357SOL     OW 7969   5.178   4.900   3.574
 2357SOL    HW1 7970   5.160   4.998   3.568
 2357SOL    HW2 7971   5.096   4.852   3.604
 2358SOL     OW 7972   2.902   0.017   3.850
 2358SOL    HW1 7973   2.933   0.046   3.760
 2358SOL    HW2 7974   2.840   0.085   3.888
 2359SOL     OW 7975   2.778   1.361   6.400
 2359SOL    HW1 7976   2.853   1.426   6.392
 2359SOL    HW2 7977   2.707   1.382   6.332
 2360SOL     OW 7978   3.836   4.823   6.770
 2360SOL    HW1 7979   3.778   4.792   6.695
 2360SOL    HW2 7980   3.923   4.775   6.767
 2361SOL     OW 7981   2.899   6.917   3.218
 2361SOL    HW1 7982   2.857   6.918   3.309
 2361SOL    HW2 7983   2.855   6.846   3.162
 2362SOL     OW 7984   4.673   5.917   5.264
 2362SOL    HW1 7985   4.639   6.009   5.282
 2362SOL    HW2 7986   4.767   5.924   5.230
 2363SOL     OW 7987   4.163   2.108   5.296
 2363SOL    HW1 7988   4.126   2.196   5.266
 2363SOL    HW2 7989   4.183   2.111   5.394
 2364SOL     OW 7990   5.672   1.968   1.707
 2364SOL    HW1 7991   5.629   1.953   1.795
 2364SOL    HW2 7992   5.644   2.057   1.670
 2365SOL     OW 7993   6.057   4.505   4.920
 2365SOL    HW1 7994   5.959   4.509   4.903
 2365SOL    HW2 7995   6.080   4.415   4.957
 2366SOL     OW 7996   1.748   4.170   5.202
 2366SOL    HW1 7997   1.768   4.137   5.110
 2366SOL    HW2 7998   1.834   4.178   5.254
 2367SOL     OW 7999   0.762   3.435   5.564
 2367SOL    HW1 8000   0.665   3.439   5.538
 2367SOL    HW2 8001   0.800   3.527   5.563
 2368SOL     OW 8002   4.334   1.432   4.900
 2368SOL    HW1 8003   4.339   1.335   4.925
 2368SOL    HW2 8004   4.423   1.462   4.866
 2369SOL     OW 8005   3.258   1.909   3.491
 2369SOL    HW1 8006   3.238   2.007   3.495
 2369SOL    HW2 8007   3.251   1.870   3.583
 2370SOL     OW 8008   4.643   2.871   0.026
 2370SOL    HW1 8009   4.702   2.866   0.106
 2370SOL    HW2 8010   4.656   2.789   6.988
 2371SOL     OW 8011   1.037   6.647   2.761
 2371SOL    HW1 8012   1.136   6.633   2.770
 2371SOL    HW2 8013   0.989   6.580   2.818
 2372SOL     OW 8014   6.754   0.792   6.410
 2372SOL    HW1 8015   6.708   0.880   6.411
 2372SOL    HW2 8016   6.848   0.803   6.443
 2373SOL     OW 8017   5.987   0.799   6.710
 2373SOL    HW1 8018   6.013   0.830   6.801
 2373SOL    HW2 8019   6.070   0.776   6.658
 2374SOL     OW 8020   5.782   5.587   2.769
 2374SOL    HW1 8021   5.818   5.493   2.770
 2374SOL    HW2 8022   5.688   5.586   2.737
 2375SOL     OW 8023   0.657   0.355   3.777
 2375SOL    HW1 8024   0.677   0.339   3.680
 2375SOL    HW2 8025   0.561   0.336   3.795
 2376SOL     OW 8026   6.579   2.577   3.590
 2376SOL    HW1 8027   6.578   2.676   3.579
 2376SOL    HW2 8028   6.628   2.554   3.675
 2377SOL     OW 8029   3.230   4.180   6.231
 2377SOL    HW1 8030   3.235   4.277   6.254
 2377SOL    HW2 8031   3.135   4.151   6.229
 2378SOL     OW 8032   5.756   2.257   0.216
 2378SOL    HW1 8033   5.756   2.317   0.135
 2378SOL    HW2 8034   5.687   2.186   0.203
 2379SOL     OW 8035   0.045   4.553   0.054
 2379SOL    HW1 8036   0.109   4.499   7.017
 2379SOL    HW2 8037   6.977   4.503   0.062
 2380SOL     OW 8038   6.115   1.648   5.196
 2380SOL    HW1 8039   6.096   1.557   5.234
 2380SOL    HW2 8040   6.036   1.707   5.212
 2381SOL     OW 8041   2.331   4.925   4.796
 2381SOL    HW1 8042   2.405   4.902   4.734
 2381SOL    HW2 8043   2.353   4.892   4.888
 2382SOL     OW 8044   1.584   6.333   2.874
 2382SOL    HW1 8045   1.656   6.396   2.846
 2382SOL    HW2 8046   1.605   6.295   2.964
 2383SOL     OW 8047   5.213   5.292   5.628
 2383SOL    HW1 8048   5.113   5.287   5.635
 2383SOL    HW2 8049   5.239   5.354   5.555
 2384SOL     OW 8050   1.213   1.878   1.463
 2384SOL    HW1 8051   1.189   1.798   1.518
 2384SOL    HW2 8052   1.131   1.933   1.447
 2385SOL     OW 8053   0.925   1.687   0.294
 2385SOL    HW1 8054   0.920   1.693   0.394
 2385SOL    HW2 8055   0.853   1.743   0.253
 2386SOL     OW 8056   3.464   4.985   5.033
 2386SOL    HW1 8057   3.430   4.897   5.067
 2386SOL    HW2 8058   3.417   5.008   4.948
 2387SOL     OW 8059   6.952   3.249   4.024
 2387SOL    HW1 8060   6.875   3.189   4.002
 2387SOL    HW2 8061   6.958   3.261   4.123
 2388SOL     OW 8062   0.290   1.545   5.571
 2388SOL    HW1 8063   0.356   1.582   5.637
 2388SOL    HW2 8064   0.270   1.614   5.501
 2389SOL     OW 8065   4.991   4.537   4.151
 2389SOL    HW1 8066   4.973   4.529   4.053
 2389SOL    HW2 8067   5.084   4.505   4.171
 2390SOL     OW 8068   3.942   3.488   5.013
 2390SOL    HW1 8069   3.958   3.393   4.988
 2390SOL    HW2 8070   3.844   3.508   5.007
 2391SOL     OW 8071   3.787   3.612   6.205
 2391SOL    HW1 8072   3.781   3.699   6.253
 2391SOL    HW2 8073   3.883   3.587   6.193
 2392SOL     OW 8074   2.975   4.165   6.696
 2392SOL    HW1 8075   3.072   4.189   6.686
 2392SOL    HW2 8076   2.928   4.236   6.748
 2393SOL     OW 8077   3.923   5.678   1.525
 2393SOL    HW1 8078   3.963   5.596   1.485
 2393SOL    HW2 8079   3.995   5.745   1.542
 2394SOL     OW 8080   0.365   3.771   3.890
 2394SOL    HW1 8081   0.388   3.729   3.802
 2394SOL    HW2 8082   0.336   3.865   3.876
 2395SOL     OW 8083   0.011   3.137   0.106
 2395SOL    HW1 8084   0.023   3.212   0.172
 2395SOL    HW2 8085   6.936   3.139   0.069
 2396SOL     OW 8086   5.358   0.295   0.597
 2396SOL    HW1 8087   5.266   0.264   0.572
 2396SOL    HW2 8088   5.352   0.383   0.645
 2397SOL     OW 8089   0.003   4.652   6.462
 2397SOL    HW1 8090   6.940   4.670   6.518
 2397SOL    HW2 8091   0.081   4.704   6.497
 2398SOL     OW 8092   2.953   5.243   4.616
 2398SOL    HW1 8093   2.884   5.259   4.686
 2398SOL    HW2 8094   3.029   5.307   4.629
 2399SOL     OW 8095   4.067   2.191   3.859
 2399SOL    HW1 8096   3.971   2.180   3.887
 2399SOL    HW2 8097   4.073   2.180   3.759
 2400SOL     OW 8098   1.808   3.321   0.319
 2400SOL    HW1 8099   1.758   3.286   0.239
 2400SOL    HW2 8100   1.776   3.275   0.401
 2401SOL     OW 8101   3.510   0.230   3.800
 2401SOL    HW1 8102   3.522   0.304   3.866
 2401SOL    HW2 8103   3.583   0.232   3.733
 2402SOL     OW 8104   6.714   1.848   3.548
 2402SOL    HW1 8105   6.787   1.787   3.516
 2402SOL    HW2 8106   6.639   1.794   3.585
 2403SOL     OW 8107   3.965   3.872   0.987
 2403SOL    HW1 8108   3.909   3.883   1.069
 2403SOL    HW2 8109   3.912   3.897   0.907
 2404SOL     OW 8110   5.833   1.890   1.473
 2404SOL    HW1 8111   5.895   1.819   1.506
 2404SOL    HW2 8112   5.781   1.928   1.550
 2405SOL     OW 8113   2.902   4.909   5.690
 2405SOL    HW1 8114   2.923   4.827   5.743
 2405SOL    HW2 8115   2.926   4.894   5.594
 2406SOL     OW 8116   2.336   6.901   3.952
 2406SOL    HW1 8117   2.327   6.989   3.905
 2406SOL    HW2 8118   2.432   6.879   3.965
 2407SOL     OW 8119   4.575   2.341   2.987
 2407SOL    HW1 8120   4.628   2.259   2.963
 2407SOL    HW2 8121   4.610   2.419   2.935
 2408SOL     OW 8122   2.535   5.674   2.779
 2408SOL    HW1 8123   2.459   5.612   2.759
 2408SOL    HW2 8124   2.557   5.728   2.698
 2409SOL     OW 8125   2.528   3.066   0.844
 2409SOL    HW1 8126   2.596   3.041   0.914
 2409SOL    HW2 8127   2.575   3.086   0.758
 2410SOL     OW 8128   6.474   3.189   5.909
 2410SOL    HW1 8129   6.506   3.251   5.837
 2410SOL    HW2 8130   6.543   3.120   5.927
 2411SOL     OW 8131   2.755   3.889   5.925
 2411SOL    HW1 8132   2.671   3.883   5.872
 2411SOL    HW2 8133   2.831   3.917   5.866
 2412SOL     OW 8134   2.328   2.927   0.587
 2412SOL    HW1 8135   2.261   2.999   0.566
 2412SOL    HW2 8136   2.388   2.913   0.508
 2413SOL     OW 8137   5.973   3.613   6.647
 2413SOL    HW1 8138   6.003   3.696   6.693
 2413SOL    HW2 8139   5.919   3.558   6.709
 2414SOL     OW 8140   5.795   2.711   3.459
 2414SOL    HW1 8141   5.721   2.657   3.500
 2414SOL    HW2 8142   5.883   2.677   3.493
 2415SOL     OW 8143   2.459   0.257   1.244
 2415SOL    HW1 8144   2.545   0.208   1.257
 2415SOL    HW2 8145   2.405   0.213   1.172
 2416SOL     OW 8146   1.359   3.025   3.475
 2416SOL    HW1 8147   1.371   3.053   3.570
 2416SOL    HW2 8148   1.449   3.010   3.433
 2417SOL     OW 8149   4.336   1.851   6.919
 2417SOL    HW1 8150   4.422   1.819   6.958
 2417SOL    HW2 8151   4.259   1.805   6.965
 2418SOL     OW 8152   3.981   3.908   4.974
 2418SOL    HW1 8153   3.912   3.876   5.039
 2418SOL    HW2 8154   4.018   3.996   5.004
 2419SOL     OW 8155   1.958   6.656   4.893
 2419SOL    HW1 8156   1.998   6.732   4.944
 2419SOL    HW2 8157   1.869   6.684   4.856
 2420SOL     OW 8158   3.331   5.625   1.849
 2420SOL    HW1 8159   3.390   5.611   1.928
 2420SOL    HW2 8160   3.264   5.697   1.870
 2421SOL     OW 8161   4.210   6.800   4.220
 2421SOL    HW1 8162   4.120   6.788   4.177
 2421SOL    HW2 8163   4.215   6.890   4.262
 2422SOL     OW 8164   4.021   6.978   1.006
 2422SOL    HW1 8165   3.951   6.924   1.053
 2422SOL    HW2 8166   4.016   6.961   0.907
 2423SOL     OW 8167   1.670   5.539   1.191
 2423SOL    HW1 8168   1.683   5.548   1.092
 2423SOL    HW2 8169   1.624   5.453   1.211
 2424SOL     OW 8170   5.853   6.743   6.670
 2424SOL    HW1 8171   5.829   6.684   6.593
 2424SOL    HW2 8172   5.777   6.806   6.689
 2425SOL     OW 8173   4.894   5.927   5.498
 2425SOL    HW1 8174   4.881   5.933   5.399
 2425SOL    HW2 8175   4.805   5.933   5.544
 2426SOL     OW 8176   1.032   4.941   4.559
 2426SOL    HW1 8177   0.938   4.940   4.525
 2426SOL    HW2 8178   1.078   5.025   4.528
 2427SOL     OW 8179   5.161   5.709   6.837
 2427SOL    HW1 8180   5.182   5.626   6.887
 2427SOL    HW2 8181   5.142   5.783   6.901
 2428SOL     OW 8182   0.208   0.411   2.594
 2428SOL    HW1 8183   0.116   0.392   2.626
 2428SOL    HW2 8184   0.207   0.426   2.495
 2429SOL     OW 8185   5.773   4.537   2.582
 2429SOL    HW1 8186   5.862   4.522   2.623
 2429SOL    HW2 8187   5.723   4.451   2.578
 2430SOL     OW 8188   5.262   1.900   0.330
 2430SOL    HW1 8189   5.332   1.837   0.298
 2430SOL    HW2 8190   5.282   1.992   0.296
 2431SOL     OW 8191   5.142   1.454   1.182
 2431SOL    HW1 8192   5.140   1.536   1.239
 2431SOL    HW2 8193   5.173   1.376   1.237
 2432SOL     OW 8194   3.229   6.493   1.648
 2432SOL    HW1 8195   3.317   6.448   1.663
 2432SOL    HW2 8196   3.164   6.463   1.719
 2433SOL     OW 8197   0.899   6.670   0.363
 2433SOL    HW1 8198   0.902   6.756   0.312
 2433SOL    HW2 8199   0.848   6.683   0.447
 2434SOL     OW 8200   5.227   1.788   2.693
 2434SOL    HW1 8201   5.194   1.746   2.778
 2434SOL    HW2 8202   5.320   1.755   2.674
 2435SOL     OW 8203   5.794   5.607   6.926
 2435SOL    HW1 8204   5.715   5.629   6.984
 2435SOL    HW2 8205   5.845   5.531   6.966
 2436SOL     OW 8206   1.674   0.398   1.108
 2436SOL    HW1 8207   1.604   0.342   1.153
 2436SOL    HW2 8208   1.735   0.338   1.056
 2437SOL     OW 8209   5.523   6.418   1.056
 2437SOL    HW1 8210   5.428   6.419   1.089
 2437SOL    HW2 8211   5.542   6.330   1.014
 2438SOL     OW 8212   4.388   1.589   4.497
 2438SOL    HW1 8213   4.364   1.655   4.568
 2438SOL    HW2 8214   4.469   1.537   4.525
 2439SOL     OW 8215   0.064   5.034   0.419
 2439SOL    HW1 8216   0.164   5.024   0.415
 2439SOL    HW2 8217   0.031   5.077   0.335
 2440SOL     OW 8218   3.608   6.586   6.091
 2440SOL    HW1 8219   3.517   6.571   6.131
 2440SOL    HW2 8220   3.599   6.648   6.013
 2441SOL     OW 8221   5.908   1.301   0.126
 2441SOL    HW1 8222   5.884   1.204   0.121
 2441SOL    HW2 8223   5.865   1.343   0.206
 2442SOL     OW 8224   5.755   4.966   2.884
 2442SOL    HW1 8225   5.809   5.004   2.960
 2442SOL    HW2 8226   5.687   5.034   2.855
 2443SOL     OW 8227   2.768   0.851   0.166
 2443SOL    HW1 8228   2.682   0.883   0.207
 2443SOL    HW2 8229   2.805   0.922   0.106
 2444SOL     OW 8230   4.189   5.082   6.970
 2444SOL    HW1 8231   4.228   4.993   6.994
 2444SOL    HW2 8232   4.192   5.141   0.033
 2445SOL     OW 8233   5.752   1.219   1.736
 2445SOL    HW1 8234   5.653   1.233   1.734
 2445SOL    HW2 8235   5.798   1.303   1.710
 2446SOL     OW 8236   1.191   2.742   3.496
 2446SOL    HW1 8237   1.227   2.812   3.559
 2446SOL    HW2 8238   1.094   2.759   3.480
 2447SOL     OW 8239   2.554   1.017   1.042
 2447SOL    HW1 8240   2.505   1.068   0.972
 2447SOL    HW2 8241   2.624   0.960   1.000
 2448SOL     OW 8242   5.941   1.819   4.193
 2448SOL    HW1 8243   5.848   1.839   4.226
 2448SOL    HW2 8244   5.938   1.800   4.095
 2449SOL     OW 8245   1.653   3.301   1.156
 2449SOL    HW1 8246   1.652   3.339   1.063
 2449SOL    HW2 8247   1.744   3.314   1.196
 2450SOL     OW 8248   2.843   5.442   6.184
 2450SOL    HW1 8249   2.761   5.406   6.140
 2450SOL    HW2 8250   2.852   5.403   6.276
 2451SOL     OW 8251   1.339   0.348   3.359
 2451SOL    HW1 8252   1.399   0.381   3.433
 2451SOL    HW2 8253   1.244   0.367   3.382
 2452SOL     OW 8254   2.906   1.805   4.029
 2452SOL    HW1 8255   2.843   1.734   4.059
 2452SOL    HW2 8256   2.969   1.828   4.104
 2453SOL     OW 8257   0.526   3.328   0.621
 2453SOL    HW1 8258   0.555   3.296   0.531
 2453SOL    HW2 8259   0.515   3.427   0.620
 2454SOL     OW 8260   3.067   6.361   0.096
 2454SOL    HW1 8261   2.969   6.349   0.079
 2454SOL    HW2 8262   3.100   6.442   0.046
 2455SOL     OW 8263   4.407   1.028   0.505
 2455SOL    HW1 8264   4.499   1.030   0.542
 2455SOL    HW2 8265   4.354   0.955   0.549
 2456SOL     OW 8266   0.263   2.535   6.832
 2456SOL    HW1 8267   0.254   2.603   6.905
 2456SOL    HW2 8268   0.295   2.579   6.749
 2457SOL     OW 8269   6.441   1.038   6.282
 2457SOL    HW1 8270   6.386   1.115   6.315
 2457SOL    HW2 8271   6.474   1.057   6.190
 2458SOL     OW 8272   1.535   6.308   3.774
 2458SOL    HW1 8273   1.556   6.241   3.845
 2458SOL    HW2 8274   1.612   6.315   3.711
 2459SOL     OW 8275   2.660   6.731   5.513
 2459SOL    HW1 8276   2.690   6.727   5.608
 2459SOL    HW2 8277   2.674   6.641   5.470
 2460SOL     OW 8278   1.465   1.034   0.504
 2460SOL    HW1 8279   1.472   0.996   0.596
 2460SOL    HW2 8280   1.548   1.013   0.452
 2461SOL     OW 8281   4.861   0.788   4.179
 2461SOL    HW1 8282   4.942   0.750   4.224
 2461SOL    HW2 8283   4.783   0.781   4.241
 2462SOL     OW 8284   2.200   4.783   6.793
 2462SOL    HW1 8285   2.274   4.848   6.811
 2462SOL    HW2 8286   2.136   4.784   6.870
 2463SOL     OW 8287   5.792   1.932   6.922
 2463SOL    HW1 8288   5.877   1.881   6.909
 2463SOL    HW2 8289   5.794   1.978   7.011
 2464SOL     OW 8290   2.119   3.409   2.925
 2464SOL    HW1 8291   2.127   3.408   3.025
 2464SOL    HW2 8292   2.194   3.356   2.885
 2465SOL     OW 8293   0.625   6.805   6.539
 2465SOL    HW1 8294   0.689   6.728   6.531
 2465SOL    HW2 8295   0.597   6.815   6.635
 2466SOL     OW 8296   2.265   1.631   2.776
 2466SOL    HW1 8297   2.196   1.648   2.846
 2466SOL    HW2 8298   2.257   1.700   2.704
 2467SOL     OW 8299   5.077   1.820   5.352
 2467SOL    HW1 8300   5.118   1.885   5.288
 2467SOL    HW2 8301   4.978   1.835   5.355
 2468SOL     OW 8302   4.130   6.974   1.277
 2468SOL    HW1 8303   4.091   6.896   1.326
 2468SOL    HW2 8304   4.104   6.968   1.181
 2469SOL     OW 8305   3.928   3.368   4.551
 2469SOL    HW1 8306   3.991   3.442   4.573
 2469SOL    HW2 8307   3.857   3.362   4.621
 2470SOL     OW 8308   3.968   4.608   5.694
 2470SOL    HW1 8309   3.885   4.554   5.710
 2470SOL    HW2 8310   3.998   4.598   5.600
 2471SOL     OW 8311   3.275   6.047   0.222
 2471SOL    HW1 8312   3.240   6.132   0.262
 2471SOL    HW2 8313   3.370   6.034   0.249
 2472SOL     OW 8314   4.988   2.391   3.098
 2472SOL    HW1 8315   5.061   2.359   3.038
 2472SOL    HW2 8316   4.928   2.453   3.047
 2473SOL     OW 8317   1.057   3.823   4.730
 2473SOL    HW1 8318   1.057   3.746   4.666
 2473SOL    HW2 8319   0.965   3.863   4.733
 2474SOL     OW 8320   0.069   5.882   1.386
 2474SOL    HW1 8321   0.129   5.804   1.399
 2474SOL    HW2 8322   0.050   5.925   1.475
 2475SOL     OW 8323   4.215   0.997   2.705
 2475SOL    HW1 8324   4.142   1.008   2.772
 2475SOL    HW2 8325   4.177   0.967   2.618
 2476SOL     OW 8326   6.015   1.376   2.533
 2476SOL    HW1 8327   6.029   1.285   2.494
 2476SOL    HW2 8328   5.990   1.367   2.629
 2477SOL     OW 8329   4.072   1.295   3.006
 2477SOL    HW1 8330   4.149   1.346   3.044
 2477SOL    HW2 8331   4.022   1.250   3.081
 2478SOL     OW 8332   6.388   1.644   1.391
 2478SOL    HW1 8333   6.400   1.559   1.340
 2478SOL    HW2 8334   6.310   1.635   1.452
 2479SOL     OW 8335   1.053   2.696   2.639
 2479SOL    HW1 8336   1.061   2.648   2.726
 2479SOL    HW2 8337   1.125   2.664   2.577
 2480SOL     OW 8338   4.796   4.184   0.922
 2480SOL    HW1 8339   4.698   4.168   0.911
 2480SOL    HW2 8340   4.845   4.097   0.926
 2481SOL     OW 8341   4.138   6.538   0.558
 2481SOL    HW1 8342   4.127   6.518   0.655
 2481SOL    HW2 8343   4.128   6.453   0.505
 2482SOL     OW 8344   5.420   3.573   5.626
 2482SOL    HW1 8345   5.433   3.642   5.698
 2482SOL    HW2 8346   5.407   3.483   5.668
 2483SOL     OW 8347   1.840   1.753   0.497
 2483SOL    HW1 8348   1.892   1.783   0.577
 2483SOL    HW2 8349   1.895   1.768   0.414
 2484SOL     OW 8350   3.839   0.644   6.868
 2484SOL    HW1 8351   3.853   0.545   6.867
 2484SOL    HW2 8352   3.807   0.673   6.958
 2485SOL     OW 8353   5.690   3.723   1.444
 2485SOL    HW1 8354   5.617   3.770   1.494
 2485SOL    HW2 8355   5.658   3.699   1.353
 2486SOL     OW 8356   1.945   4.634   5.047
 2486SOL    HW1 8357   1.878   4.594   4.985
 2486SOL    HW2 8358   2.020   4.673   4.994
 2487SOL     OW 8359   4.413   6.168   0.139
 2487SOL    HW1 8360   4.348   6.244   0.138
 2487SOL    HW2 8361   4.377   6.094   0.196
 2488SOL     OW 8362   1.121   4.553   2.225
 2488SOL    HW1 8363   1.092   4.591   2.313
 2488SOL    HW2 8364   1.205   4.499   2.238
 2489SOL     OW 8365   1.129   6.803   4.093
 2489SOL    HW1 8366   1.125   6.809   3.994
 2489SOL    HW2 8367   1.105   6.892   4.133
 2490SOL     OW 8368   6.972   5.518   1.298
 2490SOL    HW1 8369   6.973   5.577   1.217
 2490SOL    HW2 8370   6.891   5.539   1.353
 2491SOL     OW 8371   2.453   4.552   0.208
 2491SOL    HW1 8372   2.397   4.482   0.253
 2491SOL    HW2 8373   2.394   4.624   0.173
 2492SOL     OW 8374   4.764   3.475   0.859
 2492SOL    HW1 8375   4.806   3.544   0.917
 2492SOL    HW2 8376   4.804   3.386   0.880
 2493SOL     OW 8377   5.453   0.170   2.241
 2493SOL    HW1 8378   5.437   0.175   2.340
 2493SOL    HW2 8379   5.519   0.098   2.222
 2494SOL     OW 8380   5.204   4.656   2.575
 2494SOL    HW1 8381   5.301   4.642   2.555
 2494SOL    HW2 8382   5.186   4.625   2.669
 2495SOL     OW 8383   4.911   6.770   4.335
 2495SOL    HW1 8384   4.890   6.868   4.343
 2495SOL    HW2 8385   4.993   6.757   4.279
 2496SOL     OW 8386   6.952   2.541   5.885
 2496SOL    HW1 8387   6.963   2.600   5.965
 2496SOL    HW2 8388   7.017   2.466   5.890
 2497SOL     OW 8389   0.422   0.534   0.487
 2497SOL    HW1 8390   0.362   0.462   0.452
 2497SOL    HW2 8391   0.454   0.509   0.578
 2498SOL     OW 8392   2.808   1.972   4.352
 2498SOL    HW1 8393   2.811   1.992   4.450
 2498SOL    HW2 8394   2.887   1.917   4.326
 2499SOL     OW 8395   6.182   2.285   1.989
 2499SOL    HW1 8396   6.152   2.201   1.944
 2499SOL    HW2 8397   6.123   2.361   1.960
 2500SOL     OW 8398   4.261   4.361   6.785
 2500SOL    HW1 8399   4.193   4.338   6.854
 2500SOL    HW2 8400   4.219   4.418   6.715
 2501SOL     OW 8401   5.859   5.029   0.282
 2501SOL    HW1 8402   5.867   4.962   0.355
 2501SOL    HW2 8403   5.768   5.022   0.241
 2502SOL     OW 8404   1.060   0.230   3.378
 2502SOL    HW1 8405   1.133   0.163   3.365
 2502SOL    HW2 8406   0.976   0.184   3.406
 2503SOL     OW 8407   2.548   5.937   4.690
 2503SOL    HW1 8408   2.603   5.951   4.772
 2503SOL    HW2 8409   2.478   6.009   4.684
 2504SOL     OW 8410   3.617   5.431   4.747
 2504SOL    HW1 8411   3.608   5.431   4.648
 2504SOL    HW2 8412   3.537   5.389   4.789
 2505SOL     OW 8413   0.607   6.444   3.410
 2505SOL    HW1 8414   0.579   6.498   3.489
 2505SOL    HW2 8415   0.689   6.485   3.368
 2506SOL     OW 8416   5.951   3.812   5.992
 2506SOL    HW1 8417   5.869   3.755   5.985
 2506SOL    HW2 8418   5.930   3.896   6.041
 2507SOL     OW 8419   6.829   3.718   0.770
 2507SOL    HW1 8420   6.774   3.795   0.802
 2507SOL    HW2 8421   6.886   3.685   0.846
 2508SOL     OW 8422   2.648   1.683   3.510
 2508SOL    HW1 8423   2.736   1.718   3.542
 2508SOL    HW2 8424   2.664   1.615   3.439
 2509SOL     OW 8425   6.876   3.479   1.114
 2509SOL    HW1 8426   6.918   3.545   1.176
 2509SOL    HW2 8427   6.935   3.467   1.033
 2510SOL     OW 8428   2.718   4.762   1.430
 2510SOL    HW1 8429   2.765   4.689   1.380
 2510SOL    HW2 8430   2.786   4.823   1.470
 2511SOL     OW 8431   4.092   2.193   4.755
 2511SOL    HW1 8432   4.017   2.197   4.689
 2511SOL    HW2 8433   4.105   2.099   4.784
 2512SOL     OW 8434   5.116   3.961   5.116
 2512SOL    HW1 8435   5.135   3.868   5.148
 2512SOL    HW2 8436   5.083   4.016   5.193
 2513SOL     OW 8437   1.982   4.207   5.342
 2513SOL    HW1 8438   2.077   4.175   5.334
 2513SOL    HW2 8439   1.950   4.189   5.436
 2514SOL     OW 8440   6.689   3.118   4.877
 2514SOL    HW1 8441   6.703   3.215   4.900
 2514SOL    HW2 8442   6.623   3.111   4.802
 2515SOL     OW 8443   1.767   6.953   0.643
 2515SOL    HW1 8444   1.817   7.011   0.578
 2515SOL    HW2 8445   1.726   6.876   0.594
 2516SOL     OW 8446   6.018   1.909   2.435
 2516SOL    HW1 8447   5.943   1.843   2.426
 2516SOL    HW2 8448   6.071   1.909   2.350
 2517SOL     OW 8449   1.361   6.448   5.619
 2517SOL    HW1 8450   1.454   6.425   5.589
 2517SOL    HW2 8451   1.348   6.548   5.613
 2518SOL     OW 8452   1.280   4.559   6.818
 2518SOL    HW1 8453   1.211   4.551   6.890
 2518SOL    HW2 8454   1.351   4.624   6.847
 2519SOL     OW 8455   3.929   6.402   2.926
 2519SOL    HW1 8456   4.011   6.424   2.979
 2519SOL    HW2 8457   3.956   6.377   2.832
 2520SOL     OW 8458   3.010   1.821   0.254
 2520SOL    HW1 8459   2.941   1.890   0.275
 2520SOL    HW2 8460   2.981   1.767   0.175
 2521SOL     OW 8461   1.902   1.011   5.456
 2521SOL    HW1 8462   1.829   1.078   5.448
 2521SOL    HW2 8463   1.987   1.050   5.420
 2522SOL     OW 8464   0.436   2.957   5.038
 2522SOL    HW1 8465   0.371   3.031   5.017
 2522SOL    HW2 8466   0.417   2.878   4.980
 2523SOL     OW 8467   0.315   3.103   1.515
 2523SOL    HW1 8468   0.239   3.048   1.549
 2523SOL    HW2 8469   0.355   3.059   1.434
 2524SOL     OW 8470   0.890   6.007   4.570
 2524SOL    HW1 8471   0.979   6.048   4.549
 2524SOL    HW2 8472   0.895   5.908   4.556
 2525SOL     OW 8473   1.155   2.683   5.919
 2525SOL    HW1 8474   1.149   2.627   6.001
 2525SOL    HW2 8475   1.244   2.729   5.916
 2526SOL     OW 8476   0.898   4.625   6.545
 2526SOL    HW1 8477   0.931   4.532   6.563
 2526SOL    HW2 8478   0.880   4.635   6.447
 2527SOL     OW 8479   5.345   5.668   4.882
 2527SOL    HW1 8480   5.400   5.743   4.848
 2527SOL    HW2 8481   5.337   5.597   4.812
 2528SOL     OW 8482   5.807   4.453   0.445
 2528SOL    HW1 8483   5.888   4.471   0.389
 2528SOL    HW2 8484   5.738   4.405   0.390
 2529SOL     OW 8485   6.353   6.354   6.458
 2529SOL    HW1 8486   6.333   6.287   6.530
 2529SOL    HW2 8487   6.434   6.325   6.407
 2530SOL     OW 8488   2.526   6.418   5.464
 2530SOL    HW1 8489   2.518   6.443   5.368
 2530SOL    HW2 8490   2.574   6.331   5.472
 2531SOL     OW 8491   5.170   6.229   4.085
 2531SOL    HW1 8492   5.235   6.163   4.048
 2531SOL    HW2 8493   5.080   6.187   4.093
 2532SOL     OW 8494   0.378   6.048   0.652
 2532SOL    HW1 8495   0.432   5.967   0.675
 2532SOL    HW2 8496   0.393   6.071   0.556
 2533SOL     OW 8497   3.156   6.546   3.956
 2533SOL    HW1 8498   3.185   6.507   4.043
 2533SOL    HW2 8499   3.063   6.581   3.964
 2534SOL     OW 8500   3.592   1.001   3.297
 2534SOL    HW1 8501   3.525   0.960   3.235
 2534SOL    HW2 8502   3.598   1.100   3.279
 2535SOL     OW 8503   3.622   2.376   5.447
 2535SOL    HW1 8504   3.600   2.284   5.416
 2535SOL    HW2 8505   3.612   2.440   5.370
 2536SOL     OW 8506   1.181   2.044   5.066
 2536SOL    HW1 8507   1.121   1.967   5.043
 2536SOL    HW2 8508   1.144   2.093   5.145
 2537SOL     OW 8509   3.915   0.192   6.658
 2537SOL    HW1 8510   3.961   0.132   6.724
 2537SOL    HW2 8511   3.871   0.137   6.587
 2538SOL     OW 8512   0.909   4.214   3.924
 2538SOL    HW1 8513   0.906   4.215   4.024
 2538SOL    HW2 8514   0.876   4.301   3.888
 2539SOL     OW 8515   5.323   1.163   4.989
 2539SOL    HW1 8516   5.414   1.203   4.990
 2539SOL    HW2 8517   5.277   1.182   5.076
 2540SOL     OW 8518   4.239   1.924   2.873
 2540SOL    HW1 8519   4.248   1.899   2.777
 2540SOL    HW2 8520   4.212   2.020   2.881
 2541SOL     OW 8521   2.533   0.094   5.419
 2541SOL    HW1 8522   2.513   0.000   5.448
 2541SOL    HW2 8523   2.451   0.150   5.428
 2542SOL     OW 8524   3.605   1.155   6.515
 2542SOL    HW1 8525   3.620   1.091   6.439
 2542SOL    HW2 8526   3.544   1.229   6.485
 2543SOL     OW 8527   1.553   1.340   3.342
 2543SOL    HW1 8528   1.632   1.298   3.298
 2543SOL    HW2 8529   1.583   1.407   3.410
 2544SOL     OW 8530   0.566   6.360   1.813
 2544SOL    HW1 8531   0.658   6.399   1.808
 2544SOL    HW2 8532   0.548   6.308   1.730
 2545SOL     OW 8533   1.353   6.772   1.620
 2545SOL    HW1 8534   1.274   6.812   1.666
 2545SOL    HW2 8535   1.341   6.780   1.521
 2546SOL     OW 8536   0.309   1.688   1.544
 2546SOL    HW1 8537   0.405   1.667   1.529
 2546SOL    HW2 8538   0.287   1.679   1.641
 2547SOL     OW 8539   6.164   5.427   0.496
 2547SOL    HW1 8540   6.140   5.484   0.574
 2547SOL    HW2 8541   6.117   5.339   0.503
 2548SOL     OW 8542   1.427   6.654   5.988
 2548SOL    HW1 8543   1.521   6.658   5.955
 2548SOL    HW2 8544   1.417   6.711   6.069
 2549SOL     OW 8545   2.243   0.889   0.710
 2549SOL    HW1 8546   2.159   0.837   0.722
 2549SOL    HW2 8547   2.221   0.983   0.685
 2550SOL     OW 8548   0.114   0.212   6.505
 2550SOL    HW1 8549   0.134   0.232   6.409
 2550SOL    HW2 8550   0.019   0.184   6.515
 2551SOL     OW 8551   3.274   5.314   0.276
 2551SOL    HW1 8552   3.323   5.330   0.362
 2551SOL    HW2 8553   3.293   5.221   0.243
 2552SOL     OW 8554   2.159   5.712   5.464
 2552SOL    HW1 8555   2.090   5.783   5.479
 2552SOL    HW2 8556   2.242   5.754   5.427
 2553SOL     OW 8557   4.991   3.153   5.187
 2553SOL    HW1 8558   4.949   3.242   5.206
 2553SOL    HW2 8559   5.089   3.159   5.201
 2554SOL     OW 8560   2.144   6.548   0.577
 2554SOL    HW1 8561   2.152   6.566   0.675
 2554SOL    HW2 8562   2.056   6.583   0.544
 2555SOL     OW 8563   6.022   6.635   5.509
 2555SOL    HW1 8564   6.031   6.565   5.580
 2555SOL    HW2 8565   5.926   6.642   5.482
 2556SOL     OW 8566   4.030   5.716   0.939
 2556SOL    HW1 8567   3.975   5.694   0.858
 2556SOL    HW2 8568   3.980   5.782   0.995
 2557SOL     OW 8569   2.493   3.726   6.717
 2557SOL    HW1 8570   2.395   3.734   6.735
 2557SOL    HW2 8571   2.525   3.636   6.748
 2558SOL     OW 8572   5.256   1.932   4.449
 2558SOL    HW1 8573   5.183   1.953   4.514
 2558SOL    HW2 8574   5.224   1.952   4.356
 2559SOL     OW 8575   6.868   3.925   4.322
 2559SOL    HW1 8576   6.782   3.875   4.314
 2559SOL    HW2 8577   6.928   3.900   4.246
 2560SOL     OW 8578   5.820   3.678   4.381
 2560SOL    HW1 8579   5.820   3.698   4.479
 2560SOL    HW2 8580   5.734   3.633   4.356
 2561SOL     OW 8581   3.442   6.334   5.388
 2561SOL    HW1 8582   3.533   6.363   5.415
 2561SOL    HW2 8583   3.402   6.402   5.326
 2562SOL     OW 8584   1.705   5.236   2.385
 2562SOL    HW1 8585   1.777   5.180   2.343
 2562SOL    HW2 8586   1.616   5.195   2.366
 2563SOL     OW 8587   4.174   2.628   0.363
 2563SOL    HW1 8588   4.176   2.530   0.383
 2563SOL    HW2 8589   4.208   2.643   0.270
 2564SOL     OW 8590   2.198   6.376   5.917
 2564SOL    HW1 8591   2.261   6.299   5.922
 2564SOL    HW2 8592   2.178   6.397   5.821
 2565SOL     OW 8593   1.023   0.641   6.652
 2565SOL    HW1 8594   1.065   0.551   6.657
 2565SOL    HW2 8595   0.944   0.637   6.591
 2566SOL     OW 8596   3.240   6.776   0.490
 2566SOL    HW1 8597   3.259   6.862   0.539
 2566SOL    HW2 8598   3.168   6.726   0.538
 2567SOL     OW 8599   0.825   0.980   1.166
 2567SOL    HW1 8600   0.867   1.062   1.205
 2567SOL    HW2 8601   0.796   0.999   1.072
 2568SOL     OW 8602   4.565   6.836   0.463
 2568SOL    HW1 8603   4.473   6.798   0.468
 2568SOL    HW2 8604   4.605   6.818   0.373
 2569SOL     OW 8605   3.192   1.184   1.443
 2569SOL    HW1 8606   3.135   1.139   1.374
 2569SOL    HW2 8607   3.275   1.220   1.400
 2570SOL     OW 8608   5.480   0.417   6.314
 2570SOL    HW1 8609   5.546   0.420   6.240
 2570SOL    HW2 8610   5.414   0.344   6.298
 2571SOL     OW 8611   2.334   4.318   5.530
 2571SOL    HW1 8612   2.264   4.346   5.596
 2571SOL    HW2 8613   2.405   4.267   5.577
 2572SOL     OW 8614   2.343   4.981   6.905
 2572SOL    HW1 8615   2.305   5.069   6.932
 2572SOL    HW2 8616   2.443   4.985   6.909
 2573SOL     OW 8617   6.705   2.622   1.818
 2573SOL    HW1 8618   6.615   2.629   1.859
 2573SOL    HW2 8619   6.696   2.598   1.721
 2574SOL     OW 8620   6.499   3.698   0.181
 2574SOL    HW1 8621   6.490   3.687   0.082
 2574SOL    HW2 8622   6.476   3.792   0.206
 2575SOL     OW 8623   5.575   5.037   0.641
 2575SOL    HW1 8624   5.484   5.037   0.681
 2575SOL    HW2 8625   5.580   4.971   0.566
 2576SOL     OW 8626   3.617   6.583   4.568
 2576SOL    HW1 8627   3.532   6.593   4.516
 2576SOL    HW2 8628   3.612   6.640   4.650
 2577SOL     OW 8629   4.165   6.651   2.193
 2577SOL    HW1 8630   4.115   6.732   2.225
 2577SOL    HW2 8631   4.119   6.568   2.226
 2578SOL     OW 8632   4.895   1.349   4.449
 2578SOL    HW1 8633   4.916   1.437   4.491
 2578SOL    HW2 8634   4.950   1.278   4.493
 2579SOL     OW 8635   1.599   6.044   3.527
 2579SOL    HW1 8636   1.620   6.034   3.430
 2579SOL    HW2 8637   1.645   6.125   3.563
 2580SOL     OW 8638   3.159   3.460   6.305
 2580SOL    HW1 8639   3.248   3.507   6.305
 2580SOL    HW2 8640   3.106   3.490   6.226
 2581SOL     OW 8641   0.787   5.207   1.332
 2581SOL    HW1 8642   0.827   5.294   1.304
 2581SOL    HW2 8643   0.859   5.145   1.362
 2582SOL     OW 8644   0.625   4.185   2.069
 2582SOL    HW1 8645   0.701   4.207   2.007
 2582SOL    HW2 8646   0.570   4.112   2.029
 2583SOL     OW 8647   0.786   1.246   0.593
 2583SOL    HW1 8648   0.761   1.249   0.496
 2583SOL    HW2 8649   0.869   1.192   0.604
 2584SOL     OW 8650   4.371   5.427   6.332
 2584SOL    HW1 8651   4.398   5.497   6.398
 2584SOL    HW2 8652   4.283   5.452   6.292
 2585SOL     OW 8653   4.146   2.824   0.055
 2585SOL    HW1 8654   4.209   2.748   0.065
 2585SOL    HW2 8655   4.196   2.910   0.064
 2586SOL     OW 8656   3.598   1.299   3.235
 2586SOL    HW1 8657   3.539   1.313   3.315
 2586SOL    HW2 8658   3.602   1.384   3.182
 2587SOL     OW 8659   0.247   0.843   3.411
 2587SOL    HW1 8660   0.318   0.887   3.356
 2587SOL    HW2 8661   0.158   0.857   3.367
 2588SOL     OW 8662   4.668   0.833   6.865
 2588SOL    HW1 8663   4.612   0.915   6.853
 2588SOL    HW2 8664   4.713   0.811   6.778
 2589SOL     OW 8665   1.068   6.351   6.062
 2589SOL    HW1 8666   1.144   6.344   5.996
 2589SOL    HW2 8667   0.986   6.309   6.023
 2590SOL     OW 8668   3.598   5.809   1.075
 2590SOL    HW1 8669   3.508   5.767   1.089
 2590SOL    HW2 8670   3.654   5.793   1.156
 2591SOL     OW 8671   0.079   4.593   3.190
 2591SOL    HW1 8672   0.124   4.584   3.101
 2591SOL    HW2 8673   6.999   4.577   3.181
 2592SOL     OW 8674   3.567   5.678   0.079
 2592SOL    HW1 8675   3.550   5.775   0.092
 2592SOL    HW2 8676   3.631   5.664   0.004
 2593SOL     OW 8677   3.522   5.531   0.904
 2593SOL    HW1 8678   3.479   5.452   0.860
 2593SOL    HW2 8679   3.587   5.500   0.973
 2594SOL     OW 8680   2.305   4.405   6.487
 2594SOL    HW1 8681   2.227   4.449   6.531
 2594SOL    HW2 8682   2.294   4.305   6.492
 2595SOL     OW 8683   6.735   1.321   3.838
 2595SOL    HW1 8684   6.668   1.273   3.782
 2595SOL    HW2 8685   6.700   1.412   3.862
 2596SOL     OW 8686   3.265   1.748   1.629
 2596SOL    HW1 8687   3.213   1.668   1.659
 2596SOL    HW2 8688   3.326   1.777   1.703
 2597SOL     OW 8689   1.292   4.857   5.833
 2597SOL    HW1 8690   1.307   4.797   5.911
 2597SOL    HW2 8691   1.214   4.823   5.780
 2598SOL     OW 8692   6.962   1.281   3.204
 2598SOL    HW1 8693   6.960   1.378   3.231
 2598SOL    HW2 8694   7.008   1.228   3.276
 2599SOL     OW 8695   2.009   6.121   1.022
 2599SOL    HW1 8696   1.912   6.148   1.023
 2599SOL    HW2 8697   2.048   6.132   1.113
 2600SOL     OW 8698   5.462   3.024   4.704
 2600SOL    HW1 8699   5.497   3.108   4.746
 2600SOL    HW2 8700   5.377   3.045   4.655
 2601SOL     OW 8701   1.834   1.342   2.474
 2601SOL    HW1 8702   1.772   1.277   2.429
 2601SOL    HW2 8703   1.787   1.383   2.553
 2602SOL     OW 8704   1.255   4.733   5.031
 2602SOL    HW1 8705   1.303   4.785   5.103
 2602SOL    HW2 8706   1.238   4.793   4.953
 2603SOL     OW 8707   3.224   1.175   4.104
 2603SOL    HW1 8708   3.136   1.175   4.152
 2603SOL    HW2 8709   3.257   1.269   4.096
 2604SOL     OW 8710   4.886   1.955   2.351
 2604SOL    HW1 8711   4.961   2.017   2.325
 2604SOL    HW2 8712   4.807   2.009   2.379
 2605SOL     OW 8713   2.104   3.288   3.542
 2605SOL    HW1 8714   2.126   3.212   3.481
 2605SOL    HW2 8715   2.064   3.363   3.488
 2606SOL     OW 8716   5.586   5.147   1.597
 2606SOL    HW1 8717   5.664   5.197   1.635
 2606SOL    HW2 8718   5.536   5.103   1.672
 2607SOL     OW 8719   1.076   1.622   1.919
 2607SOL    HW1 8720   1.097   1.626   2.016
 2607SOL    HW2 8721   1.159   1.602   1.867
 2608SOL     OW 8722   4.673   4.690   0.264
 2608SOL    HW1 8723   4.763   4.697   0.220
 2608SOL    HW2 8724   4.683   4.648   0.354
 2609SOL     OW 8725   6.256   0.797   1.677
 2609SOL    HW1 8726   6.354   0.788   1.657
 2609SOL    HW2 8727   6.242   0.875   1.738
 2610SOL     OW 8728   0.750   4.618   4.713
 2610SOL    HW1 8729   0.843   4.655   4.706
 2610SOL    HW2 8730   0.738   4.575   4.802
 2611SOL     OW 8731   4.095   6.256   1.166
 2611SOL    HW1 8732   4.177   6.200   1.154
 2611SOL    HW2 8733   4.041   6.255   1.082
 2612SOL     OW 8734   6.117   6.884   4.665
 2612SOL    HW1 8735   6.158   6.909   4.578
 2612SOL    HW2 8736   6.025   6.848   4.650
 2613SOL     OW 8737   2.356   5.747   6.461
 2613SOL    HW1 8738   2.343   5.730   6.558
 2613SOL    HW2 8739   2.272   5.727   6.412
 2614SOL     OW 8740   6.405   1.994   0.255
 2614SOL    HW1 8741   6.417   1.896   0.269
 2614SOL    HW2 8742   6.460   2.024   0.177
 2615SOL     OW 8743   0.920   2.945   2.636
 2615SOL    HW1 8744   0.971   2.860   2.624
 2615SOL    HW2 8745   0.982   3.016   2.668
 2616SOL     OW 8746   2.834   2.844   5.697
 2616SOL    HW1 8747   2.735   2.857   5.700
 2616SOL    HW2 8748   2.866   2.854   5.602
 2617SOL     OW 8749   4.297   7.004   0.898
 2617SOL    HW1 8750   4.330   0.080   0.889
 2617SOL    HW2 8751   4.293   6.962   0.808
 2618SOL     OW 8752   6.768   0.452   3.342
 2618SOL    HW1 8753   6.668   0.445   3.340
 2618SOL    HW2 8754   6.806   0.402   3.263
 2619SOL     OW 8755   4.523   2.100   1.850
 2619SOL    HW1 8756   4.479   2.110   1.939
 2619SOL    HW2 8757   4.610   2.149   1.851
 2620SOL     OW 8758   6.289   6.285   3.756
 2620SOL    HW1 8759   6.226   6.225   3.805
 2620SOL    HW2 8760   6.382   6.252   3.769
 2621SOL     OW 8761   0.916   5.199   1.767
 2621SOL    HW1 8762   0.900   5.214   1.865
 2621SOL    HW2 8763   1.012   5.178   1.752
 2622SOL     OW 8764   1.053   3.827   5.764
 2622SOL    HW1 8765   1.123   3.828   5.835
 2622SOL    HW2 8766   1.090   3.866   5.680
 2623SOL     OW 8767   0.239   0.741   5.419
 2623SOL    HW1 8768   0.171   0.734   5.492
 2623SOL    HW2 8769   0.247   0.654   5.372
 2624SOL     OW 8770   0.471   1.190   4.856
 2624SOL    HW1 8771   0.379   1.186   4.817
 2624SOL    HW2 8772   0.539   1.190   4.783
 2625SOL     OW 8773   2.494   3.687   5.308
 2625SOL    HW1 8774   2.585   3.680   5.348
 2625SOL    HW2 8775   2.487   3.772   5.256
 2626SOL     OW 8776   0.036   0.407   6.144
 2626SOL    HW1 8777   6.959   0.390   6.173
 2626SOL    HW2 8778   0.045   0.501   6.111
 2627SOL     OW 8779   1.181   1.334   6.220
 2627SOL    HW1 8780   1.121   1.331   6.140
 2627SOL    HW2 8781   1.231   1.247   6.226
 2628SOL     OW 8782   2.173   3.720   5.600
 2628SOL    HW1 8783   2.143   3.664   5.677
 2628SOL    HW2 8784   2.123   3.692   5.518
 2629SOL     OW 8785   4.074   3.190   2.456
 2629SOL    HW1 8786   4.011   3.179   2.379
 2629SOL    HW2 8787   4.087   3.101   2.501
 2630SOL     OW 8788   3.406   1.707   2.963
 2630SOL    HW1 8789   3.479   1.758   2.916
 2630SOL    HW2 8790   3.345   1.771   3.009
 2631SOL     OW 8791   5.218   0.477   6.171
 2631SOL    HW1 8792   5.133   0.518   6.203
 2631SOL    HW2 8793   5.294   0.537   6.194
 2632SOL     OW 8794   5.002   2.927   0.659
 2632SOL    HW1 8795   4.928   2.875   0.616
 2632SOL    HW2 8796   5.048   2.982   0.589
 2633SOL     OW 8797   0.546   1.561   4.398
 2633SOL    HW1 8798   0.467   1.535   4.342
 2633SOL    HW2 8799   0.617   1.600   4.340
 2634SOL     OW 8800   0.592   5.258   3.792
 2634SOL    HW1 8801   0.508   5.232   3.744
 2634SOL    HW2 8802   0.670   5.212   3.749
 2635SOL     OW 8803   0.257   6.194   4.584
 2635SOL    HW1 8804   0.348   6.154   4.583
 2635SOL    HW2 8805   0.245   6.253   4.504
 2636SOL     OW 8806   4.197   0.151   5.603
 2636SOL    HW1 8807   4.142   0.124   5.524
 2636SOL    HW2 8808   4.266   0.218   5.574
 2637SOL     OW 8809   6.497   2.171   3.394
 2637SOL    HW1 8810   6.593   2.172   3.423
 2637SOL    HW2 8811   6.493   2.167   3.294
 2638SOL     OW 8812   6.953   6.987   4.133
 2638SOL    HW1 8813   6.918   6.911   4.078
 2638SOL    HW2 8814   0.028   6.968   4.162
 2639SOL     OW 8815   0.373   6.078   0.363
 2639SOL    HW1 8816   0.342   6.004   0.303
 2639SOL    HW2 8817   0.306   6.152   0.362
 2640SOL     OW 8818   6.603   6.328   5.367
 2640SOL    HW1 8819   6.554   6.404   5.324
 2640SOL    HW2 8820   6.557   6.303   5.452
 2641SOL     OW 8821   5.834   2.785   2.249
 2641SOL    HW1 8822   5.915   2.843   2.260
 2641SOL    HW2 8823   5.826   2.724   2.327
 2642SOL     OW 8824   6.079   0.716   3.742
 2642SOL    HW1 8825   6.173   0.741   3.722
 2642SOL    HW2 8826   6.049   0.758   3.827
 2643SOL     OW 8827   1.320   3.531   3.480
 2643SOL    HW1 8828   1.246   3.526   3.546
 2643SOL    HW2 8829   1.401   3.571   3.523
 2644SOL     OW 8830   5.087   5.462   4.552
 2644SOL    HW1 8831   5.114   5.540   4.496
 2644SOL    HW2 8832   4.994   5.476   4.586
 2645SOL     OW 8833   4.148   6.048   3.362
 2645SOL    HW1 8834   4.226   5.987   3.349
 2645SOL    HW2 8835   4.157   6.126   3.301
 2646SOL     OW 8836   6.359   1.702   6.870
 2646SOL    HW1 8837   6.316   1.744   6.950
 2646SOL    HW2 8838   6.374   1.771   6.799
 2647SOL     OW 8839   6.110   0.145   1.734
 2647SOL    HW1 8840   6.039   0.210   1.708
 2647SOL    HW2 8841   6.143   0.097   1.653
 2648SOL     OW 8842   0.739   6.667   4.221
 2648SOL    HW1 8843   0.644   6.677   4.252
 2648SOL    HW2 8844   0.790   6.750   4.244
 2649SOL     OW 8845   6.618   3.487   0.958
 2649SOL    HW1 8846   6.648   3.445   0.872
 2649SOL    HW2 8847   6.697   3.522   1.007
 2650SOL     OW 8848   1.957   4.763   3.346
 2650SOL    HW1 8849   2.047   4.804   3.363
 2650SOL    HW2 8850   1.926   4.715   3.428
 2651SOL     OW 8851   2.649   1.875   1.245
 2651SOL    HW1 8852   2.606   1.784   1.240
 2651SOL    HW2 8853   2.733   1.875   1.190
 2652SOL     OW 8854   4.376   3.172   5.434
 2652SOL    HW1 8855   4.296   3.228   5.410
 2652SOL    HW2 8856   4.459   3.218   5.403
 2653SOL     OW 8857   4.679   6.770   5.868
 2653SOL    HW1 8858   4.638   6.726   5.948
 2653SOL    HW2 8859   4.761   6.819   5.897
 2654SOL     OW 8860   4.241   6.920   1.688
 2654SOL    HW1 8861   4.333   6.929   1.724
 2654SOL    HW2 8862   4.217   7.002   1.635
 2655SOL     OW 8863   5.563   5.911   3.763
 2655SOL    HW1 8864   5.547   5.926   3.861
 2655SOL    HW2 8865   5.491   5.957   3.710
 2656SOL     OW 8866   3.661   5.076   4.593
 2656SOL    HW1 8867   3.623   5.047   4.505
 2656SOL    HW2 8868   3.689   4.996   4.646
 2657SOL     OW 8869   1.556   4.291   6.703
 2657SOL    HW1 8870   1.463   4.311   6.673
 2657SOL    HW2 8871   1.621   4.342   6.646
 2658SOL     OW 8872   5.362   4.790   0.182
 2658SOL    HW1 8873   5.286   4.725   0.174
 2658SOL    HW2 8874   5.409   4.798   0.094
 2659SOL     OW 8875   4.921   3.210   4.842
 2659SOL    HW1 8876   4.965   3.179   4.926
 2659SOL    HW2 8877   4.959   3.160   4.764
 2660SOL     OW 8878   1.420   0.541   1.706
 2660SOL    HW1 8879   1.499   0.481   1.697
 2660SOL    HW2 8880   1.394   0.547   1.803
 2661SOL     OW 8881   2.126   6.948   1.161
 2661SOL    HW1 8882   2.184   6.956   1.242
 2661SOL    HW2 8883   2.059   6.875   1.174
 2662SOL     OW 8884   3.295   6.549   5.256
 2662SOL    HW1 8885   3.291   6.632   5.199
 2662SOL    HW2 8886   3.212   6.495   5.241
 2663SOL     OW 8887   3.666   4.254   6.709
 2663SOL    HW1 8888   3.679   4.229   6.613
 2663SOL    HW2 8889   3.748   4.302   6.742
 2664SOL     OW 8890   4.394   3.070   5.728
 2664SOL    HW1 8891   4.331   2.996   5.703
 2664SOL    HW2 8892   4.422   3.118   5.645
 2665SOL     OW 8893   2.831   3.445   5.240
 2665SOL    HW1 8894   2.884   3.399   5.169
 2665SOL    HW2 8895   2.756   3.385   5.270
 2666SOL     OW 8896   0.956   4.899   1.851
 2666SOL    HW1 8897   0.995   4.808   1.863
 2666SOL    HW2 8898   1.029   4.967   1.840
 2667SOL     OW 8899   1.439   5.372   3.896
 2667SOL    HW1 8900   1.525   5.339   3.934
 2667SOL    HW2 8901   1.378   5.400   3.970
 2668SOL     OW 8902   6.838   2.571   4.584
 2668SOL    HW1 8903   6.900   2.628   4.530
 2668SOL    HW2 8904   6.830   2.481   4.540
 2669SOL     OW 8905   3.025   5.197   5.858
 2669SOL    HW1 8906   3.019   5.108   5.813
 2669SOL    HW2 8907   3.112   5.240   5.835
 2670SOL     OW 8908   5.995   3.645   4.870
 2670SOL    HW1 8909   5.997   3.583   4.792
 2670SOL    HW2 8910   6.045   3.604   4.946
 2671SOL     OW 8911   4.201   5.453   0.334
 2671SOL    HW1 8912   4.213   5.359   0.304
 2671SOL    HW2 8913   4.227   5.516   0.261
 2672SOL     OW 8914   2.762   5.942   0.984
 2672SOL    HW1 8915   2.685   5.907   0.930
 2672SOL    HW2 8916   2.838   5.963   0.922
 2673SOL     OW 8917   6.387   1.759   1.717
 2673SOL    HW1 8918   6.458   1.829   1.726
 2673SOL    HW2 8919   6.305   1.790   1.766
 2674SOL     OW 8920   1.165   4.606   4.267
 2674SOL    HW1 8921   1.175   4.510   4.239
 2674SOL    HW2 8922   1.073   4.621   4.303
 2675SOL     OW 8923   6.502   6.157   3.871
 2675SOL    HW1 8924   6.551   6.093   3.811
 2675SOL    HW2 8925   6.524   6.137   3.966
 2676SOL     OW 8926   3.065   3.155   1.153
 2676SOL    HW1 8927   3.064   3.055   1.162
 2676SOL    HW2 8928   3.052   3.197   1.243
 2677SOL     OW 8929   3.018   4.022   0.187
 2677SOL    HW1 8930   3.020   4.108   0.137
 2677SOL    HW2 8931   3.031   4.039   0.284
 2678SOL     OW 8932   0.498   2.384   2.922
 2678SOL    HW1 8933   0.564   2.457   2.904
 2678SOL    HW2 8934   0.494   2.322   2.843
 2679SOL     OW 8935   2.011   4.861   2.689
 2679SOL    HW1 8936   2.015   4.761   2.687
 2679SOL    HW2 8937   1.917   4.890   2.670
 2680SOL     OW 8938   1.508   1.810   0.888
 2680SOL    HW1 8939   1.568   1.746   0.840
 2680SOL    HW2 8940   1.560   1.860   0.957
 2681SOL     OW 8941   1.191   2.231   4.849
 2681SOL    HW1 8942   1.251   2.196   4.777
 2681SOL    HW2 8943   1.189   2.166   4.925
 2682SOL     OW 8944   4.845   4.220   4.155
 2682SOL    HW1 8945   4.928   4.233   4.100
 2682SOL    HW2 8946   4.769   4.269   4.113
 2683SOL     OW 8947   2.571   4.717   2.114
 2683SOL    HW1 8948   2.482   4.761   2.105
 2683SOL    HW2 8949   2.641   4.774   2.069
 2684SOL     OW 8950   4.514   6.768   2.711
 2684SOL    HW1 8951   4.485   6.678   2.678
 2684SOL    HW2 8952   4.441   6.834   2.693
 2685SOL     OW 8953   5.997   5.778   5.769
 2685SOL    HW1 8954   6.062   5.841   5.726
 2685SOL    HW2 8955   6.042   5.729   5.844
 2686SOL     OW 8956   1.374   1.856   5.535
 2686SOL    HW1 8957   1.274   1.857   5.537
 2686SOL    HW2 8958   1.408   1.772   5.579
 2687SOL     OW 8959   4.286   5.681   1.080
 2687SOL    HW1 8960   4.195   5.682   1.038
 2687SOL    HW2 8961   4.280   5.717   1.173
 2688SOL     OW 8962   2.605   2.790   0.082
 2688SOL    HW1 8963   2.681   2.772   0.144
 2688SOL    HW2 8964   2.621   2.876   0.035
 2689SOL     OW 8965   0.080   3.248   2.228
 2689SOL    HW1 8966   0.148   3.188   2.271
 2689SOL    HW2 8967   0.057   3.214   2.137
 2690SOL     OW 8968   3.350   3.220   5.193
 2690SOL    HW1 8969   3.435   3.177   5.224
 2690SOL    HW2 8970   3.281   3.214   5.265
 2691SOL     OW 8971   0.324   5.191   3.682
 2691SOL    HW1 8972   0.302   5.216   3.588
 2691SOL    HW2 8973   0.329   5.091   3.690
 2692SOL     OW 8974   2.755   6.670   3.549
 2692SOL    HW1 8975   2.669   6.652   3.596
 2692SOL    HW2 8976   2.825   6.694   3.617
 2693SOL     OW 8977   2.526   4.603   4.025
 2693SOL    HW1 8978   2.577   4.609   3.939
 2693SOL    HW2 8979   2.438   4.649   4.015
 2694SOL     OW 8980   4.146   6.823   2.941
 2694SOL    HW1 8981   4.245   6.836   2.939
 2694SOL    HW2 8982   4.119   6.787   3.030
 2695SOL     OW 8983   5.882   0.554   2.779
 2695SOL    HW1 8984   5.810   0.531   2.844
 2695SOL    HW2 8985   5.844   0.605   2.702
 2696SOL     OW 8986   3.867   3.378   5.985
 2696SOL    HW1 8987   3.944   3.332   5.942
 2696SOL    HW2 8988   3.821   3.436   5.917
 2697SOL     OW 8989   3.466   1.739   3.489
 2697SOL    HW1 8990   3.406   1.664   3.463
 2697SOL    HW2 8991   3.411   1.821   3.507
 2698SOL     OW 8992   1.498   4.472   0.549
 2698SOL    HW1 8993   1.474   4.563   0.584
 2698SOL    HW2 8994   1.537   4.482   0.458
 2699SOL     OW 8995   2.704   5.858   1.357
 2699SOL    HW1 8996   2.781   5.890   1.301
 2699SOL    HW2 8997   2.729   5.861   1.453
 2700SOL     OW 8998   2.708   2.119   0.856
 2700SOL    HW1 8999   2.746   2.152   0.770
 2700SOL    HW2 9000   2.748   2.030   0.878
 2701SOL     OW 9001   4.942   2.037   6.134
 2701SOL    HW1 9002   4.992   1.986   6.204
 2701SOL    HW2 9003   4.903   2.120   6.173
 2702SOL     OW 9004   0.771   2.614   3.482
 2702SOL    HW1 9005   0.737   2.557   3.406
 2702SOL    HW2 9006   0.817   2.694   3.445
 2703SOL     OW 9007   0.944   6.308   0.798
 2703SOL    HW1 9008   0.954   6.398   0.755
 2703SOL    HW2 9009   0.891   6.316   0.882
 2704SOL     OW 9010   6.375   6.141   2.320
 2704SOL    HW1 9011   6.358   6.046   2.293
 2704SOL    HW2 9012   6.472   6.162   2.304
 2705SOL     OW 9013   6.130   0.154   4.889
 2705SOL    HW1 9014   6.104   0.064   4.924
 2705SOL    HW2 9015   6.119   0.155   4.790
 2706SOL     OW 9016   6.459   4.935   3.133
 2706SOL    HW1 9017   6.426   4.961   3.223
 2706SOL    HW2 9018   6.527   5.001   3.102
 2707SOL     OW 9019   3.494   0.057   4.211
 2707SOL    HW1 9020   3.512   0.154   4.193
 2707SOL    HW2 9021   3.506   0.039   4.309
 2708SOL     OW 9022   6.379   2.656   0.946
 2708SOL    HW1 9023   6.466   2.705   0.939
 2708SOL    HW2 9024   6.312   2.699   0.884
 2709SOL     OW 9025   5.115   6.814   0.182
 2709SOL    HW1 9026   5.157   6.816   0.273
 2709SOL    HW2 9027   5.184   6.835   0.113
 2710SOL     OW 9028   1.055   3.174   4.154
 2710SOL    HW1 9029   1.003   3.107   4.207
 2710SOL    HW2 9030   1.132   3.207   4.209
 2711SOL     OW 9031   2.532   0.824   3.657
 2711SOL    HW1 9032   2.561   0.899   3.717
 2711SOL    HW2 9033   2.546   0.850   3.561
 2712SOL     OW 9034   2.701   5.066   1.719
 2712SOL    HW1 9035   2.616   5.113   1.696
 2712SOL    HW2 9036   2.686   4.967   1.718
 2713SOL     OW 9037   2.643   3.653   6.036
 2713SOL    HW1 9038   2.694   3.567   6.038
 2713SOL    HW2 9039   2.706   3.730   6.029
 2714SOL     OW 9040   4.351   2.828   0.464
 2714SOL    HW1 9041   4.385   2.884   0.388
 2714SOL    HW2 9042   4.291   2.757   0.428
 2715SOL     OW 9043   5.604   2.315   0.873
 2715SOL    HW1 9044   5.568   2.406   0.895
 2715SOL    HW2 9045   5.536   2.246   0.897
 2716SOL     OW 9046   5.087   3.429   4.192
 2716SOL    HW1 9047   5.058   3.428   4.097
 2716SOL    HW2 9048   5.086   3.523   4.226
 2717SOL     OW 9049   1.006   6.956   2.015
 2717SOL    HW1 9050   0.928   7.014   1.993
 2717SOL    HW2 9051   0.977   6.880   2.073
 2718SOL     OW 9052   1.562   1.641   5.614
 2718SOL    HW1 9053   1.562   1.558   5.559
 2718SOL    HW2 9054   1.527   1.622   5.705
 2719SOL     OW 9055   0.838   4.938   1.612
 2719SOL    HW1 9056   0.760   4.999   1.609
 2719SOL    HW2 9057   0.866   4.923   1.707
 2720SOL     OW 9058   1.535   0.371   2.541
 2720SOL    HW1 9059   1.481   0.288   2.523
 2720SOL    HW2 9060   1.475   0.443   2.575
 2721SOL     OW 9061   2.841   6.379   3.075
 2721SOL    HW1 9062   2.933   6.393   3.112
 2721SOL    HW2 9063   2.796   6.304   3.124
 2722SOL     OW 9064   5.519   5.012   6.984
 2722SOL    HW1 9065   5.509   5.024   0.064
 2722SOL    HW2 9066   5.605   4.964   6.964
 2723SOL     OW 9067   1.519   5.415   6.496
 2723SOL    HW1 9068   1.534   5.512   6.476
 2723SOL    HW2 9069   1.426   5.402   6.528
 2724SOL     OW 9070   1.440   6.212   6.506
 2724SOL    HW1 9071   1.531   6.174   6.523
 2724SOL    HW2 9072   1.445   6.312   6.510
 2725SOL     OW 9073   5.419   4.820   4.712
 2725SOL    HW1 9074   5.380   4.770   4.789
 2725SOL    HW2 9075   5.434   4.915   4.738
 2726SOL     OW 9076   0.305   2.457   2.233
 2726SOL    HW1 9077   0.378   2.469   2.166
 2726SOL    HW2 9078   0.333   2.497   2.320
 2727SOL     OW 9079   0.674   4.516   4.095
 2727SOL    HW1 9080   0.653   4.434   4.147
 2727SOL    HW2 9081   0.699   4.590   4.158
 2728SOL     OW 9082   4.230   6.410   5.424
 2728SOL    HW1 9083   4.290   6.467   5.366
 2728SOL    HW2 9084   4.239   6.439   5.519
 2729SOL     OW 9085   0.104   6.578   0.604
 2729SOL    HW1 9086   0.051   6.494   0.615
 2729SOL    HW2 9087   0.172   6.583   0.677
 2730SOL     OW 9088   1.513   5.749   1.942
 2730SOL    HW1 9089   1.543   5.811   1.871
 2730SOL    HW2 9090   1.428   5.782   1.982
 2731SOL     OW 9091   2.961   3.531   3.279
 2731SOL    HW1 9092   2.958   3.473   3.360
 2731SOL    HW2 9093   3.023   3.491   3.211
 2732SOL     OW 9094   5.861   2.078   0.858
 2732SOL    HW1 9095   5.849   2.177   0.868
 2732SOL    HW2 9096   5.898   2.059   0.767
 2733SOL     OW 9097   6.417   1.655   5.176
 2733SOL    HW1 9098   6.393   1.575   5.121
 2733SOL    HW2 9099   6.334   1.708   5.194
 2734SOL     OW 9100   2.864   5.400   1.135
 2734SOL    HW1 9101   2.892   5.487   1.095
 2734SOL    HW2 9102   2.823   5.343   1.063
 2735SOL     OW 9103   1.564   2.592   1.854
 2735SOL    HW1 9104   1.540   2.495   1.855
 2735SOL    HW2 9105   1.641   2.608   1.916
 2736SOL     OW 9106   6.736   6.113   4.382
 2736SOL    HW1 9107   6.716   6.049   4.457
 2736SOL    HW2 9108   6.817   6.166   4.405
 2737SOL     OW 9109   2.770   3.999   5.595
 2737SOL    HW1 9110   2.677   3.963   5.586
 2737SOL    HW2 9111   2.792   4.056   5.515
 2738SOL     OW 9112   5.259   6.046   1.694
 2738SOL    HW1 9113   5.167   6.063   1.728
 2738SOL    HW2 9114   5.289   5.955   1.722
 2739SOL     OW 9115   0.891   5.148   0.621
 2739SOL    HW1 9116   0.794   5.160   0.602
 2739SOL    HW2 9117   0.906   5.133   0.718
 2740SOL     OW 9118   6.332   4.518   1.666
 2740SOL    HW1 9119   6.430   4.533   1.668
 2740SOL    HW2 9120   6.311   4.427   1.702
 2741SOL     OW 9121   6.610   0.652   4.062
 2741SOL    HW1 9122   6.697   0.603   4.059
 2741SOL    HW2 9123   6.540   0.600   4.013
 2742SOL     OW 9124   1.768   4.819   0.501
 2742SOL    HW1 9125   1.796   4.839   0.594
 2742SOL    HW2 9126   1.821   4.741   0.466
 2743SOL     OW 9127   0.258   4.011   2.586
 2743SOL    HW1 9128   0.268   4.103   2.547
 2743SOL    HW2 9129   0.205   4.017   2.671
 2744SOL     OW 9130   4.825   2.310   0.465
 2744SOL    HW1 9131   4.916   2.350   0.469
 2744SOL    HW2 9132   4.757   2.382   0.449
 2745SOL     OW 9133   6.929   1.277   4.810
 2745SOL    HW1 9134   6.841   1.234   4.787
 2745SOL    HW2 9135   6.927   1.307   4.905
 2746SOL     OW 9136   0.958   2.509   5.078
 2746SOL    HW1 9137   0.999   2.570   5.147
 2746SOL    HW2 9138   0.902   2.440   5.124
 2747SOL     OW 9139   4.810   5.325   0.016
 2747SOL    HW1 9140   4.833   5.237   0.056
 2747SOL    HW2 9141   4.874   5.346   6.960
 2748SOL     OW 9142   4.268   1.624   2.651
 2748SOL    HW1 9143   4.186   1.612   2.594
 2748SOL    HW2 9144   4.243   1.619   2.747
 2749SOL     OW 9145   6.499   4.499   0.819
 2749SOL    HW1 9146   6.524   4.568   0.887
 2749SOL    HW2 9147   6.569   4.428   0.816
 2750SOL     OW 9148   1.874   3.874   1.299
 2750SOL    HW1 9149   1.791   3.828   1.266
 2750SOL    HW2 9150   1.902   3.833   1.385
 2751SOL     OW 9151   1.268   3.002   1.498
 2751SOL    HW1 9152   1.264   3.080   1.562
 2751SOL    HW2 9153   1.362   2.966   1.496
 2752SOL     OW 9154   3.358   4.838   5.623
 2752SOL    HW1 9155   3.443   4.828   5.571
 2752SOL    HW2 9156   3.373   4.896   5.702
 2753SOL     OW 9157   6.760   6.571   4.647
 2753SOL    HW1 9158   6.835   6.518   4.686
 2753SOL    HW2 9159   6.729   6.530   4.562
 2754SOL     OW 9160   0.533   0.294   1.048
 2754SOL    HW1 9161   0.543   0.311   1.146
 2754SOL    HW2 9162   0.585   0.362   0.996
 2755SOL     OW 9163   3.501   6.725   2.309
 2755SOL    HW1 9164   3.600   6.731   2.297
 2755SOL    HW2 9165   3.480   6.675   2.393
 2756SOL     OW 9166   5.510   5.394   0.003
 2756SOL    HW1 9167   5.581   5.356   0.062
 2756SOL    HW2 9168   5.516   5.352   6.931
 2757SOL     OW 9169   2.377   6.454   6.998
 2757SOL    HW1 9170   2.395   6.454   0.078
 2757SOL    HW2 9171   2.278   6.453   6.982
 2758SOL     OW 9172   3.887   6.646   3.771
 2758SOL    HW1 9173   3.799   6.600   3.758
 2758SOL    HW2 9174   3.952   6.613   3.703
 2759SOL     OW 9175   5.353   6.439   5.845
 2759SOL    HW1 9176   5.306   6.382   5.913
 2759SOL    HW2 9177   5.409   6.382   5.786
 2760SOL     OW 9178   0.147   6.384   1.908
 2760SOL    HW1 9179   0.209   6.429   1.843
 2760SOL    HW2 9180   0.188   6.299   1.940
 2761SOL     OW 9181   1.669   5.188   4.451
 2761SOL    HW1 9182   1.641   5.202   4.546
 2761SOL    HW2 9183   1.653   5.093   4.424
 2762SOL     OW 9184   1.546   1.218   5.735
 2762SOL    HW1 9185   1.578   1.139   5.787
 2762SOL    HW2 9186   1.613   1.292   5.742
 2763SOL     OW 9187   5.087   1.519   3.853
 2763SOL    HW1 9188   5.156   1.572   3.903
 2763SOL    HW2 9189   5.009   1.501   3.914
 2764SOL     OW 9190   5.966   1.214   0.923
 2764SOL    HW1 9191   5.879   1.165   0.916
 2764SOL    HW2 9192   5.955   1.292   0.985
 2765SOL     OW 9193   5.678   6.858   1.198
 2765SOL    HW1 9194   5.628   6.939   1.167
 2765SOL    HW2 9195   5.769   6.859   1.157
 2766SOL     OW 9196   4.471   2.300   0.209
 2766SOL    HW1 9197   4.372   2.304   0.196
 2766SOL    HW2 9198   4.499   2.205   0.224
 2767SOL     OW 9199   0.060   5.414   0.392
 2767SOL    HW1 9200   0.141   5.416   0.452
 2767SOL    HW2 9201   0.089   5.418   0.297
 2768SOL     OW 9202   4.771   0.683   0.988
 2768SOL    HW1 9203   4.843   0.642   1.043
 2768SOL    HW2 9204   4.705   0.728   1.048
 2769SOL     OW 9205   0.569   4.063   4.268
 2769SOL    HW1 9206   0.477   4.069   4.309
 2769SOL    HW2 9207   0.630   4.014   4.330
 2770SOL     OW 9208   2.875   5.340   5.659
 2770SOL    HW1 9209   2.900   5.367   5.752
 2770SOL    HW2 9210   2.956   5.345   5.601
 2771SOL     OW 9211   6.781   0.841   3.110
 2771SOL    HW1 9212   6.734   0.752   3.118
 2771SOL    HW2 9213   6.713   0.912   3.091
 2772SOL     OW 9214   4.352   1.757   0.820
 2772SOL    HW1 9215   4.262   1.738   0.779
 2772SOL    HW2 9216   4.339   1.817   0.899
 2773SOL     OW 9217   6.090   2.209   5.612
 2773SOL    HW1 9218   6.112   2.307   5.611
 2773SOL    HW2 9219   6.082   2.178   5.707
 2774SOL     OW 9220   5.599   3.675   3.004
 2774SOL    HW1 9221   5.587   3.690   3.102
 2774SOL    HW2 9222   5.689   3.634   2.987
 2775SOL     OW 9223   6.520   5.854   6.758
 2775SOL    HW1 9224   6.498   5.940   6.804
 2775SOL    HW2 9225   6.618   5.849   6.741
 2776SOL     OW 9226   4.250   4.921   5.830
 2776SOL    HW1 9227   4.196   4.924   5.914
 2776SOL    HW2 9228   4.190   4.898   5.753
 2777SOL     OW 9229   2.859   1.245   2.197
 2777SOL    HW1 9230   2.817   1.206   2.115
 2777SOL    HW2 9231   2.793   1.303   2.244
 2778SOL     OW 9232   1.012   0.293   5.468
 2778SOL    HW1 9233   1.010   0.336   5.558
 2778SOL    HW2 9234   0.952   0.213   5.468
 2779SOL     OW 9235   4.796   6.320   1.070
 2779SOL    HW1 9236   4.855   6.401   1.076
 2779SOL    HW2 9237   4.772   6.290   1.162
 2780SOL     OW 9238   6.222   6.444   6.796
 2780SOL    HW1 9239   6.246   6.505   6.720
 2780SOL    HW2 9240   6.123   6.436   6.802
 2781SOL     OW 9241   5.038   6.497   1.793
 2781SOL    HW1 9242   5.116   6.508   1.731
 2781SOL    HW2 9243   4.996   6.586   1.810
 2782SOL     OW 9244   4.193   2.112   5.580
 2782SOL    HW1 9245   4.234   2.168   5.652
 2782SOL    HW2 9246   4.095   2.100   5.598
 2783SOL     OW 9247   5.071   4.269   3.977
 2783SOL    HW1 9248   5.041   4.268   3.882
 2783SOL    HW2 9249   5.169   4.287   3.981
 2784SOL     OW 9250   3.753   1.606   1.197
 2784SOL    HW1 9251   3.722   1.689   1.243
 2784SOL    HW2 9252   3.773   1.535   1.264
 2785SOL     OW 9253   4.895   1.131   0.737
 2785SOL    HW1 9254   4.943   1.084   0.662
 2785SOL    HW2 9255   4.884   1.069   0.814
 2786SOL     OW 9256   5.033   6.146   1.834
 2786SOL    HW1 9257   5.036   6.069   1.897
 2786SOL    HW2 9258   5.028   6.232   1.885
 2787SOL     OW 9259   3.676   1.727   6.821
 2787SOL    HW1 9260   3.775   1.742   6.814
 2787SOL    HW2 9261   3.636   1.796   6.881
 2788SOL     OW 9262   2.398   4.695   6.080
 2788SOL    HW1 9263   2.476   4.697   6.016
 2788SOL    HW2 9264   2.328   4.759   6.048
 2789SOL     OW 9265   2.366   2.294   3.400
 2789SOL    HW1 9266   2.379   2.225   3.329
 2789SOL    HW2 9267   2.304   2.365   3.368
 2790SOL     OW 9268   3.146   5.785   1.968
 2790SOL    HW1 9269   3.159   5.753   2.062
 2790SOL    HW2 9270   3.059   5.833   1.961
 2791SOL     OW 9271   1.076   3.853   3.390
 2791SOL    HW1 9272   1.043   3.765   3.354
 2791SOL    HW2 9273   1.103   3.841   3.486
 2792SOL     OW 9274   1.473   6.848   4.308
 2792SOL    HW1 9275   1.466   6.788   4.228
 2792SOL    HW2 9276   1.385   6.891   4.326
 2793SOL     OW 9277   5.211   3.373   2.794
 2793SOL    HW1 9278   5.224   3.472   2.801
 2793SOL    HW2 9279   5.165   3.340   2.876
 2794SOL     OW 9280   0.387   3.072   0.165
 2794SOL    HW1 9281   0.329   3.136   0.113
 2794SOL    HW2 9282   0.352   3.064   0.258
 2795SOL     OW 9283   1.979   2.758   0.599
 2795SOL    HW1 9284   2.051   2.701   0.639
 2795SOL    HW2 9285   1.963   2.730   0.505
 2796SOL     OW 9286   6.716   5.796   2.335
 2796SOL    HW1 9287   6.683   5.886   2.362
 2796SOL    HW2 9288   6.804   5.805   2.288
 2797SOL     OW 9289   5.785   5.331   4.763
 2797SOL    HW1 9290   5.759   5.248   4.812
 2797SOL    HW2 9291   5.876   5.321   4.724
 2798SOL     OW 9292   0.614   5.243   1.840
 2798SOL    HW1 9293   0.650   5.266   1.749
 2798SOL    HW2 9294   0.691   5.225   1.902
 2799SOL     OW 9295   6.521   6.852   6.894
 2799SOL    HW1 9296   6.520   6.836   6.795
 2799SOL    HW2 9297   6.448   6.799   6.937
 2800SOL     OW 9298   4.292   5.262   0.147
 2800SOL    HW1 9299   4.345   5.182   0.174
 2800SOL    HW2 9300   4.353   5.340   0.133
 2801SOL     OW 9301   5.772   5.469   5.599
 2801SOL    HW1 9302   5.728   5.533   5.662
 2801SOL    HW2 9303   5.864   5.501   5.576
 2802SOL     OW 9304   4.686   1.576   5.244
 2802SOL    HW1 9305   4.599   1.612   5.209
 2802SOL    HW2 9306   4.718   1.635   5.318
 2803SOL     OW 9307   3.613   6.041   6.293
 2803SOL    HW1 9308   3.673   6.008   6.220
 2803SOL    HW2 9309   3.569   6.127   6.264
 2804SOL     OW 9310   0.185   4.714   4.892
 2804SOL    HW1 9311   0.101   4.669   4.862
 2804SOL    HW2 9312   0.264   4.670   4.850
 2805SOL     OW 9313   5.187   3.312   1.663
 2805SOL    HW1 9314   5.154   3.266   1.745
 2805SOL    HW2 9315   5.131   3.392   1.645
 2806SOL     OW 9316   6.462   5.279   4.890
 2806SOL    HW1 9317   6.479   5.200   4.950
 2806SOL    HW2 9318   6.412   5.349   4.940
 2807SOL     OW 9319   4.844   5.424   3.477
 2807SOL    HW1 9320   4.901   5.443   3.397
 2807SOL    HW2 9321   4.789   5.505   3.499
 2808SOL     OW 9322   5.156   3.695   2.443
 2808SOL    HW1 9323   5.204   3.748   2.373
 2808SOL    HW2 9324   5.217   3.624   2.478
 2809SOL     OW 9325   6.187   2.917   0.993
 2809SOL    HW1 9326   6.200   2.934   0.896
 2809SOL    HW2 9327   6.102   2.866   1.007
 2810SOL     OW 9328   2.988   5.728   4.027
 2810SOL    HW1 9329   2.996   5.715   4.126
 2810SOL    HW2 9330   3.043   5.807   3.999
 2811SOL     OW 9331   1.230   1.524   3.328
 2811SOL    HW1 9332   1.164   1.468   3.378
 2811SOL    HW2 9333   1.323   1.501   3.358
 2812SOL     OW 9334   4.983   4.017   6.537
 2812SOL    HW1 9335   4.892   4.010   6.576
 2812SOL    HW2 9336   5.000   3.941   6.475
 2813SOL     OW 9337   6.514   6.899   5.953
 2813SOL    HW1 9338   6.416   6.883   5.960
 2813SOL    HW2 9339   6.540   6.902   5.856
 2814SOL     OW 9340   4.386   3.312   5.872
 2814SOL    HW1 9341   4.476   3.352   5.891
 2814SOL    HW2 9342   4.397   3.233   5.812
 2815SOL     OW 9343   6.041   0.308   5.752
 2815SOL    HW1 9344   6.124   0.330   5.803
 2815SOL    HW2 9345   5.985   0.390   5.742
 2816SOL     OW 9346   6.689   5.397   3.884
 2816SOL    HW1 9347   6.615   5.334   3.906
 2816SOL    HW2 9348   6.728   5.374   3.795
 2817SOL     OW 9349   2.487   6.993   1.279
 2817SOL    HW1 9350   2.397   0.018   1.284
 2817SOL    HW2 9351   2.492   6.937   1.196
 2818SOL     OW 9352   0.093   0.523   0.709
 2818SOL    HW1 9353   0.069   0.436   0.667
 2818SOL    HW2 9354   0.017   0.554   0.766
 2819SOL     OW 9355   0.477   1.217   1.409
 2819SOL    HW1 9356   0.491   1.146   1.340
 2819SOL    HW2 9357   0.395   1.197   1.462
 2820SOL     OW 9358   0.676   2.281   3.099
 2820SOL    HW1 9359   0.626   2.324   3.024
 2820SOL    HW2 9360   0.615   2.267   3.177
 2821SOL     OW 9361   4.034   3.473   0.360
 2821SOL    HW1 9362   4.130   3.464   0.334
 2821SOL    HW2 9363   3.990   3.383   0.357
 2822SOL     OW 9364   4.372   1.614   0.194
 2822SOL    HW1 9365   4.323   1.622   0.281
 2822SOL    HW2 9366   4.465   1.582   0.210
 2823SOL     OW 9367   4.600   6.277   0.386
 2823SOL    HW1 9368   4.534   6.236   0.448
 2823SOL    HW2 9369   4.559   6.285   0.295
 2824SOL     OW 9370   2.704   1.148   3.154
 2824SOL    HW1 9371   2.658   1.215   3.212
 2824SOL    HW2 9372   2.734   1.192   3.070
 2825SOL     OW 9373   6.562   0.095   6.511
 2825SOL    HW1 9374   6.475   0.119   6.554
 2825SOL    HW2 9375   6.637   0.125   6.569
 2826SOL     OW 9376   4.761   0.583   6.949
 2826SOL    HW1 9377   4.860   0.586   6.967
 2826SOL    HW2 9378   4.728   0.675   6.928
 2827SOL     OW 9379   6.898   0.187   4.971
 2827SOL    HW1 9380   6.806   0.182   4.933
 2827SOL    HW2 9381   6.902   0.139   5.058
 2828SOL     OW 9382   3.112   0.653   0.233
 2828SOL    HW1 9383   3.159   0.710   0.166
 2828SOL    HW2 9384   3.027   0.618   0.193
 2829SOL     OW 9385   3.682   3.591   4.982
 2829SOL    HW1 9386   3.671   3.689   4.968
 2829SOL    HW2 9387   3.598   3.554   5.021
 2830SOL     OW 9388   1.615   3.218   5.761
 2830SOL    HW1 9389   1.596   3.274   5.841
 2830SOL    HW2 9390   1.669   3.138   5.788
 2831SOL     OW 9391   0.660   5.666   3.734
 2831SOL    HW1 9392   0.738   5.728   3.743
 2831SOL    HW2 9393   0.598   5.700   3.664
 2832SOL     OW 9394   1.344   1.564   2.430
 2832SOL    HW1 9395   1.395   1.578   2.515
 2832SOL    HW2 9396   1.299   1.649   2.403
 2833SOL     OW 9397   3.960   1.811   2.334
 2833SOL    HW1 9398   3.956   1.804   2.234
 2833SOL    HW2 9399   3.874   1.848   2.368
 2834SOL     OW 9400   3.389   5.284   6.560
 2834SOL    HW1 9401   3.311   5.288   6.497
 2834SOL    HW2 9402   3.378   5.205   6.620
 2835SOL     OW 9403   0.054   0.390   1.481
 2835SOL    HW1 9404   0.050   0.389   1.580
 2835SOL    HW2 9405   7.011   0.462   1.446
 2836SOL     OW 9406   6.024   0.537   2.392
 2836SOL    HW1 9407   6.091   0.545   2.319
 2836SOL    HW2 9408   6.041   0.453   2.444
 2837SOL     OW 9409   5.720   4.033   2.751
 2837SOL    HW1 9410   5.715   4.044   2.651
 2837SOL    HW2 9411   5.808   4.066   2.784
 2838SOL     OW 9412   2.267   4.587   0.968
 2838SOL    HW1 9413   2.180   4.606   0.921
 2838SOL    HW2 9414   2.294   4.667   1.022
 2839SOL     OW 9415   7.012   1.405   1.794
 2839SOL    HW1 9416   6.953   1.328   1.771
 2839SOL    HW2 9417   0.026   1.449   1.710
 2840SOL     OW 9418   2.159   0.753   3.404
 2840SOL    HW1 9419   2.137   0.669   3.453
 2840SOL    HW2 9420   2.121   0.832   3.452
 2841SOL     OW 9421   0.359   1.152   6.267
 2841SOL    HW1 9422   0.311   1.085   6.324
 2841SOL    HW2 9423   0.435   1.191   6.319
 2842SOL     OW 9424   7.008   4.038   3.999
 2842SOL    HW1 9425   6.961   4.005   3.917
 2842SOL    HW2 9426   0.014   3.960   4.058
 2843SOL     OW 9427   2.744   1.434   2.921
 2843SOL    HW1 9428   2.738   1.471   2.829
 2843SOL    HW2 9429   2.788   1.345   2.919
 2844SOL     OW 9430   0.022   5.162   0.169
 2844SOL    HW1 9431   0.030   5.099   0.091
 2844SOL    HW2 9432   0.065   5.249   0.146
 2845SOL     OW 9433   6.333   2.727   1.250
 2845SOL    HW1 9434   6.305   2.731   1.346
 2845SOL    HW2 9435   6.286   2.799   1.199
 2846SOL     OW 9436   4.212   1.051   6.504
 2846SOL    HW1 9437   4.250   0.989   6.572
 2846SOL    HW2 9438   4.195   1.141   6.545
 2847SOL     OW 9439   4.934   3.738   3.814
 2847SOL    HW1 9440   4.938   3.767   3.718
 2847SOL    HW2 9441   4.941   3.818   3.873
 2848SOL     OW 9442   1.244   2.947   5.321
 2848SOL    HW1 9443   1.319   2.996   5.275
 2848SOL    HW2 9444   1.280   2.897   5.399
 2849SOL     OW 9445   4.005   6.233   0.879
 2849SOL    HW1 9446   4.026   6.144   0.838
 2849SOL    HW2 9447   4.021   6.305   0.812
 2850SOL     OW 9448   2.237   0.465   2.006
 2850SOL    HW1 9449   2.183   0.516   1.939
 2850SOL    HW2 9450   2.200   0.481   2.097
 2851SOL     OW 9451   6.442   1.800   5.567
 2851SOL    HW1 9452   6.476   1.742   5.494
 2851SOL    HW2 9453   6.366   1.755   5.614
 2852SOL     OW 9454   5.728   4.834   6.886
 2852SOL    HW1 9455   5.641   4.799   6.919
 2852SOL    HW2 9456   5.751   4.791   6.799
 2853SOL     OW 9457   1.598   2.849   6.809
 2853SOL    HW1 9458   1.646   2.822   6.726
 2853SOL    HW2 9459   1.585   2.769   6.867
 2854SOL     OW 9460   4.155   1.330   5.336
 2854SOL    HW1 9461   4.153   1.351   5.434
 2854SOL    HW2 9462   4.167   1.415   5.285
 2855SOL     OW 9463   2.937   1.748   6.742
 2855SOL    HW1 9464   2.964   1.669   6.687
 2855SOL    HW2 9465   2.837   1.756   6.743
 2856SOL     OW 9466   1.395   2.853   5.973
 2856SOL    HW1 9467   1.481   2.842   5.923
 2856SOL    HW2 9468   1.413   2.841   6.071
 2857SOL     OW 9469   2.912   1.912   2.227
 2857SOL    HW1 9470   2.960   1.992   2.264
 2857SOL    HW2 9471   2.859   1.940   2.147
 2858SOL     OW 9472   4.760   4.139   2.506
 2858SOL    HW1 9473   4.853   4.166   2.480
 2858SOL    HW2 9474   4.716   4.215   2.554
 2859SOL     OW 9475   4.740   1.827   6.749
 2859SOL    HW1 9476   4.689   1.796   6.829
 2859SOL    HW2 9477   4.769   1.922   6.763
 2860SOL     OW 9478   3.594   1.628   1.583
 2860SOL    HW1 9479   3.535   1.649   1.506
 2860SOL    HW2 9480   3.567   1.541   1.623
 2861SOL     OW 9481   3.806   3.796   5.162
 2861SOL    HW1 9482   3.819   3.697   5.158
 2861SOL    HW2 9483   3.712   3.815   5.192
 2862SOL     OW 9484   5.489   1.495   2.964
 2862SOL    HW1 9485   5.431   1.514   3.044
 2862SOL    HW2 9486   5.580   1.535   2.978
 2863SOL     OW 9487   4.988   1.012   6.781
 2863SOL    HW1 9488   5.003   0.914   6.789
 2863SOL    HW2 9489   5.037   1.060   6.854
 2864SOL     OW 9490   4.246   1.513   1.817
 2864SOL    HW1 9491   4.292   1.500   1.729
 2864SOL    HW2 9492   4.279   1.597   1.860
 2865SOL     OW 9493   4.241   4.039   6.393
 2865SOL    HW1 9494   4.289   4.068   6.475
 2865SOL    HW2 9495   4.301   3.980   6.338
 2866SOL     OW 9496   6.663   5.288   0.445
 2866SOL    HW1 9497   6.571   5.327   0.452
 2866SOL    HW2 9498   6.731   5.360   0.457
 2867SOL     OW 9499   6.034   4.486   2.656
 2867SOL    HW1 9500   6.085   4.450   2.734
 2867SOL    HW2 9501   6.064   4.580   2.637
 2868SOL     OW 9502   0.247   1.803   5.455
 2868SOL    HW1 9503   0.325   1.864   5.470
 2868SOL    HW2 9504   0.214   1.813   5.361
 2869SOL     OW 9505   6.201   0.825   2.845
 2869SOL    HW1 9506   6.166   0.848   2.935
 2869SOL    HW2 9507   6.231   0.908   2.798
 2870SOL     OW 9508   0.240   1.426   4.665
 2870SOL    HW1 9509   0.213   1.381   4.750
 2870SOL    HW2 9510   0.331   1.466   4.677
 2871SOL     OW 9511   0.271   1.757   0.135
 2871SOL    HW1 9512   0.328   1.735   0.214
 2871SOL    HW2 9513   0.230   1.848   0.147
 2872SOL     OW 9514   2.882   1.226   2.900
 2872SOL    HW1 9515   2.875   1.187   2.808
 2872SOL    HW2 9516   2.976   1.218   2.933
 2873SOL     OW 9517   0.037   5.132   3.014
 2873SOL    HW1 9518   6.959   5.117   3.039
 2873SOL    HW2 9519   0.087   5.045   3.022
 2874SOL     OW 9520   3.619   6.553   3.403
 2874SOL    HW1 9521   3.615   6.489   3.326
 2874SOL    HW2 9522   3.530   6.596   3.416
 2875SOL     OW 9523   4.947   6.958   0.505
 2875SOL    HW1 9524   4.917   6.879   0.559
 2875SOL    HW2 9525   5.028   6.933   0.452
 2876SOL     OW 9526   1.201   6.931   1.819
 2876SOL    HW1 9527   1.285   6.960   1.865
 2876SOL    HW2 9528   1.124   6.939   1.882
 2877SOL     OW 9529   3.285   2.355   5.401
 2877SOL    HW1 9530   3.272   2.335   5.304
 2877SOL    HW2 9531   3.313   2.273   5.450
 2878SOL     OW 9532   4.642   4.868   4.690
 2878SOL    HW1 9533   4.736   4.859   4.722
 2878SOL    HW2 9534   4.592   4.934   4.747
 2879SOL     OW 9535   5.150   4.881   0.611
 2879SOL    HW1 9536   5.055   4.847   0.612
 2879SOL    HW2 9537   5.212   4.805   0.592
 2880SOL     OW 9538   6.285   0.489   1.439
 2880SOL    HW1 9539   6.217   0.549   1.396
 2880SOL    HW2 9540   6.249   0.455   1.527
 2881SOL     OW 9541   5.566   5.654   0.052
 2881SOL    HW1 9542   5.521   5.580   0.003
 2881SOL    HW2 9543   5.560   5.638   0.151
 2882SOL     OW 9544   0.655   4.188   2.818
 2882SOL    HW1 9545   0.617   4.102   2.784
 2882SOL    HW2 9546   0.624   4.203   2.912
 2883SOL     OW 9547   5.994   0.048   3.643
 2883SOL    HW1 9548   5.912   0.012   3.686
 2883SOL    HW2 9549   6.068   6.998   3.650
 2884SOL     OW 9550   0.791   6.595   3.300
 2884SOL    HW1 9551   0.878   6.550   3.317
 2884SOL    HW2 9552   0.795   6.646   3.214
 2885SOL     OW 9553   0.740   2.871   2.820
 2885SOL    HW1 9554   0.777   2.802   2.883
 2885SOL    HW2 9555   0.812   2.899   2.757
 2886SOL     OW 9556   2.566   4.228   5.637
 2886SOL    HW1 9557   2.580   4.144   5.584
 2886SOL    HW2 9558   2.647   4.245   5.693
 2887SOL     OW 9559   0.672   0.519   4.511
 2887SOL    HW1 9560   0.594   0.532   4.450
 2887SOL    HW2 9561   0.679   0.596   4.574
 2888SOL     OW 9562   0.577   4.292   0.099
 2888SOL    HW1 9563   0.669   4.330   0.104
 2888SOL    HW2 9564   0.512   4.357   0.139
 2889SOL     OW 9565   1.674   0.077   1.949
 2889SOL    HW1 9566   1.611   0.018   1.898
 2889SOL    HW2 9567   1.748   0.021   1.987
 2890SOL     OW 9568   2.383   6.233   0.518
 2890SOL    HW1 9569   2.311   6.240   0.586
 2890SOL    HW2 9570   2.471   6.254   0.561
 2891SOL     OW 9571   1.125   4.415   3.597
 2891SOL    HW1 9572   1.062   4.341   3.620
 2891SOL    HW2 9573   1.160   4.456   3.681
 2892SOL     OW 9574   5.001   3.225   0.250
 2892SOL    HW1 9575   4.934   3.192   0.317
 2892SOL    HW2 9576   5.071   3.279   0.297
 2893SOL     OW 9577   0.797   6.461   4.530
 2893SOL    HW1 9578   0.699   6.450   4.519
 2893SOL    HW2 9579   0.840   6.473   4.440
 2894SOL     OW 9580   2.165   2.326   1.428
 2894SOL    HW1 9581   2.176   2.425   1.426
 2894SOL    HW2 9582   2.180   2.289   1.336
 2895SOL     OW 9583   4.597   2.297   5.981
 2895SOL    HW1 9584   4.559   2.244   6.057
 2895SOL    HW2 9585   4.536   2.373   5.960
 2896SOL     OW 9586   4.082   5.443   6.087
 2896SOL    HW1 9587   4.058   5.390   6.168
 2896SOL    HW2 9588   4.009   5.436   6.019
 2897SOL     OW 9589   3.247   4.906   3.146
 2897SOL    HW1 9590   3.243   4.895   3.047
 2897SOL    HW2 9591   3.324   4.965   3.170
 2898SOL     OW 9592   3.710   5.457   4.233
 2898SOL    HW1 9593   3.709   5.468   4.134
 2898SOL    HW2 9594   3.797   5.416   4.261
 2899SOL     OW 9595   0.674   1.871   0.627
 2899SOL    HW1 9596   0.726   1.924   0.561
 2899SOL    HW2 9597   0.723   1.787   0.650
 2900SOL     OW 9598   1.989   4.509   5.316
 2900SOL    HW1 9599   2.016   4.414   5.300
 2900SOL    HW2 9600   1.979   4.556   5.229
 2901SOL     OW 9601   2.627   5.893   3.842
 2901SOL    HW1 9602   2.583   5.953   3.909
 2901SOL    HW2 9603   2.598   5.920   3.750
 2902SOL     OW 9604   4.820   6.773   2.375
 2902SOL    HW1 9605   4.750   6.841   2.395
 2902SOL    HW2 9606   4.777   6.687   2.350
 2903SOL     OW 9607   4.108   0.761   0.417
 2903SOL    HW1 9608   4.047   0.797   0.346
 2903SOL    HW2 9609   4.123   0.832   0.486
 2904SOL     OW 9610   2.168   3.791   5.183
 2904SOL    HW1 9611   2.099   3.824   5.247
 2904SOL    HW2 9612   2.222   3.868   5.149
 2905SOL     OW 9613   1.572   2.519   3.938
 2905SOL    HW1 9614   1.615   2.592   3.885
 2905SOL    HW2 9615   1.582   2.539   4.036
 2906SOL     OW 9616   4.421   5.905   2.489
 2906SOL    HW1 9617   4.517   5.906   2.462
 2906SOL    HW2 9618   4.396   5.814   2.522
 2907SOL     OW 9619   0.924   1.840   3.680
 2907SOL    HW1 9620   0.844   1.812   3.627
 2907SOL    HW2 9621   1.001   1.781   3.657
 2908SOL     OW 9622   4.279   6.302   4.119
 2908SOL    HW1 9623   4.307   6.266   4.208
 2908SOL    HW2 9624   4.241   6.394   4.131
 2909SOL     OW 9625   1.497   6.450   3.427
 2909SOL    HW1 9626   1.422   6.393   3.460
 2909SOL    HW2 9627   1.584   6.417   3.464
 2910SOL     OW 9628   4.519   6.612   4.652
 2910SOL    HW1 9629   4.602   6.570   4.616
 2910SOL    HW2 9630   4.440   6.555   4.629
 2911SOL     OW 9631   1.520   5.307   3.413
 2911SOL    HW1 9632   1.530   5.209   3.393
 2911SOL    HW2 9633   1.429   5.323   3.452
 2912SOL     OW 9634   5.127   0.027   6.949
 2912SOL    HW1 9635   5.090   7.017   6.861
 2912SOL    HW2 9636   5.052   0.042   7.014
 2913SOL     OW 9637   2.738   4.653   2.805
 2913SOL    HW1 9638   2.787   4.661   2.892
 2913SOL    HW2 9639   2.800   4.669   2.729
 2914SOL     OW 9640   5.703   6.110   5.943
 2914SOL    HW1 9641   5.645   6.097   6.023
 2914SOL    HW2 9642   5.654   6.163   5.874
 2915SOL     OW 9643   5.827   1.772   4.485
 2915SOL    HW1 9644   5.901   1.764   4.552
 2915SOL    HW2 9645   5.826   1.864   4.447
 2916SOL     OW 9646   0.618   6.279   6.685
 2916SOL    HW1 9647   0.696   6.328   6.647
 2916SOL    HW2 9648   0.627   6.182   6.665
 2917SOL     OW 9649   3.328   6.815   2.732
 2917SOL    HW1 9650   3.240   6.855   2.756
 2917SOL    HW2 9651   3.321   6.772   2.642
 2918SOL     OW 9652   6.923   4.869   3.977
 2918SOL    HW1 9653   6.895   4.785   4.023
 2918SOL    HW2 9654   6.885   4.948   4.026
 2919SOL     OW 9655   6.643   1.387   1.037
 2919SOL    HW1 9656   6.600   1.471   1.002
 2919SOL    HW2 9657   6.705   1.350   0.967
 2920SOL     OW 9658   2.745   2.205   1.864
 2920SOL    HW1 9659   2.651   2.236   1.880
 2920SOL    HW2 9660   2.808   2.259   1.919
 2921SOL     OW 9661   1.362   0.970   3.202
 2921SOL    HW1 9662   1.371   1.049   3.142
 2921SOL    HW2 9663   1.428   0.900   3.176
 2922SOL     OW 9664   4.969   0.845   0.434
 2922SOL    HW1 9665   4.998   0.940   0.434
 2922SOL    HW2 9666   5.039   0.788   0.477
 2923SOL     OW 9667   6.792   5.427   2.146
 2923SOL    HW1 9668   6.803   5.372   2.063
 2923SOL    HW2 9669   6.810   5.523   2.125
 2924SOL     OW 9670   6.983   1.876   6.064
 2924SOL    HW1 9671   6.969   1.906   6.158
 2924SOL    HW2 9672   6.950   1.947   6.001
 2925SOL     OW 9673   4.494   1.399   2.632
 2925SOL    HW1 9674   4.416   1.343   2.661
 2925SOL    HW2 9675   4.519   1.462   2.705
 2926SOL     OW 9676   6.488   1.279   4.536
 2926SOL    HW1 9677   6.420   1.207   4.554
 2926SOL    HW2 9678   6.455   1.338   4.463
 2927SOL     OW 9679   0.862   2.209   2.269
 2927SOL    HW1 9680   0.824   2.301   2.281
 2927SOL    HW2 9681   0.856   2.159   2.356
 2928SOL     OW 9682   0.221   1.883   5.985
 2928SOL    HW1 9683   0.225   1.860   5.888
 2928SOL    HW2 9684   0.130   1.861   6.021
 2929SOL     OW 9685   0.829   1.540   7.007
 2929SOL    HW1 9686   0.893   1.616   6.999
 2929SOL    HW2 9687   0.804   1.508   6.916
 2930SOL     OW 9688   4.654   6.345   5.058
 2930SOL    HW1 9689   4.733   6.285   5.044
 2930SOL    HW2 9690   4.652   6.416   4.988
 2931SOL     OW 9691   5.557   4.519   0.214
 2931SOL    HW1 9692   5.458   4.507   0.222
 2931SOL    HW2 9693   5.603   4.440   0.255
 2932SOL     OW 9694   0.369   5.268   1.275
 2932SOL    HW1 9695   0.340   5.258   1.370
 2932SOL    HW2 9696   0.318   5.205   1.217
 2933SOL     OW 9697   5.789   4.620   3.414
 2933SOL    HW1 9698   5.859   4.662   3.355
 2933SOL    HW2 9699   5.720   4.688   3.436
 2934SOL     OW 9700   4.788   1.268   0.143
 2934SOL    HW1 9701   4.792   1.171   0.121
 2934SOL    HW2 9702   4.765   1.321   0.061
 2935SOL     OW 9703   6.471   3.025   0.690
 2935SOL    HW1 9704   6.486   3.083   0.609
 2935SOL    HW2 9705   6.560   2.997   0.726
 2936SOL     OW 9706   3.660   5.600   1.799
 2936SOL    HW1 9707   3.642   5.501   1.804
 2936SOL    HW2 9708   3.688   5.633   1.889
 2937SOL     OW 9709   4.635   4.590   0.515
 2937SOL    HW1 9710   4.552   4.621   0.561
 2937SOL    HW2 9711   4.674   4.512   0.565
 2938SOL     OW 9712   4.304   5.526   6.872
 2938SOL    HW1 9713   4.233   5.484   6.815
 2938SOL    HW2 9714   4.392   5.522   6.825
 2939SOL     OW 9715   1.276   1.065   3.651
 2939SOL    HW1 9716   1.324   0.978   3.664
 2939SOL    HW2 9717   1.299   1.103   3.562
 2940SOL     OW 9718   5.828   5.470   6.078
 2940SOL    HW1 9719   5.780   5.495   5.994
 2940SOL    HW2 9720   5.850   5.372   6.076
 2941SOL     OW 9721   1.750   3.233   4.261
 2941SOL    HW1 9722   1.777   3.156   4.319
 2941SOL    HW2 9723   1.749   3.204   4.166
 2942SOL     OW 9724   3.062   2.749   0.873
 2942SOL    HW1 9725   3.048   2.652   0.892
 2942SOL    HW2 9726   3.136   2.760   0.806
 2943SOL     OW 9727   4.975   4.673   3.044
 2943SOL    HW1 9728   4.964   4.590   3.099
 2943SOL    HW2 9729   4.944   4.752   3.097
 2944SOL     OW 9730   2.732   5.512   5.307
 2944SOL    HW1 9731   2.781   5.426   5.325
 2944SOL    HW2 9732   2.734   5.568   5.390
 2945SOL     OW 9733   3.688   4.119   3.723
 2945SOL    HW1 9734   3.782   4.102   3.694
 2945SOL    HW2 9735   3.648   4.035   3.760
 2946SOL     OW 9736   0.901   5.083   6.716
 2946SOL    HW1 9737   0.855   4.998   6.687
 2946SOL    HW2 9738   0.859   5.116   6.801
 2947SOL     OW 9739   0.515   3.623   0.187
 2947SOL    HW1 9740   0.423   3.584   0.181
 2947SOL    HW2 9741   0.580   3.560   0.145
 2948SOL     OW 9742   0.496   4.522   5.943
 2948SOL    HW1 9743   0.455   4.613   5.931
 2948SOL    HW2 9744   0.588   4.522   5.904
 2949SOL     OW 9745   2.695   5.270   0.933
 2949SOL    HW1 9746   2.667   5.365   0.920
 2949SOL    HW2 9747   2.624   5.209   0.897
 2950SOL     OW 9748   5.376   3.776   4.489
 2950SOL    HW1 9749   5.287   3.731   4.497
 2950SOL    HW2 9750   5.395   3.797   4.393
 2951SOL     OW 9751   6.039   1.797   1.100
 2951SOL    HW1 9752   5.944   1.793   1.068
 2951SOL    HW2 9753   6.099   1.814   1.022
 2952SOL     OW 9754   1.180   5.419   4.906
 2952SOL    HW1 9755   1.251   5.469   4.955
 2952SOL    HW2 9756   1.202   5.321   4.907
 2953SOL     OW 9757   5.192   3.757   3.114
 2953SOL    HW1 9758   5.196   3.823   3.189
 2953SOL    HW2 9759   5.218   3.666   3.147
 2954SOL     OW 9760   0.464   5.873   2.314
 2954SOL    HW1 9761   0.450   5.797   2.250
 2954SOL    HW2 9762   0.430   5.846   2.404
 2955SOL     OW 9763   1.091   3.695   1.580
 2955SOL    HW1 9764   1.179   3.679   1.626
 2955SOL    HW2 9765   1.053   3.782   1.611
 2956SOL     OW 9766   5.824   6.822   3.237
 2956SOL    HW1 9767   5.812   6.766   3.155
 2956SOL    HW2 9768   5.773   6.907   3.227
 2957SOL     OW 9769   6.155   3.138   2.330
 2957SOL    HW1 9770   6.253   3.118   2.333
 2957SOL    HW2 9771   6.138   3.211   2.265
 2958SOL     OW 9772   2.340   4.361   4.570
 2958SOL    HW1 9773   2.403   4.405   4.634
 2958SOL    HW2 9774   2.309   4.274   4.608
 2959SOL     OW 9775   5.065   4.420   0.693
 2959SOL    HW1 9776   5.038   4.414   0.789
 2959SOL    HW2 9777   5.106   4.333   0.665
 2960SOL     OW 9778   4.033   6.909   6.349
 2960SOL    HW1 9779   4.075   6.818   6.353
 2960SOL    HW2 9780   3.998   6.926   6.257
 2961SOL     OW 9781   5.036   3.340   2.991
 2961SOL    HW1 9782   5.087   3.328   3.076
 2961SOL    HW2 9783   4.971   3.415   3.001
 2962SOL     OW 9784   4.107   0.840   3.452
 2962SOL    HW1 9785   4.056   0.755   3.437
 2962SOL    HW2 9786   4.047   0.918   3.438
 2963SOL     OW 9787   2.309   0.521   6.526
 2963SOL    HW1 9788   2.334   0.431   6.561
 2963SOL    HW2 9789   2.217   0.518   6.487
 2964SOL     OW 9790   0.462   6.783   2.720
 2964SOL    HW1 9791   0.447   6.736   2.807
 2964SOL    HW2 9792   0.560   6.797   2.705
 2965SOL     OW 9793   6.574   1.040   4.869
 2965SOL    HW1 9794   6.654   1.016   4.814
 2965SOL    HW2 9795   6.568   1.139   4.877
 2966SOL     OW 9796   6.654   5.803   4.109
 2966SOL    HW1 9797   6.598   5.742   4.166
 2966SOL    HW2 9798   6.656   5.768   4.016
 2967SOL     OW 9799   5.715   1.409   4.813
 2967SOL    HW1 9800   5.809   1.380   4.831
 2967SOL    HW2 9801   5.669   1.340   4.757
 2968SOL     OW 9802   0.429   3.225   6.331
 2968SOL    HW1 9803   0.503   3.205   6.396
 2968SOL    HW2 9804   0.459   3.203   6.238
 2969SOL     OW 9805   5.776   1.012   4.623
 2969SOL    HW1 9806   5.792   0.956   4.541
 2969SOL    HW2 9807   5.697   1.072   4.608
 2970SOL     OW 9808   1.358   4.694   6.048
 2970SOL    HW1 9809   1.376   4.604   6.007
 2970SOL    HW2 9810   1.427   4.712   6.119
 2971SOL     OW 9811   5.922   4.286   6.506
 2971SOL    HW1 9812   6.008   4.239   6.525
 2971SOL    HW2 9813   5.850   4.219   6.490
 2972SOL     OW 9814   6.230   4.685   6.258
 2972SOL    HW1 9815   6.158   4.714   6.194
 2972SOL    HW2 9816   6.190   4.664   6.347
 2973SOL     OW 9817   5.886   0.865   3.932
 2973SOL    HW1 9818   5.877   0.814   4.017
 2973SOL    HW2 9819   5.802   0.917   3.915
 2974SOL     OW 9820   0.891   4.295   3.193
 2974SOL    HW1 9821   0.932   4.358   3.259
 2974SOL    HW2 9822   0.954   4.218   3.177
 2975SOL     OW 9823   6.488   2.638   4.903
 2975SOL    HW1 9824   6.555   2.684   4.961
 2975SOL    HW2 9825   6.458   2.701   4.831
 2976SOL     OW 9826   4.337   2.216   3.095
 2976SOL    HW1 9827   4.259   2.228   3.034
 2976SOL    HW2 9828   4.420   2.253   3.052
 2977SOL     OW 9829   2.452   0.009   3.391
 2977SOL    HW1 9830   2.477   0.013   3.294
 2977SOL    HW2 9831   2.389   0.083   3.413
 2978SOL     OW 9832   4.240   4.821   6.808
 2978SOL    HW1 9833   4.318   4.782   6.759
 2978SOL    HW2 9834   4.232   4.918   6.786
 2979SOL     OW 9835   4.721   0.917   4.413
 2979SOL    HW1 9836   4.820   0.933   4.411
 2979SOL    HW2 9837   4.673   1.005   4.409
 2980SOL     OW 9838   1.491   5.901   4.029
 2980SOL    HW1 9839   1.421   5.904   3.958
 2980SOL    HW2 9840   1.565   5.841   4.001
 2981SOL     OW 9841   1.780   1.111   6.110
 2981SOL    HW1 9842   1.808   1.020   6.139
 2981SOL    HW2 9843   1.861   1.165   6.086
 2982SOL     OW 9844   3.551   5.667   3.334
 2982SOL    HW1 9845   3.452   5.668   3.350
 2982SOL    HW2 9846   3.586   5.575   3.351
 2983SOL     OW 9847   1.195   1.765   3.593
 2983SOL    HW1 9848   1.242   1.677   3.595
 2983SOL    HW2 9849   1.234   1.825   3.664
 2984SOL     OW 9850   5.350   5.875   1.356
 2984SOL    HW1 9851   5.257   5.906   1.335
 2984SOL    HW2 9852   5.385   5.927   1.434
 2985SOL     OW 9853   1.360   2.531   5.691
 2985SOL    HW1 9854   1.386   2.541   5.787
 2985SOL    HW2 9855   1.380   2.437   5.661
 2986SOL     OW 9856   2.934   3.631   5.785
 2986SOL    HW1 9857   2.964   3.726   5.772
 2986SOL    HW2 9858   2.978   3.573   5.716
 2987SOL     OW 9859   6.026   1.333   4.262
 2987SOL    HW1 9860   5.944   1.390   4.272
 2987SOL    HW2 9861   6.002   1.249   4.215
 2988SOL     OW 9862   0.745   6.126   3.098
 2988SOL    HW1 9863   0.701   6.038   3.079
 2988SOL    HW2 9864   0.748   6.181   3.015
 2989SOL     OW 9865   6.701   6.288   6.779
 2989SOL    HW1 9866   6.642   6.219   6.819
 2989SOL    HW2 9867   6.717   6.267   6.682
 2990SOL     OW 9868   4.688   1.875   4.570
 2990SOL    HW1 9869   4.695   1.954   4.631
 2990SOL    HW2 9870   4.770   1.870   4.512
 2991SOL     OW 9871   6.377   4.160   5.949
 2991SOL    HW1 9872   6.440   4.218   5.898
 2991SOL    HW2 9873   6.289   4.206   5.957
 2992SOL     OW 9874   2.449   5.125   5.869
 2992SOL    HW1 9875   2.404   5.209   5.900
 2992SOL    HW2 9876   2.528   5.150   5.812
 2993SOL     OW 9877   0.536   5.066   1.441
 2993SOL    HW1 9878   0.592   5.140   1.404
 2993SOL    HW2 9879   0.452   5.104   1.481
 2994SOL     OW 9880   3.900   6.582   0.352
 2994SOL    HW1 9881   3.917   6.544   0.442
 2994SOL    HW2 9882   3.984   6.580   0.298
 2995SOL     OW 9883   1.854   2.819   6.964
 2995SOL    HW1 9884   1.798   2.763   0.007
 2995SOL    HW2 9885   1.888   2.762   6.889
 2996SOL     OW 9886   2.183   6.739   4.163
 2996SOL    HW1 9887   2.199   6.725   4.065
 2996SOL    HW2 9888   2.097   6.789   4.176
 2997SOL     OW 9889   5.584   0.870   2.424
 2997SOL    HW1 9890   5.604   0.787   2.373
 2997SOL    HW2 9891   5.648   0.942   2.396
 2998SOL     OW 9892   4.888   0.025   4.386
 2998SOL    HW1 9893   4.912   0.074   4.470
 2998SOL    HW2 9894   4.878   0.090   4.311
 2999SOL     OW 9895   3.029   4.983   4.681
 2999SOL    HW1 9896   2.983   5.068   4.656
 2999SOL    HW2 9897   2.972   4.931   4.744
 3000SOL     OW 9898   1.929   3.685   6.959
 3000SOL    HW1 9899   1.886   3.774   6.973
 3000SOL    HW2 9900   1.957   3.677   6.863
 3001SOL     OW 9901   5.130   6.179   6.100
 3001SOL    HW1 9902   5.178   6.189   6.013
 3001SOL    HW2 9903   5.048   6.124   6.086
 3002SOL     OW 9904   3.900   0.504   6.492
 3002SOL    HW1 9905   3.835   0.457   6.433
 3002SOL    HW2 9906   3.854   0.536   6.575
 3003SOL     OW 9907   2.335   6.791   6.874
 3003SOL    HW1 9908   2.284   6.862   6.827
 3003SOL    HW2 9909   2.278   6.710   6.885
 3004SOL     OW 9910   1.455   4.618   3.281
 3004SOL    HW1 9911   1.400   4.679   3.224
 3004SOL    HW2 9912   1.475   4.663   3.368
 3005SOL     OW 9913   3.287   2.670   6.748
 3005SOL    HW1 9914   3.193   2.675   6.781
 3005SOL    HW2 9915   3.301   2.739   6.677
 3006SOL     OW 9916   5.173   2.417   6.066
 3006SOL    HW1 9917   5.223   2.399   6.151
 3006SOL    HW2 9918   5.195   2.346   5.999
 3007SOL     OW 9919   5.758   5.605   0.943
 3007SOL    HW1 9920   5.832   5.657   0.900
 3007SOL    HW2 9921   5.678   5.664   0.953
 3008SOL     OW 9922   3.656   1.096   6.790
 3008SOL    HW1 9923   3.633   1.132   6.699
 3008SOL    HW2 9924   3.592   1.131   6.857
 3009SOL     OW 9925   0.936   0.912   2.895
 3009SOL    HW1 9926   0.846   0.872   2.879
 3009SOL    HW2 9927   0.967   0.958   2.811
 3010SOL     OW 9928   3.238   6.103   3.455
 3010SOL    HW1 9929   3.143   6.129   3.438
 3010SOL    HW2 9930   3.285   6.176   3.502
 3011SOL     OW 9931   5.191   1.200   1.348
 3011SOL    HW1 9932   5.173   1.198   1.446
 3011SOL    HW2 9933   5.139   1.128   1.302
 3012SOL     OW 9934   1.514   3.796   5.192
 3012SOL    HW1 9935   1.416   3.784   5.181
 3012SOL    HW2 9936   1.532   3.887   5.231
 3013SOL     OW 9937   5.391   5.912   4.689
 3013SOL    HW1 9938   5.434   5.921   4.779
 3013SOL    HW2 9939   5.317   5.978   4.680
 3014SOL     OW 9940   4.768   2.946   4.902
 3014SOL    HW1 9941   4.755   2.894   4.818
 3014SOL    HW2 9942   4.781   3.043   4.880
 3015SOL     OW 9943   3.122   2.440   6.970
 3015SOL    HW1 9944   3.058   2.468   0.023
 3015SOL    HW2 9945   3.216   2.455   7.001
 3016SOL     OW 9946   2.852   5.975   4.638
 3016SOL    HW1 9947   2.816   5.885   4.615
 3016SOL    HW2 9948   2.871   6.027   4.555
 3017SOL     OW 9949   0.388   5.222   1.978
 3017SOL    HW1 9950   0.316   5.248   1.914
 3017SOL    HW2 9951   0.477   5.242   1.938
 3018SOL     OW 9952   1.985   6.718   5.863
 3018SOL    HW1 9953   1.985   6.628   5.819
 3018SOL    HW2 9954   1.985   6.706   5.963
 3019SOL     OW 9955   1.064   0.214   6.875
 3019SOL    HW1 9956   1.100   0.304   6.897
 3019SOL    HW2 9957   0.976   0.223   6.828
 3020SOL     OW 9958   4.110   3.243   2.115
 3020SOL    HW1 9959   4.173   3.297   2.171
 3020SOL    HW2 9960   4.147   3.234   2.023
 3021SOL     OW 9961   3.038   6.969   6.850
 3021SOL    HW1 9962   3.050   0.037   6.900
 3021SOL    HW2 9963   3.042   6.892   6.914
 3022SOL     OW 9964   3.971   4.838   4.642
 3022SOL    HW1 9965   3.933   4.750   4.671
 3022SOL    HW2 9966   3.949   4.854   4.546
 3023SOL     OW 9967   4.152   0.406   2.895
 3023SOL    HW1 9968   4.173   0.341   2.968
 3023SOL    HW2 9969   4.191   0.495   2.918
 3024SOL     OW 9970   3.958   6.415   5.324
 3024SOL    HW1 9971   3.970   6.485   5.253
 3024SOL    HW2 9972   4.043   6.406   5.375
 3025SOL     OW 9973   3.673   1.058   0.513
 3025SOL    HW1 9974   3.601   1.127   0.503
 3025SOL    HW2 9975   3.660   1.008   0.598
 3026SOL     OW 9976   1.531   0.961   0.743
 3026SOL    HW1 9977   1.630   0.945   0.743
 3026SOL    HW2 9978   1.498   0.964   0.837
 3027SOL     OW 9979   4.081   0.930   3.012
 3027SOL    HW1 9980   4.132   0.984   3.079
 3027SOL    HW2 9981   4.003   0.886   3.058
 3028SOL     OW 9982   1.180   4.359   5.689
 3028SOL    HW1 9983   1.271   4.349   5.648
 3028SOL    HW2 9984   1.114   4.387   5.618
 3029SOL     OW 9985   0.066   2.830   4.991
 3029SOL    HW1 9986   0.160   2.809   4.965
 3029SOL    HW2 9987   0.055   2.818   5.089
 3030SOL     OW 9988   0.976   3.043   5.893
 3030SOL    HW1 9989   0.937   3.081   5.977
 3030SOL    HW2 9990   0.928   3.081   5.814
 3031SOL     OW 9991   0.717   3.047   0.729
 3031SOL    HW1 9992   0.759   3.097   0.653
 3031SOL    HW2 9993   0.704   3.109   0.807
 3032SOL     OW 9994   4.275   6.319   2.018
 3032SOL    HW1 9995   4.236   6.329   2.109
 3032SOL    HW2 9996   4.218   6.368   1.952
 3033SOL     OW 9997   6.796   1.830   1.672
 3033SOL    HW1 9998   6.811   1.855   1.577
 3033SOL    HW2 9999   6.760   1.737   1.677
 3034SOL     OW10000   1.690   5.575   3.504
 3034SOL    HW110001   1.722   5.579   3.598
 3034SOL    HW210002   1.590   5.575   3.502
 3035SOL     OW10003   6.797   3.242   0.223
 3035SOL    HW110004   6.860   3.252   0.299
 3035SOL    HW210005   6.741   3.324   0.214
 3036SOL     OW10006   1.144   2.763   6.872
 3036SOL    HW110007   1.203   2.701   6.924
 3036SOL    HW210008   1.049   2.747   6.898
 3037SOL     OW10009   0.184   6.300   5.418
 3037SOL    HW110010   0.171   6.399   5.423
 3037SOL    HW210011   0.177   6.271   5.322
 3038SOL     OW10012   6.081   5.887   5.506
 3038SOL    HW110013   6.140   5.813   5.474
 3038SOL    HW210014   6.102   5.971   5.456
 3039SOL     OW10015   6.736   4.014   1.451
 3039SOL    HW110016   6.826   3.981   1.481
 3039SOL    HW210017   6.682   3.937   1.418
 3040SOL     OW10018   3.975   3.368   6.267
 3040SOL    HW110019   3.956   3.401   6.175
 3040SOL    HW210020   3.941   3.274   6.277
 3041SOL     OW10021   2.114   2.668   4.629
 3041SOL    HW110022   2.143   2.703   4.718
 3041SOL    HW210023   2.168   2.588   4.604
 3042SOL     OW10024   4.693   6.587   2.243
 3042SOL    HW110025   4.750   6.505   2.239
 3042SOL    HW210026   4.599   6.564   2.222
 3043SOL     OW10027   1.096   5.687   1.773
 3043SOL    HW110028   1.083   5.699   1.675
 3043SOL    HW210029   1.015   5.718   1.822
 3044SOL     OW10030   3.260   3.436   5.737
 3044SOL    HW110031   3.233   3.412   5.831
 3044SOL    HW210032   3.351   3.477   5.739
 3045SOL     OW10033   4.937   1.313   2.789
 3045SOL    HW110034   4.907   1.217   2.792
 3045SOL    HW210035   4.868   1.368   2.742
 3046SOL     OW10036   2.425   1.359   6.727
 3046SOL    HW110037   2.515   1.317   6.739
 3046SOL    HW210038   2.418   1.397   6.634
 3047SOL     OW10039   5.315   0.163   2.598
 3047SOL    HW110040   5.277   0.101   2.530
 3047SOL    HW210041   5.278   0.255   2.584
 3048SOL     OW10042   3.860   2.917   1.692
 3048SOL    HW110043   3.872   2.955   1.784
 3048SOL    HW210044   3.829   2.989   1.630
 3049SOL     OW10045   0.760   6.918   1.714
 3049SOL    HW110046   0.683   6.856   1.697
 3049SOL    HW210047   0.792   6.907   1.808
 3050SOL     OW10048   3.200   0.953   2.258
 3050SOL    HW110049   3.194   0.968   2.159
 3050SOL    HW210050   3.138   0.879   2.284
 3051SOL     OW10051   2.071   4.175   0.348
 3051SOL    HW110052   1.984   4.139   0.382
 3051SOL    HW210053   2.145   4.111   0.370
 3052SOL     OW10054   5.268   7.009   2.379
 3052SOL    HW110055   5.299   6.924   2.337
 3052SOL    HW210056   5.168   7.012   2.378
 3053SOL     OW10057   0.115   2.023   6.773
 3053SOL    HW110058   0.147   1.929   6.784
 3053SOL    HW210059   0.158   2.064   6.693
 3054SOL     OW10060   6.759   1.955   1.233
 3054SOL    HW110061   6.793   2.016   1.162
 3054SOL    HW210062   6.804   1.977   1.320
 3055SOL     OW10063   5.184   7.011   3.731
 3055SOL    HW110064   5.103   6.993   3.675
 3055SOL    HW210065   5.263   6.964   3.693
 3056SOL     OW10066   5.997   1.077   5.286
 3056SOL    HW110067   5.984   1.083   5.385
 3056SOL    HW210068   5.913   1.105   5.240
 3057SOL     OW10069   3.595   6.139   3.579
 3057SOL    HW110070   3.577   6.065   3.514
 3057SOL    HW210071   3.567   6.111   3.670
 3058SOL     OW10072   6.857   5.484   0.939
 3058SOL    HW110073   6.858   5.516   0.844
 3058SOL    HW210074   6.935   5.424   0.955
 3059SOL     OW10075   2.356   2.095   4.177
 3059SOL    HW110076   2.334   2.095   4.080
 3059SOL    HW210077   2.437   2.038   4.192
 3060SOL     OW10078   0.451   5.301   0.069
 3060SOL    HW110079   0.483   5.379   0.016
 3060SOL    HW210080   0.358   5.319   0.102
 3061SOL     OW10081   6.266   0.047   5.511
 3061SOL    HW110082   6.183   0.076   5.559
 3061SOL    HW210083   6.261   6.968   5.490
 3062SOL     OW10084   1.526   6.560   6.857
 3062SOL    HW110085   1.447   6.509   6.823
 3062SOL    HW210086   1.572   6.606   6.781
 3063SOL     OW10087   2.706   5.479   1.606
 3063SOL    HW110088   2.706   5.412   1.680
 3063SOL    HW210089   2.652   5.442   1.529
 3064SOL     OW10090   5.885   4.220   3.102
 3064SOL    HW110091   5.979   4.233   3.134
 3064SOL    HW210092   5.833   4.170   3.171
 3065SOL     OW10093   2.632   1.158   0.165
 3065SOL    HW110094   2.547   1.105   0.163
 3065SOL    HW210095   2.631   1.225   0.091
 3066SOL     OW10096   5.074   4.699   0.991
 3066SOL    HW110097   5.110   4.639   1.062
 3066SOL    HW210098   5.149   4.726   0.930
 3067SOL     OW10099   3.709   1.824   5.376
 3067SOL    HW110100   3.650   1.848   5.299
 3067SOL    HW210101   3.803   1.850   5.355
 3068SOL     OW10102   6.462   6.309   1.914
 3068SOL    HW110103   6.519   6.379   1.957
 3068SOL    HW210104   6.489   6.296   1.819
 3069SOL     OW10105   6.612   6.750   2.040
 3069SOL    HW110106   6.670   6.669   2.049
 3069SOL    HW210107   6.615   6.802   2.125
 3070SOL     OW10108   1.323   1.142   1.905
 3070SOL    HW110109   1.365   1.196   1.978
 3070SOL    HW210110   1.381   1.062   1.886
 3071SOL     OW10111   6.243   6.090   3.008
 3071SOL    HW110112   6.175   6.096   3.080
 3071SOL    HW210113   6.215   6.147   2.931
 3072SOL     OW10114   1.728   0.097   6.826
 3072SOL    HW110115   1.669   0.101   6.907
 3072SOL    HW210116   1.678   0.130   6.746
 3073SOL     OW10117   6.152   2.707   4.713
 3073SOL    HW110118   6.112   2.629   4.665
 3073SOL    HW210119   6.245   2.722   4.680
 3074SOL     OW10120   5.961   3.176   1.067
 3074SOL    HW110121   5.987   3.195   0.973
 3074SOL    HW210122   5.867   3.142   1.070
 3075SOL     OW10123   2.119   5.841   1.972
 3075SOL    HW110124   2.119   5.939   1.954
 3075SOL    HW210125   2.090   5.792   1.890
 3076SOL     OW10126   6.822   0.625   4.373
 3076SOL    HW110127   6.864   0.553   4.428
 3076SOL    HW210128   6.852   0.617   4.278
 3077SOL     OW10129   4.716   6.114   2.390
 3077SOL    HW110130   4.712   6.060   2.474
 3077SOL    HW210131   4.688   6.057   2.313
 3078SOL     OW10132   1.312   3.290   2.113
 3078SOL    HW110133   1.328   3.196   2.141
 3078SOL    HW210134   1.378   3.316   2.042
 3079SOL     OW10135   2.147   1.774   4.223
 3079SOL    HW110136   2.162   1.858   4.275
 3079SOL    HW210137   2.063   1.783   4.169
 3080SOL     OW10138   4.792   4.079   3.453
 3080SOL    HW110139   4.845   4.152   3.409
 3080SOL    HW210140   4.816   3.991   3.413
 3081SOL     OW10141   0.670   2.517   6.140
 3081SOL    HW110142   0.646   2.514   6.043
 3081SOL    HW210143   0.752   2.573   6.153
 3082SOL     OW10144   2.765   6.989   4.230
 3082SOL    HW110145   2.690   6.940   4.274
 3082SOL    HW210146   2.842   6.927   4.216
 3083SOL     OW10147   3.800   6.149   3.324
 3083SOL    HW110148   3.840   6.212   3.391
 3083SOL    HW210149   3.745   6.081   3.373
 3084SOL     OW10150   5.356   4.368   4.966
 3084SOL    HW110151   5.262   4.350   4.995
 3084SOL    HW210152   5.398   4.283   4.935
 3085SOL     OW10153   6.762   4.500   1.974
 3085SOL    HW110154   6.791   4.494   2.069
 3085SOL    HW210155   6.737   4.594   1.952
 3086SOL     OW10156   3.915   2.035   2.107
 3086SOL    HW110157   3.856   2.104   2.066
 3086SOL    HW210158   3.985   2.008   2.040
 3087SOL     OW10159   0.535   5.187   4.277
 3087SOL    HW110160   0.501   5.275   4.309
 3087SOL    HW210161   0.508   5.174   4.182
 3088SOL     OW10162   2.519   4.518   5.707
 3088SOL    HW110163   2.462   4.573   5.647
 3088SOL    HW210164   2.487   4.424   5.707
 3089SOL     OW10165   1.158   3.746   0.225
 3089SOL    HW110166   1.196   3.785   0.141
 3089SOL    HW210167   1.146   3.819   0.293
 3090SOL     OW10168   1.790   2.139   2.204
 3090SOL    HW110169   1.877   2.187   2.218
 3090SOL    HW210170   1.789   2.055   2.260
 3091SOL     OW10171   1.630   0.647   1.206
 3091SOL    HW110172   1.658   0.568   1.152
 3091SOL    HW210173   1.614   0.618   1.301
 3092SOL     OW10174   5.220   6.585   0.526
 3092SOL    HW110175   5.277   6.554   0.602
 3092SOL    HW210176   5.127   6.603   0.559
 3093SOL     OW10177   5.119   6.324   5.622
 3093SOL    HW110178   5.135   6.392   5.551
 3093SOL    HW210179   5.022   6.322   5.646
 3094SOL     OW10180   2.434   6.358   4.133
 3094SOL    HW110181   2.506   6.291   4.149
 3094SOL    HW210182   2.354   6.335   4.190
 3095SOL     OW10183   2.217   5.726   5.847
 3095SOL    HW110184   2.166   5.644   5.819
 3095SOL    HW210185   2.239   5.719   5.945
 3096SOL     OW10186   1.889   6.201   4.918
 3096SOL    HW110187   1.823   6.129   4.942
 3096SOL    HW210188   1.850   6.259   4.847
 3097SOL     OW10189   6.530   2.580   0.568
 3097SOL    HW110190   6.508   2.486   0.540
 3097SOL    HW210191   6.579   2.626   0.494
 3098SOL     OW10192   3.014   3.405   0.985
 3098SOL    HW110193   3.047   3.318   1.022
 3098SOL    HW210194   2.933   3.389   0.929
 3099SOL     OW10195   0.755   6.778   3.526
 3099SOL    HW110196   0.727   6.688   3.493
 3099SOL    HW210197   0.697   6.848   3.484
 3100SOL     OW10198   6.448   6.544   4.466
 3100SOL    HW110199   6.540   6.511   4.442
 3100SOL    HW210200   6.381   6.495   4.410
 3101SOL     OW10201   4.996   6.599   6.041
 3101SOL    HW110202   4.960   6.693   6.037
 3101SOL    HW210203   4.923   6.535   6.019
 3102SOL     OW10204   0.400   4.239   2.518
 3102SOL    HW110205   0.486   4.289   2.534
 3102SOL    HW210206   0.386   4.230   2.419
 3103SOL     OW10207   3.795   0.592   2.537
 3103SOL    HW110208   3.800   0.492   2.544
 3103SOL    HW210209   3.744   0.616   2.454
 3104SOL     OW10210   5.306   6.280   5.191
 3104SOL    HW110211   5.334   6.329   5.274
 3104SOL    HW210212   5.333   6.333   5.111
 3105SOL     OW10213   6.078   4.401   2.136
 3105SOL    HW110214   6.117   4.309   2.131
 3105SOL    HW210215   6.045   4.428   2.046
 3106SOL     OW10216   6.135   1.795   2.645
 3106SOL    HW110217   6.113   1.801   2.547
 3106SOL    HW210218   6.170   1.883   2.677
 3107SOL     OW10219   4.066   1.172   4.394
 3107SOL    HW110220   3.975   1.168   4.351
 3107SOL    HW210221   4.080   1.262   4.435
 3108SOL     OW10222   0.578   0.009   4.256
 3108SOL    HW110223   0.507   0.070   4.290
 3108SOL    HW210224   0.585   0.017   4.157
 3109SOL     OW10225   5.312   6.759   2.286
 3109SOL    HW110226   5.275   6.690   2.347
 3109SOL    HW210227   5.305   6.728   2.192
 3110SOL     OW10228   1.965   2.018   3.611
 3110SOL    HW110229   1.898   2.092   3.601
 3110SOL    HW210230   2.057   2.054   3.596
 3111SOL     OW10231   5.881   5.988   3.907
 3111SOL    HW110232   5.815   6.053   3.944
 3111SOL    HW210233   5.912   6.019   3.817
 3112SOL     OW10234   4.787   2.352   6.349
 3112SOL    HW110235   4.694   2.388   6.346
 3112SOL    HW210236   4.834   2.371   6.263
 3113SOL     OW10237   2.008   5.845   3.732
 3113SOL    HW110238   2.039   5.847   3.827
 3113SOL    HW210239   2.008   5.750   3.700
 3114SOL     OW10240   4.409   2.240   0.563
 3114SOL    HW110241   4.445   2.150   0.590
 3114SOL    HW210242   4.440   2.309   0.629
 3115SOL     OW10243   4.285   3.015   6.464
 3115SOL    HW110244   4.290   3.013   6.564
 3115SOL    HW210245   4.197   3.053   6.436
 3116SOL     OW10246   0.285   3.095   0.424
 3116SOL    HW110247   0.265   2.997   0.414
 3116SOL    HW210248   0.230   3.133   0.498
 3117SOL     OW10249   4.225   3.756   5.399
 3117SOL    HW110250   4.234   3.672   5.345
 3117SOL    HW210251   4.152   3.813   5.361
 3118SOL     OW10252   0.384   4.482   1.290
 3118SOL    HW110253   0.303   4.423   1.282
 3118SOL    HW210254   0.357   4.577   1.278
 3119SOL     OW10255   1.743   3.483   5.691
 3119SOL    HW110256   1.778   3.401   5.735
 3119SOL    HW210257   1.787   3.564   5.730
 3120SOL     OW10258   3.128   0.016   4.518
 3120SOL    HW110259   3.178   0.001   4.433
 3120SOL    HW210260   3.150   6.960   4.582
 3121SOL     OW10261   6.571   1.651   3.679
 3121SOL    HW110262   6.599   1.623   3.771
 3121SOL    HW210263   6.597   1.580   3.613
 3122SOL     OW10264   3.272   6.667   5.678
 3122SOL    HW110265   3.292   6.575   5.714
 3122SOL    HW210266   3.322   6.681   5.593
 3123SOL     OW10267   4.464   1.953   4.118
 3123SOL    HW110268   4.505   1.914   4.201
 3123SOL    HW210269   4.510   2.038   4.095
 3124SOL     OW10270   4.340   6.433   4.570
 3124SOL    HW110271   4.364   6.367   4.641
 3124SOL    HW210272   4.249   6.470   4.589
 3125SOL     OW10273   6.166   2.151   5.144
 3125SOL    HW110274   6.147   2.076   5.081
 3125SOL    HW210275   6.091   2.160   5.209
 3126SOL     OW10276   4.285   4.809   6.457
 3126SOL    HW110277   4.265   4.712   6.469
 3126SOL    HW210278   4.212   4.863   6.500
 3127SOL     OW10279   1.037   3.336   3.919
 3127SOL    HW110280   1.032   3.270   3.994
 3127SOL    HW210281   1.001   3.295   3.836
 3128SOL     OW10282   2.105   0.743   6.882
 3128SOL    HW110283   2.077   0.648   6.887
 3128SOL    HW210284   2.200   0.748   6.851
 3129SOL     OW10285   0.894   3.921   6.499
 3129SOL    HW110286   0.815   3.957   6.549
 3129SOL    HW210287   0.950   3.866   6.561
 3130SOL     OW10288   1.872   4.382   1.492
 3130SOL    HW110289   1.923   4.406   1.410
 3130SOL    HW210290   1.842   4.287   1.487
 3131SOL     OW10291   6.851   2.682   1.184
 3131SOL    HW110292   6.918   2.630   1.236
 3131SOL    HW210293   6.759   2.656   1.212
 3132SOL     OW10294   4.543   5.413   5.546
 3132SOL    HW110295   4.533   5.313   5.543
 3132SOL    HW210296   4.494   5.453   5.469
 3133SOL     OW10297   3.812   2.149   3.987
 3133SOL    HW110298   3.715   2.170   3.977
 3133SOL    HW210299   3.825   2.093   4.069
 3134SOL     OW10300   4.703   4.908   1.388
 3134SOL    HW110301   4.670   4.996   1.355
 3134SOL    HW210302   4.739   4.854   1.312
 3135SOL     OW10303   5.126   0.425   5.543
 3135SOL    HW110304   5.142   0.523   5.535
 3135SOL    HW210305   5.087   0.404   5.633
 3136SOL     OW10306   5.479   0.653   0.881
 3136SOL    HW110307   5.458   0.738   0.929
 3136SOL    HW210308   5.570   0.659   0.840
 3137SOL     OW10309   5.936   0.614   3.069
 3137SOL    HW110310   6.020   0.578   3.030
 3137SOL    HW210311   5.911   0.561   3.150
 3138SOL     OW10312   6.084   3.215   3.803
 3138SOL    HW110313   6.011   3.253   3.861
 3138SOL    HW210314   6.145   3.159   3.859
 3139SOL     OW10315   5.020   6.459   0.320
 3139SOL    HW110316   4.937   6.486   0.369
 3139SOL    HW210317   5.098   6.466   0.381
 3140SOL     OW10318   5.946   6.912   6.423
 3140SOL    HW110319   6.005   6.845   6.380
 3140SOL    HW210320   5.854   6.907   6.383
 3141SOL     OW10321   6.790   6.267   6.503
 3141SOL    HW110322   6.880   6.280   6.462
 3141SOL    HW210323   6.745   6.356   6.512
 3142SOL     OW10324   3.886   6.507   1.931
 3142SOL    HW110325   3.914   6.602   1.942
 3142SOL    HW210326   3.956   6.457   1.880
 3143SOL     OW10327   6.903   2.081   6.641
 3143SOL    HW110328   6.982   2.043   6.689
 3143SOL    HW210329   6.824   2.082   6.704
 3144SOL     OW10330   4.338   4.410   1.140
 3144SOL    HW110331   4.382   4.499   1.150
 3144SOL    HW210332   4.242   4.416   1.166
 3145SOL     OW10333   1.367   5.448   2.095
 3145SOL    HW110334   1.411   5.366   2.131
 3145SOL    HW210335   1.425   5.528   2.114
 3146SOL     OW10336   1.741   0.254   2.697
 3146SOL    HW110337   1.659   0.304   2.672
 3146SOL    HW210338   1.773   0.285   2.787
 3147SOL     OW10339   2.673   5.047   0.451
 3147SOL    HW110340   2.669   4.956   0.411
 3147SOL    HW210341   2.752   5.096   0.414
 3148SOL     OW10342   5.010   6.077   4.387
 3148SOL    HW110343   4.945   6.008   4.419
 3148SOL    HW210344   4.992   6.098   4.291
 3149SOL     OW10345   2.589   0.879   5.459
 3149SOL    HW110346   2.569   0.969   5.420
 3149SOL    HW210347   2.508   0.844   5.506
 3150SOL     OW10348   6.832   5.968   4.173
 3150SOL    HW110349   6.804   6.034   4.242
 3150SOL    HW210350   6.762   5.897   4.164
 3151SOL     OW10351   4.258   1.503   6.507
 3151SOL    HW110352   4.319   1.427   6.487
 3151SOL    HW210353   4.310   1.589   6.504
 3152SOL     OW10354   1.696   5.810   0.826
 3152SOL    HW110355   1.676   5.854   0.739
 3152SOL    HW210356   1.658   5.717   0.826
 3153SOL     OW10357   6.835   4.467   2.507
 3153SOL    HW110358   6.759   4.418   2.549
 3153SOL    HW210359   6.819   4.566   2.514
 3154SOL     OW10360   6.811   1.138   0.061
 3154SOL    HW110361   6.859   1.054   0.085
 3154SOL    HW210362   6.869   1.194   0.003
 3155SOL     OW10363   6.603   4.535   1.277
 3155SOL    HW110364   6.664   4.485   1.215
 3155SOL    HW210365   6.618   4.504   1.371
 3156SOL     OW10366   3.340   3.694   3.300
 3156SOL    HW110367   3.412   3.749   3.258
 3156SOL    HW210368   3.328   3.609   3.249
 3157SOL     OW10369   2.290   2.773   4.827
 3157SOL    HW110370   2.350   2.779   4.907
 3157SOL    HW210371   2.332   2.714   4.758
 3158SOL     OW10372   4.270   6.859   2.394
 3158SOL    HW110373   4.318   6.844   2.307
 3158SOL    HW210374   4.215   6.778   2.415
 3159SOL     OW10375   5.733   1.614   0.216
 3159SOL    HW110376   5.701   1.541   0.276
 3159SOL    HW210377   5.833   1.615   0.214
 3160SOL     OW10378   0.652   6.229   5.067
 3160SOL    HW110379   0.643   6.292   5.143
 3160SOL    HW210380   0.625   6.137   5.096
 3161SOL     OW10381   1.830   1.679   4.051
 3161SOL    HW110382   1.832   1.772   4.089
 3161SOL    HW210383   1.747   1.633   4.080
 3162SOL     OW10384   1.117   6.568   1.548
 3162SOL    HW110385   1.116   6.595   1.644
 3162SOL    HW210386   1.187   6.621   1.499
 3163SOL     OW10387   3.376   1.810   6.440
 3163SOL    HW110388   3.415   1.823   6.531
 3163SOL    HW210389   3.439   1.845   6.371
 3164SOL     OW10390   4.632   4.511   1.451
 3164SOL    HW110391   4.631   4.597   1.501
 3164SOL    HW210392   4.590   4.439   1.506
 3165SOL     OW10393   0.914   6.027   1.197
 3165SOL    HW110394   0.910   6.126   1.182
 3165SOL    HW210395   0.935   6.009   1.293
 3166SOL     OW10396   4.831   0.576   5.625
 3166SOL    HW110397   4.745   0.616   5.657
 3166SOL    HW210398   4.883   0.542   5.704
 3167SOL     OW10399   6.859   4.273   1.471
 3167SOL    HW110400   6.809   4.188   1.489
 3167SOL    HW210401   6.890   4.274   1.376
 3168SOL     OW10402   5.007   2.916   6.355
 3168SOL    HW110403   4.912   2.913   6.324
 3168SOL    HW210404   5.016   2.861   6.439
 3169SOL     OW10405   1.851   3.468   5.001
 3169SOL    HW110406   1.860   3.567   4.990
 3169SOL    HW210407   1.928   3.433   5.055
 3170SOL     OW10408   4.222   0.620   1.641
 3170SOL    HW110409   4.256   0.706   1.679
 3170SOL    HW210410   4.127   0.605   1.670
 3171SOL     OW10411   0.700   6.635   1.356
 3171SOL    HW110412   0.744   6.708   1.304
 3171SOL    HW210413   0.607   6.662   1.381
 3172SOL     OW10414   0.468   4.985   6.131
 3172SOL    HW110415   0.508   5.061   6.081
 3172SOL    HW210416   0.505   4.899   6.095
 3173SOL     OW10417   3.264   1.971   1.111
 3173SOL    HW110418   3.184   2.024   1.083
 3173SOL    HW210419   3.270   1.888   1.055
 3174SOL     OW10420   2.687   2.837   5.989
 3174SOL    HW110421   2.589   2.830   5.967
 3174SOL    HW210422   2.724   2.922   5.953
 3175SOL     OW10423   0.352   6.808   0.426
 3175SOL    HW110424   0.356   6.755   0.341
 3175SOL    HW210425   0.407   6.762   0.496
 3176SOL     OW10426   2.128   5.033   5.077
 3176SOL    HW110427   2.162   4.944   5.048
 3176SOL    HW210428   2.179   5.105   5.030
 3177SOL     OW10429   4.914   4.828   4.751
 3177SOL    HW110430   4.986   4.779   4.800
 3177SOL    HW210431   4.953   4.904   4.699
 3178SOL     OW10432   6.842   2.109   0.354
 3178SOL    HW110433   6.859   2.154   0.442
 3178SOL    HW210434   6.817   2.014   0.369
 3179SOL     OW10435   1.747   2.632   2.071
 3179SOL    HW110436   1.764   2.549   2.125
 3179SOL    HW210437   1.815   2.702   2.094
 3180SOL     OW10438   4.643   0.700   0.191
 3180SOL    HW110439   4.627   0.632   0.262
 3180SOL    HW210440   4.696   0.659   0.117
 3181SOL     OW10441   1.376   1.151   3.004
 3181SOL    HW110442   1.403   1.211   2.928
 3181SOL    HW210443   1.282   1.119   2.990
 3182SOL     OW10444   2.117   1.415   5.425
 3182SOL    HW110445   2.135   1.489   5.361
 3182SOL    HW210446   2.077   1.452   5.509
 3183SOL     OW10447   4.706   3.837   1.495
 3183SOL    HW110448   4.699   3.905   1.567
 3183SOL    HW210449   4.763   3.761   1.527
 3184SOL     OW10450   1.502   2.429   3.168
 3184SOL    HW110451   1.466   2.507   3.219
 3184SOL    HW210452   1.568   2.462   3.100
 3185SOL     OW10453   5.495   0.120   6.435
 3185SOL    HW110454   5.417   0.075   6.479
 3185SOL    HW210455   5.522   0.199   6.489
 3186SOL     OW10456   3.984   1.954   2.737
 3186SOL    HW110457   3.942   1.986   2.652
 3186SOL    HW210458   3.918   1.898   2.788
 3187SOL     OW10459   4.707   4.373   0.682
 3187SOL    HW110460   4.777   4.317   0.726
 3187SOL    HW210461   4.631   4.314   0.652
 3188SOL     OW10462   3.424   6.711   4.834
 3188SOL    HW110463   3.407   6.737   4.929
 3188SOL    HW210464   3.501   6.764   4.799
 3189SOL     OW10465   1.877   1.287   2.067
 3189SOL    HW110466   1.851   1.303   1.971
 3189SOL    HW210467   1.943   1.357   2.096
 3190SOL     OW10468   0.543   5.706   1.589
 3190SOL    HW110469   0.483   5.626   1.597
 3190SOL    HW210470   0.496   5.787   1.626
 3191SOL     OW10471   4.535   6.543   0.519
 3191SOL    HW110472   4.549   6.448   0.489
 3191SOL    HW210473   4.452   6.579   0.477
 3192SOL     OW10474   0.060   2.332   1.108
 3192SOL    HW110475   0.134   2.276   1.145
 3192SOL    HW210476   0.086   2.363   1.016
 3193SOL     OW10477   4.416   1.525   5.968
 3193SOL    HW110478   4.382   1.469   6.044
 3193SOL    HW210479   4.404   1.476   5.882
 3194SOL     OW10480   1.205   3.328   5.828
 3194SOL    HW110481   1.245   3.420   5.821
 3194SOL    HW210482   1.269   3.268   5.877
 3195SOL     OW10483   2.087   2.807   2.909
 3195SOL    HW110484   2.006   2.866   2.913
 3195SOL    HW210485   2.169   2.864   2.905
 3196SOL     OW10486   6.773   0.470   4.911
 3196SOL    HW110487   6.693   0.489   4.969
 3196SOL    HW210488   6.839   0.417   4.963
 3197SOL     OW10489   1.888   6.238   3.332
 3197SOL    HW110490   1.913   6.147   3.366
 3197SOL    HW210491   1.842   6.229   3.244
 3198SOL     OW10492   6.404   2.048   5.881
 3198SOL    HW110493   6.469   2.052   5.806
 3198SOL    HW210494   6.369   2.139   5.900
 3199SOL     OW10495   4.624   2.907   1.622
 3199SOL    HW110496   4.715   2.942   1.597
 3199SOL    HW210497   4.594   2.951   1.707
 3200SOL     OW10498   0.197   2.058   2.465
 3200SOL    HW110499   0.218   2.145   2.421
 3200SOL    HW210500   0.129   2.009   2.411
 3201SOL     OW10501   5.304   4.735   4.455
 3201SOL    HW110502   5.295   4.766   4.549
 3201SOL    HW210503   5.399   4.708   4.437
 3202SOL     OW10504   1.123   4.698   1.994
 3202SOL    HW110505   1.086   4.650   2.074
 3202SOL    HW210506   1.178   4.634   1.940
 3203SOL     OW10507   5.498   1.774   0.271
 3203SOL    HW110508   5.514   1.864   0.313
 3203SOL    HW210509   5.585   1.736   0.240
 3204SOL     OW10510   5.264   6.182   1.462
 3204SOL    HW110511   5.236   6.120   1.536
 3204SOL    HW210512   5.336   6.242   1.495
 3205SOL     OW10513   0.758   3.531   6.628
 3205SOL    HW110514   0.806   3.511   6.713
 3205SOL    HW210515   0.818   3.512   6.550
 3206SOL     OW10516   6.703   6.546   6.005
 3206SOL    HW110517   6.644   6.574   5.929
 3206SOL    HW210518   6.797   6.537   5.972
 3207SOL     OW10519   0.116   1.315   5.927
 3207SOL    HW110520   0.131   1.409   5.898
 3207SOL    HW210521   0.030   1.309   5.977
 3208SOL     OW10522   4.614   6.277   5.465
 3208SOL    HW110523   4.616   6.376   5.457
 3208SOL    HW210524   4.533   6.248   5.515
 3209SOL     OW10525   3.331   5.379   3.469
 3209SOL    HW110526   3.407   5.343   3.524
 3209SOL    HW210527   3.266   5.306   3.450
 3210SOL     OW10528   0.590   3.781   2.231
 3210SOL    HW110529   0.529   3.821   2.163
 3210SOL    HW210530   0.537   3.755   2.312
 3211SOL     OW10531   2.690   3.583   1.052
 3211SOL    HW110532   2.687   3.683   1.044
 3211SOL    HW210533   2.761   3.546   0.992
 3212SOL     OW10534   3.483   1.265   6.918
 3212SOL    HW110535   3.471   1.354   6.875
 3212SOL    HW210536   3.399   1.212   6.909
 3213SOL     OW10537   6.136   6.014   2.591
 3213SOL    HW110538   6.225   6.018   2.637
 3213SOL    HW210539   6.064   6.039   2.656
 3214SOL     OW10540   5.072   5.367   0.152
 3214SOL    HW110541   5.027   5.420   0.080
 3214SOL    HW210542   5.032   5.275   0.155
 3215SOL     OW10543   6.960   2.966   1.246
 3215SOL    HW110544   7.007   3.022   1.177
 3215SOL    HW210545   0.009   2.904   1.289
 3216SOL     OW10546   5.364   5.798   1.727
 3216SOL    HW110547   5.390   5.793   1.630
 3216SOL    HW210548   5.412   5.727   1.778
 3217SOL     OW10549   0.952   5.376   2.494
 3217SOL    HW110550   0.884   5.438   2.532
 3217SOL    HW210551   0.991   5.415   2.411
 3218SOL     OW10552   3.718   6.487   3.635
 3218SOL    HW110553   3.759   6.397   3.632
 3218SOL    HW210554   3.694   6.516   3.543
 3219SOL     OW10555   0.094   1.953   3.184
 3219SOL    HW110556   7.017   1.956   3.155
 3219SOL    HW210557   0.099   1.935   3.282
 3220SOL     OW10558   6.583   5.876   5.839
 3220SOL    HW110559   6.647   5.880   5.916
 3220SOL    HW210560   6.504   5.934   5.858
 3221SOL     OW10561   3.331   0.618   2.162
 3221SOL    HW110562   3.276   0.582   2.238
 3221SOL    HW210563   3.372   0.542   2.112
 3222SOL     OW10564   4.492   1.857   3.610
 3222SOL    HW110565   4.590   1.842   3.596
 3222SOL    HW210566   4.469   1.841   3.706
 3223SOL     OW10567   1.528   4.972   6.527
 3223SOL    HW110568   1.494   4.964   6.621
 3223SOL    HW210569   1.626   4.949   6.526
 3224SOL     OW10570   3.959   4.978   6.244
 3224SOL    HW110571   3.865   4.979   6.210
 3224SOL    HW210572   3.972   4.899   6.304
 3225SOL     OW10573   4.460   2.765   5.319
 3225SOL    HW110574   4.499   2.839   5.374
 3225SOL    HW210575   4.514   2.753   5.235
 3226SOL     OW10576   1.563   1.918   4.830
 3226SOL    HW110577   1.645   1.883   4.877
 3226SOL    HW210578   1.483   1.903   4.888
 3227SOL     OW10579   3.374   2.122   6.331
 3227SOL    HW110580   3.348   2.075   6.415
 3227SOL    HW210581   3.399   2.054   6.262
 3228SOL     OW10582   5.784   3.516   3.790
 3228SOL    HW110583   5.688   3.515   3.763
 3228SOL    HW210584   5.800   3.594   3.850
 3229SOL     OW10585   3.395   1.829   5.793
 3229SOL    HW110586   3.411   1.831   5.694
 3229SOL    HW210587   3.394   1.734   5.824
 3230SOL     OW10588   0.949   2.572   4.130
 3230SOL    HW110589   0.903   2.619   4.206
 3230SOL    HW210590   0.980   2.482   4.159
 3231SOL     OW10591   3.121   6.225   2.288
 3231SOL    HW110592   3.169   6.176   2.216
 3231SOL    HW210593   3.127   6.174   2.373
 3232SOL     OW10594   4.375   5.057   3.914
 3232SOL    HW110595   4.293   5.031   3.964
 3232SOL    HW210596   4.448   4.992   3.933
 3233SOL     OW10597   2.262   3.336   1.319
 3233SOL    HW110598   2.353   3.296   1.325
 3233SOL    HW210599   2.253   3.384   1.232
 3234SOL     OW10600   0.238   2.827   0.376
 3234SOL    HW110601   0.266   2.738   0.341
 3234SOL    HW210602   0.210   2.819   0.471
 3235SOL     OW10603   4.777   6.481   1.348
 3235SOL    HW110604   4.849   6.538   1.310
 3235SOL    HW210605   4.690   6.531   1.346
 3236SOL     OW10606   1.419   3.610   1.165
 3236SOL    HW110607   1.444   3.620   1.261
 3236SOL    HW210608   1.321   3.587   1.158
 3237SOL     OW10609   5.458   1.441   3.717
 3237SOL    HW110610   5.418   1.511   3.776
 3237SOL    HW210611   5.429   1.350   3.749
 3238SOL     OW10612   0.046   4.834   0.089
 3238SOL    HW110613   0.119   4.843   0.157
 3238SOL    HW210614   0.054   4.746   0.042
 3239SOL     OW10615   6.172   1.555   0.361
 3239SOL    HW110616   6.196   1.618   0.435
 3239SOL    HW210617   6.233   1.476   0.363
 3240SOL     OW10618   0.909   6.599   4.804
 3240SOL    HW110619   0.837   6.616   4.871
 3240SOL    HW210620   0.900   6.506   4.769
 3241SOL     OW10621   5.596   1.396   4.419
 3241SOL    HW110622   5.499   1.407   4.443
 3241SOL    HW210623   5.618   1.298   4.415
 3242SOL     OW10624   3.305   4.860   1.206
 3242SOL    HW110625   3.273   4.952   1.183
 3242SOL    HW210626   3.401   4.851   1.183
 3243SOL     OW10627   5.941   5.405   0.027
 3243SOL    HW110628   5.970   5.410   6.949
 3243SOL    HW210629   6.022   5.400   0.086
 3244SOL     OW10630   4.546   5.510   6.778
 3244SOL    HW110631   4.606   5.543   6.852
 3244SOL    HW210632   4.583   5.425   6.741
 3245SOL     OW10633   4.959   2.406   5.784
 3245SOL    HW110634   4.950   2.506   5.780
 3245SOL    HW210635   5.049   2.383   5.822
 3246SOL     OW10636   6.380   0.446   3.003
 3246SOL    HW110637   6.324   0.428   3.084
 3246SOL    HW210638   6.324   0.491   2.934
 3247SOL     OW10639   6.657   5.295   3.321
 3247SOL    HW110640   6.705   5.220   3.275
 3247SOL    HW210641   6.562   5.299   3.287
 3248SOL     OW10642   5.905   3.134   1.645
 3248SOL    HW110643   5.901   3.196   1.723
 3248SOL    HW210644   5.914   3.040   1.677
 3249SOL     OW10645   3.667   3.946   5.711
 3249SOL    HW110646   3.753   3.996   5.699
 3249SOL    HW210647   3.591   4.000   5.675
 3250SOL     OW10648   5.579   0.387   2.754
 3250SOL    HW110649   5.513   0.441   2.807
 3250SOL    HW210650   5.562   0.400   2.656
 3251SOL     OW10651   4.272   1.284   2.746
 3251SOL    HW110652   4.216   1.346   2.800
 3251SOL    HW210653   4.251   1.189   2.771
 3252SOL     OW10654   2.956   0.879   2.074
 3252SOL    HW110655   2.929   0.837   2.162
 3252SOL    HW210656   2.940   0.813   2.000
 3253SOL     OW10657   4.890   3.377   2.453
 3253SOL    HW110658   4.923   3.322   2.529
 3253SOL    HW210659   4.849   3.318   2.384
 3254SOL     OW10660   4.132   4.982   5.148
 3254SOL    HW110661   4.163   5.040   5.073
 3254SOL    HW210662   4.050   4.932   5.120
 3255SOL     OW10663   4.699   6.137   1.778
 3255SOL    HW110664   4.756   6.194   1.718
 3255SOL    HW210665   4.663   6.193   1.853
 3256SOL     OW10666   5.300   0.433   6.563
 3256SOL    HW110667   5.388   0.386   6.564
 3256SOL    HW210668   5.229   0.372   6.528
 3257SOL     OW10669   1.473   1.663   1.352
 3257SOL    HW110670   1.564   1.627   1.332
 3257SOL    HW210671   1.410   1.637   1.279
 3258SOL     OW10672   4.413   5.622   2.542
 3258SOL    HW110673   4.396   5.544   2.601
 3258SOL    HW210674   4.507   5.620   2.509
 3259SOL     OW10675   4.519   5.958   4.131
 3259SOL    HW110676   4.589   5.912   4.186
 3259SOL    HW210677   4.431   5.953   4.177
 3260SOL     OW10678   2.090   1.971   1.808
 3260SOL    HW110679   2.050   1.923   1.886
 3260SOL    HW210680   2.175   1.926   1.780
 3261SOL     OW10681   4.446   5.695   0.245
 3261SOL    HW110682   4.428   5.608   0.199
 3261SOL    HW210683   4.487   5.677   0.335
 3262SOL     OW10684   3.569   1.795   2.344
 3262SOL    HW110685   3.601   1.888   2.358
 3262SOL    HW210686   3.470   1.796   2.328
 3263SOL     OW10687   5.101   0.604   3.694
 3263SOL    HW110688   5.005   0.584   3.712
 3263SOL    HW210689   5.138   0.536   3.630
 3264SOL     OW10690   0.898   4.709   0.530
 3264SOL    HW110691   0.982   4.679   0.576
 3264SOL    HW210692   0.831   4.738   0.599
 3265SOL     OW10693   4.326   2.068   5.995
 3265SOL    HW110694   4.379   2.129   6.053
 3265SOL    HW210695   4.362   1.975   6.003
 3266SOL     OW10696   0.970   2.738   0.534
 3266SOL    HW110697   1.053   2.790   0.514
 3266SOL    HW210698   0.932   2.768   0.621
 3267SOL     OW10699   3.619   2.281   0.576
 3267SOL    HW110700   3.649   2.269   0.671
 3267SOL    HW210701   3.551   2.211   0.554
 3268SOL     OW10702   1.046   3.574   6.365
 3268SOL    HW110703   0.956   3.614   6.346
 3268SOL    HW210704   1.116   3.625   6.314
 3269SOL     OW10705   4.319   5.215   1.836
 3269SOL    HW110706   4.399   5.249   1.885
 3269SOL    HW210707   4.349   5.174   1.749
 3270SOL     OW10708   1.518   5.306   5.105
 3270SOL    HW110709   1.487   5.399   5.083
 3270SOL    HW210710   1.487   5.281   5.197
 3271SOL     OW10711   5.767   3.447   2.427
 3271SOL    HW110712   5.756   3.377   2.357
 3271SOL    HW210713   5.783   3.404   2.515
 3272SOL     OW10714   3.232   4.739   0.632
 3272SOL    HW110715   3.142   4.770   0.601
 3272SOL    HW210716   3.252   4.779   0.722
 3273SOL     OW10717   0.790   6.495   2.163
 3273SOL    HW110718   0.796   6.479   2.064
 3273SOL    HW210719   0.858   6.564   2.190
 3274SOL     OW10720   3.777   2.198   6.877
 3274SOL    HW110721   3.686   2.230   6.850
 3274SOL    HW210722   3.805   2.123   6.817
 3275SOL     OW10723   1.697   0.553   6.819
 3275SOL    HW110724   1.675   0.588   6.910
 3275SOL    HW210725   1.793   0.523   6.817
 3276SOL     OW10726   2.908   4.887   6.520
 3276SOL    HW110727   2.981   4.836   6.564
 3276SOL    HW210728   2.938   4.917   6.429
 3277SOL     OW10729   5.570   6.379   6.256
 3277SOL    HW110730   5.536   6.446   6.190
 3277SOL    HW210731   5.670   6.376   6.252
 3278SOL     OW10732   6.578   1.100   5.442
 3278SOL    HW110733   6.565   1.032   5.370
 3278SOL    HW210734   6.637   1.063   5.514
 3279SOL     OW10735   0.204   0.987   0.980
 3279SOL    HW110736   0.277   0.950   1.037
 3279SOL    HW210737   0.122   1.002   1.037
 3280SOL     OW10738   3.334   5.262   5.923
 3280SOL    HW110739   3.351   5.359   5.907
 3280SOL    HW210740   3.356   5.240   6.018
 3281SOL     OW10741   1.770   5.474   0.932
 3281SOL    HW110742   1.747   5.419   0.853
 3281SOL    HW210743   1.844   5.537   0.908
 3282SOL     OW10744   2.368   5.031   4.391
 3282SOL    HW110745   2.394   4.976   4.311
 3282SOL    HW210746   2.408   5.122   4.383
 3283SOL     OW10747   2.916   1.117   1.902
 3283SOL    HW110748   2.923   1.051   1.977
 3283SOL    HW210749   2.984   1.189   1.915
 3284SOL     OW10750   6.083   6.681   6.341
 3284SOL    HW110751   6.055   6.644   6.253
 3284SOL    HW210752   6.176   6.717   6.334
 3285SOL     OW10753   6.163   2.938   3.666
 3285SOL    HW110754   6.231   3.010   3.678
 3285SOL    HW210755   6.091   2.969   3.605
 3286SOL     OW10756   4.162   3.443   3.766
 3286SOL    HW110757   4.127   3.536   3.758
 3286SOL    HW210758   4.087   3.378   3.756
 3287SOL     OW10759   1.194   5.801   0.537
 3287SOL    HW110760   1.255   5.877   0.556
 3287SOL    HW210761   1.135   5.785   0.616
 3288SOL     OW10762   0.746   4.860   6.676
 3288SOL    HW110763   0.780   4.784   6.622
 3288SOL    HW210764   0.667   4.831   6.730
 3289SOL     OW10765   2.066   6.951   5.747
 3289SOL    HW110766   2.030   6.975   5.657
 3289SOL    HW210767   2.009   6.879   5.787
 3290SOL     OW10768   0.459   6.700   2.066
 3290SOL    HW110769   0.360   6.693   2.077
 3290SOL    HW210770   0.505   6.651   2.139
 3291SOL     OW10771   1.341   6.730   6.649
 3291SOL    HW110772   1.345   6.710   6.747
 3291SOL    HW210773   1.369   6.824   6.633
 3292SOL     OW10774   0.259   1.360   6.973
 3292SOL    HW110775   0.163   1.379   6.950
 3292SOL    HW210776   0.292   1.285   6.916
 3293SOL     OW10777   6.295   3.165   2.929
 3293SOL    HW110778   6.389   3.198   2.923
 3293SOL    HW210779   6.232   3.232   2.888
 3294SOL     OW10780   0.107   0.690   6.103
 3294SOL    HW110781   0.192   0.726   6.065
 3294SOL    HW210782   0.031   0.715   6.044
 3295SOL     OW10783   2.329   2.448   1.075
 3295SOL    HW110784   2.232   2.466   1.066
 3295SOL    HW210785   2.343   2.372   1.138
 3296SOL     OW10786   2.110   6.583   1.370
 3296SOL    HW110787   2.078   6.494   1.336
 3296SOL    HW210788   2.208   6.578   1.390
 3297SOL     OW10789   2.532   0.756   4.526
 3297SOL    HW110790   2.489   0.672   4.558
 3297SOL    HW210791   2.628   0.757   4.553
 3298SOL     OW10792   6.178   2.646   3.640
 3298SOL    HW110793   6.193   2.741   3.611
 3298SOL    HW210794   6.106   2.643   3.709
 3299SOL     OW10795   2.098   6.860   3.622
 3299SOL    HW110796   2.143   6.800   3.688
 3299SOL    HW210797   2.009   6.889   3.658
 3300SOL     OW10798   6.828   0.157   5.916
 3300SOL    HW110799   6.903   0.106   5.958
 3300SOL    HW210800   6.837   0.154   5.816
 3301SOL     OW10801   2.176   3.887   3.278
 3301SOL    HW110802   2.181   3.973   3.328
 3301SOL    HW210803   2.204   3.902   3.183
 3302SOL     OW10804   1.334   5.728   4.449
 3302SOL    HW110805   1.429   5.753   4.468
 3302SOL    HW210806   1.305   5.769   4.363
 3303SOL     OW10807   3.684   3.146   1.681
 3303SOL    HW110808   3.606   3.118   1.624
 3303SOL    HW210809   3.759   3.176   1.623
 3304SOL     OW10810   1.580   5.034   3.333
 3304SOL    HW110811   1.676   5.026   3.306
 3304SOL    HW210812   1.547   4.946   3.366
 3305SOL     OW10813   2.658   2.020   2.873
 3305SOL    HW110814   2.691   2.114   2.868
 3305SOL    HW210815   2.559   2.019   2.861
 3306SOL     OW10816   2.597   4.924   3.884
 3306SOL    HW110817   2.633   4.849   3.939
 3306SOL    HW210818   2.626   5.012   3.923
 3307SOL     OW10819   0.496   5.589   6.530
 3307SOL    HW110820   0.487   5.496   6.565
 3307SOL    HW210821   0.412   5.615   6.483
 3308SOL     OW10822   4.626   5.863   6.691
 3308SOL    HW110823   4.717   5.828   6.665
 3308SOL    HW210824   4.630   5.963   6.699
 3309SOL     OW10825   0.617   5.312   2.538
 3309SOL    HW110826   0.663   5.355   2.461
 3309SOL    HW210827   0.518   5.320   2.526
 3310SOL     OW10828   6.848   4.059   3.751
 3310SOL    HW110829   6.887   4.135   3.700
 3310SOL    HW210830   6.761   4.088   3.792
 3311SOL     OW10831   2.740   4.775   1.708
 3311SOL    HW110832   2.764   4.693   1.760
 3311SOL    HW210833   2.677   4.750   1.634
 3312SOL     OW10834   2.709   4.425   6.017
 3312SOL    HW110835   2.784   4.404   6.081
 3312SOL    HW210836   2.684   4.521   6.025
 3313SOL     OW10837   0.215   5.234   2.697
 3313SOL    HW110838   0.122   5.205   2.720
 3313SOL    HW210839   0.276   5.217   2.774
 3314SOL     OW10840   1.826   2.564   5.225
 3314SOL    HW110841   1.838   2.622   5.145
 3314SOL    HW210842   1.788   2.476   5.197
 3315SOL     OW10843   6.309   2.770   4.375
 3315SOL    HW110844   6.213   2.743   4.381
 3315SOL    HW210845   6.359   2.706   4.316
 3316SOL     OW10846   3.686   1.272   6.089
 3316SOL    HW110847   3.595   1.231   6.100
 3316SOL    HW210848   3.749   1.234   6.156
 3317SOL     OW10849   4.888   2.873   1.839
 3317SOL    HW110850   4.818   2.921   1.892
 3317SOL    HW210851   4.912   2.787   1.886
 3318SOL     OW10852   2.901   6.911   0.222
 3318SOL    HW110853   2.947   6.836   0.269
 3318SOL    HW210854   2.963   6.989   0.213
 3319SOL     OW10855   6.252   6.631   3.738
 3319SOL    HW110856   6.185   6.690   3.783
 3319SOL    HW210857   6.211   6.540   3.724
 3320SOL     OW10858   5.529   1.096   5.784
 3320SOL    HW110859   5.508   1.191   5.805
 3320SOL    HW210860   5.451   1.038   5.809
 3321SOL     OW10861   3.382   2.233   1.752
 3321SOL    HW110862   3.472   2.259   1.787
 3321SOL    HW210863   3.393   2.173   1.673
 3322SOL     OW10864   5.199   2.765   1.806
 3322SOL    HW110865   5.277   2.800   1.754
 3322SOL    HW210866   5.121   2.826   1.793
 3323SOL     OW10867   2.027   3.788   6.688
 3323SOL    HW110868   1.960   3.857   6.663
 3323SOL    HW210869   1.995   3.698   6.658
 3324SOL     OW10870   0.668   3.755   6.869
 3324SOL    HW110871   0.585   3.721   6.824
 3324SOL    HW210872   0.743   3.692   6.852
 3325SOL     OW10873   2.189   3.211   6.780
 3325SOL    HW110874   2.169   3.171   6.869
 3325SOL    HW210875   2.107   3.208   6.722
 3326SOL     OW10876   4.877   1.860   1.711
 3326SOL    HW110877   4.815   1.782   1.714
 3326SOL    HW210878   4.920   1.870   1.801
 3327SOL     OW10879   2.882   6.024   1.209
 3327SOL    HW110880   2.825   6.006   1.129
 3327SOL    HW210881   2.970   5.977   1.198
 3328SOL     OW10882   4.295   1.676   2.958
 3328SOL    HW110883   4.266   1.628   3.041
 3328SOL    HW210884   4.248   1.765   2.953
 3329SOL     OW10885   4.341   6.916   5.431
 3329SOL    HW110886   4.275   6.936   5.359
 3329SOL    HW210887   4.311   6.836   5.482
 3330SOL     OW10888   5.275   6.359   2.089
 3330SOL    HW110889   5.274   6.315   2.179
 3330SOL    HW210890   5.278   6.458   2.101
 3331SOL     OW10891   1.637   3.045   2.576
 3331SOL    HW110892   1.621   3.093   2.662
 3331SOL    HW210893   1.629   3.109   2.499
 3332SOL     OW10894   6.961   4.374   6.828
 3332SOL    HW110895   6.921   4.288   6.795
 3332SOL    HW210896   6.905   4.451   6.796
 3333SOL     OW10897   2.623   3.514   6.918
 3333SOL    HW110898   2.595   3.448   6.849
 3333SOL    HW210899   2.723   3.518   6.922
 3334SOL     OW10900   2.079   3.304   1.865
 3334SOL    HW110901   2.146   3.369   1.900
 3334SOL    HW210902   2.093   3.292   1.766
 3335SOL     OW10903   4.727   5.813   5.754
 3335SOL    HW110904   4.665   5.890   5.772
 3335SOL    HW210905   4.756   5.773   5.841
 3336SOL     OW10906   2.254   0.165   4.456
 3336SOL    HW110907   2.189   0.090   4.460
 3336SOL    HW210908   2.250   0.218   4.541
 3337SOL     OW10909   2.912   3.531   1.365
 3337SOL    HW110910   2.957   3.507   1.451
 3337SOL    HW210911   2.870   3.622   1.374
 3338SOL     OW10912   0.285   2.375   1.772
 3338SOL    HW110913   0.232   2.416   1.847
 3338SOL    HW210914   0.383   2.392   1.787
 3339SOL     OW10915   1.619   7.012   6.295
 3339SOL    HW110916   1.649   0.087   6.319
 3339SOL    HW210917   1.523   7.014   6.269
 3340SOL     OW10918   4.216   0.939   4.343
 3340SOL    HW110919   4.169   1.022   4.371
 3340SOL    HW210920   4.188   0.863   4.401
 3341SOL     OW10921   2.033   4.375   3.757
 3341SOL    HW110922   1.996   4.398   3.667
 3341SOL    HW210923   1.986   4.429   3.827
 3342SOL     OW10924   0.752   0.352   2.563
 3342SOL    HW110925   0.710   0.366   2.473
 3342SOL    HW210926   0.799   0.435   2.592
 3343SOL     OW10927   5.418   4.947   6.239
 3343SOL    HW110928   5.379   5.028   6.197
 3343SOL    HW210929   5.349   4.875   6.245
 3344SOL     OW10930   6.123   3.035   4.078
 3344SOL    HW110931   6.097   2.939   4.064
 3344SOL    HW210932   6.054   3.080   4.135
 3345SOL     OW10933   0.822   3.721   6.337
 3345SOL    HW110934   0.787   3.736   6.245
 3345SOL    HW210935   0.839   3.810   6.381
 3346SOL     OW10936   1.658   0.937   6.840
 3346SOL    HW110937   1.660   0.933   6.940
 3346SOL    HW210938   1.747   0.908   6.804
 3347SOL     OW10939   1.864   2.806   6.341
 3347SOL    HW110940   1.908   2.760   6.264
 3347SOL    HW210941   1.800   2.875   6.307
 3348SOL     OW10942   4.282   3.526   5.261
 3348SOL    HW110943   4.234   3.440   5.275
 3348SOL    HW210944   4.267   3.559   5.168
 3349SOL     OW10945   2.426   4.701   3.487
 3349SOL    HW110946   2.525   4.691   3.495
 3349SOL    HW210947   2.393   4.649   3.409
 3350SOL     OW10948   0.636   2.771   5.945
 3350SOL    HW110949   0.648   2.798   6.041
 3350SOL    HW210950   0.604   2.677   5.941
 3351SOL     OW10951   4.831   1.386   1.775
 3351SOL    HW110952   4.898   1.418   1.841
 3351SOL    HW210953   4.771   1.318   1.818
 3352SOL     OW10954   5.458   2.526   1.220
 3352SOL    HW110955   5.556   2.530   1.200
 3352SOL    HW210956   5.422   2.436   1.196
 3353SOL     OW10957   2.157   6.250   0.679
 3353SOL    HW110958   2.190   6.207   0.762
 3353SOL    HW210959   2.122   6.341   0.700
 3354SOL     OW10960   4.029   2.783   5.334
 3354SOL    HW110961   4.058   2.716   5.265
 3354SOL    HW210962   4.105   2.845   5.354
 3355SOL     OW10963   2.216   1.351   5.974
 3355SOL    HW110964   2.311   1.320   5.970
 3355SOL    HW210965   2.160   1.296   5.911
 3356SOL     OW10966   1.073   6.306   6.386
 3356SOL    HW110967   1.147   6.356   6.341
 3356SOL    HW210968   1.051   6.224   6.333
 3357SOL     OW10969   3.451   3.114   1.539
 3357SOL    HW110970   3.409   3.118   1.629
 3357SOL    HW210971   3.398   3.170   1.475
 3358SOL     OW10972   5.171   1.146   3.284
 3358SOL    HW110973   5.089   1.089   3.283
 3358SOL    HW210974   5.164   1.218   3.215
 3359SOL     OW10975   0.031   5.988   3.322
 3359SOL    HW110976   6.977   5.930   3.285
 3359SOL    HW210977   0.001   6.084   3.321
 3360SOL     OW10978   0.923   1.983   6.215
 3360SOL    HW110979   1.003   2.040   6.231
 3360SOL    HW210980   0.852   2.005   6.282
 3361SOL     OW10981   0.924   0.200   4.602
 3361SOL    HW110982   0.998   0.221   4.537
 3361SOL    HW210983   0.926   0.102   4.623
 3362SOL     OW10984   3.596   1.565   2.677
 3362SOL    HW110985   3.693   1.552   2.660
 3362SOL    HW210986   3.580   1.659   2.707
 3363SOL     OW10987   0.111   2.707   1.805
 3363SOL    HW110988   0.134   2.656   1.722
 3363SOL    HW210989   0.024   2.674   1.841
 3364SOL     OW10990   2.320   4.584   2.721
 3364SOL    HW110991   2.245   4.517   2.719
 3364SOL    HW210992   2.389   4.558   2.653
 3365SOL     OW10993   0.599   2.666   4.712
 3365SOL    HW110994   0.642   2.704   4.629
 3365SOL    HW210995   0.506   2.702   4.721
 3366SOL     OW10996   6.645   4.893   3.828
 3366SOL    HW110997   6.718   4.839   3.786
 3366SOL    HW210998   6.560   4.882   3.776
 3367SOL     OW10999   3.105   3.335   2.291
 3367SOL    HW111000   3.043   3.311   2.215
 3367SOL    HW211001   3.135   3.430   2.281
 3368SOL     OW11002   0.677   5.637   6.736
 3368SOL    HW111003   0.757   5.668   6.684
 3368SOL    HW211004   0.597   5.634   6.676
 3369SOL     OW11005   4.368   2.137   1.613
 3369SOL    HW111006   4.429   2.120   1.690
 3369SOL    HW211007   4.345   2.051   1.569
 3370SOL     OW11008   5.926   6.451   1.978
 3370SOL    HW111009   6.020   6.417   1.977
 3370SOL    HW211010   5.898   6.472   1.884
 3371SOL     OW11011   2.371   3.676   1.684
 3371SOL    HW111012   2.341   3.637   1.771
 3371SOL    HW211013   2.368   3.776   1.690
 3372SOL     OW11014   0.258   2.101   0.006
 3372SOL    HW111015   0.328   2.166   6.997
 3372SOL    HW211016   0.202   2.078   6.944
 3373SOL     OW11017   6.896   1.975   4.063
 3373SOL    HW111018   6.991   1.945   4.058
 3373SOL    HW211019   6.853   1.966   3.973
 3374SOL     OW11020   1.349   0.785   3.635
 3374SOL    HW111021   1.386   0.804   3.726
 3374SOL    HW211022   1.256   0.749   3.643
 3375SOL     OW11023   6.808   4.488   0.707
 3375SOL    HW111024   6.812   4.527   0.798
 3375SOL    HW211025   6.746   4.409   0.707
 3376SOL     OW11026   3.159   3.215   4.830
 3376SOL    HW111027   3.128   3.220   4.735
 3376SOL    HW211028   3.240   3.272   4.842
 3377SOL     OW11029   6.567   5.070   5.058
 3377SOL    HW111030   6.631   5.096   5.130
 3377SOL    HW211031   6.601   4.989   5.011
 3378SOL     OW11032   1.042   6.823   6.639
 3378SOL    HW111033   1.141   6.810   6.633
 3378SOL    HW211034   1.018   6.911   6.597
 3379SOL     OW11035   0.645   2.689   4.986
 3379SOL    HW111036   0.636   2.688   4.886
 3379SOL    HW211037   0.673   2.780   5.016
 3380SOL     OW11038   4.338   5.476   5.348
 3380SOL    HW111039   4.352   5.416   5.270
 3380SOL    HW211040   4.255   5.448   5.397
 3381SOL     OW11041   6.781   2.837   1.540
 3381SOL    HW111042   6.871   2.843   1.496
 3381SOL    HW211043   6.709   2.854   1.473
 3382SOL     OW11044   0.317   2.985   1.022
 3382SOL    HW111045   0.363   3.012   0.937
 3382SOL    HW211046   0.303   2.886   1.022
 3383SOL     OW11047   3.446   4.918   0.603
 3383SOL    HW111048   3.389   4.997   0.626
 3383SOL    HW211049   3.390   4.847   0.562
 3384SOL     OW11050   2.467   3.871   0.497
 3384SOL    HW111051   2.510   3.937   0.557
 3384SOL    HW211052   2.498   3.886   0.403
 3385SOL     OW11053   6.439   3.472   4.108
 3385SOL    HW111054   6.340   3.461   4.123
 3385SOL    HW211055   6.482   3.381   4.108
 3386SOL     OW11056   6.242   4.383   0.009
 3386SOL    HW111057   6.144   4.387   7.009
 3386SOL    HW211058   6.288   4.332   6.954
 3387SOL     OW11059   4.579   0.403   3.180
 3387SOL    HW111060   4.563   0.481   3.119
 3387SOL    HW211061   4.544   0.425   3.271
 3388SOL     OW11062   5.477   4.118   2.453
 3388SOL    HW111063   5.576   4.134   2.461
 3388SOL    HW211064   5.429   4.180   2.515
 3389SOL     OW11065   6.371   5.689   6.358
 3389SOL    HW111066   6.339   5.693   6.452
 3389SOL    HW211067   6.295   5.665   6.298
 3390SOL     OW11068   4.138   6.669   6.491
 3390SOL    HW111069   4.126   6.571   6.479
 3390SOL    HW211070   4.067   6.704   6.553
 3391SOL     OW11071   5.180   2.269   2.951
 3391SOL    HW111072   5.244   2.220   3.011
 3391SOL    HW211073   5.169   2.218   2.866
 3392SOL     OW11074   3.227   0.262   4.193
 3392SOL    HW111075   3.135   0.273   4.232
 3392SOL    HW211076   3.219   0.241   4.096
 3393SOL     OW11077   5.659   6.289   0.359
 3393SOL    HW111078   5.581   6.352   0.358
 3393SOL    HW211079   5.638   6.209   0.303
 3394SOL     OW11080   4.073   4.204   0.490
 3394SOL    HW111081   3.986   4.176   0.530
 3394SOL    HW211082   4.091   4.301   0.512
 3395SOL     OW11083   4.986   1.692   2.954
 3395SOL    HW111084   4.954   1.722   2.864
 3395SOL    HW211085   5.080   1.658   2.946
 3396SOL     OW11086   6.033   1.806   3.514
 3396SOL    HW111087   6.069   1.847   3.598
 3396SOL    HW211088   6.089   1.833   3.436
 3397SOL     OW11089   3.330   5.391   6.227
 3397SOL    HW111090   3.314   5.485   6.259
 3397SOL    HW211091   3.426   5.381   6.203
 3398SOL     OW11092   0.606   0.169   5.031
 3398SOL    HW111093   0.694   0.184   5.075
 3398SOL    HW211094   0.555   0.099   5.081
 3399SOL     OW11095   6.410   4.681   2.975
 3399SOL    HW111096   6.440   4.680   3.070
 3399SOL    HW211097   6.348   4.758   2.960
 3400SOL     OW11098   6.220   3.520   0.186
 3400SOL    HW111099   6.216   3.620   0.187
 3400SOL    HW211100   6.153   3.484   0.120
 3401SOL     OW11101   6.354   3.804   6.472
 3401SOL    HW111102   6.437   3.749   6.473
 3401SOL    HW211103   6.377   3.901   6.468
 3402SOL     OW11104   6.137   5.620   0.677
 3402SOL    HW111105   6.132   5.681   0.598
 3402SOL    HW211106   6.054   5.630   0.732
 3403SOL     OW11107   5.009   5.460   6.160
 3403SOL    HW111108   4.931   5.425   6.108
 3403SOL    HW211109   5.037   5.549   6.124
 3404SOL     OW11110   4.770   3.191   6.622
 3404SOL    HW111111   4.732   3.121   6.683
 3404SOL    HW211112   4.794   3.272   6.675
 3405SOL     OW11113   5.947   4.517   6.365
 3405SOL    HW111114   5.871   4.523   6.301
 3405SOL    HW211115   5.954   4.423   6.400
 3406SOL     OW11116   1.412   3.651   2.204
 3406SOL    HW111117   1.351   3.704   2.145
 3406SOL    HW211118   1.489   3.709   2.231
 3407SOL     OW11119   2.708   4.623   0.268
 3407SOL    HW111120   2.615   4.597   0.242
 3407SOL    HW211121   2.725   4.594   0.362
 3408SOL     OW11122   5.229   3.371   4.830
 3408SOL    HW111123   5.264   3.344   4.919
 3408SOL    HW211124   5.145   3.425   4.842
 3409SOL     OW11125   3.848   5.968   0.599
 3409SOL    HW111126   3.838   5.917   0.685
 3409SOL    HW211127   3.899   5.912   0.533
 3410SOL     OW11128   5.752   6.272   2.766
 3410SOL    HW111129   5.755   6.372   2.761
 3410SOL    HW211130   5.743   6.244   2.861
 3411SOL     OW11131   0.481   2.784   0.621
 3411SOL    HW111132   0.515   2.789   0.527
 3411SOL    HW211133   0.551   2.745   0.680
 3412SOL     OW11134   5.208   3.891   0.983
 3412SOL    HW111135   5.167   3.807   0.946
 3412SOL    HW211136   5.274   3.867   1.053
 3413SOL     OW11137   6.087   2.204   6.793
 3413SOL    HW111138   5.988   2.208   6.806
 3413SOL    HW211139   6.130   2.281   6.841
 3414SOL     OW11140   3.107   1.848   5.612
 3414SOL    HW111141   3.163   1.814   5.536
 3414SOL    HW211142   3.062   1.933   5.585
 3415SOL     OW11143   2.568   2.460   4.135
 3415SOL    HW111144   2.560   2.368   4.172
 3415SOL    HW211145   2.662   2.493   4.147
 3416SOL     OW11146   5.757   0.453   6.795
 3416SOL    HW111147   5.832   0.446   6.860
 3416SOL    HW211148   5.785   0.510   6.718
 3417SOL     OW11149   7.006   6.737   2.949
 3417SOL    HW111150   0.071   6.793   2.941
 3417SOL    HW211151   6.980   6.705   2.858
 3418SOL     OW11152   3.370   5.876   3.836
 3418SOL    HW111153   3.338   5.882   3.741
 3418SOL    HW211154   3.441   5.946   3.851
 3419SOL     OW11155   3.906   5.444   5.874
 3419SOL    HW111156   3.819   5.395   5.882
 3419SOL    HW211157   3.890   5.536   5.839
 3420SOL     OW11158   5.307   3.319   4.400
 3420SOL    HW111159   5.337   3.243   4.343
 3420SOL    HW211160   5.264   3.389   4.343
 3421SOL     OW11161   5.891   2.023   3.008
 3421SOL    HW111162   5.946   2.048   2.929
 3421SOL    HW211163   5.915   1.931   3.038
 3422SOL     OW11164   2.575   0.699   0.963
 3422SOL    HW111165   2.505   0.671   0.898
 3422SOL    HW211166   2.609   0.619   1.012
 3423SOL     OW11167   0.377   4.059   5.907
 3423SOL    HW111168   0.358   4.133   5.842
 3423SOL    HW211169   0.476   4.044   5.913
 3424SOL     OW11170   3.427   0.753   1.360
 3424SOL    HW111171   3.484   0.671   1.352
 3424SOL    HW211172   3.424   0.782   1.456
 3425SOL     OW11173   4.658   4.648   1.748
 3425SOL    HW111174   4.682   4.553   1.728
 3425SOL    HW211175   4.693   4.674   1.838
 3426SOL     OW11176   5.201   2.703   0.495
 3426SOL    HW111177   5.301   2.704   0.491
 3426SOL    HW211178   5.165   2.768   0.428
 3427SOL     OW11179   0.479   2.473   2.046
 3427SOL    HW111180   0.545   2.428   1.986
 3427SOL    HW211181   0.466   2.568   2.016
 3428SOL     OW11182   4.504   4.585   6.386
 3428SOL    HW111183   4.436   4.619   6.320
 3428SOL    HW211184   4.596   4.597   6.347
 3429SOL     OW11185   0.616   1.217   1.059
 3429SOL    HW111186   0.634   1.147   1.128
 3429SOL    HW211187   0.679   1.207   0.983
 3430SOL     OW11188   2.320   5.692   6.121
 3430SOL    HW111189   2.416   5.714   6.101
 3430SOL    HW211190   2.316   5.606   6.172
 3431SOL     OW11191   1.725   6.629   1.855
 3431SOL    HW111192   1.788   6.551   1.860
 3431SOL    HW211193   1.675   6.626   1.768
 3432SOL     OW11194   2.377   5.154   6.344
 3432SOL    HW111195   2.441   5.228   6.365
 3432SOL    HW211196   2.414   5.068   6.380
 3433SOL     OW11197   2.009   1.539   6.333
 3433SOL    HW111198   1.958   1.598   6.270
 3433SOL    HW211199   2.032   1.454   6.287
 3434SOL     OW11200   3.643   1.877   1.294
 3434SOL    HW111201   3.659   1.924   1.380
 3434SOL    HW211202   3.604   1.941   1.228
 3435SOL     OW11203   2.878   0.752   0.402
 3435SOL    HW111204   2.800   0.778   0.345
 3435SOL    HW211205   2.961   0.755   0.346
 3436SOL     OW11206   3.358   5.682   0.368
 3436SOL    HW111207   3.424   5.631   0.423
 3436SOL    HW211208   3.340   5.633   0.283
 3437SOL     OW11209   2.139   6.822   6.228
 3437SOL    HW111210   2.116   6.891   6.160
 3437SOL    HW211211   2.127   6.731   6.188
 3438SOL     OW11212   0.337   3.930   1.204
 3438SOL    HW111213   0.334   3.849   1.145
 3438SOL    HW211214   0.314   3.904   1.298
 3439SOL     OW11215   3.034   6.167   4.172
 3439SOL    HW111216   3.129   6.135   4.177
 3439SOL    HW211217   3.013   6.191   4.077
 3440SOL     OW11218   3.983   3.537   3.031
 3440SOL    HW111219   3.899   3.527   2.977
 3440SOL    HW211220   3.992   3.632   3.060
 3441SOL     OW11221   0.671   6.014   6.624
 3441SOL    HW111222   0.746   5.987   6.684
 3441SOL    HW211223   0.644   5.937   6.567
 3442SOL     OW11224   2.823   3.609   0.650
 3442SOL    HW111225   2.830   3.623   0.551
 3442SOL    HW211226   2.759   3.676   0.688
 3443SOL     OW11227   3.241   6.028   2.115
 3443SOL    HW111228   3.209   5.960   2.049
 3443SOL    HW211229   3.280   5.981   2.194
 3444SOL     OW11230   5.163   5.457   1.231
 3444SOL    HW111231   5.240   5.515   1.257
 3444SOL    HW211232   5.137   5.400   1.308
 3445SOL     OW11233   6.960   5.155   4.118
 3445SOL    HW111234   0.035   5.148   4.154
 3445SOL    HW211235   6.963   5.196   4.027
 3446SOL     OW11236   5.758   0.726   1.157
 3446SOL    HW111237   5.683   0.710   1.221
 3446SOL    HW211238   5.813   0.803   1.190
 3447SOL     OW11239   4.986   0.619   0.237
 3447SOL    HW111240   4.995   0.684   0.313
 3447SOL    HW211241   4.939   0.536   0.269
 3448SOL     OW11242   3.069   6.478   6.231
 3448SOL    HW111243   2.982   6.522   6.211
 3448SOL    HW211244   3.115   6.455   6.145
 3449SOL     OW11245   6.052   5.233   4.773
 3449SOL    HW111246   6.090   5.284   4.851
 3449SOL    HW211247   6.070   5.135   4.786
 3450SOL     OW11248   1.525   1.052   6.654
 3450SOL    HW111249   1.431   1.034   6.684
 3450SOL    HW211250   1.589   1.011   6.718
 3451SOL     OW11251   1.457   5.981   0.253
 3451SOL    HW111252   1.499   5.892   0.271
 3451SOL    HW211253   1.403   5.977   0.169
 3452SOL     OW11254   5.849   0.362   5.982
 3452SOL    HW111255   5.788   0.329   5.910
 3452SOL    HW211256   5.824   0.455   6.007
 3453SOL     OW11257   5.716   5.711   6.169
 3453SOL    HW111258   5.768   5.627   6.161
 3453SOL    HW211259   5.705   5.753   6.079
 3454SOL     OW11260   1.425   3.841   4.919
 3454SOL    HW111261   1.405   3.753   4.963
 3454SOL    HW211262   1.456   3.825   4.825
 3455SOL     OW11263   2.628   1.434   5.140
 3455SOL    HW111264   2.629   1.373   5.219
 3455SOL    HW211265   2.720   1.439   5.101
 3456SOL     OW11266   4.306   4.579   1.796
 3456SOL    HW111267   4.364   4.551   1.872
 3456SOL    HW211268   4.346   4.659   1.751
 3457SOL     OW11269   4.089   5.129   4.700
 3457SOL    HW111270   4.011   5.190   4.691
 3457SOL    HW211271   4.060   5.034   4.684
 3458SOL     OW11272   4.515   1.739   2.176
 3458SOL    HW111273   4.470   1.824   2.199
 3458SOL    HW211274   4.512   1.677   2.254
 3459SOL     OW11275   5.435   1.812   3.193
 3459SOL    HW111276   5.387   1.726   3.176
 3459SOL    HW211277   5.381   1.888   3.157
 3460SOL     OW11278   3.214   1.932   5.941
 3460SOL    HW111279   3.222   2.032   5.951
 3460SOL    HW211280   3.301   1.895   5.908
 3461SOL     OW11281   5.703   4.428   6.980
 3461SOL    HW111282   5.653   4.447   0.047
 3461SOL    HW211283   5.639   4.396   6.910
 3462SOL     OW11284   0.898   3.923   5.352
 3462SOL    HW111285   0.909   3.836   5.399
 3462SOL    HW211286   0.805   3.930   5.315
 3463SOL     OW11287   0.892   4.224   0.973
 3463SOL    HW111288   0.877   4.305   0.917
 3463SOL    HW211289   0.848   4.236   1.062
 3464SOL     OW11290   0.432   4.494   6.220
 3464SOL    HW111291   0.348   4.525   6.175
 3464SOL    HW211292   0.491   4.450   6.152
 3465SOL     OW11293   2.478   2.299   1.992
 3465SOL    HW111294   2.457   2.210   1.949
 3465SOL    HW211295   2.440   2.372   1.935
 3466SOL     OW11296   0.001   5.638   6.091
 3466SOL    HW111297   0.078   5.692   6.124
 3466SOL    HW211298   6.970   5.598   6.168
 3467SOL     OW11299   1.823   1.986   6.810
 3467SOL    HW111300   1.905   1.995   6.754
 3467SOL    HW211301   1.766   2.067   6.797
 3468SOL     OW11302   3.563   5.366   2.947
 3468SOL    HW111303   3.506   5.302   2.998
 3468SOL    HW211304   3.634   5.403   3.008
 3469SOL     OW11305   6.293   1.725   3.926
 3469SOL    HW111306   6.313   1.735   3.828
 3469SOL    HW211307   6.339   1.799   3.976
 3470SOL     OW11308   6.568   5.001   1.032
 3470SOL    HW111309   6.527   5.066   1.095
 3470SOL    HW211310   6.595   5.048   0.948
 3471SOL     OW11311   4.257   5.125   4.931
 3471SOL    HW111312   4.199   5.137   4.850
 3471SOL    HW211313   4.348   5.094   4.901
 3472SOL     OW11314   2.413   0.689   3.875
 3472SOL    HW111315   2.449   0.743   3.951
 3472SOL    HW211316   2.432   0.735   3.788
 3473SOL     OW11317   5.527   1.395   6.260
 3473SOL    HW111318   5.584   1.465   6.216
 3473SOL    HW211319   5.446   1.438   6.299
 3474SOL     OW11320   2.973   5.081   1.785
 3474SOL    HW111321   2.874   5.080   1.794
 3474SOL    HW211322   3.004   4.996   1.741
 3475SOL     OW11323   1.257   6.682   4.537
 3475SOL    HW111324   1.180   6.641   4.487
 3475SOL    HW211325   1.342   6.665   4.487
 3476SOL     OW11326   3.346   0.882   4.501
 3476SOL    HW111327   3.366   0.812   4.432
 3476SOL    HW211328   3.285   0.843   4.571
 3477SOL     OW11329   2.888   5.880   1.934
 3477SOL    HW111330   2.854   5.794   1.897
 3477SOL    HW211331   2.826   5.954   1.908
 3478SOL     OW11332   2.757   6.365   5.747
 3478SOL    HW111333   2.755   6.420   5.831
 3478SOL    HW211334   2.836   6.393   5.692
 3479SOL     OW11335   0.529   6.762   3.196
 3479SOL    HW111336   0.554   6.842   3.141
 3479SOL    HW211337   0.489   6.792   3.282
 3480SOL     OW11338   6.763   1.415   4.564
 3480SOL    HW111339   6.827   1.358   4.513
 3480SOL    HW211340   6.670   1.384   4.547
 3481SOL     OW11341   4.961   6.416   6.307
 3481SOL    HW111342   4.945   6.482   6.234
 3481SOL    HW211343   4.933   6.325   6.276
 3482SOL     OW11344   5.313   1.120   1.044
 3482SOL    HW111345   5.245   1.058   1.083
 3482SOL    HW211346   5.268   1.188   0.986
 3483SOL     OW11347   3.176   0.440   1.199
 3483SOL    HW111348   3.198   0.382   1.278
 3483SOL    HW211349   3.088   0.412   1.161
 3484SOL     OW11350   2.784   3.315   1.866
 3484SOL    HW111351   2.806   3.226   1.827
 3484SOL    HW211352   2.723   3.365   1.805
 3485SOL     OW11353   1.868   0.858   5.002
 3485SOL    HW111354   1.854   0.948   4.961
 3485SOL    HW211355   1.914   0.868   5.090
 3486SOL     OW11356   3.470   1.621   2.104
 3486SOL    HW111357   3.536   1.636   2.177
 3486SOL    HW211358   3.378   1.615   2.143
 3487SOL     OW11359   5.438   1.779   6.627
 3487SOL    HW111360   5.444   1.860   6.685
 3487SOL    HW211361   5.527   1.734   6.623
 3488SOL     OW11362   5.878   3.310   3.950
 3488SOL    HW111363   5.826   3.276   4.028
 3488SOL    HW211364   5.825   3.380   3.902
 3489SOL     OW11365   3.478   0.088   0.510
 3489SOL    HW111366   3.551   0.032   0.548
 3489SOL    HW211367   3.399   0.085   0.571
 3490SOL     OW11368   4.503   4.435   6.901
 3490SOL    HW111369   4.415   4.398   6.871
 3490SOL    HW211370   4.493   4.470   6.995
 3491SOL     OW11371   6.729   3.016   5.891
 3491SOL    HW111372   6.675   2.937   5.917
 3491SOL    HW211373   6.707   3.042   5.797
 3492SOL     OW11374   0.611   5.885   0.761
 3492SOL    HW111375   0.637   5.801   0.810
 3492SOL    HW211376   0.692   5.941   0.745
 3493SOL     OW11377   6.672   4.984   6.676
 3493SOL    HW111378   6.712   5.051   6.613
 3493SOL    HW211379   6.622   5.032   6.748
 3494SOL     OW11380   4.650   0.275   0.583
 3494SOL    HW111381   4.718   0.329   0.632
 3494SOL    HW211382   4.575   0.251   0.645
 3495SOL     OW11383   4.427   4.802   2.477
 3495SOL    HW111384   4.430   4.717   2.423
 3495SOL    HW211385   4.519   4.833   2.496
 3496SOL     OW11386   1.202   3.159   1.012
 3496SOL    HW111387   1.143   3.164   1.092
 3496SOL    HW211388   1.294   3.131   1.040
 3497SOL     OW11389   3.644   0.529   2.794
 3497SOL    HW111390   3.637   0.609   2.854
 3497SOL    HW211391   3.700   0.459   2.839
 3498SOL     OW11392   3.058   2.156   1.064
 3498SOL    HW111393   2.970   2.185   1.102
 3498SOL    HW211394   3.063   2.182   0.967
 3499SOL     OW11395   5.478   3.127   4.274
 3499SOL    HW111396   5.444   3.037   4.302
 3499SOL    HW211397   5.531   3.166   4.349
 3500SOL     OW11398   6.729   4.207   6.035
 3500SOL    HW111399   6.819   4.190   5.996
 3500SOL    HW211400   6.729   4.184   6.132
 3501SOL     OW11401   0.450   5.146   4.883
 3501SOL    HW111402   0.417   5.140   4.789
 3501SOL    HW211403   0.548   5.165   4.883
 3502SOL     OW11404   0.140   2.443   2.016
 3502SOL    HW111405   0.062   2.501   1.995
 3502SOL    HW211406   0.181   2.471   2.103
 3503SOL     OW11407   5.339   5.580   5.137
 3503SOL    HW111408   5.344   5.615   5.043
 3503SOL    HW211409   5.349   5.655   5.201
 3504SOL     OW11410   2.848   2.751   1.134
 3504SOL    HW111411   2.780   2.728   1.064
 3504SOL    HW211412   2.812   2.728   1.224
 3505SOL     OW11413   5.518   5.401   5.216
 3505SOL    HW111414   5.459   5.472   5.177
 3505SOL    HW211415   5.525   5.325   5.151
 3506SOL     OW11416   4.148   5.585   4.711
 3506SOL    HW111417   4.075   5.649   4.734
 3506SOL    HW211418   4.228   5.635   4.677
 3507SOL     OW11419   1.917   0.922   6.737
 3507SOL    HW111420   1.986   0.878   6.794
 3507SOL    HW211421   1.950   1.011   6.707
 3508SOL     OW11422   4.321   2.050   6.680
 3508SOL    HW111423   4.340   1.957   6.711
 3508SOL    HW211424   4.222   2.066   6.677
 3509SOL     OW11425   5.620   5.737   6.558
 3509SOL    HW111426   5.582   5.700   6.473
 3509SOL    HW211427   5.553   5.796   6.602
 3510SOL     OW11428   1.818   2.363   1.854
 3510SOL    HW111429   1.900   2.400   1.899
 3510SOL    HW211430   1.785   2.284   1.906
 3511SOL     OW11431   1.650   3.891   6.855
 3511SOL    HW111432   1.563   3.881   6.903
 3511SOL    HW211433   1.691   3.980   6.878
 3512SOL     OW11434   0.490   4.976   0.843
 3512SOL    HW111435   0.521   4.968   0.938
 3512SOL    HW211436   0.467   4.885   0.808
 3513SOL     OW11437   6.172   4.190   0.390
 3513SOL    HW111438   6.118   4.215   0.470
 3513SOL    HW211439   6.221   4.271   0.357
 3514SOL     OW11440   0.759   0.709   1.807
 3514SOL    HW111441   0.729   0.707   1.902
 3514SOL    HW211442   0.698   0.769   1.755
 3515SOL     OW11443   3.643   5.688   2.627
 3515SOL    HW111444   3.558   5.637   2.634
 3515SOL    HW211445   3.693   5.659   2.545
 3516SOL     OW11446   3.896   1.290   1.124
 3516SOL    HW111447   3.967   1.355   1.097
 3516SOL    HW211448   3.870   1.306   1.219
 3517SOL     OW11449   0.642   1.305   0.348
 3517SOL    HW111450   0.669   1.398   0.322
 3517SOL    HW211451   0.550   1.287   0.314
 3518SOL     OW11452   4.589   4.192   5.615
 3518SOL    HW111453   4.573   4.281   5.658
 3518SOL    HW211454   4.527   4.124   5.654
 3519SOL     OW11455   1.337   0.563   6.286
 3519SOL    HW111456   1.362   0.638   6.347
 3519SOL    HW211457   1.368   0.477   6.325
 3520SOL     OW11458   3.555   4.392   1.490
 3520SOL    HW111459   3.594   4.431   1.407
 3520SOL    HW211460   3.620   4.401   1.565
 3521SOL     OW11461   5.894   2.895   1.404
 3521SOL    HW111462   5.840   2.978   1.394
 3521SOL    HW211463   5.991   2.916   1.394
 3522SOL     OW11464   3.133   5.301   1.944
 3522SOL    HW111465   3.106   5.391   1.908
 3522SOL    HW211466   3.199   5.259   1.882
 3523SOL     OW11467   3.177   4.415   5.643
 3523SOL    HW111468   3.248   4.397   5.574
 3523SOL    HW211469   3.097   4.359   5.623
 3524SOL     OW11470   3.007   0.644   1.248
 3524SOL    HW111471   3.060   0.572   1.204
 3524SOL    HW211472   3.014   0.635   1.347
 3525SOL     OW11473   0.696   3.219   2.094
 3525SOL    HW111474   0.685   3.211   1.995
 3525SOL    HW211475   0.638   3.292   2.128
 3526SOL     OW11476   1.417   0.600   4.229
 3526SOL    HW111477   1.325   0.566   4.211
 3526SOL    HW211478   1.441   0.671   4.163
 3527SOL     OW11479   5.182   2.761   5.596
 3527SOL    HW111480   5.226   2.671   5.595
 3527SOL    HW211481   5.220   2.816   5.670
 3528SOL     OW11482   1.098   6.909   3.804
 3528SOL    HW111483   1.052   6.831   3.762
 3528SOL    HW211484   1.030   6.975   3.836
 3529SOL     OW11485   3.673   0.055   5.478
 3529SOL    HW111486   3.653   0.145   5.438
 3529SOL    HW211487   3.672   0.062   5.577
 3530SOL     OW11488   2.204   5.578   2.728
 3530SOL    HW111489   2.184   5.657   2.670
 3530SOL    HW211490   2.168   5.495   2.686
 3531SOL     OW11491   5.603   3.707   0.285
 3531SOL    HW111492   5.558   3.747   0.365
 3531SOL    HW211493   5.608   3.608   0.294
 3532SOL     OW11494   3.053   0.398   0.044
 3532SOL    HW111495   2.962   0.421   0.078
 3532SOL    HW211496   3.048   0.382   6.963
 3533SOL     OW11497   1.550   1.900   3.618
 3533SOL    HW111498   1.564   1.846   3.701
 3533SOL    HW211499   1.638   1.939   3.589
 3534SOL     OW11500   5.577   1.527   5.536
 3534SOL    HW111501   5.531   1.575   5.611
 3534SOL    HW211502   5.522   1.536   5.452
 3535SOL     OW11503   6.968   5.833   0.750
 3535SOL    HW111504   6.978   5.898   0.675
 3535SOL    HW211505   6.936   5.745   0.714
 3536SOL     OW11506   1.686   3.544   3.370
 3536SOL    HW111507   1.631   3.462   3.356
 3536SOL    HW211508   1.643   3.601   3.441
 3537SOL     OW11509   2.060   4.836   0.518
 3537SOL    HW111510   2.103   4.857   0.430
 3537SOL    HW211511   2.102   4.892   0.589
 3538SOL     OW11512   3.269   0.932   4.022
 3538SOL    HW111513   3.251   1.023   4.059
 3538SOL    HW211514   3.364   0.907   4.040
 3539SOL     OW11515   6.272   3.171   5.438
 3539SOL    HW111516   6.326   3.199   5.358
 3539SOL    HW211517   6.179   3.149   5.409
 3540SOL     OW11518   2.206   3.007   6.158
 3540SOL    HW111519   2.271   2.933   6.141
 3540SOL    HW211520   2.187   3.055   6.072
 3541SOL     OW11521   2.573   3.058   0.409
 3541SOL    HW111522   2.530   2.972   0.380
 3541SOL    HW211523   2.503   3.126   0.426
 3542SOL     OW11524   5.343   2.154   0.244
 3542SOL    HW111525   5.297   2.212   0.311
 3542SOL    HW211526   5.415   2.206   0.198
 3543SOL     OW11527   1.277   3.769   3.232
 3543SOL    HW111528   1.234   3.814   3.310
 3543SOL    HW211529   1.231   3.682   3.214
 3544SOL     OW11530   2.799   4.397   0.115
 3544SOL    HW111531   2.726   4.346   0.070
 3544SOL    HW211532   2.765   4.487   0.142
 3545SOL     OW11533   4.078   4.903   0.271
 3545SOL    HW111534   4.090   4.895   0.369
 3545SOL    HW211535   4.057   4.998   0.247
 3546SOL     OW11536   6.061   4.554   3.311
 3546SOL    HW111537   6.017   4.633   3.269
 3546SOL    HW211538   6.158   4.552   3.284
 3547SOL     OW11539   6.773   3.379   4.552
 3547SOL    HW111540   6.718   3.300   4.523
 3547SOL    HW211541   6.863   3.347   4.582
 3548SOL     OW11542   5.327   0.906   5.603
 3548SOL    HW111543   5.318   0.968   5.681
 3548SOL    HW211544   5.323   0.959   5.518
 3549SOL     OW11545   2.082   4.972   6.646
 3549SOL    HW111546   2.125   4.903   6.703
 3549SOL    HW211547   2.102   4.954   6.550
 3550SOL     OW11548   5.709   2.733   5.051
 3550SOL    HW111549   5.766   2.666   5.099
 3550SOL    HW211550   5.614   2.724   5.082
 3551SOL     OW11551   3.555   1.809   4.831
 3551SOL    HW111552   3.479   1.770   4.778
 3551SOL    HW211553   3.641   1.772   4.797
 3552SOL     OW11554   6.278   5.462   2.244
 3552SOL    HW111555   6.347   5.391   2.257
 3552SOL    HW211556   6.210   5.457   2.316
 3553SOL     OW11557   3.124   5.542   6.436
 3553SOL    HW111558   3.025   5.545   6.422
 3553SOL    HW211559   3.169   5.602   6.370
 3554SOL     OW11560   3.772   4.194   0.966
 3554SOL    HW111561   3.727   4.196   0.876
 3554SOL    HW211562   3.704   4.205   1.038
 3555SOL     OW11563   2.197   2.275   4.339
 3555SOL    HW111564   2.126   2.277   4.410
 3555SOL    HW211565   2.221   2.180   4.319
 3556SOL     OW11566   3.994   1.627   4.383
 3556SOL    HW111567   3.949   1.710   4.417
 3556SOL    HW211568   4.016   1.638   4.286
 3557SOL     OW11569   0.344   0.370   2.821
 3557SOL    HW111570   0.408   0.294   2.809
 3557SOL    HW211571   0.290   0.381   2.738
 3558SOL     OW11572   2.567   5.502   0.913
 3558SOL    HW111573   2.548   5.549   0.827
 3558SOL    HW211574   2.593   5.568   0.982
 3559SOL     OW11575   2.352   0.004   5.166
 3559SOL    HW111576   2.434   6.974   5.199
 3559SOL    HW211577   2.331   0.080   5.227
 3560SOL     OW11578   1.907   4.570   3.922
 3560SOL    HW111579   1.924   4.544   4.018
 3560SOL    HW211580   1.816   4.539   3.895
 3561SOL     OW11581   5.513   4.422   5.602
 3561SOL    HW111582   5.507   4.353   5.530
 3561SOL    HW211583   5.518   4.513   5.560
 3562SOL     OW11584   3.596   1.860   4.248
 3562SOL    HW111585   3.529   1.823   4.313
 3562SOL    HW211586   3.577   1.957   4.233
 3563SOL     OW11587   5.750   2.403   6.534
 3563SOL    HW111588   5.847   2.421   6.520
 3563SOL    HW211589   5.709   2.477   6.586
 3564SOL     OW11590   0.570   5.051   2.754
 3564SOL    HW111591   0.553   4.989   2.678
 3564SOL    HW211592   0.628   5.127   2.724
 3565SOL     OW11593   3.759   4.944   2.546
 3565SOL    HW111594   3.795   4.917   2.636
 3565SOL    HW211595   3.819   4.910   2.474
 3566SOL     OW11596   6.714   0.980   5.682
 3566SOL    HW111597   6.730   0.974   5.781
 3566SOL    HW211598   6.681   0.892   5.648
 3567SOL     OW11599   0.073   2.945   6.256
 3567SOL    HW111600   0.062   3.002   6.175
 3567SOL    HW211601   0.048   2.850   6.234
 3568SOL     OW11602   6.467   3.941   5.567
 3568SOL    HW111603   6.431   3.937   5.660
 3568SOL    HW211604   6.532   3.867   5.553
 3569SOL     OW11605   2.710   1.857   5.063
 3569SOL    HW111606   2.693   1.846   4.965
 3569SOL    HW211607   2.776   1.930   5.078
 3570SOL     OW11608   4.883   0.313   6.080
 3570SOL    HW111609   4.875   0.261   6.166
 3570SOL    HW211610   4.907   0.408   6.100
 3571SOL     OW11611   0.335   5.661   6.953
 3571SOL    HW111612   0.418   5.610   6.975
 3571SOL    HW211613   0.355   5.759   6.956
 3572SOL     OW11614   5.410   3.900   3.712
 3572SOL    HW111615   5.460   3.951   3.643
 3572SOL    HW211616   5.448   3.920   3.802
 3573SOL     OW11617   0.448   4.583   3.965
 3573SOL    HW111618   0.426   4.502   3.910
 3573SOL    HW211619   0.534   4.568   4.014
 3574SOL     OW11620   0.320   4.812   0.102
 3574SOL    HW111621   0.382   4.890   0.093
 3574SOL    HW211622   0.373   4.728   0.110
 3575SOL     OW11623   5.414   5.158   3.436
 3575SOL    HW111624   5.467   5.074   3.444
 3575SOL    HW211625   5.317   5.137   3.430
 3576SOL     OW11626   2.150   1.628   5.862
 3576SOL    HW111627   2.152   1.535   5.899
 3576SOL    HW211628   2.244   1.660   5.847
 3577SOL     OW11629   1.470   2.642   6.568
 3577SOL    HW111630   1.424   2.728   6.546
 3577SOL    HW211631   1.565   2.661   6.595
 3578SOL     OW11632   3.876   3.277   0.282
 3578SOL    HW111633   3.782   3.307   0.299
 3578SOL    HW211634   3.875   3.180   0.257
 3579SOL     OW11635   0.042   3.773   4.527
 3579SOL    HW111636   0.006   3.850   4.474
 3579SOL    HW211637   0.132   3.748   4.491
 3580SOL     OW11638   5.784   1.454   1.408
 3580SOL    HW111639   5.788   1.468   1.507
 3580SOL    HW211640   5.783   1.542   1.361
 3581SOL     OW11641   6.160   0.307   4.080
 3581SOL    HW111642   6.081   0.246   4.072
 3581SOL    HW211643   6.226   0.285   4.008
 3582SOL     OW11644   0.457   2.206   6.166
 3582SOL    HW111645   0.535   2.221   6.105
 3582SOL    HW211646   0.430   2.110   6.161
 3583SOL     OW11647   0.734   3.991   6.720
 3583SOL    HW111648   0.749   4.068   6.783
 3583SOL    HW211649   0.712   3.909   6.772
 3584SOL     OW11650   5.906   5.875   6.271
 3584SOL    HW111651   5.920   5.817   6.352
 3584SOL    HW211652   5.831   5.838   6.216
 3585SOL     OW11653   3.572   5.475   5.256
 3585SOL    HW111654   3.593   5.542   5.184
 3585SOL    HW211655   3.549   5.388   5.213
 3586SOL     OW11656   6.602   2.073   5.371
 3586SOL    HW111657   6.530   2.120   5.321
 3586SOL    HW211658   6.585   2.078   5.469
 3587SOL     OW11659   2.623   5.332   0.302
 3587SOL    HW111660   2.709   5.288   0.326
 3587SOL    HW211661   2.577   5.279   0.230
 3588SOL     OW11662   0.953   3.008   5.471
 3588SOL    HW111663   0.980   2.931   5.529
 3588SOL    HW211664   1.024   3.024   5.402
 3589SOL     OW11665   3.864   1.506   4.006
 3589SOL    HW111666   3.859   1.575   4.078
 3589SOL    HW211667   3.950   1.517   3.955
 3590SOL     OW11668   0.013   4.045   6.133
 3590SOL    HW111669   0.063   4.131   6.134
 3590SOL    HW211670   0.056   3.980   6.196
 3591SOL     OW11671   4.697   3.455   6.302
 3591SOL    HW111672   4.750   3.520   6.356
 3591SOL    HW211673   4.681   3.372   6.356
 3592SOL     OW11674   5.599   3.955   2.987
 3592SOL    HW111675   5.643   3.979   2.900
 3592SOL    HW211676   5.615   3.859   3.007
 3593SOL     OW11677   2.182   5.803   4.730
 3593SOL    HW111678   2.104   5.848   4.773
 3593SOL    HW211679   2.259   5.800   4.794
 3594SOL     OW11680   3.423   0.462   2.673
 3594SOL    HW111681   3.506   0.488   2.722
 3594SOL    HW211682   3.387   0.377   2.711
 3595SOL     OW11683   2.076   5.964   6.371
 3595SOL    HW111684   2.050   5.867   6.380
 3595SOL    HW211685   2.080   6.006   6.462
 3596SOL     OW11686   6.671   2.220   2.809
 3596SOL    HW111687   6.761   2.230   2.851
 3596SOL    HW211688   6.600   2.239   2.878
 3597SOL     OW11689   2.696   6.712   4.989
 3597SOL    HW111690   2.661   6.630   4.945
 3597SOL    HW211691   2.796   6.713   4.985
 3598SOL     OW11692   1.373   0.361   5.716
 3598SOL    HW111693   1.281   0.385   5.746
 3598SOL    HW211694   1.368   0.289   5.646
 3599SOL     OW11695   0.809   2.335   5.240
 3599SOL    HW111696   0.785   2.382   5.325
 3599SOL    HW211697   0.786   2.238   5.248
 3600SOL     OW11698   0.499   3.389   0.917
 3600SOL    HW111699   0.449   3.373   1.002
 3600SOL    HW211700   0.446   3.450   0.858
 3601SOL     OW11701   6.897   4.180   0.183
 3601SOL    HW111702   6.839   4.105   0.214
 3601SOL    HW211703   6.918   4.169   0.086
 3602SOL     OW11704   1.293   1.246   0.961
 3602SOL    HW111705   1.364   1.263   0.892
 3602SOL    HW211706   1.312   1.300   1.043
 3603SOL     OW11707   3.195   6.279   3.827
 3603SOL    HW111708   3.279   6.225   3.821
 3603SOL    HW211709   3.217   6.372   3.855
 3604SOL     OW11710   6.517   5.031   4.042
 3604SOL    HW111711   6.438   4.976   4.070
 3604SOL    HW211712   6.573   4.978   3.979
 3605SOL     OW11713   5.833   4.315   5.828
 3605SOL    HW111714   5.929   4.312   5.857
 3605SOL    HW211715   5.804   4.223   5.799
 3606SOL     OW11716   6.715   5.378   5.469
 3606SOL    HW111717   6.696   5.471   5.435
 3606SOL    HW211718   6.708   5.313   5.393
 3607SOL     OW11719   5.356   6.498   0.751
 3607SOL    HW111720   5.412   6.578   0.774
 3607SOL    HW211721   5.413   6.416   0.754
 3608SOL     OW11722   6.662   1.906   1.890
 3608SOL    HW111723   6.716   1.885   1.809
 3608SOL    HW211724   6.683   1.839   1.962
 3609SOL     OW11725   0.213   0.420   3.995
 3609SOL    HW111726   0.143   0.483   3.961
 3609SOL    HW211727   0.170   0.349   4.051
 3610SOL     OW11728   0.454   0.574   5.753
 3610SOL    HW111729   0.438   0.477   5.772
 3610SOL    HW211730   0.465   0.587   5.655
 3611SOL     OW11731   3.739   5.464   5.646
 3611SOL    HW111732   3.763   5.402   5.571
 3611SOL    HW211733   3.704   5.410   5.723
 3612SOL     OW11734   6.180   0.401   5.995
 3612SOL    HW111735   6.083   0.426   6.002
 3612SOL    HW211736   6.208   0.353   6.078
 3613SOL     OW11737   5.491   5.393   1.222
 3613SOL    HW111738   5.468   5.323   1.289
 3613SOL    HW211739   5.454   5.481   1.251
 3614SOL     OW11740   3.373   3.456   3.170
 3614SOL    HW111741   3.442   3.478   3.101
 3614SOL    HW211742   3.286   3.436   3.125
 3615SOL     OW11743   5.725   6.071   6.574
 3615SOL    HW111744   5.727   6.161   6.530
 3615SOL    HW211745   5.649   6.017   6.538
 3616SOL     OW11746   6.907   1.710   6.411
 3616SOL    HW111747   7.000   1.697   6.376
 3616SOL    HW211748   6.879   1.805   6.397
 3617SOL     OW11749   5.492   1.230   6.839
 3617SOL    HW111750   5.426   1.236   6.763
 3617SOL    HW211751   5.483   1.312   6.896
 3618SOL     OW11752   2.148   1.924   4.989
 3618SOL    HW111753   2.104   1.851   4.937
 3618SOL    HW211754   2.083   1.962   5.055
 3619SOL     OW11755   5.889   2.695   3.846
 3619SOL    HW111756   5.963   2.733   3.902
 3619SOL    HW211757   5.817   2.661   3.906
 3620SOL     OW11758   6.058   5.679   6.011
 3620SOL    HW111759   6.129   5.612   6.034
 3620SOL    HW211760   5.968   5.641   6.034
 3621SOL     OW11761   3.231   2.207   5.891
 3621SOL    HW111762   3.252   2.300   5.921
 3621SOL    HW211763   3.166   2.210   5.815
 3622SOL     OW11764   2.452   2.244   3.658
 3622SOL    HW111765   2.413   2.271   3.570
 3622SOL    HW211766   2.452   2.323   3.719
 3623SOL     OW11767   5.564   5.956   4.051
 3623SOL    HW111768   5.615   5.876   4.081
 3623SOL    HW211769   5.622   6.037   4.058
 3624SOL     OW11770   1.867   0.445   2.165
 3624SOL    HW111771   1.862   0.386   2.245
 3624SOL    HW211772   1.937   0.515   2.179
 3625SOL     OW11773   6.159   3.083   6.991
 3625SOL    HW111774   6.228   3.050   0.037
 3625SOL    HW211775   6.088   3.013   6.980
 3626SOL     OW11776   1.843   3.586   5.369
 3626SOL    HW111777   1.925   3.639   5.345
 3626SOL    HW211778   1.850   3.554   5.464
 3627SOL     OW11779   3.724   2.901   3.341
 3627SOL    HW111780   3.742   2.893   3.439
 3627SOL    HW211781   3.800   2.949   3.297
 3628SOL     OW11782   1.881   0.015   1.467
 3628SOL    HW111783   1.813   7.010   1.536
 3628SOL    HW211784   1.949   6.960   1.462
 3629SOL     OW11785   6.144   2.054   4.055
 3629SOL    HW111786   6.046   2.043   4.039
 3629SOL    HW211787   6.163   2.054   4.153
 3630SOL     OW11788   5.170   2.758   3.379
 3630SOL    HW111789   5.073   2.781   3.388
 3630SOL    HW211790   5.181   2.659   3.381
 3631SOL     OW11791   1.912   6.535   4.051
 3631SOL    HW111792   1.862   6.594   3.987
 3631SOL    HW211793   2.008   6.532   4.025
 3632SOL     OW11794   5.120   0.149   0.498
 3632SOL    HW111795   5.056   0.072   0.505
 3632SOL    HW211796   5.120   0.184   0.405
 3633SOL     OW11797   3.315   1.568   5.862
 3633SOL    HW111798   3.220   1.544   5.840
 3633SOL    HW211799   3.377   1.522   5.799
 3634SOL     OW11800   0.711   5.265   5.308
 3634SOL    HW111801   0.673   5.350   5.270
 3634SOL    HW211802   0.664   5.244   5.394
 3635SOL     OW11803   2.247   0.212   6.388
 3635SOL    HW111804   2.161   0.170   6.417
 3635SOL    HW211805   2.233   0.260   6.302
 3636SOL     OW11806   0.657   5.795   6.432
 3636SOL    HW111807   0.754   5.775   6.417
 3636SOL    HW211808   0.607   5.710   6.444
 3637SOL     OW11809   6.512   2.018   1.148
 3637SOL    HW111810   6.435   1.983   1.202
 3637SOL    HW211811   6.597   1.976   1.180
 3638SOL     OW11812   0.049   4.540   4.331
 3638SOL    HW111813   0.122   4.603   4.302
 3638SOL    HW211814   6.978   4.581   4.311
 3639SOL     OW11815   4.202   4.034   0.937
 3639SOL    HW111816   4.206   4.096   1.015
 3639SOL    HW211817   4.115   3.984   0.938
 3640SOL     OW11818   3.826   0.365   6.894
 3640SOL    HW111819   3.883   0.296   6.849
 3640SOL    HW211820   3.774   0.322   6.968
 3641SOL     OW11821   4.816   2.879   3.747
 3641SOL    HW111822   4.818   2.925   3.658
 3641SOL    HW211823   4.815   2.780   3.732
 3642SOL     OW11824   5.260   1.115   0.261
 3642SOL    HW111825   5.331   1.181   0.287
 3642SOL    HW211826   5.298   1.050   0.195
 3643SOL     OW11827   3.314   5.688   4.707
 3643SOL    HW111828   3.252   5.766   4.703
 3643SOL    HW211829   3.296   5.636   4.791
 3644SOL     OW11830   0.024   0.992   1.681
 3644SOL    HW111831   0.033   0.969   1.585
 3644SOL    HW211832   6.978   1.068   1.691
 3645SOL     OW11833   6.708   1.596   3.944
 3645SOL    HW111834   6.689   1.684   3.986
 3645SOL    HW211835   6.787   1.554   3.988
 3646SOL     OW11836   6.648   3.983   6.653
 3646SOL    HW111837   6.746   4.001   6.647
 3646SOL    HW211838   6.617   3.939   6.568
 3647SOL     OW11839   2.274   3.369   0.114
 3647SOL    HW111840   2.229   3.388   0.027
 3647SOL    HW211841   2.217   3.305   0.167
 3648SOL     OW11842   2.970   4.820   2.989
 3648SOL    HW111843   2.940   4.859   2.902
 3648SOL    HW211844   3.065   4.847   3.007
 3649SOL     OW11845   4.882   2.981   1.597
 3649SOL    HW111846   4.878   2.920   1.676
 3649SOL    HW211847   4.947   3.054   1.614
 3650SOL     OW11848   0.020   4.868   0.639
 3650SOL    HW111849   6.964   4.804   0.617
 3650SOL    HW211850   0.037   4.927   0.560
 3651SOL     OW11851   0.265   6.507   3.946
 3651SOL    HW111852   0.198   6.532   3.875
 3651SOL    HW211853   0.357   6.526   3.912
 3652SOL     OW11854   6.114   6.740   3.035
 3652SOL    HW111855   6.127   6.767   3.131
 3652SOL    HW211856   6.201   6.711   2.996
 3653SOL     OW11857   6.973   0.998   3.674
 3653SOL    HW111858   6.989   1.086   3.719
 3653SOL    HW211859   6.881   0.965   3.697
 3654SOL     OW11860   2.433   5.783   0.379
 3654SOL    HW111861   2.354   5.722   0.370
 3654SOL    HW211862   2.516   5.729   0.393
 3655SOL     OW11863   2.008   0.148   3.500
 3655SOL    HW111864   2.072   0.170   3.573
 3655SOL    HW211865   2.013   0.218   3.429
 3656SOL     OW11866   0.810   3.483   2.237
 3656SOL    HW111867   0.784   3.509   2.330
 3656SOL    HW211868   0.732   3.494   2.176
 3657SOL     OW11869   4.916   5.120   6.369
 3657SOL    HW111870   4.967   5.110   6.284
 3657SOL    HW211871   4.854   5.042   6.380
 3658SOL     OW11872   1.878   6.137   4.081
 3658SOL    HW111873   1.928   6.133   4.167
 3658SOL    HW211874   1.942   6.131   4.005
 3659SOL     OW11875   2.620   3.301   5.723
 3659SOL    HW111876   2.638   3.400   5.724
 3659SOL    HW211877   2.540   3.281   5.779
 3660SOL     OW11878   4.640   0.093   2.938
 3660SOL    HW111879   4.587   0.155   2.996
 3660SOL    HW211880   4.582   0.018   2.906
 3661SOL     OW11881   4.774   1.733   5.733
 3661SOL    HW111882   4.740   1.824   5.755
 3661SOL    HW211883   4.696   1.671   5.719
 3662SOL     OW11884   4.368   0.653   3.653
 3662SOL    HW111885   4.277   0.615   3.670
 3662SOL    HW211886   4.424   0.644   3.735
 3663SOL     OW11887   1.974   1.763   0.253
 3663SOL    HW111888   1.933   1.851   0.231
 3663SOL    HW211889   2.029   1.731   0.176
 3664SOL     OW11890   4.558   1.857   1.641
 3664SOL    HW111891   4.623   1.911   1.588
 3664SOL    HW211892   4.608   1.787   1.693
 3665SOL     OW11893   1.612   6.324   5.554
 3665SOL    HW111894   1.580   6.236   5.520
 3665SOL    HW211895   1.645   6.313   5.648
 3666SOL     OW11896   1.714   3.886   3.018
 3666SOL    HW111897   1.797   3.909   3.068
 3666SOL    HW211898   1.653   3.833   3.076
 3667SOL     OW11899   6.852   0.268   0.895
 3667SOL    HW111900   6.789   0.198   0.862
 3667SOL    HW211901   6.800   0.350   0.919
 3668SOL     OW11902   1.493   1.277   2.379
 3668SOL    HW111903   1.566   1.240   2.322
 3668SOL    HW211904   1.474   1.372   2.352
 3669SOL     OW11905   5.498   1.555   3.468
 3669SOL    HW111906   5.469   1.496   3.544
 3669SOL    HW211907   5.597   1.564   3.469
 3670SOL     OW11908   2.101   4.598   0.273
 3670SOL    HW111909   2.158   4.546   0.336
 3670SOL    HW211910   2.159   4.648   0.208
 3671SOL     OW11911   6.017   0.257   3.799
 3671SOL    HW111912   5.983   0.215   3.883
 3671SOL    HW211913   6.027   0.187   3.728
 3672SOL     OW11914   5.454   2.348   1.718
 3672SOL    HW111915   5.366   2.394   1.735
 3672SOL    HW211916   5.458   2.265   1.772
 3673SOL     OW11917   3.811   6.982   6.494
 3673SOL    HW111918   3.737   7.017   6.437
 3673SOL    HW211919   3.896   6.979   6.441
 3674SOL     OW11920   0.457   7.013   5.163
 3674SOL    HW111921   0.385   0.020   5.228
 3674SOL    HW211922   0.497   6.925   5.189
 3675SOL     OW11923   1.666   3.004   4.935
 3675SOL    HW111924   1.720   2.990   4.852
 3675SOL    HW211925   1.708   3.078   4.989
 3676SOL     OW11926   5.040   4.582   4.518
 3676SOL    HW111927   5.063   4.548   4.609
 3676SOL    HW211928   5.122   4.621   4.475
 3677SOL     OW11929   2.166   6.534   2.920
 3677SOL    HW111930   2.147   6.515   2.824
 3677SOL    HW211931   2.238   6.603   2.927
 3678SOL     OW11932   0.481   3.385   4.248
 3678SOL    HW111933   0.561   3.422   4.200
 3678SOL    HW211934   0.508   3.357   4.340
 3679SOL     OW11935   1.634   0.519   3.091
 3679SOL    HW111936   1.725   0.478   3.080
 3679SOL    HW211937   1.567   0.467   3.038
 3680SOL     OW11938   5.765   2.345   2.981
 3680SOL    HW111939   5.812   2.426   2.947
 3680SOL    HW211940   5.784   2.335   3.079
 3681SOL     OW11941   0.566   0.895   5.253
 3681SOL    HW111942   0.574   0.902   5.154
 3681SOL    HW211943   0.603   0.808   5.284
 3682SOL     OW11944   5.027   2.493   6.899
 3682SOL    HW111945   5.082   2.438   6.961
 3682SOL    HW211946   4.983   2.433   6.832
 3683SOL     OW11947   6.770   6.587   3.449
 3683SOL    HW111948   6.744   6.525   3.374
 3683SOL    HW211949   6.752   6.682   3.421
 3684SOL     OW11950   1.417   4.752   6.946
 3684SOL    HW111951   1.370   4.840   6.943
 3684SOL    HW211952   1.404   4.711   0.018
 3685SOL     OW11953   6.306   6.479   6.104
 3685SOL    HW111954   6.288   6.572   6.072
 3685SOL    HW211955   6.388   6.479   6.162
 3686SOL     OW11956   6.418   6.506   2.958
 3686SOL    HW111957   6.335   6.459   2.989
 3686SOL    HW211958   6.446   6.573   3.027
 3687SOL     OW11959   3.711   5.963   5.353
 3687SOL    HW111960   3.759   5.926   5.433
 3687SOL    HW211961   3.740   6.058   5.338
 3688SOL     OW11962   6.910   3.183   6.469
 3688SOL    HW111963   7.008   3.179   6.447
 3688SOL    HW211964   6.857   3.160   6.387
 3689SOL     OW11965   1.970   0.937   0.109
 3689SOL    HW111966   1.957   0.839   0.096
 3689SOL    HW211967   1.918   0.967   0.189
 3690SOL     OW11968   4.596   6.383   6.742
 3690SOL    HW111969   4.668   6.317   6.720
 3690SOL    HW211970   4.531   6.342   6.807
 3691SOL     OW11971   2.977   2.528   0.150
 3691SOL    HW111972   2.940   2.480   0.230
 3691SOL    HW211973   2.934   2.617   0.142
 3692SOL     OW11974   0.819   5.926   5.269
 3692SOL    HW111975   0.728   5.902   5.303
 3692SOL    HW211976   0.871   5.970   5.343
 3693SOL     OW11977   1.902   3.019   2.878
 3693SOL    HW111978   1.823   3.031   2.939
 3693SOL    HW211979   1.871   3.026   2.783
 3694SOL     OW11980   1.531   5.355   2.748
 3694SOL    HW111981   1.535   5.290   2.824
 3694SOL    HW211982   1.545   5.448   2.782
 3695SOL     OW11983   6.281   2.873   2.227
 3695SOL    HW111984   6.323   2.922   2.304
 3695SOL    HW211985   6.271   2.777   2.251
 3696SOL     OW11986   3.119   5.906   5.110
 3696SOL    HW111987   3.027   5.873   5.131
 3696SOL    HW211988   3.120   5.944   5.017
 3697SOL     OW11989   0.386   6.272   3.494
 3697SOL    HW111990   0.466   6.331   3.498
 3697SOL    HW211991   0.341   6.270   3.583
 3698SOL     OW11992   2.230   6.806   5.035
 3698SOL    HW111993   2.282   6.884   5.070
 3698SOL    HW211994   2.283   6.761   4.963
 3699SOL     OW11995   0.328   3.209   3.459
 3699SOL    HW111996   0.262   3.185   3.387
 3699SOL    HW211997   0.419   3.177   3.433
 3700SOL     OW11998   0.001   0.469   4.473
 3700SOL    HW111999   0.059   0.538   4.518
 3700SOL    HW212000   7.008   0.390   4.534
 3701SOL     OW12001   1.107   0.621   3.674
 3701SOL    HW112002   1.066   0.683   3.740
 3701SOL    HW212003   1.035   0.578   3.620
 3702SOL     OW12004   5.924   6.542   2.518
 3702SOL    HW112005   5.979   6.569   2.439
 3702SOL    HW212006   5.945   6.602   2.595
 3703SOL     OW12007   4.171   2.115   6.439
 3703SOL    HW112008   4.192   2.020   6.415
 3703SOL    HW212009   4.124   2.159   6.362
 3704SOL     OW12010   3.505   1.532   1.001
 3704SOL    HW112011   3.597   1.501   1.025
 3704SOL    HW212012   3.492   1.521   0.902
 3705SOL     OW12013   5.170   5.712   3.561
 3705SOL    HW112014   5.103   5.731   3.633
 3705SOL    HW212015   5.252   5.768   3.576
 3706SOL     OW12016   1.595   3.543   5.244
 3706SOL    HW112017   1.550   3.626   5.212
 3706SOL    HW212018   1.687   3.565   5.276
 3707SOL     OW12019   5.698   4.077   5.466
 3707SOL    HW112020   5.718   4.059   5.562
 3707SOL    HW212021   5.614   4.131   5.459
 3708SOL     OW12022   6.743   1.129   6.566
 3708SOL    HW112023   6.716   1.167   6.478
 3708SOL    HW212024   6.843   1.131   6.575
 3709SOL     OW12025   3.674   0.674   0.927
 3709SOL    HW112026   3.649   0.600   0.989
 3709SOL    HW212027   3.679   0.760   0.978
 3710SOL     OW12028   0.100   5.592   6.878
 3710SOL    HW112029   0.109   5.492   6.874
 3710SOL    HW212030   0.185   5.632   6.909
 3711SOL     OW12031   0.143   6.633   2.411
 3711SOL    HW112032   0.181   6.585   2.332
 3711SOL    HW212033   0.195   6.607   2.493
 3712SOL     OW12034   0.048   6.541   6.933
 3712SOL    HW112035   0.053   6.634   6.970
 3712SOL    HW212036   0.020   6.545   6.837
 3713SOL     OW12037   1.728   5.988   4.418
 3713SOL    HW112038   1.735   6.069   4.477
 3713SOL    HW212039   1.715   6.017   4.323
 3714SOL     OW12040   4.527   5.013   4.899
 3714SOL    HW112041   4.531   4.987   4.995
 3714SOL    HW212042   4.559   5.107   4.889
 3715SOL     OW12043   5.938   3.871   2.947
 3715SOL    HW112044   5.967   3.955   2.899
 3715SOL    HW212045   5.937   3.795   2.883
 3716SOL     OW12046   6.037   6.455   4.875
 3716SOL    HW112047   5.954   6.508   4.857
 3716SOL    HW212048   6.111   6.518   4.899
 3717SOL     OW12049   5.660   5.574   5.838
 3717SOL    HW112050   5.669   5.668   5.870
 3717SOL    HW212051   5.570   5.562   5.796
 3718SOL     OW12052   2.055   0.485   0.017
 3718SOL    HW112053   2.016   0.540   0.091
 3718SOL    HW212054   1.981   0.444   6.982
 3719SOL     OW12055   5.422   4.557   0.715
 3719SOL    HW112056   5.521   4.556   0.702
 3719SOL    HW212057   5.377   4.562   0.626
 3720SOL     OW12058   6.556   2.022   5.660
 3720SOL    HW112059   6.495   1.950   5.626
 3720SOL    HW212060   6.651   1.989   5.658
 3721SOL     OW12061   5.425   4.652   1.130
 3721SOL    HW112062   5.434   4.689   1.038
 3721SOL    HW212063   5.359   4.577   1.130
 3722SOL     OW12064   6.314   6.568   1.531
 3722SOL    HW112065   6.270   6.652   1.564
 3722SOL    HW212066   6.406   6.561   1.570
 3723SOL     OW12067   6.369   6.038   1.926
 3723SOL    HW112068   6.407   6.130   1.938
 3723SOL    HW212069   6.278   6.033   1.967
 3724SOL     OW12070   1.870   5.102   6.245
 3724SOL    HW112071   1.889   5.005   6.228
 3724SOL    HW212072   1.771   5.115   6.251
 3725SOL     OW12073   5.832   5.260   0.696
 3725SOL    HW112074   5.907   5.212   0.652
 3725SOL    HW212075   5.784   5.317   0.629
 3726SOL     OW12076   6.439   5.439   0.437
 3726SOL    HW112077   6.479   5.531   0.430
 3726SOL    HW212078   6.348   5.445   0.479
 3727SOL     OW12079   6.897   2.100   5.854
 3727SOL    HW112080   6.810   2.053   5.836
 3727SOL    HW212081   6.937   2.130   5.768
 3728SOL     OW12082   0.920   4.210   0.255
 3728SOL    HW112083   0.844   4.148   0.234
 3728SOL    HW212084   0.897   4.302   0.223
 3729SOL     OW12085   1.089   2.006   3.441
 3729SOL    HW112086   1.081   1.912   3.476
 3729SOL    HW212087   1.072   2.006   3.343
 3730SOL     OW12088   2.534   5.366   6.444
 3730SOL    HW112089   2.613   5.305   6.439
 3730SOL    HW212090   2.552   5.448   6.389
 3731SOL     OW12091   5.018   0.258   1.060
 3731SOL    HW112092   5.080   0.262   0.981
 3731SOL    HW212093   5.005   0.350   1.097
 3732SOL     OW12094   1.750   2.227   6.243
 3732SOL    HW112095   1.737   2.279   6.158
 3732SOL    HW212096   1.777   2.290   6.316
 3733SOL     OW12097   1.596   3.663   1.863
 3733SOL    HW112098   1.565   3.749   1.903
 3733SOL    HW212099   1.595   3.670   1.763
 3734SOL     OW12100   4.952   1.210   2.032
 3734SOL    HW112101   4.953   1.310   2.041
 3734SOL    HW212102   4.931   1.169   2.121
 3735SOL     OW12103   2.118   0.525   3.568
 3735SOL    HW112104   2.072   0.548   3.654
 3735SOL    HW212105   2.209   0.488   3.587
 3736SOL     OW12106   6.354   2.299   0.492
 3736SOL    HW112107   6.412   2.217   0.501
 3736SOL    HW212108   6.298   2.309   0.574
 3737SOL     OW12109   4.828   0.588   3.729
 3737SOL    HW112110   4.871   0.513   3.780
 3737SOL    HW212111   4.800   0.555   3.639
 3738SOL     OW12112   6.903   5.684   2.143
 3738SOL    HW112113   6.974   5.647   2.083
 3738SOL    HW212114   6.945   5.728   2.223
 3739SOL     OW12115   2.443   4.884   1.801
 3739SOL    HW112116   2.416   4.853   1.710
 3739SOL    HW212117   2.366   4.875   1.863
 3740SOL     OW12118   5.538   6.969   0.515
 3740SOL    HW112119   5.478   6.947   0.592
 3740SOL    HW212120   5.558   0.049   0.516
 3741SOL     OW12121   4.586   3.127   1.320
 3741SOL    HW112122   4.574   3.114   1.222
 3741SOL    HW212123   4.527   3.202   1.351
 3742SOL     OW12124   2.722   1.917   6.368
 3742SOL    HW112125   2.761   1.854   6.300
 3742SOL    HW212126   2.682   1.864   6.443
 3743SOL     OW12127   5.118   3.561   0.945
 3743SOL    HW112128   5.164   3.478   0.913
 3743SOL    HW212129   5.068   3.603   0.869
 3744SOL     OW12130   0.722   6.192   2.822
 3744SOL    HW112131   0.650   6.161   2.760
 3744SOL    HW212132   0.810   6.188   2.775
 3745SOL     OW12133   3.889   5.114   2.070
 3745SOL    HW112134   3.989   5.113   2.073
 3745SOL    HW212135   3.858   5.063   1.989
 3746SOL     OW12136   5.218   1.551   2.890
 3746SOL    HW112137   5.304   1.504   2.868
 3746SOL    HW212138   5.143   1.508   2.840
 3747SOL     OW12139   2.736   0.265   5.509
 3747SOL    HW112140   2.663   0.233   5.449
 3747SOL    HW212141   2.742   0.365   5.505
 3748SOL     OW12142   5.439   0.286   1.936
 3748SOL    HW112143   5.393   0.231   2.006
 3748SOL    HW212144   5.378   0.360   1.907
 3749SOL     OW12145   1.901   6.439   4.289
 3749SOL    HW112146   1.966   6.498   4.337
 3749SOL    HW212147   1.897   6.465   4.193
 3750SOL     OW12148   1.227   3.753   0.626
 3750SOL    HW112149   1.267   3.811   0.555
 3750SOL    HW212150   1.300   3.714   0.682
 3751SOL     OW12151   6.921   3.575   2.256
 3751SOL    HW112152   6.862   3.513   2.307
 3751SOL    HW212153   6.948   3.533   2.170
 3752SOL     OW12154   5.273   0.544   6.822
 3752SOL    HW112155   5.252   0.476   6.751
 3752SOL    HW212156   5.322   0.500   6.897
 3753SOL     OW12157   6.084   0.713   5.518
 3753SOL    HW112158   6.057   0.631   5.568
 3753SOL    HW212159   6.068   0.794   5.575
 3754SOL     OW12160   2.206   0.329   1.559
 3754SOL    HW112161   2.218   0.329   1.460
 3754SOL    HW212162   2.109   0.343   1.581
 3755SOL     OW12163   4.540   5.497   5.048
 3755SOL    HW112164   4.594   5.415   5.070
 3755SOL    HW212165   4.542   5.560   5.125
 3756SOL     OW12166   2.791   5.591   6.476
 3756SOL    HW112167   2.721   5.588   6.404
 3756SOL    HW212168   2.751   5.562   6.563
 3757SOL     OW12169   5.859   5.301   1.967
 3757SOL    HW112170   5.889   5.368   2.035
 3757SOL    HW212171   5.939   5.262   1.922
 3758SOL     OW12172   2.264   1.366   4.282
 3758SOL    HW112173   2.165   1.367   4.297
 3758SOL    HW212174   2.291   1.278   4.242
 3759SOL     OW12175   4.020   6.930   5.616
 3759SOL    HW112176   4.105   6.929   5.670
 3759SOL    HW212177   4.041   6.959   5.522
 3760SOL     OW12178   0.756   1.659   4.274
 3760SOL    HW112179   0.800   1.625   4.190
 3760SOL    HW212180   0.719   1.750   4.257
 3761SOL     OW12181   6.599   0.803   5.416
 3761SOL    HW112182   6.565   0.809   5.510
 3761SOL    HW212183   6.683   0.749   5.415
 3762SOL     OW12184   1.583   4.326   1.162
 3762SOL    HW112185   1.607   4.421   1.183
 3762SOL    HW212186   1.523   4.290   1.234
 3763SOL     OW12187   0.073   3.693   0.351
 3763SOL    HW112188   0.086   3.691   0.252
 3763SOL    HW212189   0.159   3.718   0.396
 3764SOL     OW12190   1.593   6.999   2.479
 3764SOL    HW112191   1.645   6.998   2.394
 3764SOL    HW212192   1.646   6.956   2.552
 3765SOL     OW12193   5.857   1.384   1.100
 3765SOL    HW112194   5.912   1.436   1.166
 3765SOL    HW212195   5.761   1.383   1.130
 3766SOL     OW12196   1.890   1.908   4.191
 3766SOL    HW112197   1.882   1.907   4.291
 3766SOL    HW212198   1.873   2.000   4.157
 3767SOL     OW12199   2.902   4.398   6.214
 3767SOL    HW112200   2.844   4.321   6.242
 3767SOL    HW212201   2.946   4.437   6.295
 3768SOL     OW12202   0.480   6.972   4.665
 3768SOL    HW112203   0.552   6.941   4.727
 3768SOL    HW212204   0.461   0.051   4.681
 3769SOL     OW12205   6.148   5.394   5.096
 3769SOL    HW112206   6.088   5.461   5.139
 3769SOL    HW212207   6.200   5.438   5.022
 3770SOL     OW12208   1.412   0.761   6.767
 3770SOL    HW112209   1.499   0.805   6.743
 3770SOL    HW212210   1.405   0.755   6.866
 3771SOL     OW12211   5.605   4.273   6.499
 3771SOL    HW112212   5.611   4.362   6.452
 3771SOL    HW212213   5.510   4.243   6.501
 3772SOL     OW12214   0.728   0.361   0.408
 3772SOL    HW112215   0.823   0.330   0.409
 3772SOL    HW212216   0.683   0.336   0.494
 3773SOL     OW12217   6.397   3.175   5.189
 3773SOL    HW112218   6.381   3.215   5.099
 3773SOL    HW212219   6.446   3.089   5.179
 3774SOL     OW12220   5.687   5.758   1.668
 3774SOL    HW112221   5.713   5.812   1.748
 3774SOL    HW212222   5.724   5.666   1.676
 3775SOL     OW12223   4.120   5.453   3.472
 3775SOL    HW112224   4.146   5.486   3.381
 3775SOL    HW212225   4.032   5.492   3.497
 3776SOL     OW12226   3.825   2.363   6.607
 3776SOL    HW112227   3.847   2.378   6.511
 3776SOL    HW212228   3.727   2.345   6.617
 3777SOL     OW12229   2.352   4.994   3.802
 3777SOL    HW112230   2.335   4.898   3.782
 3777SOL    HW212231   2.448   5.007   3.827
 3778SOL     OW12232   2.294   5.783   3.455
 3778SOL    HW112233   2.287   5.878   3.424
 3778SOL    HW212234   2.351   5.731   3.392
 3779SOL     OW12235   0.517   5.332   0.985
 3779SOL    HW112236   0.490   5.241   0.952
 3779SOL    HW212237   0.460   5.358   1.063
 3780SOL     OW12238   6.509   3.945   4.594
 3780SOL    HW112239   6.481   3.927   4.688
 3780SOL    HW212240   6.503   3.860   4.541
 3781SOL     OW12241   0.397   0.290   3.805
 3781SOL    HW112242   0.325   0.350   3.840
 3781SOL    HW212243   0.361   0.197   3.795
 3782SOL     OW12244   3.487   6.955   2.943
 3782SOL    HW112245   3.574   7.002   2.958
 3782SOL    HW212246   3.482   6.923   2.848
 3783SOL     OW12247   6.200   5.390   3.917
 3783SOL    HW112248   6.158   5.481   3.908
 3783SOL    HW212249   6.132   5.326   3.953
 3784SOL     OW12250   5.371   3.131   2.403
 3784SOL    HW112251   5.365   3.156   2.499
 3784SOL    HW212252   5.457   3.082   2.386
 3785SOL     OW12253   1.596   3.056   4.610
 3785SOL    HW112254   1.684   3.069   4.655
 3785SOL    HW212255   1.532   3.126   4.642
 3786SOL     OW12256   2.181   3.981   3.044
 3786SOL    HW112257   2.121   3.968   2.965
 3786SOL    HW212258   2.245   4.057   3.024
 3787SOL     OW12259   5.747   0.620   2.351
 3787SOL    HW112260   5.842   0.587   2.351
 3787SOL    HW212261   5.685   0.543   2.356
 3788SOL     OW12262   6.432   4.130   4.910
 3788SOL    HW112263   6.478   4.142   4.999
 3788SOL    HW212264   6.491   4.165   4.838
 3789SOL     OW12265   0.184   3.625   3.542
 3789SOL    HW112266   0.096   3.584   3.520
 3789SOL    HW212267   0.182   3.663   3.635
 3790SOL     OW12268   0.831   4.570   6.044
 3790SOL    HW112269   0.798   4.503   5.977
 3790SOL    HW212270   0.927   4.553   6.063
 3791SOL     OW12271   4.803   1.841   6.456
 3791SOL    HW112272   4.788   1.938   6.440
 3791SOL    HW212273   4.778   1.819   6.550
 3792SOL     OW12274   1.414   1.831   4.052
 3792SOL    HW112275   1.392   1.893   4.128
 3792SOL    HW212276   1.500   1.859   4.010
 3793SOL     OW12277   4.587   6.478   1.679
 3793SOL    HW112278   4.598   6.474   1.779
 3793SOL    HW212279   4.524   6.553   1.656
 3794SOL     OW12280   2.838   3.069   1.451
 3794SOL    HW112281   2.846   3.077   1.551
 3794SOL    HW212282   2.765   3.005   1.429
 3795SOL     OW12283   4.233   5.771   1.355
 3795SOL    HW112284   4.281   5.761   1.442
 3795SOL    HW212285   4.161   5.840   1.363
 3796SOL     OW12286   4.403   1.975   2.240
 3796SOL    HW112287   4.309   1.964   2.274
 3796SOL    HW212288   4.418   2.069   2.212
 3797SOL     OW12289   0.843   3.466   3.505
 3797SOL    HW112290   0.812   3.441   3.596
 3797SOL    HW212291   0.766   3.460   3.441
 3798SOL     OW12292   2.654   6.360   2.572
 3798SOL    HW112293   2.688   6.427   2.637
 3798SOL    HW212294   2.717   6.283   2.566
 3799SOL     OW12295   6.529   2.819   3.835
 3799SOL    HW112296   6.440   2.822   3.881
 3799SOL    HW212297   6.566   2.726   3.839
 3800SOL     OW12298   5.537   1.980   3.373
 3800SOL    HW112299   5.533   1.918   3.295
 3800SOL    HW212300   5.631   1.986   3.407
 3801SOL     OW12301   5.893   6.641   2.153
 3801SOL    HW112302   5.900   6.567   2.086
 3801SOL    HW212303   5.797   6.668   2.162
 3802SOL     OW12304   0.768   1.542   1.934
 3802SOL    HW112305   0.842   1.581   1.989
 3802SOL    HW212306   0.799   1.533   1.839
 3803SOL     OW12307   3.995   3.785   3.123
 3803SOL    HW112308   4.008   3.848   3.200
 3803SOL    HW212309   3.943   3.831   3.051
 3804SOL     OW12310   4.289   1.412   3.838
 3804SOL    HW112311   4.362   1.453   3.782
 3804SOL    HW212312   4.269   1.320   3.805
 3805SOL     OW12313   1.671   2.671   1.633
 3805SOL    HW112314   1.733   2.594   1.616
 3805SOL    HW212315   1.612   2.650   1.711
 3806SOL     OW12316   3.544   3.357   5.505
 3806SOL    HW112317   3.503   3.275   5.465
 3806SOL    HW212318   3.518   3.437   5.452
 3807SOL     OW12319   2.447   5.343   3.050
 3807SOL    HW112320   2.478   5.432   3.016
 3807SOL    HW212321   2.426   5.350   3.147
 3808SOL     OW12322   4.011   0.918   0.175
 3808SOL    HW112323   4.103   0.949   0.151
 3808SOL    HW212324   3.958   0.994   0.210
 3809SOL     OW12325   5.532   2.900   1.314
 3809SOL    HW112326   5.527   2.992   1.274
 3809SOL    HW212327   5.619   2.858   1.290
 3810SOL     OW12328   5.972   2.433   3.748
 3810SOL    HW112329   5.922   2.519   3.757
 3810SOL    HW212330   6.025   2.417   3.831
 3811SOL     OW12331   0.229   6.581   4.630
 3811SOL    HW112332   0.218   6.676   4.659
 3811SOL    HW212333   0.325   6.553   4.641
 3812SOL     OW12334   3.367   4.584   5.762
 3812SOL    HW112335   3.364   4.673   5.715
 3812SOL    HW212336   3.286   4.531   5.737
 3813SOL     OW12337   5.932   3.878   0.280
 3813SOL    HW112338   5.855   3.821   0.250
 3813SOL    HW212339   5.955   3.856   0.375
 3814SOL     OW12340   6.522   0.035   4.687
 3814SOL    HW112341   6.567   0.105   4.742
 3814SOL    HW212342   6.569   0.026   4.599
 3815SOL     OW12343   3.998   2.822   0.750
 3815SOL    HW112344   4.007   2.728   0.785
 3815SOL    HW212345   3.903   2.841   0.729
 3816SOL     OW12346   1.285   5.111   6.385
 3816SOL    HW112347   1.264   5.106   6.483
 3816SOL    HW212348   1.362   5.051   6.365
 3817SOL     OW12349   4.845   3.593   2.180
 3817SOL    HW112350   4.899   3.676   2.169
 3817SOL    HW212351   4.792   3.598   2.265
 3818SOL     OW12352   6.573   1.075   6.964
 3818SOL    HW112353   6.511   1.151   6.986
 3818SOL    HW212354   6.659   1.088   7.013
 3819SOL     OW12355   6.138   4.766   2.685
 3819SOL    HW112356   6.192   4.807   2.612
 3819SOL    HW212357   6.184   4.780   2.773
 3820SOL     OW12358   5.385   6.993   4.089
 3820SOL    HW112359   5.424   0.056   4.132
 3820SOL    HW212360   5.301   0.000   4.041
 3821SOL     OW12361   1.299   0.903   1.718
 3821SOL    HW112362   1.209   0.887   1.678
 3821SOL    HW212363   1.293   0.898   1.818
 3822SOL     OW12364   2.074   6.414   0.090
 3822SOL    HW112365   2.086   6.329   0.142
 3822SOL    HW212366   1.980   6.419   0.056
 3823SOL     OW12367   3.734   3.593   6.624
 3823SOL    HW112368   3.710   3.688   6.605
 3823SOL    HW212369   3.694   3.565   6.711
 3824SOL     OW12370   0.696   2.499   0.863
 3824SOL    HW112371   0.734   2.544   0.783
 3824SOL    HW212372   0.745   2.413   0.880
 3825SOL     OW12373   0.610   4.712   6.845
 3825SOL    HW112374   0.628   4.667   6.932
 3825SOL    HW212375   0.569   4.647   6.782
 3826SOL     OW12376   0.454   3.515   1.217
 3826SOL    HW112377   0.455   3.415   1.219
 3826SOL    HW212378   0.547   3.549   1.206
 3827SOL     OW12379   1.158   0.905   1.323
 3827SOL    HW112380   1.088   0.923   1.393
 3827SOL    HW212381   1.127   0.941   1.235
 3828SOL     OW12382   3.494   3.626   3.575
 3828SOL    HW112383   3.546   3.637   3.490
 3828SOL    HW212384   3.554   3.586   3.644
 3829SOL     OW12385   0.403   4.271   2.250
 3829SOL    HW112386   0.338   4.239   2.181
 3829SOL    HW212387   0.487   4.217   2.245
 3830SOL     OW12388   0.794   1.543   5.513
 3830SOL    HW112389   0.852   1.510   5.438
 3830SOL    HW212390   0.782   1.471   5.580
 3831SOL     OW12391   4.471   2.358   2.401
 3831SOL    HW112392   4.486   2.454   2.378
 3831SOL    HW212393   4.435   2.310   2.321
 3832SOL     OW12394   6.684   0.485   2.694
 3832SOL    HW112395   6.607   0.421   2.707
 3832SOL    HW212396   6.747   0.475   2.771
 3833SOL     OW12397   0.284   5.859   6.630
 3833SOL    HW112398   0.195   5.897   6.602
 3833SOL    HW212399   0.310   5.786   6.567
 3834SOL     OW12400   3.626   4.229   0.722
 3834SOL    HW112401   3.616   4.319   0.681
 3834SOL    HW212402   3.537   4.196   0.753
 3835SOL     OW12403   4.087   6.164   4.802
 3835SOL    HW112404   4.137   6.111   4.734
 3835SOL    HW212405   4.152   6.201   4.869
 3836SOL     OW12406   0.016   5.263   5.771
 3836SOL    HW112407   0.018   5.277   5.672
 3836SOL    HW212408   6.988   5.339   5.815
 3837SOL     OW12409   4.513   4.569   5.970
 3837SOL    HW112410   4.439   4.596   6.031
 3837SOL    HW212411   4.595   4.621   5.992
 3838SOL     OW12412   0.631   2.898   3.951
 3838SOL    HW112413   0.644   2.849   3.864
 3838SOL    HW212414   0.684   2.983   3.949
 3839SOL     OW12415   5.694   1.750   2.816
 3839SOL    HW112416   5.697   1.706   2.906
 3839SOL    HW212417   5.776   1.725   2.764
 3840SOL     OW12418   3.220   0.976   6.268
 3840SOL    HW112419   3.212   1.062   6.216
 3840SOL    HW212420   3.128   0.942   6.289
 3841SOL     OW12421   0.282   2.895   4.568
 3841SOL    HW112422   0.276   2.928   4.473
 3841SOL    HW212423   0.296   2.796   4.567
 3842SOL     OW12424   1.488   2.512   2.610
 3842SOL    HW112425   1.539   2.575   2.668
 3842SOL    HW212426   1.482   2.549   2.517
 3843SOL     OW12427   5.710   3.934   2.269
 3843SOL    HW112428   5.647   3.886   2.208
 3843SOL    HW212429   5.765   3.999   2.215
 3844SOL     OW12430   1.031   2.955   5.130
 3844SOL    HW112431   1.076   2.876   5.088
 3844SOL    HW212432   1.094   2.999   5.195
 3845SOL     OW12433   2.973   4.180   5.951
 3845SOL    HW112434   2.904   4.243   5.913
 3845SOL    HW212435   2.936   4.087   5.951
 3846SOL     OW12436   0.699   4.689   3.548
 3846SOL    HW112437   0.771   4.746   3.508
 3846SOL    HW212438   0.685   4.608   3.491
 3847SOL     OW12439   5.514   3.263   4.803
 3847SOL    HW112440   5.581   3.325   4.844
 3847SOL    HW212441   5.424   3.280   4.843
 3848SOL     OW12442   4.458   4.827   2.817
 3848SOL    HW112443   4.486   4.922   2.828
 3848SOL    HW212444   4.361   4.822   2.796
 3849SOL     OW12445   0.763   1.586   6.031
 3849SOL    HW112446   0.808   1.619   6.114
 3849SOL    HW212447   0.828   1.534   5.976
 3850SOL     OW12448   3.080   3.460   1.865
 3850SOL    HW112449   3.175   3.461   1.898
 3850SOL    HW212450   3.021   3.502   1.933
 3851SOL     OW12451   0.802   3.940   3.318
 3851SOL    HW112452   0.781   3.902   3.228
 3851SOL    HW212453   0.892   3.908   3.348
 3852SOL     OW12454   3.921   6.808   3.997
 3852SOL    HW112455   3.927   6.754   3.913
 3852SOL    HW212456   3.845   6.873   3.989
 3853SOL     OW12457   0.652   3.989   3.778
 3853SOL    HW112458   0.679   3.993   3.875
 3853SOL    HW212459   0.672   3.897   3.743
 3854SOL     OW12460   1.461   2.278   2.927
 3854SOL    HW112461   1.472   2.336   3.008
 3854SOL    HW212462   1.540   2.217   2.919
 3855SOL     OW12463   4.894   6.067   6.340
 3855SOL    HW112464   4.877   6.075   6.242
 3855SOL    HW212465   4.926   5.975   6.361
 3856SOL     OW12466   6.465   0.631   6.118
 3856SOL    HW112467   6.460   0.582   6.205
 3856SOL    HW212468   6.481   0.565   6.044
 3857SOL     OW12469   0.756   6.071   6.375
 3857SOL    HW112470   0.738   5.989   6.320
 3857SOL    HW212471   0.724   6.056   6.468
 3858SOL     OW12472   2.328   0.900   5.555
 3858SOL    HW112473   2.287   0.820   5.598
 3858SOL    HW212474   2.268   0.979   5.568
 3859SOL     OW12475   5.475   1.170   1.275
 3859SOL    HW112476   5.503   1.178   1.179
 3859SOL    HW212477   5.376   1.167   1.281
 3860SOL     OW12478   1.946   1.590   3.654
 3860SOL    HW112479   2.020   1.655   3.673
 3860SOL    HW212480   1.939   1.525   3.729
 3861SOL     OW12481   4.321   5.574   3.765
 3861SOL    HW112482   4.390   5.524   3.712
 3861SOL    HW212483   4.366   5.621   3.841
 3862SOL     OW12484   0.292   0.621   4.811
 3862SOL    HW112485   0.340   0.658   4.890
 3862SOL    HW212486   0.266   0.526   4.829
 3863SOL     OW12487   5.801   2.440   0.021
 3863SOL    HW112488   5.762   2.437   6.947
 3863SOL    HW212489   5.761   2.517   0.071
 3864SOL     OW12490   2.071   1.231   5.785
 3864SOL    HW112491   1.979   1.194   5.793
 3864SOL    HW212492   2.116   1.192   5.704
 3865SOL     OW12493   4.376   0.889   1.094
 3865SOL    HW112494   4.292   0.900   1.147
 3865SOL    HW212495   4.363   0.926   1.002
 3866SOL     OW12496   4.501   0.061   0.377
 3866SOL    HW112497   4.536   6.994   0.416
 3866SOL    HW212498   4.518   0.136   0.441
 3867SOL     OW12499   0.255   5.855   4.401
 3867SOL    HW112500   0.286   5.926   4.464
 3867SOL    HW212501   0.182   5.891   4.343
 3868SOL     OW12502   2.620   6.752   0.891
 3868SOL    HW112503   2.634   6.736   0.794
 3868SOL    HW212504   2.627   6.666   0.941
 3869SOL     OW12505   6.538   3.732   4.412
 3869SOL    HW112506   6.530   3.778   4.324
 3869SOL    HW212507   6.472   3.657   4.417
 3870SOL     OW12508   6.124   6.736   6.732
 3870SOL    HW112509   6.028   6.715   6.713
 3870SOL    HW212510   6.182   6.679   6.674
 3871SOL     OW12511   3.902   1.170   3.156
 3871SOL    HW112512   3.806   1.154   3.132
 3871SOL    HW212513   3.907   1.223   3.240
 3872SOL     OW12514   3.640   2.980   4.071
 3872SOL    HW112515   3.684   2.991   4.160
 3872SOL    HW212516   3.560   2.921   4.080
 3873SOL     OW12517   6.389   3.236   0.833
 3873SOL    HW112518   6.394   3.163   0.765
 3873SOL    HW212519   6.480   3.254   0.869
 3874SOL     OW12520   4.690   6.122   6.752
 3874SOL    HW112521   4.783   6.106   6.786
 3874SOL    HW212522   4.627   6.127   6.829
 3875SOL     OW12523   2.150   3.099   2.563
 3875SOL    HW112524   2.058   3.127   2.535
 3875SOL    HW212525   2.161   3.001   2.548
 3876SOL     OW12526   4.055   5.969   1.403
 3876SOL    HW112527   4.017   6.010   1.486
 3876SOL    HW212528   3.991   5.979   1.327
 3877SOL     OW12529   5.481   2.750   0.463
 3877SOL    HW112530   5.455   2.770   0.557
 3877SOL    HW212531   5.515   2.657   0.456
 3878SOL     OW12532   3.402   0.150   4.643
 3878SOL    HW112533   3.331   0.202   4.596
 3878SOL    HW212534   3.377   0.053   4.646
 3879SOL     OW12535   5.797   5.011   0.800
 3879SOL    HW112536   5.817   5.109   0.792
 3879SOL    HW212537   5.715   4.989   0.748
 3880SOL     OW12538   5.838   4.906   4.094
 3880SOL    HW112539   5.742   4.892   4.118
 3880SOL    HW212540   5.896   4.863   4.163
 3881SOL     OW12541   1.223   3.255   1.616
 3881SOL    HW112542   1.123   3.262   1.622
 3881SOL    HW212543   1.262   3.257   1.708
 3882SOL     OW12544   1.461   1.057   5.528
 3882SOL    HW112545   1.399   0.989   5.567
 3882SOL    HW212546   1.500   1.112   5.602
 3883SOL     OW12547   4.453   1.126   3.181
 3883SOL    HW112548   4.434   1.220   3.209
 3883SOL    HW212549   4.374   1.068   3.202
 3884SOL     OW12550   0.323   5.633   2.705
 3884SOL    HW112551   0.397   5.629   2.639
 3884SOL    HW212552   0.320   5.547   2.757
 3885SOL     OW12553   6.102   6.699   2.733
 3885SOL    HW112554   6.019   6.753   2.747
 3885SOL    HW212555   6.178   6.742   2.781
 3886SOL     OW12556   5.668   5.552   4.897
 3886SOL    HW112557   5.712   5.475   4.851
 3886SOL    HW212558   5.618   5.607   4.830
 3887SOL     OW12559   0.930   0.398   0.112
 3887SOL    HW112560   0.956   0.448   0.030
 3887SOL    HW212561   0.986   0.428   0.189
 3888SOL     OW12562   6.661   0.768   5.001
 3888SOL    HW112563   6.757   0.784   4.980
 3888SOL    HW212564   6.607   0.847   4.969
 3889SOL     OW12565   0.177   3.831   0.728
 3889SOL    HW112566   0.103   3.836   0.795
 3889SOL    HW212567   0.151   3.883   0.646
 3890SOL     OW12568   5.607   5.889   3.305
 3890SOL    HW112569   5.689   5.924   3.260
 3890SOL    HW212570   5.632   5.845   3.392
 3891SOL     OW12571   5.908   4.603   4.486
 3891SOL    HW112572   5.946   4.578   4.397
 3891SOL    HW212573   5.911   4.523   4.546
 3892SOL     OW12574   6.892   2.153   1.716
 3892SOL    HW112575   6.835   2.147   1.797
 3892SOL    HW212576   6.947   2.070   1.707
 3893SOL     OW12577   4.545   4.633   0.831
 3893SOL    HW112578   4.537   4.546   0.879
 3893SOL    HW212579   4.641   4.655   0.817
 3894SOL     OW12580   3.897   1.773   1.044
 3894SOL    HW112581   3.960   1.710   1.000
 3894SOL    HW212582   3.838   1.722   1.107
 3895SOL     OW12583   1.257   0.700   5.296
 3895SOL    HW112584   1.192   0.638   5.253
 3895SOL    HW212585   1.220   0.793   5.294
 3896SOL     OW12586   6.695   0.779   6.147
 3896SOL    HW112587   6.614   0.722   6.136
 3896SOL    HW212588   6.743   0.754   6.231
 3897SOL     OW12589   3.387   5.348   2.713
 3897SOL    HW112590   3.404   5.258   2.673
 3897SOL    HW212591   3.448   5.362   2.791
 3898SOL     OW12592   2.925   3.765   5.205
 3898SOL    HW112593   2.930   3.798   5.111
 3898SOL    HW212594   2.896   3.670   5.206
 3899SOL     OW12595   5.688   0.145   4.735
 3899SOL    HW112596   5.593   0.173   4.749
 3899SOL    HW212597   5.713   0.160   4.639
 3900SOL     OW12598   5.006   3.482   3.917
 3900SOL    HW112599   4.952   3.561   3.890
 3900SOL    HW212600   4.987   3.406   3.855
 3901SOL     OW12601   2.917   0.440   6.360
 3901SOL    HW112602   2.879   0.361   6.312
 3901SOL    HW212603   3.001   0.413   6.408
 3902SOL     OW12604   5.499   3.936   2.059
 3902SOL    HW112605   5.540   3.991   1.986
 3902SOL    HW212606   5.503   3.839   2.033
 3903SOL     OW12607   3.793   6.128   6.819
 3903SOL    HW112608   3.867   6.064   6.840
 3903SOL    HW212609   3.705   6.086   6.843
 3904SOL     OW12610   2.386   0.903   4.739
 3904SOL    HW112611   2.288   0.887   4.732
 3904SOL    HW212612   2.426   0.907   4.647
 3905SOL     OW12613   6.927   6.782   6.166
 3905SOL    HW112614   6.954   6.687   6.181
 3905SOL    HW212615   6.829   6.787   6.145
 3906SOL     OW12616   3.893   5.105   5.669
 3906SOL    HW112617   3.937   5.016   5.675
 3906SOL    HW212618   3.963   5.177   5.670
 3907SOL     OW12619   5.519   0.277   5.066
 3907SOL    HW112620   5.484   0.259   4.974
 3907SOL    HW212621   5.488   0.206   5.129
 3908SOL     OW12622   1.102   0.976   0.432
 3908SOL    HW112623   1.125   1.073   0.436
 3908SOL    HW212624   1.004   0.965   0.416
 3909SOL     OW12625   0.010   5.326   5.227
 3909SOL    HW112626   6.989   5.237   5.199
 3909SOL    HW212627   0.085   5.350   5.166
 3910SOL     OW12628   3.540   3.881   1.994
 3910SOL    HW112629   3.455   3.835   2.018
 3910SOL    HW212630   3.616   3.817   2.001
 3911SOL     OW12631   4.504   1.165   0.115
 3911SOL    HW112632   4.534   1.079   0.158
 3911SOL    HW212633   4.568   1.238   0.139
 3912SOL     OW12634   3.893   7.000   6.139
 3912SOL    HW112635   3.918   6.989   6.043
 3912SOL    HW212636   3.810   6.948   6.158
 3913SOL     OW12637   2.476   6.614   5.896
 3913SOL    HW112638   2.431   6.551   5.832
 3913SOL    HW212639   2.486   6.569   5.985
 3914SOL     OW12640   4.436   1.047   0.880
 3914SOL    HW112641   4.491   1.069   0.961
 3914SOL    HW212642   4.497   1.034   0.801
 3915SOL     OW12643   3.383   5.895   2.292
 3915SOL    HW112644   3.431   5.977   2.320
 3915SOL    HW212645   3.331   5.858   2.370
 3916SOL     OW12646   1.534   5.610   3.754
 3916SOL    HW112647   1.499   5.526   3.796
 3916SOL    HW212648   1.628   5.625   3.785
 3917SOL     OW12649   1.279   5.029   7.004
 3917SOL    HW112650   1.286   5.082   6.919
 3917SOL    HW212651   1.209   5.070   0.045
 3918SOL     OW12652   4.683   0.341   2.453
 3918SOL    HW112653   4.720   0.310   2.540
 3918SOL    HW212654   4.583   0.336   2.455
 3919SOL     OW12655   2.629   5.739   6.668
 3919SOL    HW112656   2.535   5.763   6.692
 3919SOL    HW212657   2.662   5.801   6.596
 3920SOL     OW12658   2.284   2.846   6.860
 3920SOL    HW112659   2.306   2.847   6.763
 3920SOL    HW212660   2.329   2.768   6.904
 3921SOL     OW12661   6.726   2.992   1.109
 3921SOL    HW112662   6.817   2.982   1.149
 3921SOL    HW212663   6.689   3.081   1.132
 3922SOL     OW12664   6.030   4.264   0.876
 3922SOL    HW112665   6.117   4.313   0.869
 3922SOL    HW212666   6.012   4.241   0.972
 3923SOL     OW12667   6.569   1.980   0.026
 3923SOL    HW112668   6.620   1.897   0.048
 3923SOL    HW212669   6.625   2.060   0.050
 3924SOL     OW12670   0.136   5.338   3.178
 3924SOL    HW112671   0.080   5.421   3.169
 3924SOL    HW212672   0.097   5.265   3.123
 3925SOL     OW12673   3.886   4.634   1.231
 3925SOL    HW112674   3.799   4.588   1.248
 3925SOL    HW212675   3.953   4.606   1.300
 3926SOL     OW12676   6.598   5.583   2.847
 3926SOL    HW112677   6.674   5.560   2.908
 3926SOL    HW212678   6.575   5.680   2.856
 3927SOL     OW12679   6.852   3.615   3.488
 3927SOL    HW112680   6.901   3.531   3.512
 3927SOL    HW212681   6.859   3.681   3.563
 3928SOL     OW12682   2.613   5.267   5.575
 3928SOL    HW112683   2.554   5.313   5.642
 3928SOL    HW212684   2.708   5.282   5.600
 3929SOL     OW12685   0.876   2.053   5.693
 3929SOL    HW112686   0.855   2.147   5.665
 3929SOL    HW212687   0.900   2.052   5.790
 3930SOL     OW12688   2.445   1.477   4.065
 3930SOL    HW112689   2.418   1.512   3.975
 3930SOL    HW212690   2.363   1.447   4.114
 3931SOL     OW12691   1.534   1.919   2.701
 3931SOL    HW112692   1.443   1.954   2.681
 3931SOL    HW212693   1.538   1.890   2.797
 3932SOL     OW12694   1.795   3.955   2.494
 3932SOL    HW112695   1.849   3.871   2.484
 3932SOL    HW212696   1.748   3.954   2.582
 3933SOL     OW12697   2.216   0.024   6.740
 3933SOL    HW112698   2.120   0.016   6.712
 3933SOL    HW212699   2.222   0.082   6.821
 3934SOL     OW12700   6.931   0.669   1.153
 3934SOL    HW112701   0.012   0.659   1.160
 3934SOL    HW212702   6.910   0.736   1.082
 3935SOL     OW12703   1.962   6.766   6.844
 3935SOL    HW112704   1.962   6.844   6.783
 3935SOL    HW212705   1.977   6.797   6.938
 3936SOL     OW12706   0.344   5.392   5.657
 3936SOL    HW112707   0.326   5.363   5.563
 3936SOL    HW212708   0.275   5.458   5.686
 3937SOL     OW12709   0.211   0.466   2.013
 3937SOL    HW112710   0.307   0.483   1.995
 3937SOL    HW212711   0.197   0.368   2.032
 3938SOL     OW12712   6.821   1.886   3.816
 3938SOL    HW112713   6.745   1.898   3.752
 3938SOL    HW212714   6.849   1.790   3.818
 3939SOL     OW12715   3.117   1.841   1.944
 3939SOL    HW112716   3.210   1.821   1.912
 3939SOL    HW212717   3.108   1.939   1.963
 3940SOL     OW12718   4.501   5.629   2.085
 3940SOL    HW112719   4.433   5.619   2.158
 3940SOL    HW212720   4.474   5.703   2.024
 3941SOL     OW12721   5.234   1.183   6.312
 3941SOL    HW112722   5.318   1.146   6.272
 3941SOL    HW212723   5.218   1.139   6.401
 3942SOL     OW12724   7.011   6.991   6.020
 3942SOL    HW112725   0.085   6.997   6.060
 3942SOL    HW212726   6.965   6.910   6.056
 3943SOL     OW12727   1.203   3.894   2.987
 3943SOL    HW112728   1.133   3.953   3.029
 3943SOL    HW212729   1.256   3.849   3.060
 3944SOL     OW12730   5.895   3.657   5.601
 3944SOL    HW112731   5.990   3.675   5.627
 3944SOL    HW212732   5.873   3.561   5.619
 3945SOL     OW12733   0.678   2.523   1.822
 3945SOL    HW112734   0.741   2.564   1.887
 3945SOL    HW212735   0.674   2.424   1.837
 3946SOL     OW12736   5.889   5.255   5.839
 3946SOL    HW112737   5.801   5.270   5.793
 3946SOL    HW212738   5.963   5.274   5.774
 3947SOL     OW12739   6.163   5.111   1.573
 3947SOL    HW112740   6.252   5.155   1.585
 3947SOL    HW212741   6.168   5.046   1.496
 3948SOL     OW12742   0.731   5.331   1.571
 3948SOL    HW112743   0.741   5.334   1.472
 3948SOL    HW212744   0.812   5.289   1.612
 3949SOL     OW12745   5.670   0.575   2.990
 3949SOL    HW112746   5.764   0.610   2.995
 3949SOL    HW212747   5.615   0.635   2.933
 3950SOL     OW12748   3.009   4.233   1.748
 3950SOL    HW112749   3.105   4.263   1.745
 3950SOL    HW212750   2.951   4.310   1.772
 3951SOL     OW12751   0.402   0.122   0.719
 3951SOL    HW112752   0.394   0.139   0.818
 3951SOL    HW212753   0.344   0.045   0.694
 3952SOL     OW12754   6.611   3.890   3.646
 3952SOL    HW112755   6.697   3.856   3.607
 3952SOL    HW212756   6.538   3.881   3.578
 3953SOL     OW12757   3.611   4.630   0.848
 3953SOL    HW112758   3.551   4.603   0.923
 3953SOL    HW212759   3.660   4.713   0.872
 3954SOL     OW12760   5.699   5.549   5.340
 3954SOL    HW112761   5.732   5.502   5.422
 3954SOL    HW212762   5.627   5.494   5.297
 3955SOL     OW12763   3.300   5.976   5.992
 3955SOL    HW112764   3.329   6.054   6.048
 3955SOL    HW212765   3.220   5.932   6.034
 3956SOL     OW12766   0.334   1.295   2.710
 3956SOL    HW112767   0.293   1.384   2.690
 3956SOL    HW212768   0.433   1.305   2.720
 3957SOL     OW12769   5.032   6.557   3.431
 3957SOL    HW112770   5.077   6.597   3.351
 3957SOL    HW212771   5.013   6.629   3.498
 3958SOL     OW12772   5.481   0.641   5.942
 3958SOL    HW112773   5.474   0.657   5.844
 3958SOL    HW212774   5.440   0.718   5.991
 3959SOL     OW12775   3.905   6.319   1.461
 3959SOL    HW112776   3.961   6.306   1.379
 3959SOL    HW212777   3.935   6.401   1.509
 3960SOL     OW12778   4.463   1.498   6.808
 3960SOL    HW112779   4.428   1.404   6.802
 3960SOL    HW212780   4.388   1.561   6.826
 3961SOL     OW12781   5.582   2.657   1.716
 3961SOL    HW112782   5.530   2.724   1.770
 3961SOL    HW212783   5.533   2.570   1.716
 3962SOL     OW12784   2.034   4.796   7.013
 3962SOL    HW112785   1.957   4.860   0.004
 3962SOL    HW212786   2.018   4.716   0.053
 3963SOL     OW12787   5.008   4.319   4.398
 3963SOL    HW112788   4.973   4.404   4.437
 3963SOL    HW212789   4.958   4.297   4.315
 3964SOL     OW12790   4.529   4.821   3.725
 3964SOL    HW112791   4.479   4.735   3.714
 3964SOL    HW212792   4.567   4.826   3.818
 3965SOL     OW12793   4.183   3.123   6.115
 3965SOL    HW112794   4.153   3.134   6.020
 3965SOL    HW212795   4.274   3.082   6.116
 3966SOL     OW12796   5.463   5.677   0.382
 3966SOL    HW112797   5.401   5.742   0.427
 3966SOL    HW212798   5.557   5.708   0.393
 3967SOL     OW12799   1.309   4.243   2.588
 3967SOL    HW112800   1.250   4.319   2.617
 3967SOL    HW212801   1.404   4.275   2.585
 3968SOL     OW12802   5.964   6.842   1.154
 3968SOL    HW112803   6.001   6.779   1.222
 3968SOL    HW212804   5.981   6.806   1.062
 3969SOL     OW12805   1.831   3.712   2.824
 3969SOL    HW112806   1.782   3.786   2.870
 3969SOL    HW212807   1.855   3.641   2.890
 3970SOL     OW12808   5.839   5.731   3.890
 3970SOL    HW112809   5.862   5.678   3.808
 3970SOL    HW212810   5.847   5.828   3.870
 3971SOL     OW12811   2.660   5.355   1.860
 3971SOL    HW112812   2.596   5.401   1.922
 3971SOL    HW212813   2.695   5.273   1.904
 3972SOL     OW12814   1.159   5.585   0.808
 3972SOL    HW112815   1.131   5.515   0.742
 3972SOL    HW212816   1.096   5.663   0.803
 3973SOL     OW12817   0.748   4.356   5.866
 3973SOL    HW112818   0.741   4.338   5.768
 3973SOL    HW212819   0.834   4.321   5.901
 3974SOL     OW12820   1.130   0.492   4.648
 3974SOL    HW112821   1.144   0.508   4.745
 3974SOL    HW212822   1.118   0.580   4.601
 3975SOL     OW12823   5.101   0.063   6.081
 3975SOL    HW112824   5.046   0.113   6.013
 3975SOL    HW212825   5.159   7.015   6.034
 3976SOL     OW12826   1.453   5.389   1.816
 3976SOL    HW112827   1.420   5.455   1.884
 3976SOL    HW212828   1.423   5.297   1.843
 3977SOL     OW12829   2.786   4.339   5.764
 3977SOL    HW112830   2.753   4.371   5.853
 3977SOL    HW212831   2.797   4.417   5.702
 3978SOL     OW12832   5.520   6.778   4.815
 3978SOL    HW112833   5.518   6.782   4.715
 3978SOL    HW212834   5.482   6.691   4.846
 3979SOL     OW12835   2.986   6.015   1.499
 3979SOL    HW112836   2.993   5.955   1.420
 3979SOL    HW212837   3.030   5.973   1.578
 3980SOL     OW12838   0.080   6.082   6.528
 3980SOL    HW112839   0.044   6.040   6.444
 3980SOL    HW212840   0.075   6.181   6.521
 3981SOL     OW12841   2.082   1.602   0.043
 3981SOL    HW112842   2.114   1.562   6.975
 3981SOL    HW212843   1.985   1.582   0.056
 3982SOL     OW12844   2.196   0.054   4.188
 3982SOL    HW112845   2.106   0.013   4.203
 3982SOL    HW212846   2.258   7.004   4.150
 3983SOL     OW12847   4.842   5.290   4.146
 3983SOL    HW112848   4.932   5.327   4.165
 3983SOL    HW212849   4.850   5.196   4.113
 3984SOL     OW12850   0.472   0.545   2.384
 3984SOL    HW112851   0.402   0.615   2.368
 3984SOL    HW212852   0.427   0.457   2.402
 3985SOL     OW12853   3.728   4.685   6.264
 3985SOL    HW112854   3.684   4.597   6.245
 3985SOL    HW212855   3.702   4.751   6.194
 3986SOL     OW12856   6.525   2.030   2.651
 3986SOL    HW112857   6.577   2.111   2.679
 3986SOL    HW212858   6.568   1.949   2.690
 3987SOL     OW12859   3.048   5.152   4.258
 3987SOL    HW112860   3.080   5.058   4.267
 3987SOL    HW212861   3.099   5.211   4.321
 3988SOL     OW12862   3.972   3.732   6.926
 3988SOL    HW112863   3.918   3.812   6.900
 3988SOL    HW212864   3.948   3.704   0.001
 3989SOL     OW12865   6.968   2.156   6.953
 3989SOL    HW112866   0.013   2.113   6.888
 3989SOL    HW212867   6.874   2.135   6.926
 3990SOL     OW12868   5.620   2.475   2.662
 3990SOL    HW112869   5.659   2.388   2.693
 3990SOL    HW212870   5.609   2.536   2.740
 3991SOL     OW12871   5.664   1.593   1.931
 3991SOL    HW112872   5.647   1.690   1.947
 3991SOL    HW212873   5.581   1.550   1.896
 3992SOL     OW12874   3.444   2.027   6.729
 3992SOL    HW112875   3.482   1.946   6.773
 3992SOL    HW212876   3.348   2.011   6.704
 3993SOL     OW12877   0.379   2.458   3.329
 3993SOL    HW112878   0.303   2.444   3.393
 3993SOL    HW212879   0.437   2.376   3.329
 3994SOL     OW12880   0.568   1.228   6.423
 3994SOL    HW112881   0.605   1.318   6.397
 3994SOL    HW212882   0.569   1.219   6.522
 3995SOL     OW12883   1.727   3.969   4.529
 3995SOL    HW112884   1.820   3.990   4.497
 3995SOL    HW212885   1.665   3.968   4.450
 3996SOL     OW12886   1.174   1.190   4.509
 3996SOL    HW112887   1.094   1.137   4.484
 3996SOL    HW212888   1.150   1.255   4.581
 3997SOL     OW12889   5.294   1.727   3.561
 3997SOL    HW112890   5.327   1.818   3.586
 3997SOL    HW212891   5.368   1.677   3.515
 3998SOL     OW12892   3.963   1.091   2.830
 3998SOL    HW112893   3.979   1.016   2.893
 3998SOL    HW212894   3.970   1.178   2.879
 3999SOL     OW12895   5.472   3.467   3.760
 3999SOL    HW112896   5.450   3.372   3.738
 3999SOL    HW212897   5.391   3.524   3.745
 4000SOL     OW12898   3.169   5.543   3.072
 4000SOL    HW112899   3.092   5.547   3.008
 4000SOL    HW212900   3.134   5.549   3.166
 4001SOL     OW12901   2.555   1.941   4.257
 4001SOL    HW112902   2.571   1.920   4.353
 4001SOL    HW212903   2.640   1.974   4.216
 4002SOL     OW12904   2.991   2.513   0.633
 4002SOL    HW112905   2.986   2.601   0.585
 4002SOL    HW212906   3.072   2.463   0.603
 4003SOL     OW12907   3.087   6.131   4.883
 4003SOL    HW112908   3.010   6.121   4.947
 4003SOL    HW212909   3.158   6.188   4.925
 4004SOL     OW12910   5.637   2.503   3.565
 4004SOL    HW112911   5.693   2.423   3.588
 4004SOL    HW212912   5.611   2.551   3.649
 4005SOL     OW12913   5.218   5.716   0.846
 4005SOL    HW112914   5.230   5.805   0.890
 4005SOL    HW212915   5.283   5.651   0.884
 4006SOL     OW12916   3.757   5.400   3.122
 4006SOL    HW112917   3.829   5.337   3.093
 4006SOL    HW212918   3.760   5.412   3.221
 4007SOL     OW12919   1.276   2.671   1.647
 4007SOL    HW112920   1.289   2.573   1.660
 4007SOL    HW212921   1.208   2.687   1.576
 4008SOL     OW12922   3.544   2.120   3.976
 4008SOL    HW112923   3.480   2.136   4.051
 4008SOL    HW212924   3.553   2.021   3.961
 4009SOL     OW12925   5.559   3.166   0.603
 4009SOL    HW112926   5.476   3.156   0.547
 4009SOL    HW212927   5.552   3.107   0.683
 4010SOL     OW12928   2.379   2.846   1.786
 4010SOL    HW112929   2.477   2.833   1.771
 4010SOL    HW212930   2.349   2.929   1.740
 4011SOL     OW12931   0.355   1.013   2.043
 4011SOL    HW112932   0.406   1.070   2.108
 4011SOL    HW212933   0.393   1.024   1.951
 4012SOL     OW12934   4.151   5.762   1.792
 4012SOL    HW112935   4.074   5.826   1.793
 4012SOL    HW212936   4.117   5.669   1.798
 4013SOL     OW12937   3.236   6.681   0.148
 4013SOL    HW112938   3.328   6.700   0.182
 4013SOL    HW212939   3.242   6.616   0.072
 4014SOL     OW12940   3.533   5.944   3.415
 4014SOL    HW112941   3.456   5.892   3.451
 4014SOL    HW212942   3.515   5.970   3.320
 4015SOL     OW12943   4.594   5.302   6.219
 4015SOL    HW112944   4.622   5.268   6.309
 4015SOL    HW212945   4.503   5.343   6.225
 4016SOL     OW12946   1.955   6.137   6.969
 4016SOL    HW112947   1.934   6.040   6.962
 4016SOL    HW212948   2.026   6.151   0.021
 4017SOL     OW12949   0.325   6.382   1.335
 4017SOL    HW112950   0.233   6.342   1.341
 4017SOL    HW212951   0.390   6.322   1.382
 4018SOL     OW12952   4.985   6.067   3.226
 4018SOL    HW112953   4.940   6.064   3.137
 4018SOL    HW212954   4.957   6.150   3.275
 4019SOL     OW12955   5.941   3.693   2.729
 4019SOL    HW112956   5.894   3.695   2.640
 4019SOL    HW212957   5.882   3.648   2.796
 4020SOL     OW12958   5.592   2.439   6.042
 4020SOL    HW112959   5.549   2.522   6.008
 4020SOL    HW212960   5.543   2.359   6.007
 4021SOL     OW12961   3.636   3.208   5.939
 4021SOL    HW112962   3.707   3.275   5.963
 4021SOL    HW212963   3.627   3.202   5.840
 4022SOL     OW12964   4.360   0.395   0.231
 4022SOL    HW112965   4.295   0.471   0.240
 4022SOL    HW212966   4.367   0.368   0.135
 4023SOL     OW12967   6.578   1.595   5.400
 4023SOL    HW112968   6.531   1.638   5.323
 4023SOL    HW212969   6.579   1.496   5.387
 4024SOL     OW12970   3.277   6.097   4.178
 4024SOL    HW112971   3.340   6.168   4.146
 4024SOL    HW212972   3.328   6.027   4.229
 4025SOL     OW12973   1.058   6.414   4.195
 4025SOL    HW112974   0.964   6.383   4.184
 4025SOL    HW212975   1.110   6.345   4.246
 4026SOL     OW12976   6.350   5.963   4.223
 4026SOL    HW112977   6.257   5.999   4.224
 4026SOL    HW212978   6.380   5.947   4.318
 4027SOL     OW12979   3.787   4.042   2.005
 4027SOL    HW112980   3.694   4.012   2.024
 4027SOL    HW212981   3.785   4.118   1.941
 4028SOL     OW12982   1.310   2.446   3.987
 4028SOL    HW112983   1.396   2.477   3.948
 4028SOL    HW212984   1.239   2.515   3.970
 4029SOL     OW12985   1.957   4.081   6.674
 4029SOL    HW112986   1.891   4.027   6.725
 4029SOL    HW212987   2.027   4.116   6.736
 4030SOL     OW12988   1.582   2.082   5.952
 4030SOL    HW112989   1.545   2.173   5.970
 4030SOL    HW212990   1.536   2.015   6.010
 4031SOL     OW12991   4.634   5.939   3.137
 4031SOL    HW112992   4.725   5.965   3.104
 4031SOL    HW212993   4.642   5.884   3.219
 4032SOL     OW12994   5.620   0.318   3.061
 4032SOL    HW112995   5.599   0.241   3.001
 4032SOL    HW212996   5.636   0.400   3.005
 4033SOL     OW12997   2.922   3.230   2.949
 4033SOL    HW112998   2.894   3.279   2.866
 4033SOL    HW212999   2.845   3.177   2.984
 4034SOL     OW13000   5.691   1.718   5.110
 4034SOL    HW113001   5.655   1.634   5.071
 4034SOL    HW213002   5.686   1.791   5.042
 4035SOL     OW13003   6.237   3.342   1.042
 4035SOL    HW113004   6.139   3.351   1.025
 4035SOL    HW213005   6.276   3.278   0.976
 4036SOL     OW13006   5.594   6.531   3.081
 4036SOL    HW113007   5.539   6.606   3.116
 4036SOL    HW213008   5.667   6.567   3.023
 4037SOL     OW13009   1.778   1.966   0.801
 4037SOL    HW113010   1.809   1.906   0.874
 4037SOL    HW213011   1.856   2.016   0.764
 4038SOL     OW13012   5.029   4.812   1.781
 4038SOL    HW113013   5.006   4.718   1.805
 4038SOL    HW213014   5.061   4.816   1.686
 4039SOL     OW13015   5.136   5.040   1.042
 4039SOL    HW113016   5.134   5.136   1.016
 4039SOL    HW213017   5.213   5.024   1.104
 4040SOL     OW13018   2.767   6.601   0.175
 4040SOL    HW113019   2.851   6.653   0.192
 4040SOL    HW213020   2.773   6.512   0.221
 4041SOL     OW13021   1.912   5.627   1.765
 4041SOL    HW113022   1.927   5.530   1.751
 4041SOL    HW213023   1.859   5.641   1.849
 4042SOL     OW13024   6.436   4.301   3.041
 4042SOL    HW113025   6.357   4.284   2.983
 4042SOL    HW213026   6.461   4.217   3.089
 4043SOL     OW13027   5.188   2.592   4.471
 4043SOL    HW113028   5.186   2.669   4.536
 4043SOL    HW213029   5.121   2.523   4.500
 4044SOL     OW13030   5.003   0.854   4.700
 4044SOL    HW113031   5.014   0.904   4.614
 4044SOL    HW213032   4.945   0.906   4.762
 4045SOL     OW13033   2.574   4.370   6.513
 4045SOL    HW113034   2.475   4.365   6.499
 4045SOL    HW213035   2.621   4.357   6.426
 4046SOL     OW13036   0.839   2.326   3.582
 4046SOL    HW113037   0.863   2.315   3.678
 4046SOL    HW213038   0.787   2.412   3.571
 4047SOL     OW13039   2.792   2.563   0.863
 4047SOL    HW113040   2.863   2.542   0.796
 4047SOL    HW213041   2.737   2.640   0.830
 4048SOL     OW13042   5.700   1.187   1.416
 4048SOL    HW113043   5.611   1.183   1.369
 4048SOL    HW213044   5.732   1.282   1.419
 4049SOL     OW13045   6.094   6.441   6.448
 4049SOL    HW113046   6.110   6.536   6.422
 4049SOL    HW213047   6.180   6.390   6.444
 4050SOL     OW13048   1.650   6.691   0.496
 4050SOL    HW113049   1.596   6.626   0.549
 4050SOL    HW213050   1.745   6.659   0.493
 4051SOL     OW13051   3.463   3.284   0.016
 4051SOL    HW113052   3.423   3.299   0.106
 4051SOL    HW213053   3.552   3.328   0.011
 4052SOL     OW13054   1.145   0.221   1.336
 4052SOL    HW113055   1.124   0.319   1.344
 4052SOL    HW213056   1.174   0.186   1.425
 4053SOL     OW13057   3.316   5.299   4.337
 4053SOL    HW113058   3.369   5.363   4.283
 4053SOL    HW213059   3.351   5.206   4.324
 4054SOL     OW13060   1.923   2.664   1.098
 4054SOL    HW113061   1.883   2.746   1.140
 4054SOL    HW213062   1.935   2.679   1.000
 4055SOL     OW13063   3.073   3.190   5.303
 4055SOL    HW113064   3.019   3.210   5.385
 4055SOL    HW213065   3.074   3.270   5.243
 4056SOL     OW13066   4.221   2.940   6.738
 4056SOL    HW113067   4.299   2.891   6.775
 4056SOL    HW213068   4.138   2.885   6.749
 4057SOL     OW13069   5.070   2.910   0.339
 4057SOL    HW113070   4.986   2.877   0.295
 4057SOL    HW213071   5.144   2.909   0.272
 4058SOL     OW13072   1.200   1.431   4.039
 4058SOL    HW113073   1.227   1.382   4.121
 4058SOL    HW213074   1.113   1.478   4.055
 4059SOL     OW13075   2.076   2.180   2.744
 4059SOL    HW113076   2.078   2.082   2.724
 4059SOL    HW213077   2.114   2.196   2.835
 4060SOL     OW13078   4.114   4.796   5.367
 4060SOL    HW113079   4.109   4.867   5.297
 4060SOL    HW213080   4.209   4.786   5.398
 4061SOL     OW13081   3.413   4.538   1.675
 4061SOL    HW113082   3.471   4.575   1.748
 4061SOL    HW213083   3.467   4.526   1.592
 4062SOL     OW13084   3.988   1.696   3.046
 4062SOL    HW113085   3.997   1.636   2.966
 4062SOL    HW213086   4.076   1.704   3.092
 4063SOL     OW13087   4.357   6.575   5.241
 4063SOL    HW113088   4.349   6.562   5.142
 4063SOL    HW213089   4.453   6.577   5.267
 4064SOL     OW13090   2.635   6.825   2.636
 4064SOL    HW113091   2.681   6.902   2.590
 4064SOL    HW213092   2.537   6.830   2.617
 4065SOL     OW13093   1.228   6.788   0.211
 4065SOL    HW113094   1.187   6.800   0.121
 4065SOL    HW213095   1.304   6.723   0.205
 4066SOL     OW13096   5.591   4.788   2.324
 4066SOL    HW113097   5.684   4.774   2.290
 4066SOL    HW213098   5.581   4.744   2.413
 4067SOL     OW13099   5.990   2.496   2.291
 4067SOL    HW113100   6.058   2.434   2.330
 4067SOL    HW213101   5.945   2.547   2.364
 4068SOL     OW13102   4.398   0.415   4.696
 4068SOL    HW113103   4.379   0.456   4.785
 4068SOL    HW213104   4.478   0.459   4.655
 4069SOL     OW13105   4.476   3.541   6.718
 4069SOL    HW113106   4.415   3.613   6.685
 4069SOL    HW213107   4.424   3.475   6.772
 4070SOL     OW13108   1.854   3.483   2.992
 4070SOL    HW113109   1.807   3.425   3.058
 4070SOL    HW213110   1.935   3.435   2.957
 4071SOL     OW13111   1.596   0.817   5.062
 4071SOL    HW113112   1.692   0.827   5.036
 4071SOL    HW213113   1.587   0.822   5.162
 4072SOL     OW13114   1.902   6.718   4.377
 4072SOL    HW113115   1.803   6.707   4.378
 4072SOL    HW213116   1.927   6.787   4.309
 4073SOL     OW13117   2.618   5.676   6.034
 4073SOL    HW113118   2.693   5.741   6.020
 4073SOL    HW213119   2.649   5.584   6.010
 4074SOL     OW13120   1.073   2.837   1.793
 4074SOL    HW113121   0.993   2.832   1.733
 4074SOL    HW213122   1.143   2.774   1.761
 4075SOL     OW13123   4.993   2.389   2.602
 4075SOL    HW113124   4.968   2.485   2.615
 4075SOL    HW213125   5.079   2.383   2.552
 4076SOL     OW13126   2.449   3.742   5.657
 4076SOL    HW113127   2.485   3.669   5.715
 4076SOL    HW213128   2.350   3.732   5.648
 4077SOL     OW13129   2.957   6.236   1.019
 4077SOL    HW113130   2.915   6.178   1.090
 4077SOL    HW213131   3.053   6.211   1.010
 4078SOL     OW13132   6.281   5.517   1.846
 4078SOL    HW113133   6.204   5.567   1.886
 4078SOL    HW213134   6.259   5.491   1.752
 4079SOL     OW13135   1.539   0.776   3.041
 4079SOL    HW113136   1.586   0.862   3.020
 4079SOL    HW213137   1.604   0.700   3.039
 4080SOL     OW13138   2.555   3.339   6.693
 4080SOL    HW113139   2.608   3.342   6.608
 4080SOL    HW213140   2.506   3.252   6.699
 4081SOL     OW13141   1.523   1.204   4.882
 4081SOL    HW113142   1.587   1.272   4.848
 4081SOL    HW213143   1.475   1.161   4.805
 4082SOL     OW13144   1.772   1.867   0.032
 4082SOL    HW113145   1.726   1.943   0.078
 4082SOL    HW213146   1.794   1.894   6.956
 4083SOL     OW13147   5.618   3.989   3.540
 4083SOL    HW113148   5.652   4.083   3.544
 4083SOL    HW213149   5.620   3.956   3.446
 4084SOL     OW13150   5.028   3.072   2.903
 4084SOL    HW113151   5.039   3.159   2.951
 4084SOL    HW213152   5.109   3.015   2.918
 4085SOL     OW13153   2.820   5.149   1.460
 4085SOL    HW113154   2.810   5.151   1.560
 4085SOL    HW213155   2.882   5.075   1.433
 4086SOL     OW13156   0.080   4.942   0.887
 4086SOL    HW113157   0.121   4.876   0.948
 4086SOL    HW213158   0.043   4.896   0.807
 4087SOL     OW13159   2.544   1.297   2.689
 4087SOL    HW113160   2.496   1.348   2.760
 4087SOL    HW213161   2.612   1.356   2.645
 4088SOL     OW13162   6.245   1.154   5.732
 4088SOL    HW113163   6.151   1.122   5.743
 4088SOL    HW213164   6.297   1.088   5.678
 4089SOL     OW13165   0.189   5.620   4.227
 4089SOL    HW113166   0.230   5.703   4.266
 4089SOL    HW213167   0.103   5.600   4.275
 4090SOL     OW13168   1.744   5.862   5.418
 4090SOL    HW113169   1.833   5.885   5.457
 4090SOL    HW213170   1.757   5.808   5.335
 4091SOL     OW13171   0.814   5.450   0.411
 4091SOL    HW113172   0.753   5.371   0.415
 4091SOL    HW213173   0.906   5.423   0.440
 4092SOL     OW13174   4.910   2.989   4.002
 4092SOL    HW113175   4.856   3.052   4.059
 4092SOL    HW213176   4.861   2.972   3.916
 4093SOL     OW13177   5.650   5.987   1.505
 4093SOL    HW113178   5.628   6.056   1.574
 4093SOL    HW213179   5.673   5.901   1.550
 4094SOL     OW13180   1.156   4.518   0.040
 4094SOL    HW113181   1.178   4.547   0.133
 4094SOL    HW213182   1.111   4.429   0.043
 4095SOL     OW13183   0.809   3.400   0.371
 4095SOL    HW113184   0.831   3.496   0.389
 4095SOL    HW213185   0.868   3.366   0.297
 4096SOL     OW13186   2.105   0.854   6.343
 4096SOL    HW113187   2.147   0.887   6.427
 4096SOL    HW213188   2.177   0.830   6.277
 4097SOL     OW13189   5.737   4.385   5.344
 4097SOL    HW113190   5.689   4.317   5.399
 4097SOL    HW213191   5.801   4.435   5.402
 4098SOL     OW13192   2.211   2.602   1.418
 4098SOL    HW113193   2.118   2.636   1.399
 4098SOL    HW213194   2.271   2.624   1.341
 4099SOL     OW13195   3.571   5.219   0.086
 4099SOL    HW113196   3.503   5.203   0.015
 4099SOL    HW213197   3.602   5.131   0.123
 4100SOL     OW13198   1.411   0.906   3.900
 4100SOL    HW113199   1.481   0.910   3.972
 4100SOL    HW213200   1.366   0.995   3.892
 4101SOL     OW13201   6.969   1.111   6.400
 4101SOL    HW113202   6.928   1.067   6.320
 4101SOL    HW213203   0.045   1.079   6.411
 4102SOL     OW13204   2.035   0.838   0.903
 4102SOL    HW113205   1.973   0.790   0.965
 4102SOL    HW213206   2.119   0.862   0.951
 4103SOL     OW13207   0.317   6.941   2.047
 4103SOL    HW113208   0.248   6.917   2.115
 4103SOL    HW213209   0.399   6.886   2.062
 4104SOL     OW13210   0.216   5.194   3.411
 4104SOL    HW113211   0.179   5.219   3.322
 4104SOL    HW213212   0.231   5.095   3.414
 4105SOL     OW13213   4.849   1.557   2.100
 4105SOL    HW113214   4.778   1.487   2.108
 4105SOL    HW213215   4.815   1.644   2.136
 4106SOL     OW13216   0.265   2.083   3.855
 4106SOL    HW113217   0.232   2.177   3.844
 4106SOL    HW213218   0.307   2.073   3.945
 4107SOL     OW13219   0.165   6.176   6.776
 4107SOL    HW113220   0.148   6.148   6.681
 4107SOL    HW213221   0.080   6.206   6.818
 4108SOL     OW13222   0.390   5.653   4.574
 4108SOL    HW113223   0.379   5.695   4.664
 4108SOL    HW213224   0.351   5.713   4.505
 4109SOL     OW13225   5.366   6.256   3.649
 4109SOL    HW113226   5.315   6.267   3.734
 4109SOL    HW213227   5.303   6.229   3.576
 4110SOL     OW13228   3.953   3.085   6.520
 4110SOL    HW113229   3.995   3.142   6.591
 4110SOL    HW213230   3.966   2.989   6.544
 4111SOL     OW13231   5.680   5.135   6.116
 4111SOL    HW113232   5.588   5.158   6.147
 4111SOL    HW213233   5.676   5.097   6.023
 4112SOL     OW13234   5.188   6.942   4.699
 4112SOL    HW113235   5.249   6.890   4.640
 4112SOL    HW213236   5.114   6.883   4.732
 4113SOL     OW13237   4.642   5.629   4.273
 4113SOL    HW113238   4.628   5.556   4.340
 4113SOL    HW213239   4.664   5.590   4.184
 4114SOL     OW13240   6.125   1.299   3.087
 4114SOL    HW113241   6.083   1.253   3.165
 4114SOL    HW213242   6.219   1.266   3.075
 4115SOL     OW13243   2.476   4.415   3.463
 4115SOL    HW113244   2.437   4.399   3.554
 4115SOL    HW213245   2.570   4.446   3.472
 4116SOL     OW13246   4.871   2.630   3.647
 4116SOL    HW113247   4.905   2.549   3.696
 4116SOL    HW213248   4.804   2.601   3.578
 4117SOL     OW13249   1.612   1.935   3.066
 4117SOL    HW113250   1.617   1.994   2.984
 4117SOL    HW213251   1.522   1.947   3.109
 4118SOL     OW13252   6.269   6.743   5.761
 4118SOL    HW113253   6.222   6.667   5.714
 4118SOL    HW213254   6.343   6.777   5.703
 4119SOL     OW13255   2.966   1.040   3.277
 4119SOL    HW113256   3.056   1.079   3.294
 4119SOL    HW213257   2.899   1.114   3.268
 4120SOL     OW13258   3.826   1.124   6.289
 4120SOL    HW113259   3.840   1.201   6.352
 4120SOL    HW213260   3.877   1.045   6.321
 4121SOL     OW13261   6.839   6.900   2.540
 4121SOL    HW113262   6.879   6.992   2.537
 4121SOL    HW213263   6.767   6.893   2.471
 4122SOL     OW13264   1.468   6.941   4.885
 4122SOL    HW113265   1.539   7.011   4.899
 4122SOL    HW213266   1.465   6.916   4.788
 4123SOL     OW13267   4.148   5.051   4.078
 4123SOL    HW113268   4.173   5.016   4.168
 4123SOL    HW213269   4.058   5.094   4.082
 4124SOL     OW13270   6.818   6.510   0.917
 4124SOL    HW113271   6.883   6.447   0.959
 4124SOL    HW213272   6.829   6.601   0.957
 4125SOL     OW13273   4.569   2.561   2.730
 4125SOL    HW113274   4.571   2.594   2.636
 4125SOL    HW213275   4.545   2.464   2.730
 4126SOL     OW13276   1.897   3.207   2.479
 4126SOL    HW113277   1.824   3.167   2.424
 4126SOL    HW213278   1.857   3.260   2.554
 4127SOL     OW13279   4.845   2.580   5.191
 4127SOL    HW113280   4.845   2.535   5.101
 4127SOL    HW213281   4.881   2.673   5.182
 4128SOL     OW13282   0.981   3.060   1.518
 4128SOL    HW113283   1.075   3.034   1.494
 4128SOL    HW213284   0.923   2.978   1.516
 4129SOL     OW13285   3.469   1.240   0.514
 4129SOL    HW113286   3.516   1.319   0.475
 4129SOL    HW213287   3.370   1.251   0.503
 4130SOL     OW13288   6.143   2.152   0.341
 4130SOL    HW113289   6.225   2.191   0.382
 4130SOL    HW213290   6.065   2.167   0.402
 4131SOL     OW13291   6.861   0.823   2.787
 4131SOL    HW113292   6.953   0.841   2.751
 4131SOL    HW213293   6.857   0.853   2.883
 4132SOL     OW13294   5.492   4.131   4.378
 4132SOL    HW113295   5.537   4.140   4.468
 4132SOL    HW213296   5.441   4.215   4.358
 4133SOL     OW13297   4.098   6.420   1.799
 4133SOL    HW113298   4.102   6.340   1.739
 4133SOL    HW213299   4.124   6.502   1.749
 4134SOL     OW13300   2.354   3.262   0.921
 4134SOL    HW113301   2.366   3.348   0.872
 4134SOL    HW213302   2.416   3.193   0.883
 4135SOL     OW13303   0.468   2.186   2.700
 4135SOL    HW113304   0.370   2.166   2.691
 4135SOL    HW213305   0.502   2.223   2.613
 4136SOL     OW13306   1.268   3.810   2.032
 4136SOL    HW113307   1.311   3.849   1.951
 4136SOL    HW213308   1.183   3.858   2.052
 4137SOL     OW13309   1.144   3.051   6.933
 4137SOL    HW113310   1.151   2.954   6.911
 4137SOL    HW213311   1.235   3.092   6.935
 4138SOL     OW13312   3.727   5.248   1.575
 4138SOL    HW113313   3.641   5.290   1.544
 4138SOL    HW213314   3.750   5.173   1.513
 4139SOL     OW13315   1.355   1.528   3.663
 4139SOL    HW113316   1.407   1.563   3.741
 4139SOL    HW213317   1.303   1.447   3.691
 4140SOL     OW13318   3.170   1.923   4.114
 4140SOL    HW113319   3.170   1.980   4.196
 4140SOL    HW213320   3.105   1.960   4.047
 4141SOL     OW13321   5.397   6.822   0.685
 4141SOL    HW113322   5.453   6.808   0.767
 4141SOL    HW213323   5.302   6.832   0.712
 4142SOL     OW13324   6.483   3.935   1.621
 4142SOL    HW113325   6.550   4.008   1.606
 4142SOL    HW213326   6.462   3.929   1.719
 4143SOL     OW13327   5.329   3.153   0.434
 4143SOL    HW113328   5.274   3.193   0.508
 4143SOL    HW213329   5.282   3.165   0.347
 4144SOL     OW13330   5.088   1.362   6.999
 4144SOL    HW113331   5.078   1.265   0.004
 4144SOL    HW213332   5.160   1.402   0.037
 4145SOL     OW13333   0.802   6.453   0.507
 4145SOL    HW113334   0.777   6.482   0.414
 4145SOL    HW213335   0.894   6.486   0.529
 4146SOL     OW13336   6.533   0.720   3.355
 4146SOL    HW113337   6.555   0.730   3.452
 4146SOL    HW213338   6.611   0.681   3.306
 4147SOL     OW13339   4.804   4.533   5.935
 4147SOL    HW113340   4.780   4.462   6.000
 4147SOL    HW213341   4.805   4.495   5.842
 4148SOL     OW13342   2.851   0.829   5.395
 4148SOL    HW113343   2.754   0.854   5.399
 4148SOL    HW213344   2.901   0.879   5.466
 4149SOL     OW13345   0.529   3.685   1.693
 4149SOL    HW113346   0.568   3.593   1.692
 4149SOL    HW213347   0.430   3.678   1.709
 4150SOL     OW13348   6.880   1.900   5.277
 4150SOL    HW113349   6.868   1.842   5.357
 4150SOL    HW213350   6.969   1.881   5.236
 4151SOL     OW13351   1.759   6.894   6.078
 4151SOL    HW113352   1.704   6.866   6.157
 4151SOL    HW213353   1.856   6.879   6.098
 4152SOL     OW13354   3.954   5.499   1.967
 4152SOL    HW113355   3.994   5.447   2.043
 4152SOL    HW213356   3.915   5.436   1.901
 4153SOL     OW13357   6.557   5.009   1.478
 4153SOL    HW113358   6.480   5.071   1.491
 4153SOL    HW213359   6.626   5.052   1.420
 4154SOL     OW13360   0.387   5.926   3.833
 4154SOL    HW113361   0.475   5.931   3.882
 4154SOL    HW213362   0.340   5.841   3.859
 4155SOL     OW13363   0.290   1.629   1.287
 4155SOL    HW113364   0.259   1.609   1.380
 4155SOL    HW213365   0.367   1.569   1.264
 4156SOL     OW13366   6.658   5.459   5.095
 4156SOL    HW113367   6.562   5.463   5.121
 4156SOL    HW213368   6.707   5.536   5.137
 4157SOL     OW13369   5.592   6.181   3.489
 4157SOL    HW113370   5.560   6.209   3.398
 4157SOL    HW213371   5.531   6.219   3.559
 4158SOL     OW13372   1.936   2.846   2.270
 4158SOL    HW113373   1.976   2.925   2.317
 4158SOL    HW213374   2.006   2.803   2.213
 4159SOL     OW13375   2.697   2.381   3.811
 4159SOL    HW113376   2.609   2.429   3.814
 4159SOL    HW213377   2.699   2.311   3.882
 4160SOL     OW13378   5.715   0.069   6.748
 4160SOL    HW113379   5.803   0.070   6.701
 4160SOL    HW213380   5.663   7.006   6.721
 4161SOL     OW13381   1.930   1.857   2.009
 4161SOL    HW113382   1.870   1.802   2.067
 4161SOL    HW213383   1.941   1.948   2.049
 4162SOL     OW13384   5.949   5.749   0.833
 4162SOL    HW113385   6.029   5.759   0.893
 4162SOL    HW213386   5.930   5.837   0.790
 4163SOL     OW13387   5.797   1.470   2.974
 4163SOL    HW113388   5.774   1.399   3.040
 4163SOL    HW213389   5.848   1.543   3.020
 4164SOL     OW13390   0.770   6.872   5.541
 4164SOL    HW113391   0.737   6.843   5.631
 4164SOL    HW213392   0.782   6.971   5.540
 4165SOL     OW13393   4.742   0.408   5.432
 4165SOL    HW113394   4.791   0.459   5.502
 4165SOL    HW213395   4.704   0.472   5.365
 4166SOL     OW13396   5.223   1.177   1.641
 4166SOL    HW113397   5.189   1.271   1.646
 4166SOL    HW213398   5.155   1.115   1.680
 4167SOL     OW13399   3.271   5.004   6.300
 4167SOL    HW113400   3.263   4.966   6.393
 4167SOL    HW213401   3.190   5.059   6.280
 4168SOL     OW13402   0.134   4.363   1.210
 4168SOL    HW113403   0.102   4.329   1.122
 4168SOL    HW213404   0.119   4.294   1.280
 4169SOL     OW13405   6.002   4.077   5.036
 4169SOL    HW113406   6.078   4.135   5.065
 4169SOL    HW213407   5.996   3.997   5.095
 4170SOL     OW13408   5.317   3.299   5.062
 4170SOL    HW113409   5.377   3.346   5.127
 4170SOL    HW213410   5.332   3.201   5.068
 4171SOL     OW13411   0.515   5.483   1.240
 4171SOL    HW113412   0.546   5.534   1.320
 4171SOL    HW213413   0.486   5.392   1.268
 4172SOL     OW13414   2.635   2.587   0.360
 4172SOL    HW113415   2.713   2.537   0.323
 4172SOL    HW213416   2.550   2.542   0.332
 4173SOL     OW13417   5.466   3.499   5.224
 4173SOL    HW113418   5.563   3.511   5.207
 4173SOL    HW213419   5.419   3.587   5.214
 4174SOL     OW13420   5.157   1.552   2.356
 4174SOL    HW113421   5.088   1.605   2.405
 4174SOL    HW213422   5.242   1.551   2.409
 4175SOL     OW13423   1.456   4.592   4.688
 4175SOL    HW113424   1.481   4.679   4.730
 4175SOL    HW213425   1.534   4.555   4.638
 4176SOL     OW13426   4.034   6.715   1.388
 4176SOL    HW113427   3.938   6.718   1.359
 4176SOL    HW213428   4.040   6.686   1.483
 4177SOL     OW13429   5.555   4.751   5.121
 4177SOL    HW113430   5.628   4.797   5.172
 4177SOL    HW213431   5.525   4.670   5.172
 4178SOL     OW13432   4.104   0.376   3.599
 4178SOL    HW113433   4.087   0.378   3.698
 4178SOL    HW213434   4.020   0.351   3.551
 4179SOL     OW13435   5.195   4.235   3.020
 4179SOL    HW113436   5.280   4.280   3.046
 4179SOL    HW213437   5.213   4.170   2.946
 4180SOL     OW13438   4.610   2.730   0.768
 4180SOL    HW113439   4.699   2.702   0.803
 4180SOL    HW213440   4.558   2.775   0.841
 4181SOL     OW13441   4.507   0.511   0.011
 4181SOL    HW113442   4.480   0.577   0.082
 4181SOL    HW213443   4.597   0.535   6.994
 4182SOL     OW13444   0.326   5.116   2.911
 4182SOL    HW113445   0.416   5.104   2.869
 4182SOL    HW213446   0.321   5.063   2.996
 4183SOL     OW13447   3.318   1.144   0.783
 4183SOL    HW113448   3.302   1.175   0.690
 4183SOL    HW213449   3.276   1.208   0.847
 4184SOL     OW13450   3.786   6.787   2.298
 4184SOL    HW113451   3.821   6.696   2.276
 4184SOL    HW213452   3.846   6.829   2.366
 4185SOL     OW13453   0.797   4.201   3.433
 4185SOL    HW113454   0.842   4.228   3.348
 4185SOL    HW213455   0.754   4.111   3.421
 4186SOL     OW13456   2.366   5.364   6.659
 4186SOL    HW113457   2.320   5.453   6.663
 4186SOL    HW213458   2.446   5.370   6.601
 4187SOL     OW13459   2.576   2.904   5.686
 4187SOL    HW113460   2.544   2.988   5.731
 4187SOL    HW213461   2.619   2.929   5.599
 4188SOL     OW13462   4.993   0.501   5.279
 4188SOL    HW113463   4.927   0.565   5.240
 4188SOL    HW213464   4.963   0.473   5.370
 4189SOL     OW13465   3.610   4.999   4.285
 4189SOL    HW113466   3.618   5.036   4.193
 4189SOL    HW213467   3.515   4.976   4.304
 4190SOL     OW13468   1.107   0.501   1.388
 4190SOL    HW113469   1.021   0.526   1.345
 4190SOL    HW213470   1.177   0.570   1.368
 4191SOL     OW13471   5.353   4.672   4.946
 4191SOL    HW113472   5.396   4.735   5.011
 4191SOL    HW213473   5.372   4.578   4.973
 4192SOL     OW13474   0.812   1.773   2.733
 4192SOL    HW113475   0.802   1.708   2.658
 4192SOL    HW213476   0.862   1.853   2.701
 4193SOL     OW13477   5.547   0.371   0.952
 4193SOL    HW113478   5.490   0.450   0.928
 4193SOL    HW213479   5.610   0.397   1.026
 4194SOL     OW13480   4.711   0.327   4.454
 4194SOL    HW113481   4.677   0.362   4.367
 4194SOL    HW213482   4.680   0.233   4.467
 4195SOL     OW13483   3.932   5.372   1.449
 4195SOL    HW113484   3.864   5.338   1.514
 4195SOL    HW213485   4.022   5.370   1.490
 4196SOL     OW13486   6.594   2.904   2.833
 4196SOL    HW113487   6.611   2.816   2.877
 4196SOL    HW213488   6.531   2.957   2.890
 4197SOL     OW13489   4.892   5.312   5.324
 4197SOL    HW113490   4.983   5.274   5.311
 4197SOL    HW213491   4.826   5.238   5.336
 4198SOL     OW13492   6.453   2.022   0.889
 4198SOL    HW113493   6.489   2.013   0.982
 4198SOL    HW213494   6.381   2.091   0.887
 4199SOL     OW13495   1.095   2.475   5.582
 4199SOL    HW113496   1.162   2.514   5.645
 4199SOL    HW213497   1.143   2.416   5.516
 4200SOL     OW13498   2.757   0.097   6.454
 4200SOL    HW113499   2.659   0.080   6.444
 4200SOL    HW213500   2.772   0.161   6.529
 4201SOL     OW13501   5.773   6.985   3.827
 4201SOL    HW113502   5.769   6.892   3.866
 4201SOL    HW213503   5.704   0.024   3.871
 4202SOL     OW13504   3.003   5.653   6.160
 4202SOL    HW113505   2.958   5.564   6.168
 4202SOL    HW213506   3.005   5.698   6.250
 4203SOL     OW13507   4.836   4.141   0.333
 4203SOL    HW113508   4.829   4.240   0.336
 4203SOL    HW213509   4.765   4.100   0.391
 4204SOL     OW13510   4.108   3.562   4.034
 4204SOL    HW113511   4.144   3.475   4.001
 4204SOL    HW213512   4.100   3.626   3.957
 4205SOL     OW13513   4.411   6.251   4.744
 4205SOL    HW113514   4.424   6.169   4.799
 4205SOL    HW213515   4.481   6.254   4.672
 4206SOL     OW13516   6.430   1.311   5.185
 4206SOL    HW113517   6.364   1.258   5.131
 4206SOL    HW213518   6.414   1.294   5.282
 4207SOL     OW13519   2.151   2.229   1.878
 4207SOL    HW113520   2.130   2.131   1.876
 4207SOL    HW213521   2.159   2.263   1.784
 4208SOL     OW13522   6.962   3.762   5.244
 4208SOL    HW113523   0.034   3.800   5.224
 4208SOL    HW213524   6.896   3.837   5.251
 4209SOL     OW13525   6.961   6.195   3.862
 4209SOL    HW113526   6.949   6.096   3.863
 4209SOL    HW213527   6.993   6.225   3.952
 4210SOL     OW13528   3.739   3.495   2.635
 4210SOL    HW113529   3.644   3.470   2.616
 4210SOL    HW213530   3.748   3.595   2.632
 4211SOL     OW13531   3.594   0.808   5.950
 4211SOL    HW113532   3.529   0.749   5.998
 4211SOL    HW213533   3.657   0.848   6.016
 4212SOL     OW13534   6.250   2.439   2.465
 4212SOL    HW113535   6.340   2.404   2.492
 4212SOL    HW213536   6.200   2.367   2.417
 4213SOL     OW13537   2.707   0.833   2.498
 4213SOL    HW113538   2.736   0.742   2.467
 4213SOL    HW213539   2.745   0.903   2.437
 4214SOL     OW13540   0.509   5.745   5.616
 4214SOL    HW113541   0.580   5.813   5.637
 4214SOL    HW213542   0.452   5.730   5.697
 4215SOL     OW13543   4.246   6.534   5.964
 4215SOL    HW113544   4.194   6.619   5.971
 4215SOL    HW213545   4.204   6.464   6.022
 4216SOL     OW13546   2.214   0.675   3.141
 4216SOL    HW113547   2.164   0.589   3.142
 4216SOL    HW213548   2.214   0.715   3.233
 4217SOL     OW13549   1.061   0.689   2.950
 4217SOL    HW113550   1.006   0.769   2.924
 4217SOL    HW213551   1.152   0.697   2.910
 4218SOL     OW13552   3.362   0.869   1.592
 4218SOL    HW113553   3.445   0.923   1.608
 4218SOL    HW213554   3.299   0.881   1.669
 4219SOL     OW13555   4.450   5.789   4.367
 4219SOL    HW113556   4.524   5.727   4.340
 4219SOL    HW213557   4.374   5.781   4.302
 4220SOL     OW13558   6.372   3.408   3.189
 4220SOL    HW113559   6.315   3.485   3.162
 4220SOL    HW213560   6.445   3.394   3.122
 4221SOL     OW13561   6.053   4.838   6.120
 4221SOL    HW113562   5.979   4.834   6.053
 4221SOL    HW213563   6.113   4.915   6.099
 4222SOL     OW13564   0.128   1.688   2.044
 4222SOL    HW113565   0.049   1.634   2.073
 4222SOL    HW213566   0.188   1.703   2.123
 4223SOL     OW13567   3.133   3.865   0.544
 4223SOL    HW113568   3.167   3.772   0.528
 4223SOL    HW213569   3.155   3.893   0.638
 4224SOL     OW13570   5.310   5.185   3.961
 4224SOL    HW113571   5.355   5.227   4.040
 4224SOL    HW213572   5.333   5.236   3.879
 4225SOL     OW13573   2.641   2.752   5.311
 4225SOL    HW113574   2.629   2.842   5.270
 4225SOL    HW213575   2.729   2.749   5.359
 4226SOL     OW13576   0.840   6.658   3.049
 4226SOL    HW113577   0.881   6.567   3.042
 4226SOL    HW213578   0.798   6.682   2.961
 4227SOL     OW13579   3.314   5.459   1.613
 4227SOL    HW113580   3.335   5.512   1.695
 4227SOL    HW213581   3.233   5.403   1.631
 4228SOL     OW13582   0.922   5.378   5.459
 4228SOL    HW113583   0.926   5.349   5.555
 4228SOL    HW213584   0.834   5.352   5.421
 4229SOL     OW13585   4.556   6.039   5.755
 4229SOL    HW113586   4.605   6.127   5.752
 4229SOL    HW213587   4.492   6.035   5.679
 4230SOL     OW13588   1.143   5.471   2.666
 4230SOL    HW113589   1.178   5.543   2.606
 4230SOL    HW213590   1.088   5.407   2.611
 4231SOL     OW13591   5.220   6.699   5.745
 4231SOL    HW113592   5.222   6.772   5.814
 4231SOL    HW213593   5.221   6.611   5.791
 4232SOL     OW13594   0.626   4.862   2.941
 4232SOL    HW113595   0.716   4.831   2.909
 4232SOL    HW213596   0.589   4.928   2.876
 4233SOL     OW13597   5.930   0.400   5.421
 4233SOL    HW113598   5.873   0.481   5.421
 4233SOL    HW213599   5.946   0.370   5.515
 4234SOL     OW13600   2.175   5.423   5.071
 4234SOL    HW113601   2.198   5.391   4.979
 4234SOL    HW213602   2.251   5.477   5.108
 4235SOL     OW13603   5.416   3.903   6.072
 4235SOL    HW113604   5.345   3.929   6.138
 4235SOL    HW213605   5.500   3.881   6.121
 4236SOL     OW13606   6.436   3.883   1.884
 4236SOL    HW113607   6.469   3.952   1.949
 4236SOL    HW213608   6.468   3.793   1.912
 4237SOL     OW13609   5.697   5.195   3.215
 4237SOL    HW113610   5.618   5.148   3.176
 4237SOL    HW213611   5.669   5.243   3.299
 4238SOL     OW13612   2.033   6.517   2.391
 4238SOL    HW113613   2.005   6.579   2.318
 4238SOL    HW213614   1.958   6.454   2.411
 4239SOL     OW13615   5.192   1.264   2.721
 4239SOL    HW113616   5.190   1.206   2.640
 4239SOL    HW213617   5.099   1.281   2.753
 4240SOL     OW13618   2.094   6.131   0.452
 4240SOL    HW113619   2.160   6.056   0.461
 4240SOL    HW213620   2.116   6.203   0.518
 4241SOL     OW13621   5.694   0.686   0.608
 4241SOL    HW113622   5.732   0.695   0.700
 4241SOL    HW213623   5.684   0.589   0.585
 4242SOL     OW13624   3.155   2.128   4.315
 4242SOL    HW113625   3.208   2.129   4.400
 4242SOL    HW213626   3.059   2.111   4.335
 4243SOL     OW13627   6.442   3.081   2.341
 4243SOL    HW113628   6.463   3.140   2.419
 4243SOL    HW213629   6.525   3.060   2.290
 4244SOL     OW13630   4.210   4.405   1.587
 4244SOL    HW113631   4.288   4.352   1.554
 4244SOL    HW213632   4.240   4.466   1.660
 4245SOL     OW13633   6.616   1.314   6.382
 4245SOL    HW113634   6.660   1.391   6.428
 4245SOL    HW213635   6.517   1.318   6.398
 4246SOL     OW13636   0.252   3.923   3.125
 4246SOL    HW113637   0.164   3.933   3.078
 4246SOL    HW213638   0.236   3.912   3.224
 4247SOL     OW13639   2.744   6.194   3.273
 4247SOL    HW113640   2.719   6.108   3.228
 4247SOL    HW213641   2.685   6.209   3.352
 4248SOL     OW13642   3.823   1.501   3.736
 4248SOL    HW113643   3.849   1.405   3.738
 4248SOL    HW213644   3.841   1.543   3.825
 4249SOL     OW13645   5.954   3.180   4.713
 4249SOL    HW113646   5.940   3.187   4.812
 4249SOL    HW213647   5.898   3.106   4.677
 4250SOL     OW13648   6.645   4.415   2.859
 4250SOL    HW113649   6.720   4.348   2.863
 4250SOL    HW213650   6.568   4.381   2.913
 4251SOL     OW13651   5.691   4.800   0.977
 4251SOL    HW113652   5.607   4.851   0.998
 4251SOL    HW213653   5.748   4.854   0.916
 4252SOL     OW13654   5.560   6.280   5.762
 4252SOL    HW113655   5.642   6.335   5.746
 4252SOL    HW213656   5.546   6.218   5.684
 4253SOL     OW13657   3.743   6.443   0.640
 4253SOL    HW113658   3.780   6.457   0.732
 4253SOL    HW213659   3.702   6.528   0.608
 4254SOL     OW13660   0.593   2.764   2.486
 4254SOL    HW113661   0.653   2.740   2.562
 4254SOL    HW213662   0.636   2.836   2.431
 4255SOL     OW13663   6.169   3.897   3.392
 4255SOL    HW113664   6.075   3.900   3.428
 4255SOL    HW213665   6.167   3.910   3.293
 4256SOL     OW13666   2.232   6.597   0.193
 4256SOL    HW113667   2.268   6.647   0.115
 4256SOL    HW213668   2.175   6.521   0.161
 4257SOL     OW13669   2.791   0.526   4.070
 4257SOL    HW113670   2.739   0.473   4.003
 4257SOL    HW213671   2.888   0.525   4.045
 4258SOL     OW13672   4.996   6.120   0.934
 4258SOL    HW113673   4.996   6.145   0.837
 4258SOL    HW213674   4.989   6.203   0.990
 4259SOL     OW13675   2.977   0.633   0.661
 4259SOL    HW113676   2.937   0.674   0.580
 4259SOL    HW213677   3.075   0.617   0.646
 4260SOL     OW13678   5.247   6.734   6.918
 4260SOL    HW113679   5.148   6.744   6.917
 4260SOL    HW213680   5.276   6.673   6.844
 4261SOL     OW13681   1.740   6.914   1.669
 4261SOL    HW113682   1.650   6.895   1.707
 4261SOL    HW213683   1.811   6.879   1.730
 4262SOL     OW13684   0.759   4.738   5.195
 4262SOL    HW113685   0.690   4.788   5.247
 4262SOL    HW213686   0.799   4.797   5.125
 4263SOL     OW13687   2.640   6.636   3.299
 4263SOL    HW113688   2.553   6.587   3.299
 4263SOL    HW213689   2.686   6.623   3.387
 4264SOL     OW13690   0.275   2.842   2.771
 4264SOL    HW113691   0.205   2.878   2.833
 4264SOL    HW213692   0.234   2.775   2.709
 4265SOL     OW13693   5.586   1.316   0.707
 4265SOL    HW113694   5.490   1.343   0.706
 4265SOL    HW213695   5.593   1.220   0.735
 4266SOL     OW13696   1.865   5.018   0.305
 4266SOL    HW113697   1.848   4.951   0.377
 4266SOL    HW213698   1.936   5.082   0.334
 4267SOL     OW13699   2.162   3.447   4.475
 4267SOL    HW113700   2.200   3.400   4.395
 4267SOL    HW213701   2.109   3.527   4.444
 4268SOL     OW13702   1.031   6.076   6.255
 4268SOL    HW113703   1.011   6.032   6.167
 4268SOL    HW213704   0.945   6.091   6.305
 4269SOL     OW13705   2.196   1.079   1.894
 4269SOL    HW113706   2.247   1.159   1.924
 4269SOL    HW213707   2.245   0.996   1.919
 4270SOL     OW13708   3.869   3.683   3.473
 4270SOL    HW113709   3.915   3.624   3.407
 4270SOL    HW213710   3.864   3.776   3.437
 4271SOL     OW13711   0.254   0.995   6.700
 4271SOL    HW113712   0.227   1.078   6.651
 4271SOL    HW213713   0.177   0.961   6.754
 4272SOL     OW13714   6.172   2.994   4.745
 4272SOL    HW113715   6.101   3.046   4.697
 4272SOL    HW213716   6.148   2.897   4.746
 4273SOL     OW13717   4.221   6.280   5.039
 4273SOL    HW113718   4.174   6.254   5.124
 4273SOL    HW213719   4.282   6.357   5.057
 4274SOL     OW13720   1.360   6.547   1.940
 4274SOL    HW113721   1.416   6.605   1.881
 4274SOL    HW213722   1.369   6.577   2.035
 4275SOL     OW13723   6.550   0.867   4.263
 4275SOL    HW113724   6.518   0.846   4.355
 4275SOL    HW213725   6.583   0.784   4.218
 4276SOL     OW13726   2.321   5.157   3.290
 4276SOL    HW113727   2.288   5.065   3.271
 4276SOL    HW213728   2.251   5.208   3.340
 4277SOL     OW13729   6.171   4.893   4.117
 4277SOL    HW113730   6.182   4.909   4.019
 4277SOL    HW213731   6.199   4.800   4.139
 4278SOL     OW13732   0.401   0.580   4.415
 4278SOL    HW113733   0.370   0.540   4.329
 4278SOL    HW213734   0.322   0.598   4.474
 4279SOL     OW13735   3.501   0.634   4.641
 4279SOL    HW113736   3.521   0.617   4.545
 4279SOL    HW213737   3.415   0.590   4.666
 4280SOL     OW13738   5.076   6.940   6.323
 4280SOL    HW113739   5.164   6.904   6.351
 4280SOL    HW213740   5.089   7.008   6.251
 4281SOL     OW13741   0.800   5.121   3.653
 4281SOL    HW113742   0.742   5.042   3.672
 4281SOL    HW213743   0.871   5.096   3.587
 4282SOL     OW13744   3.228   3.917   6.692
 4282SOL    HW113745   3.275   3.962   6.615
 4282SOL    HW213746   3.208   3.985   6.762
 4283SOL     OW13747   1.746   0.775   3.452
 4283SOL    HW113748   1.654   0.812   3.464
 4283SOL    HW213749   1.740   0.679   3.424
 4284SOL     OW13750   4.478   4.705   1.287
 4284SOL    HW113751   4.538   4.637   1.328
 4284SOL    HW213752   4.507   4.722   1.193
 4285SOL     OW13753   0.424   0.617   6.179
 4285SOL    HW113754   0.367   0.628   6.260
 4285SOL    HW213755   0.392   0.679   6.107
 4286SOL     OW13756   4.801   5.678   5.988
 4286SOL    HW113757   4.766   5.683   6.082
 4286SOL    HW213758   4.789   5.585   5.953
 4287SOL     OW13759   5.489   1.988   6.813
 4287SOL    HW113760   5.524   2.054   6.747
 4287SOL    HW213761   5.561   1.962   6.877
 4288SOL     OW13762   0.864   6.094   3.653
 4288SOL    HW113763   0.793   6.164   3.648
 4288SOL    HW213764   0.938   6.126   3.712
 4289SOL     OW13765   6.878   3.246   0.855
 4289SOL    HW113766   6.928   3.178   0.908
 4289SOL    HW213767   6.923   3.336   0.864
 4290SOL     OW13768   1.897   0.064   2.593
 4290SOL    HW113769   1.829   0.130   2.625
 4290SOL    HW213770   1.927   0.007   2.669
 4291SOL     OW13771   4.163   3.745   1.379
 4291SOL    HW113772   4.133   3.673   1.441
 4291SOL    HW213773   4.263   3.747   1.376
 4292SOL     OW13774   6.538   4.614   6.740
 4292SOL    HW113775   6.615   4.557   6.711
 4292SOL    HW213776   6.514   4.678   6.667
 4293SOL     OW13777   1.702   3.247   0.578
 4293SOL    HW113778   1.649   3.171   0.540
 4293SOL    HW213779   1.640   3.320   0.605
 4294SOL     OW13780   2.834   2.843   6.529
 4294SOL    HW113781   2.769   2.913   6.500
 4294SOL    HW213782   2.921   2.856   6.483
 4295SOL     OW13783   4.078   5.705   4.050
 4295SOL    HW113784   4.138   5.633   4.085
 4295SOL    HW213785   4.065   5.692   3.952
 4296SOL     OW13786   4.266   0.905   0.683
 4296SOL    HW113787   4.195   0.970   0.657
 4296SOL    HW213788   4.304   0.932   0.772
 4297SOL     OW13789   5.093   0.749   6.771
 4297SOL    HW113790   5.178   0.706   6.803
 4297SOL    HW213791   5.016   0.690   6.795
 4298SOL     OW13792   3.342   5.530   0.114
 4298SOL    HW113793   3.332   5.456   0.181
 4298SOL    HW213794   3.438   5.545   0.094
 4299SOL     OW13795   1.285   2.600   0.036
 4299SOL    HW113796   1.358   2.646   0.087
 4299SOL    HW213797   1.197   2.618   0.080
 4300SOL     OW13798   4.517   0.080   0.119
 4300SOL    HW113799   4.425   0.114   0.097
 4300SOL    HW213800   4.525   0.072   0.219
 4301SOL     OW13801   3.775   2.004   0.944
 4301SOL    HW113802   3.687   1.985   0.986
 4301SOL    HW213803   3.838   1.929   0.963
 4302SOL     OW13804   1.534   6.699   5.661
 4302SOL    HW113805   1.571   6.687   5.753
 4302SOL    HW213806   1.606   6.687   5.593
 4303SOL     OW13807   6.330   4.679   4.226
 4303SOL    HW113808   6.339   4.588   4.186
 4303SOL    HW213809   6.355   4.676   4.323
 4304SOL     OW13810   3.132   3.998   2.969
 4304SOL    HW113811   3.168   3.908   2.945
 4304SOL    HW213812   3.091   3.994   3.060
 4305SOL     OW13813   6.521   0.787   4.535
 4305SOL    HW113814   6.516   0.689   4.553
 4305SOL    HW213815   6.610   0.822   4.566
 4306SOL     OW13816   6.511   3.629   6.927
 4306SOL    HW113817   6.541   3.675   6.843
 4306SOL    HW213818   6.454   3.550   6.903
 4307SOL     OW13819   4.377   3.830   6.274
 4307SOL    HW113820   4.412   3.746   6.232
 4307SOL    HW213821   4.309   3.806   6.343
 4308SOL     OW13822   6.200   5.253   6.489
 4308SOL    HW113823   6.220   5.258   6.587
 4308SOL    HW213824   6.149   5.169   6.470
 4309SOL     OW13825   1.239   1.229   0.495
 4309SOL    HW113826   1.325   1.179   0.505
 4309SOL    HW213827   1.221   1.282   0.578
 4310SOL     OW13828   1.621   2.923   2.911
 4310SOL    HW113829   1.612   2.858   2.835
 4310SOL    HW213830   1.631   2.872   2.997
 4311SOL     OW13831   1.922   6.016   3.532
 4311SOL    HW113832   1.970   5.980   3.612
 4311SOL    HW213833   1.837   5.965   3.518
 4312SOL     OW13834   1.283   5.112   0.850
 4312SOL    HW113835   1.344   5.176   0.897
 4312SOL    HW213836   1.278   5.027   0.902
 4313SOL     OW13837   4.610   1.695   1.385
 4313SOL    HW113838   4.699   1.702   1.340
 4313SOL    HW213839   4.616   1.733   1.477
 4314SOL     OW13840   5.721   1.472   4.078
 4314SOL    HW113841   5.713   1.372   4.074
 4314SOL    HW213842   5.775   1.498   4.158
 4315SOL     OW13843   3.105   0.073   2.124
 4315SOL    HW113844   3.013   0.079   2.162
 4315SOL    HW213845   3.141   6.999   2.138
 4316SOL     OW13846   5.558   6.857   1.738
 4316SOL    HW113847   5.499   6.904   1.672
 4316SOL    HW213848   5.636   6.816   1.690
 4317SOL     OW13849   4.472   1.363   5.186
 4317SOL    HW113850   4.517   1.275   5.202
 4317SOL    HW213851   4.498   1.399   5.097
 4318SOL     OW13852   0.655   3.365   4.474
 4318SOL    HW113853   0.732   3.408   4.425
 4318SOL    HW213854   0.634   3.417   4.556
 4319SOL     OW13855   2.225   2.704   0.697
 4319SOL    HW113856   2.275   2.768   0.638
 4319SOL    HW213857   2.270   2.615   0.693
 4320SOL     OW13858   6.197   6.225   1.526
 4320SOL    HW113859   6.265   6.290   1.493
 4320SOL    HW213860   6.111   6.273   1.545
 4321SOL     OW13861   6.740   6.688   5.252
 4321SOL    HW113862   6.774   6.657   5.163
 4321SOL    HW213863   6.692   6.775   5.241
 4322SOL     OW13864   6.460   2.315   6.739
 4322SOL    HW113865   6.528   2.346   6.805
 4322SOL    HW213866   6.368   2.330   6.777
 4323SOL     OW13867   4.928   3.962   1.031
 4323SOL    HW113868   4.902   3.909   1.111
 4323SOL    HW213869   5.019   4.001   1.044
 4324SOL     OW13870   5.249   4.026   6.310
 4324SOL    HW113871   5.271   3.939   6.354
 4324SOL    HW213872   5.275   4.101   6.371
 4325SOL     OW13873   2.789   1.107   1.392
 4325SOL    HW113874   2.865   1.105   1.327
 4325SOL    HW213875   2.823   1.133   1.483
 4326SOL     OW13876   5.114   4.464   5.249
 4326SOL    HW113877   5.092   4.402   5.324
 4326SOL    HW213878   5.060   4.440   5.168
 4327SOL     OW13879   5.955   5.561   2.015
 4327SOL    HW113880   6.037   5.617   2.029
 4327SOL    HW213881   5.886   5.586   2.083
 4328SOL     OW13882   4.290   3.686   5.639
 4328SOL    HW113883   4.232   3.615   5.679
 4328SOL    HW213884   4.271   3.693   5.541
 4329SOL     OW13885   4.337   1.323   6.180
 4329SOL    HW113886   4.378   1.288   6.264
 4329SOL    HW213887   4.248   1.363   6.202
 4330SOL     OW13888   2.601   0.218   5.179
 4330SOL    HW113889   2.532   0.287   5.158
 4330SOL    HW213890   2.567   0.156   5.250
 4331SOL     OW13891   5.153   2.556   0.730
 4331SOL    HW113892   5.136   2.621   0.656
 4331SOL    HW213893   5.107   2.588   0.813
 4332SOL     OW13894   4.766   4.827   1.977
 4332SOL    HW113895   4.794   4.749   2.032
 4332SOL    HW213896   4.847   4.882   1.954
 4333SOL     OW13897   3.772   0.460   5.280
 4333SOL    HW113898   3.681   0.457   5.238
 4333SOL    HW213899   3.762   0.464   5.380
 4334SOL     OW13900   1.976   2.502   2.530
 4334SOL    HW113901   2.062   2.451   2.521
 4334SOL    HW213902   1.984   2.570   2.602
 4335SOL     OW13903   3.558   3.750   2.847
 4335SOL    HW113904   3.524   3.774   2.756
 4335SOL    HW213905   3.655   3.770   2.853
 4336SOL     OW13906   1.830   6.390   7.011
 4336SOL    HW113907   1.741   6.400   0.037
 4336SOL    HW213908   1.848   6.293   6.994
 4337SOL     OW13909   0.127   4.695   1.036
 4337SOL    HW113910   0.185   4.698   1.117
 4337SOL    HW213911   0.184   4.679   0.955
 4338SOL     OW13912   5.413   5.794   4.454
 4338SOL    HW113913   5.384   5.810   4.548
 4338SOL    HW213914   5.401   5.877   4.400
 4339SOL     OW13915   5.564   3.240   5.305
 4339SOL    HW113916   5.494   3.182   5.347
 4339SOL    HW213917   5.565   3.329   5.351
 4340SOL     OW13918   6.439   3.679   1.327
 4340SOL    HW113919   6.381   3.707   1.404
 4340SOL    HW213920   6.425   3.581   1.309
 4341SOL     OW13921   0.126   5.696   1.996
 4341SOL    HW113922   0.128   5.785   2.041
 4341SOL    HW213923   0.174   5.702   1.909
 4342SOL     OW13924   5.877   3.982   4.186
 4342SOL    HW113925   5.963   4.021   4.153
 4342SOL    HW213926   5.884   3.882   4.185
 4343SOL     OW13927   2.375   6.139   5.671
 4343SOL    HW113928   2.384   6.115   5.574
 4343SOL    HW213929   2.283   6.114   5.702
 4344SOL     OW13930   1.401   5.118   2.936
 4344SOL    HW113931   1.341   5.040   2.919
 4344SOL    HW213932   1.345   5.200   2.952
 4345SOL     OW13933   2.589   3.311   5.302
 4345SOL    HW113934   2.566   3.230   5.247
 4345SOL    HW213935   2.505   3.356   5.331
 4346SOL     OW13936   1.915   3.236   2.115
 4346SOL    HW113937   1.919   3.249   2.016
 4346SOL    HW213938   1.868   3.150   2.135
 4347SOL     OW13939   6.424   0.088   3.028
 4347SOL    HW113940   6.339   0.038   3.037
 4347SOL    HW213941   6.499   0.024   3.011
 4348SOL     OW13942   0.169   4.380   2.925
 4348SOL    HW113943   0.226   4.453   2.887
 4348SOL    HW213944   0.222   4.328   2.992
 4349SOL     OW13945   0.136   1.498   2.667
 4349SOL    HW113946   0.138   1.532   2.761
 4349SOL    HW213947   0.044   1.464   2.647
 4350SOL     OW13948   5.184   1.765   4.053
 4350SOL    HW113949   5.152   1.782   3.959
 4350SOL    HW213950   5.274   1.723   4.050
 4351SOL     OW13951   2.499   6.272   1.244
 4351SOL    HW113952   2.531   6.310   1.330
 4351SOL    HW213953   2.461   6.181   1.260
 4352SOL     OW13954   0.743   2.992   2.377
 4352SOL    HW113955   0.777   3.018   2.467
 4352SOL    HW213956   0.804   3.029   2.306
 4353SOL     OW13957   3.144   3.441   0.158
 4353SOL    HW113958   3.172   3.523   0.210
 4353SOL    HW213959   3.215   3.418   0.092
 4354SOL     OW13960   2.368   0.206   5.600
 4354SOL    HW113961   2.441   0.274   5.586
 4354SOL    HW213962   2.390   0.151   5.681
 4355SOL     OW13963   3.200   0.515   2.381
 4355SOL    HW113964   3.174   0.425   2.416
 4355SOL    HW213965   3.237   0.570   2.456
 4356SOL     OW13966   5.073   4.146   0.629
 4356SOL    HW113967   5.136   4.110   0.697
 4356SOL    HW213968   5.002   4.200   0.675
 4357SOL     OW13969   6.312   0.535   6.993
 4357SOL    HW113970   6.374   0.475   6.944
 4357SOL    HW213971   6.318   0.628   6.956
 4358SOL     OW13972   0.531   6.470   0.085
 4358SOL    HW113973   0.531   6.407   0.163
 4358SOL    HW213974   0.493   6.425   0.005
 4359SOL     OW13975   2.677   2.229   6.304
 4359SOL    HW113976   2.751   2.276   6.255
 4359SOL    HW213977   2.709   2.139   6.335
 4360SOL     OW13978   1.197   2.168   4.240
 4360SOL    HW113979   1.256   2.169   4.160
 4360SOL    HW213980   1.183   2.261   4.273
 4361SOL     OW13981   2.468   3.210   1.193
 4361SOL    HW113982   2.531   3.287   1.204
 4361SOL    HW213983   2.439   3.205   1.097
 4362SOL     OW13984   6.264   5.085   3.009
 4362SOL    HW113985   6.245   5.163   2.949
 4362SOL    HW213986   6.350   5.042   2.982
 4363SOL     OW13987   4.955   3.048   0.074
 4363SOL    HW113988   4.870   3.011   0.112
 4363SOL    HW213989   4.992   3.116   0.138
 4364SOL     OW13990   3.440   3.844   4.917
 4364SOL    HW113991   3.462   3.808   4.826
 4364SOL    HW213992   3.363   3.906   4.910
 4365SOL     OW13993   2.339   1.825   1.756
 4365SOL    HW113994   2.385   1.751   1.805
 4365SOL    HW213995   2.345   1.809   1.658
 4366SOL     OW13996   6.487   6.650   0.182
 4366SOL    HW113997   6.429   6.687   0.110
 4366SOL    HW213998   6.438   6.651   0.270
 4367SOL     OW13999   2.432   4.495   4.829
 4367SOL    HW114000   2.516   4.545   4.805
 4367SOL    HW214001   2.413   4.507   4.926
 4368SOL     OW14002   4.043   4.378   1.109
 4368SOL    HW114003   3.973   4.442   1.078
 4368SOL    HW214004   4.009   4.327   1.189
 4369SOL     OW14005   3.911   5.315   3.361
 4369SOL    HW114006   3.969   5.361   3.427
 4369SOL    HW214007   3.937   5.219   3.355
 4370SOL     OW14008   4.903   5.298   2.464
 4370SOL    HW114009   4.983   5.310   2.405
 4370SOL    HW214010   4.831   5.251   2.413
 4371SOL     OW14011   1.310   1.945   1.751
 4371SOL    HW114012   1.269   1.890   1.678
 4371SOL    HW214013   1.338   2.034   1.714
 4372SOL     OW14014   3.391   1.185   3.064
 4372SOL    HW114015   3.456   1.230   3.125
 4372SOL    HW214016   3.415   1.204   2.969
 4373SOL     OW14017   6.825   2.258   6.460
 4373SOL    HW114018   6.872   2.231   6.544
 4373SOL    HW214019   6.862   2.346   6.428
 4374SOL     OW14020   1.328   1.847   2.432
 4374SOL    HW114021   1.392   1.921   2.454
 4374SOL    HW214022   1.274   1.825   2.514
 4375SOL     OW14023   3.533   0.458   3.086
 4375SOL    HW114024   3.613   0.399   3.080
 4375SOL    HW214025   3.562   0.554   3.080
 4376SOL     OW14026   6.560   6.798   1.767
 4376SOL    HW114027   6.589   6.711   1.728
 4376SOL    HW214028   6.555   6.791   1.866
 4377SOL     OW14029   5.461   4.244   1.147
 4377SOL    HW114030   5.427   4.150   1.142
 4377SOL    HW214031   5.428   4.296   1.069
 4378SOL     OW14032   2.143   1.826   2.621
 4378SOL    HW114033   2.118   1.862   2.531
 4378SOL    HW214034   2.066   1.839   2.684
 4379SOL     OW14035   2.110   1.248   2.531
 4379SOL    HW114036   2.037   1.316   2.535
 4379SOL    HW214037   2.073   1.162   2.495
 4380SOL     OW14038   1.374   0.159   2.484
 4380SOL    HW114039   1.437   0.084   2.462
 4380SOL    HW214040   1.285   0.140   2.444
 4381SOL     OW14041   0.307   5.236   5.378
 4381SOL    HW114042   0.290   5.145   5.341
 4381SOL    HW214043   0.305   5.303   5.304
 4382SOL     OW14044   0.630   3.499   5.140
 4382SOL    HW114045   0.569   3.432   5.098
 4382SOL    HW214046   0.578   3.557   5.202
 4383SOL     OW14047   0.850   3.013   6.943
 4383SOL    HW114048   0.934   3.055   6.908
 4383SOL    HW214049   0.784   3.085   6.966
 4384SOL     OW14050   5.814   0.711   4.746
 4384SOL    HW114051   5.785   0.785   4.807
 4384SOL    HW214052   5.805   0.740   4.651
 4385SOL     OW14053   5.434   2.672   5.078
 4385SOL    HW114054   5.454   2.670   4.980
 4385SOL    HW214055   5.349   2.622   5.097
 4386SOL     OW14056   1.864   3.770   5.730
 4386SOL    HW114057   1.925   3.740   5.804
 4386SOL    HW214058   1.813   3.851   5.760
 4387SOL     OW14059   6.948   2.384   1.532
 4387SOL    HW114060   6.969   2.323   1.609
 4387SOL    HW214061   6.874   2.446   1.559
 4388SOL     OW14062   4.417   2.789   5.867
 4388SOL    HW114063   4.407   2.879   5.825
 4388SOL    HW214064   4.351   2.778   5.941
 4389SOL     OW14065   6.174   3.062   1.221
 4389SOL    HW114066   6.194   3.016   1.134
 4389SOL    HW214067   6.092   3.117   1.211
 4390SOL     OW14068   3.871   0.038   1.706
 4390SOL    HW114069   3.938   7.012   1.765
 4390SOL    HW214070   3.905   0.039   1.612
 4391SOL     OW14071   2.165   5.887   0.160
 4391SOL    HW114072   2.151   5.804   0.106
 4391SOL    HW214073   2.263   5.901   0.175
 4392SOL     OW14074   6.982   2.929   5.476
 4392SOL    HW114075   7.009   2.875   5.555
 4392SOL    HW214076   0.031   3.001   5.460
 4393SOL     OW14077   6.411   0.681   1.923
 4393SOL    HW114078   6.456   0.596   1.950
 4393SOL    HW214079   6.316   0.663   1.899
 4394SOL     OW14080   6.571   5.579   2.310
 4394SOL    HW114081   6.635   5.652   2.333
 4394SOL    HW214082   6.546   5.585   2.214
 4395SOL     OW14083   2.122   0.251   1.882
 4395SOL    HW114084   2.190   0.315   1.918
 4395SOL    HW214085   2.050   0.303   1.835
 4396SOL     OW14086   1.966   1.402   4.277
 4396SOL    HW114087   1.899   1.456   4.224
 4396SOL    HW214088   1.983   1.448   4.364
 4397SOL     OW14089   1.837   2.196   4.172
 4397SOL    HW114090   1.739   2.175   4.172
 4397SOL    HW214091   1.867   2.212   4.078
 4398SOL     OW14092   0.897   3.700   5.493
 4398SOL    HW114093   0.910   3.756   5.575
 4398SOL    HW214094   0.984   3.655   5.470
 4399SOL     OW14095   3.520   6.570   2.575
 4399SOL    HW114096   3.423   6.561   2.598
 4399SOL    HW214097   3.563   6.479   2.576
 4400SOL     OW14098   2.221   6.594   5.459
 4400SOL    HW114099   2.276   6.531   5.404
 4400SOL    HW214100   2.176   6.659   5.398
 4401SOL     OW14101   2.758   7.004   5.723
 4401SOL    HW114102   2.752   0.020   5.817
 4401SOL    HW214103   2.730   6.908   5.721
 4402SOL     OW14104   1.667   0.867   2.722
 4402SOL    HW114105   1.672   0.847   2.820
 4402SOL    HW214106   1.703   0.958   2.704
 4403SOL     OW14107   0.986   0.390   0.717
 4403SOL    HW114108   1.028   0.480   0.727
 4403SOL    HW214109   0.997   0.359   0.622
 4404SOL     OW14110   1.954   6.299   5.976
 4404SOL    HW114111   1.972   6.216   6.030
 4404SOL    HW214112   2.039   6.352   5.968
 4405SOL     OW14113   1.636   4.456   1.853
 4405SOL    HW114114   1.687   4.396   1.915
 4405SOL    HW214115   1.696   4.530   1.823
 4406SOL     OW14116   0.802   2.780   0.755
 4406SOL    HW114117   0.848   2.786   0.844
 4406SOL    HW214118   0.768   2.871   0.729
 4407SOL     OW14119   6.603   5.602   0.837
 4407SOL    HW114120   6.510   5.570   0.853
 4407SOL    HW214121   6.657   5.589   0.920
 4408SOL     OW14122   2.347   0.147   1.000
 4408SOL    HW114123   2.401   0.077   0.953
 4408SOL    HW214124   2.252   0.143   0.969
 4409SOL     OW14125   4.387   1.160   2.413
 4409SOL    HW114126   4.399   1.226   2.487
 4409SOL    HW214127   4.295   1.120   2.419
 4410SOL     OW14128   0.704   4.538   0.355
 4410SOL    HW114129   0.721   4.470   0.426
 4410SOL    HW214130   0.785   4.597   0.345
 4411SOL     OW14131   3.630   4.245   5.132
 4411SOL    HW114132   3.626   4.219   5.036
 4411SOL    HW214133   3.723   4.275   5.155
 4412SOL     OW14134   4.559   6.210   4.047
 4412SOL    HW114135   4.548   6.114   4.073
 4412SOL    HW214136   4.471   6.257   4.056
 4413SOL     OW14137   5.755   4.599   4.206
 4413SOL    HW114138   5.812   4.526   4.244
 4413SOL    HW214139   5.710   4.567   4.123
 4414SOL     OW14140   3.625   5.902   1.353
 4414SOL    HW114141   3.635   5.833   1.425
 4414SOL    HW214142   3.627   5.993   1.394
 4415SOL     OW14143   4.880   2.565   0.176
 4415SOL    HW114144   4.862   2.498   0.104
 4415SOL    HW214145   4.966   2.613   0.156
 4416SOL     OW14146   4.195   1.922   3.834
 4416SOL    HW114147   4.156   1.844   3.786
 4416SOL    HW214148   4.151   2.006   3.802
 4417SOL     OW14149   5.506   4.005   3.949
 4417SOL    HW114150   5.526   3.914   3.985
 4417SOL    HW214151   5.556   4.074   4.002
 4418SOL     OW14152   6.552   2.031   2.194
 4418SOL    HW114153   6.490   2.079   2.257
 4418SOL    HW214154   6.507   2.018   2.106
 4419SOL     OW14155   6.003   0.115   5.578
 4419SOL    HW114156   6.022   0.182   5.650
 4419SOL    HW214157   5.908   0.127   5.547
 4420SOL     OW14158   3.996   1.222   2.070
 4420SOL    HW114159   3.954   1.205   2.159
 4420SOL    HW214160   3.943   1.292   2.022
 4421SOL     OW14161   1.742   1.557   5.089
 4421SOL    HW114162   1.827   1.557   5.141
 4421SOL    HW214163   1.677   1.492   5.129
 4422SOL     OW14164   1.121   4.150   6.804
 4422SOL    HW114165   1.054   4.080   6.781
 4422SOL    HW214166   1.190   4.112   6.865
 4423SOL     OW14167   0.242   3.525   5.305
 4423SOL    HW114168   0.214   3.516   5.401
 4423SOL    HW214169   0.257   3.621   5.284
 4424SOL     OW14170   5.322   0.865   4.182
 4424SOL    HW114171   5.370   0.866   4.270
 4424SOL    HW214172   5.296   0.771   4.159
 4425SOL     OW14173   2.975   4.717   0.505
 4425SOL    HW114174   2.885   4.674   0.511
 4425SOL    HW214175   3.007   4.714   0.410
 4426SOL     OW14176   1.013   1.006   4.072
 4426SOL    HW114177   0.982   1.057   3.992
 4426SOL    HW214178   1.036   0.912   4.044
 4427SOL     OW14179   6.116   6.577   2.334
 4427SOL    HW114180   6.216   6.573   2.330
 4427SOL    HW214181   6.084   6.645   2.268
 4428SOL     OW14182   4.081   0.920   3.739
 4428SOL    HW114183   4.093   0.911   3.640
 4428SOL    HW214184   4.167   0.950   3.780
 4429SOL     OW14185   3.399   0.149   2.253
 4429SOL    HW114186   3.425   0.192   2.167
 4429SOL    HW214187   3.433   0.204   2.329
 4430SOL     OW14188   4.941   4.943   5.137
 4430SOL    HW114189   4.875   4.876   5.103
 4430SOL    HW214190   4.976   4.913   5.226
 4431SOL     OW14191   2.699   0.948   2.984
 4431SOL    HW114192   2.672   1.010   3.057
 4431SOL    HW214193   2.680   0.990   2.895
 4432SOL     OW14194   2.963   3.127   5.772
 4432SOL    HW114195   2.878   3.124   5.824
 4432SOL    HW214196   2.943   3.156   5.678
 4433SOL     OW14197   5.872   2.108   4.099
 4433SOL    HW114198   5.809   2.060   4.160
 4433SOL    HW214199   5.828   2.124   4.011
 4434SOL     OW14200   5.933   1.635   2.740
 4434SOL    HW114201   6.013   1.686   2.708
 4434SOL    HW214202   5.957   1.539   2.751
 4435SOL     OW14203   4.552   4.031   1.076
 4435SOL    HW114204   4.592   4.083   1.152
 4435SOL    HW214205   4.592   3.939   1.075
 4436SOL     OW14206   4.549   0.918   1.652
 4436SOL    HW114207   4.612   0.918   1.729
 4436SOL    HW214208   4.457   0.896   1.684
 4437SOL     OW14209   1.183   3.033   2.650
 4437SOL    HW114210   1.257   2.969   2.630
 4437SOL    HW214211   1.165   3.090   2.570
 4438SOL     OW14212   4.415   0.060   6.631
 4438SOL    HW114213   4.338   0.074   6.569
 4438SOL    HW214214   4.425   6.980   6.648
 4439SOL     OW14215   0.051   4.306   1.643
 4439SOL    HW114216   6.997   4.276   1.581
 4439SOL    HW214217   0.139   4.303   1.596
 4440SOL     OW14218   2.830   4.740   1.157
 4440SOL    HW114219   2.762   4.670   1.177
 4440SOL    HW214220   2.843   4.747   1.058
 4441SOL     OW14221   0.565   1.682   1.778
 4441SOL    HW114222   0.642   1.679   1.843
 4441SOL    HW214223   0.584   1.750   1.707
 4442SOL     OW14224   1.776   4.810   4.323
 4442SOL    HW114225   1.689   4.790   4.278
 4442SOL    HW214226   1.759   4.848   4.414
 4443SOL     OW14227   1.496   3.512   5.558
 4443SOL    HW114228   1.583   3.484   5.597
 4443SOL    HW214229   1.496   3.494   5.460
 4444SOL     OW14230   3.523   3.580   6.834
 4444SOL    HW114231   3.490   3.531   6.754
 4444SOL    HW214232   3.450   3.640   6.868
 4445SOL     OW14233   1.472   6.660   0.219
 4445SOL    HW114234   1.535   6.684   0.292
 4445SOL    HW214235   1.494   6.568   0.185
 4446SOL     OW14236   5.119   2.271   1.286
 4446SOL    HW114237   5.025   2.241   1.304
 4446SOL    HW214238   5.183   2.204   1.324
 4447SOL     OW14239   5.761   4.051   5.799
 4447SOL    HW114240   5.667   4.073   5.826
 4447SOL    HW214241   5.775   3.952   5.805
 4448SOL     OW14242   2.483   5.205   1.646
 4448SOL    HW114243   2.458   5.302   1.652
 4448SOL    HW214244   2.455   5.169   1.557
 4449SOL     OW14245   5.371   0.686   6.288
 4449SOL    HW114246   5.458   0.649   6.320
 4449SOL    HW214247   5.304   0.682   6.363
 4450SOL     OW14248   3.714   2.277   5.951
 4450SOL    HW114249   3.811   2.256   5.942
 4450SOL    HW214250   3.697   2.322   6.039
 4451SOL     OW14251   5.420   4.473   3.762
 4451SOL    HW114252   5.346   4.429   3.812
 4451SOL    HW214253   5.410   4.572   3.767
 4452SOL     OW14254   5.605   5.644   4.617
 4452SOL    HW114255   5.667   5.581   4.569
 4452SOL    HW214256   5.548   5.692   4.550
 4453SOL     OW14257   1.873   2.484   1.604
 4453SOL    HW114258   1.867   2.466   1.702
 4453SOL    HW214259   1.846   2.403   1.552
 4454SOL     OW14260   1.446   1.546   0.103
 4454SOL    HW114261   1.360   1.507   0.138
 4454SOL    HW214262   1.449   1.535   0.004
 4455SOL     OW14263   5.459   5.135   5.610
 4455SOL    HW114264   5.382   5.199   5.616
 4455SOL    HW214265   5.467   5.086   5.697
 4456SOL     OW14266   2.403   6.481   3.205
 4456SOL    HW114267   2.332   6.552   3.206
 4456SOL    HW214268   2.449   6.480   3.117
 4457SOL     OW14269   3.665   1.567   3.183
 4457SOL    HW114270   3.717   1.570   3.268
 4457SOL    HW214271   3.728   1.564   3.105
 4458SOL     OW14272   1.945   3.246   0.712
 4458SOL    HW114273   2.031   3.270   0.668
 4458SOL    HW214274   1.870   3.255   0.645
 4459SOL     OW14275   4.339   2.041   4.529
 4459SOL    HW114276   4.307   2.118   4.585
 4459SOL    HW214277   4.301   2.050   4.437
 4460SOL     OW14278   1.242   3.289   0.144
 4460SOL    HW114279   1.339   3.312   0.141
 4460SOL    HW214280   1.220   3.248   0.233
 4461SOL     OW14281   1.892   0.689   1.060
 4461SOL    HW114282   1.897   0.600   1.014
 4461SOL    HW214283   1.881   0.675   1.158
 4462SOL     OW14284   6.643   4.834   2.272
 4462SOL    HW114285   6.640   4.735   2.290
 4462SOL    HW214286   6.738   4.864   2.267
 4463SOL     OW14287   4.919   0.901   0.898
 4463SOL    HW114288   5.005   0.862   0.864
 4463SOL    HW214289   4.859   0.827   0.929
 4464SOL     OW14290   0.304   5.610   0.291
 4464SOL    HW114291   0.350   5.623   0.378
 4464SOL    HW214292   0.205   5.619   0.304
 4465SOL     OW14293   3.721   5.403   1.065
 4465SOL    HW114294   3.767   5.343   1.130
 4465SOL    HW214295   3.787   5.435   0.996
 4466SOL     OW14296   1.259   2.159   3.094
 4466SOL    HW114297   1.315   2.191   3.017
 4466SOL    HW214298   1.295   2.072   3.128
 4467SOL     OW14299   1.894   5.485   3.331
 4467SOL    HW114300   1.833   5.505   3.408
 4467SOL    HW214301   1.842   5.439   3.259
 4468SOL     OW14302   1.572   4.113   0.589
 4468SOL    HW114303   1.613   4.083   0.503
 4468SOL    HW214304   1.559   4.034   0.649
 4469SOL     OW14305   3.642   0.902   1.550
 4469SOL    HW114306   3.706   0.877   1.477
 4469SOL    HW214307   3.690   0.953   1.621
 4470SOL     OW14308   0.447   1.958   2.123
 4470SOL    HW114309   0.542   1.977   2.146
 4470SOL    HW214310   0.387   2.026   2.166
 4471SOL     OW14311   0.756   2.341   6.482
 4471SOL    HW114312   0.767   2.309   6.388
 4471SOL    HW214313   0.784   2.437   6.488
 4472SOL     OW14314   0.468   2.569   1.649
 4472SOL    HW114315   0.536   2.545   1.718
 4472SOL    HW214316   0.433   2.661   1.666
 4473SOL     OW14317   5.692   3.275   4.163
 4473SOL    HW114318   5.610   3.218   4.172
 4473SOL    HW214319   5.676   3.364   4.206
 4474SOL     OW14320   2.724   7.007   2.242
 4474SOL    HW114321   2.678   0.037   2.167
 4474SOL    HW214322   2.662   6.999   2.320
 4475SOL     OW14323   1.256   4.093   2.214
 4475SOL    HW114324   1.288   4.182   2.182
 4475SOL    HW214325   1.183   4.060   2.154
 4476SOL     OW14326   6.268   1.046   3.548
 4476SOL    HW114327   6.321   1.119   3.504
 4476SOL    HW214328   6.176   1.079   3.568
 4477SOL     OW14329   1.502   0.574   5.422
 4477SOL    HW114330   1.476   0.532   5.509
 4477SOL    HW214331   1.420   0.608   5.376
 4478SOL     OW14332   3.035   0.311   2.491
 4478SOL    HW114333   2.944   0.320   2.532
 4478SOL    HW214334   3.079   0.228   2.525
 4479SOL     OW14335   0.269   2.229   1.534
 4479SOL    HW114336   0.260   2.269   1.625
 4479SOL    HW214337   0.242   2.133   1.537
 4480SOL     OW14338   0.241   3.916   5.019
 4480SOL    HW114339   0.286   3.988   4.966
 4480SOL    HW214340   0.186   3.859   4.957
 4481SOL     OW14341   2.706   5.389   5.004
 4481SOL    HW114342   2.678   5.306   5.053
 4481SOL    HW214343   2.661   5.468   5.044
 4482SOL     OW14344   2.158   2.783   5.126
 4482SOL    HW114345   2.243   2.833   5.111
 4482SOL    HW214346   2.081   2.847   5.123
 4483SOL     OW14347   6.818   2.359   2.131
 4483SOL    HW114348   6.774   2.294   2.070
 4483SOL    HW214349   6.879   2.418   2.079
 4484SOL     OW14350   3.159   2.337   6.688
 4484SOL    HW114351   3.249   2.361   6.652
 4484SOL    HW214352   3.140   2.392   6.770
 4485SOL     OW14353   5.811   2.533   4.505
 4485SOL    HW114354   5.853   2.549   4.595
 4485SOL    HW214355   5.862   2.584   4.435
 4486SOL     OW14356   6.016   5.704   5.280
 4486SOL    HW114357   5.962   5.667   5.204
 4486SOL    HW214358   6.054   5.792   5.254
 4487SOL     OW14359   2.968   2.430   6.472
 4487SOL    HW114360   3.027   2.403   6.396
 4487SOL    HW214361   3.023   2.462   6.548
 4488SOL     OW14362   1.143   3.598   5.471
 4488SOL    HW114363   1.224   3.650   5.497
 4488SOL    HW214364   1.158   3.501   5.489
 4489SOL     OW14365   5.304   5.455   4.718
 4489SOL    HW114366   5.226   5.447   4.656
 4489SOL    HW214367   5.366   5.377   4.705
 4490SOL     OW14368   5.267   1.891   1.514
 4490SOL    HW114369   5.312   1.812   1.556
 4490SOL    HW214370   5.169   1.887   1.532
 4491SOL     OW14371   6.967   3.388   3.590
 4491SOL    HW114372   6.880   3.360   3.630
 4491SOL    HW214373   0.024   3.361   3.650
 4492SOL     OW14374   5.942   4.238   2.342
 4492SOL    HW114375   5.925   4.337   2.336
 4492SOL    HW214376   6.026   4.216   2.293
 4493SOL     OW14377   5.162   6.034   4.655
 4493SOL    HW114378   5.114   6.062   4.571
 4493SOL    HW214379   5.099   5.984   4.714
 4494SOL     OW14380   0.189   0.954   6.324
 4494SOL    HW114381   0.229   0.862   6.333
 4494SOL    HW214382   0.140   0.960   6.237
 4495SOL     OW14383   4.503   0.312   3.941
 4495SOL    HW114384   4.430   0.375   3.967
 4495SOL    HW214385   4.482   0.270   3.853
 4496SOL     OW14386   5.593   6.293   0.766
 4496SOL    HW114387   5.591   6.372   0.705
 4496SOL    HW214388   5.687   6.260   0.775
 4497SOL     OW14389   4.133   1.662   6.778
 4497SOL    HW114390   4.207   1.658   6.710
 4497SOL    HW214391   4.150   1.594   6.849
 4498SOL     OW14392   0.118   4.010   6.902
 4498SOL    HW114393   0.140   4.060   6.818
 4498SOL    HW214394   0.203   3.978   6.945
 4499SOL     OW14395   6.014   3.424   3.627
 4499SOL    HW114396   5.940   3.473   3.671
 4499SOL    HW214397   6.039   3.344   3.682
 4500SOL     OW14398   3.486   3.588   5.376
 4500SOL    HW114399   3.503   3.646   5.296
 4500SOL    HW214400   3.465   3.646   5.455
 4501SOL     OW14401   6.848   3.482   2.843
 4501SOL    HW114402   6.770   3.541   2.822
 4501SOL    HW214403   6.903   3.469   2.760
 4502SOL     OW14404   0.639   3.093   0.090
 4502SOL    HW114405   0.553   3.046   0.110
 4502SOL    HW214406   0.708   3.064   0.155
 4503SOL     OW14407   3.799   6.971   1.204
 4503SOL    HW114408   3.786   6.876   1.229
 4503SOL    HW214409   3.713   7.008   1.169
 4504SOL     OW14410   0.756   1.155   4.459
 4504SOL    HW114411   0.845   1.113   4.444
 4504SOL    HW214412   0.694   1.129   4.384
 4505SOL     OW14413   6.332   5.039   1.877
 4505SOL    HW114414   6.242   5.055   1.836
 4505SOL    HW214415   6.377   5.126   1.893
 4506SOL     OW14416   4.823   2.881   3.199
 4506SOL    HW114417   4.790   2.895   3.106
 4506SOL    HW214418   4.788   2.794   3.234
 4507SOL     OW14419   6.893   4.051   3.389
 4507SOL    HW114420   6.953   3.972   3.405
 4507SOL    HW214421   6.905   4.117   3.462
 4508SOL     OW14422   1.439   4.718   6.399
 4508SOL    HW114423   1.343   4.704   6.374
 4508SOL    HW214424   1.450   4.808   6.440
 4509SOL     OW14425   4.838   2.507   2.862
 4509SOL    HW114426   4.903   2.582   2.847
 4509SOL    HW214427   4.755   2.523   2.808
 4510SOL     OW14428   4.397   2.375   4.140
 4510SOL    HW114429   4.298   2.358   4.137
 4510SOL    HW214430   4.442   2.322   4.068
 4511SOL     OW14431   6.222   3.493   6.598
 4511SOL    HW114432   6.144   3.553   6.617
 4511SOL    HW214433   6.188   3.402   6.572
 4512SOL     OW14434   3.104   0.574   5.987
 4512SOL    HW114435   3.038   0.616   6.050
 4512SOL    HW214436   3.183   0.540   6.039
 4513SOL     OW14437   0.771   4.906   5.903
 4513SOL    HW114438   0.685   4.887   5.952
 4513SOL    HW214439   0.827   4.967   5.959
 4514SOL     OW14440   3.345   2.455   5.897
 4514SOL    HW114441   3.289   2.508   5.834
 4514SOL    HW214442   3.432   2.434   5.854
 4515SOL     OW14443   5.901   1.780   5.278
 4515SOL    HW114444   5.821   1.779   5.219
 4515SOL    HW214445   5.887   1.717   5.355
 4516SOL     OW14446   2.486   6.998   0.243
 4516SOL    HW114447   2.556   0.024   0.299
 4516SOL    HW214448   2.503   6.899   0.240
 4517SOL     OW14449   4.652   6.654   6.681
 4517SOL    HW114450   4.637   6.555   6.681
 4517SOL    HW214451   4.724   6.677   6.746
 4518SOL     OW14452   0.430   6.736   2.411
 4518SOL    HW114453   0.451   6.708   2.504
 4518SOL    HW214454   0.434   6.656   2.350
 4519SOL     OW14455   5.506   6.660   0.936
 4519SOL    HW114456   5.580   6.724   0.915
 4519SOL    HW214457   5.544   6.574   0.969
 4520SOL     OW14458   3.995   6.088   6.201
 4520SOL    HW114459   3.965   6.154   6.270
 4520SOL    HW214460   3.915   6.052   6.153
 4521SOL     OW14461   5.871   2.017   5.626
 4521SOL    HW114462   5.941   2.077   5.588
 4521SOL    HW214463   5.862   2.034   5.724
 4522SOL     OW14464   5.627   5.421   2.992
 4522SOL    HW114465   5.708   5.445   2.938
 4522SOL    HW214466   5.579   5.504   3.019
 4523SOL     OW14467   1.208   4.288   0.236
 4523SOL    HW114468   1.221   4.378   0.278
 4523SOL    HW214469   1.125   4.245   0.272
 4524SOL     OW14470   6.267   3.564   2.044
 4524SOL    HW114471   6.360   3.576   2.080
 4524SOL    HW214472   6.268   3.499   1.968
 4525SOL     OW14473   4.305   2.601   5.589
 4525SOL    HW114474   4.209   2.573   5.579
 4525SOL    HW214475   4.361   2.520   5.609
 4526SOL     OW14476   6.927   0.331   6.655
 4526SOL    HW114477   6.862   0.397   6.618
 4526SOL    HW214478   7.017   0.374   6.664
 4527SOL     OW14479   6.665   0.078   2.797
 4527SOL    HW114480   6.656   0.023   2.714
 4527SOL    HW214481   6.613   0.163   2.786
 4528SOL     OW14482   4.850   0.230   6.340
 4528SOL    HW114483   4.767   0.283   6.355
 4528SOL    HW214484   4.828   0.132   6.340
 4529SOL     OW14485   1.871   0.603   4.907
 4529SOL    HW114486   1.872   0.702   4.921
 4529SOL    HW214487   1.932   0.560   4.973
 4530SOL     OW14488   2.408   5.434   3.566
 4530SOL    HW114489   2.483   5.385   3.520
 4530SOL    HW214490   2.327   5.432   3.507
 4531SOL     OW14491   0.517   3.150   6.067
 4531SOL    HW114492   0.559   3.060   6.078
 4531SOL    HW214493   0.565   3.200   5.995
 4532SOL     OW14494   6.699   1.240   2.455
 4532SOL    HW114495   6.751   1.322   2.430
 4532SOL    HW214496   6.732   1.205   2.542
 4533SOL     OW14497   2.313   1.098   2.957
 4533SOL    HW114498   2.354   1.190   2.957
 4533SOL    HW214499   2.339   1.051   3.041
 4534SOL     OW14500   5.355   4.155   5.617
 4534SOL    HW114501   5.333   4.059   5.601
 4534SOL    HW214502   5.389   4.166   5.711
 4535SOL     OW14503   3.738   0.906   2.192
 4535SOL    HW114504   3.643   0.888   2.169
 4535SOL    HW214505   3.750   0.903   2.292
 4536SOL     OW14506   3.828   1.802   4.746
 4536SOL    HW114507   3.814   1.746   4.828
 4536SOL    HW214508   3.915   1.778   4.704
 4537SOL     OW14509   4.079   3.665   1.125
 4537SOL    HW114510   4.116   3.707   1.208
 4537SOL    HW214511   4.032   3.734   1.070
 4538SOL     OW14512   2.568   0.542   2.241
 4538SOL    HW114513   2.499   0.614   2.249
 4538SOL    HW214514   2.528   0.461   2.198
 4539SOL     OW14515   3.511   5.748   5.097
 4539SOL    HW114516   3.577   5.814   5.061
 4539SOL    HW214517   3.421   5.791   5.104
 4540SOL     OW14518   2.345   1.688   0.445
 4540SOL    HW114519   2.379   1.685   0.351
 4540SOL    HW214520   2.300   1.602   0.467
 4541SOL     OW14521   5.264   1.461   6.386
 4541SOL    HW114522   5.185   1.513   6.419
 4541SOL    HW214523   5.236   1.366   6.369
 4542SOL     OW14524   0.134   2.561   1.594
 4542SOL    HW114525   0.183   2.493   1.648
 4542SOL    HW214526   0.056   2.518   1.549
 4543SOL     OW14527   5.288   2.010   0.935
 4543SOL    HW114528   5.275   2.062   0.851
 4543SOL    HW214529   5.199   1.994   0.979
 4544SOL     OW14530   3.263   5.459   6.880
 4544SOL    HW114531   3.274   5.501   6.790
 4544SOL    HW214532   3.291   5.525   6.951
 4545SOL     OW14533   6.011   3.456   4.689
 4545SOL    HW114534   6.002   3.455   4.589
 4545SOL    HW214535   5.985   3.366   4.725
 4546SOL     OW14536   2.596   6.902   4.550
 4546SOL    HW114537   2.670   6.853   4.505
 4546SOL    HW214538   2.556   6.968   4.486
 4547SOL     OW14539   6.452   1.552   0.493
 4547SOL    HW114540   6.477   1.618   0.423
 4547SOL    HW214541   6.387   1.486   0.455
 4548SOL     OW14542   2.177   2.294   3.857
 4548SOL    HW114543   2.203   2.360   3.927
 4548SOL    HW214544   2.166   2.341   3.769
 4549SOL     OW14545   5.552   3.811   2.525
 4549SOL    HW114546   5.524   3.899   2.487
 4549SOL    HW214547   5.536   3.739   2.457
 4550SOL     OW14548   1.146   4.647   3.016
 4550SOL    HW114549   1.056   4.632   2.974
 4550SOL    HW214550   1.182   4.561   3.050
 4551SOL     OW14551   0.620   3.455   4.731
 4551SOL    HW114552   0.607   3.392   4.808
 4551SOL    HW214553   0.571   3.540   4.750
 4552SOL     OW14554   5.672   1.986   1.063
 4552SOL    HW114555   5.610   2.056   1.099
 4552SOL    HW214556   5.740   2.028   1.004
 4553SOL     OW14557   4.821   3.831   0.230
 4553SOL    HW114558   4.908   3.831   0.180
 4553SOL    HW214559   4.800   3.925   0.259
 4554SOL     OW14560   6.711   0.270   1.898
 4554SOL    HW114561   6.680   0.274   1.803
 4554SOL    HW214562   6.763   0.352   1.920
 4555SOL     OW14563   1.743   1.400   5.762
 4555SOL    HW114564   1.748   1.439   5.854
 4555SOL    HW214565   1.831   1.412   5.716
 4556SOL     OW14566   5.571   4.084   4.640
 4556SOL    HW114567   5.614   4.145   4.706
 4556SOL    HW214568   5.532   4.005   4.688
 4557SOL     OW14569   4.811   5.575   4.051
 4557SOL    HW114570   4.740   5.511   4.022
 4557SOL    HW214571   4.885   5.525   4.096
 4558SOL     OW14572   0.149   4.056   4.767
 4558SOL    HW114573   0.242   4.042   4.800
 4558SOL    HW214574   0.119   3.976   4.716
 4559SOL     OW14575   6.986   3.484   2.609
 4559SOL    HW114576   6.994   3.576   2.570
 4559SOL    HW214577   0.048   3.465   2.666
 4560SOL     OW14578   5.845   3.404   1.227
 4560SOL    HW114579   5.938   3.439   1.236
 4560SOL    HW214580   5.843   3.308   1.254
 4561SOL     OW14581   3.509   2.088   3.461
 4561SOL    HW114582   3.499   2.128   3.370
 4561SOL    HW214583   3.421   2.089   3.508
 4562SOL     OW14584   1.486   6.915   0.531
 4562SOL    HW114585   1.442   6.938   0.444
 4562SOL    HW214586   1.547   6.838   0.519
 4563SOL     OW14587   0.131   2.933   1.624
 4563SOL    HW114588   0.121   2.882   1.710
 4563SOL    HW214589   0.116   2.870   1.547
 4564SOL     OW14590   6.829   6.141   1.784
 4564SOL    HW114591   6.910   6.173   1.834
 4564SOL    HW214592   6.759   6.113   1.849
 4565SOL     OW14593   1.556   0.559   4.462
 4565SOL    HW114594   1.558   0.460   4.478
 4565SOL    HW214595   1.514   0.577   4.373
 4566SOL     OW14596   0.109   3.272   1.272
 4566SOL    HW114597   0.139   3.273   1.367
 4566SOL    HW214598   0.019   3.316   1.264
 4567SOL     OW14599   6.753   1.518   6.507
 4567SOL    HW114600   6.809   1.593   6.472
 4567SOL    HW214601   6.691   1.553   6.578
 4568SOL     OW14602   2.041   3.691   5.913
 4568SOL    HW114603   2.091   3.604   5.912
 4568SOL    HW214604   2.105   3.766   5.931
 4569SOL     OW14605   2.226   0.150   3.243
 4569SOL    HW114606   2.169   0.086   3.294
 4569SOL    HW214607   2.202   0.147   3.146
 4570SOL     OW14608   6.338   6.576   2.637
 4570SOL    HW114609   6.363   6.503   2.700
 4570SOL    HW214610   6.239   6.587   2.635
 4571SOL     OW14611   4.856   3.461   6.065
 4571SOL    HW114612   4.780   3.434   6.124
 4571SOL    HW214613   4.820   3.517   5.990
 4572SOL     OW14614   2.235   1.170   6.375
 4572SOL    HW114615   2.305   1.153   6.305
 4572SOL    HW214616   2.239   1.098   6.444
 4573SOL     OW14617   6.793   6.941   0.379
 4573SOL    HW114618   6.809   0.020   0.399
 4573SOL    HW214619   6.827   6.920   0.287
 4574SOL     OW14620   6.011   4.126   0.196
 4574SOL    HW114621   6.064   4.146   0.279
 4574SOL    HW214622   5.943   4.056   0.217
 4575SOL     OW14623   5.265   0.459   5.298
 4575SOL    HW114624   5.200   0.461   5.374
 4575SOL    HW214625   5.225   0.408   5.222
 4576SOL     OW14626   3.758   5.351   5.398
 4576SOL    HW114627   3.688   5.399   5.345
 4576SOL    HW214628   3.814   5.296   5.336
 4577SOL     OW14629   0.939   2.693   4.537
 4577SOL    HW114630   1.019   2.634   4.537
 4577SOL    HW214631   0.905   2.704   4.630
 4578SOL     OW14632   1.063   2.171   5.291
 4578SOL    HW114633   1.073   2.152   5.388
 4578SOL    HW214634   0.969   2.150   5.263
 4579SOL     OW14635   4.522   0.652   3.061
 4579SOL    HW114636   4.523   0.727   3.127
 4579SOL    HW214637   4.429   0.637   3.028
 4580SOL     OW14638   5.599   3.438   0.374
 4580SOL    HW114639   5.557   3.414   0.286
 4580SOL    HW214640   5.634   3.355   0.417
 4581SOL     OW14641   2.331   6.067   2.742
 4581SOL    HW114642   2.373   6.001   2.680
 4581SOL    HW214643   2.394   6.143   2.758
 4582SOL     OW14644   4.524   0.654   4.250
 4582SOL    HW114645   4.577   0.679   4.331
 4582SOL    HW214646   4.487   0.737   4.208
 4583SOL     OW14647   3.206   1.740   6.906
 4583SOL    HW114648   3.213   1.704   6.813
 4583SOL    HW214649   3.274   1.695   6.964
 4584SOL     OW14650   1.808   5.092   5.285
 4584SOL    HW114651   1.720   5.061   5.322
 4584SOL    HW214652   1.798   5.110   5.187
 4585SOL     OW14653   1.813   5.346   3.115
 4585SOL    HW114654   1.717   5.320   3.122
 4585SOL    HW214655   1.870   5.264   3.121
 4586SOL     OW14656   3.948   4.283   0.801
 4586SOL    HW114657   4.044   4.291   0.825
 4586SOL    HW214658   3.902   4.221   0.864
 4587SOL     OW14659   3.084   3.984   3.225
 4587SOL    HW114660   3.098   3.898   3.273
 4587SOL    HW214661   3.042   4.051   3.286
 4588SOL     OW14662   3.110   3.085   6.004
 4588SOL    HW114663   3.053   3.094   5.922
 4588SOL    HW214664   3.054   3.056   6.081
 4589SOL     OW14665   5.887   0.792   2.158
 4589SOL    HW114666   5.975   0.833   2.184
 4589SOL    HW214667   5.848   0.746   2.237
 4590SOL     OW14668   4.428   5.334   1.385
 4590SOL    HW114669   4.390   5.245   1.360
 4590SOL    HW214670   4.359   5.388   1.432
 4591SOL     OW14671   1.383   0.200   4.949
 4591SOL    HW114672   1.366   0.296   4.969
 4591SOL    HW214673   1.454   0.165   5.009
 4592SOL     OW14674   3.095   1.435   3.085
 4592SOL    HW114675   3.061   1.497   3.015
 4592SOL    HW214676   3.037   1.442   3.167
 4593SOL     OW14677   5.815   6.339   2.193
 4593SOL    HW114678   5.879   6.372   2.123
 4593SOL    HW214679   5.861   6.271   2.250
 4594SOL     OW14680   2.713   0.509   3.196
 4594SOL    HW114681   2.789   0.512   3.132
 4594SOL    HW214682   2.707   0.597   3.244
 4595SOL     OW14683   4.833   2.965   5.761
 4595SOL    HW114684   4.752   2.972   5.819
 4595SOL    HW214685   4.915   2.979   5.817
 4596SOL     OW14686   6.516   0.290   2.771
 4596SOL    HW114687   6.439   0.249   2.723
 4596SOL    HW214688   6.485   0.325   2.860
 4597SOL     OW14689   2.731   5.501   6.751
 4597SOL    HW114690   2.699   5.595   6.746
 4597SOL    HW214691   2.826   5.500   6.784
 4598SOL     OW14692   1.326   5.712   1.166
 4598SOL    HW114693   1.273   5.690   1.249
 4598SOL    HW214694   1.419   5.737   1.192
 4599SOL     OW14695   1.105   5.335   0.999
 4599SOL    HW114696   1.006   5.317   0.999
 4599SOL    HW214697   1.127   5.399   0.925
 4600SOL     OW14698   0.409   6.125   5.750
 4600SOL    HW114699   0.482   6.061   5.771
 4600SOL    HW214700   0.320   6.080   5.762
 4601SOL     OW14701   1.287   1.633   5.095
 4601SOL    HW114702   1.330   1.715   5.133
 4601SOL    HW214703   1.282   1.642   4.995
 4602SOL     OW14704   3.462   6.345   0.482
 4602SOL    HW114705   3.500   6.266   0.530
 4602SOL    HW214706   3.388   6.315   0.423
 4603SOL     OW14707   3.611   5.985   0.862
 4603SOL    HW114708   3.651   6.064   0.908
 4603SOL    HW214709   3.611   5.907   0.925
 4604SOL     OW14710   4.647   6.520   0.049
 4604SOL    HW114711   4.692   6.440   0.012
 4604SOL    HW214712   4.710   6.570   0.109
 4605SOL     OW14713   1.544   6.319   1.909
 4605SOL    HW114714   1.562   6.264   1.990
 4605SOL    HW214715   1.456   6.365   1.919
 4606SOL     OW14716   0.766   6.698   2.778
 4606SOL    HW114717   0.861   6.707   2.749
 4606SOL    HW214718   0.723   6.623   2.728
 4607SOL     OW14719   2.135   3.331   3.209
 4607SOL    HW114720   2.192   3.260   3.252
 4607SOL    HW214721   2.062   3.356   3.272
 4608SOL     OW14722   0.143   4.968   3.869
 4608SOL    HW114723   0.138   5.063   3.900
 4608SOL    HW214724   0.072   4.915   3.916
 4609SOL     OW14725   5.061   4.875   6.675
 4609SOL    HW114726   5.116   4.930   6.612
 4609SOL    HW214727   4.978   4.926   6.699
 4610SOL     OW14728   4.940   1.557   0.484
 4610SOL    HW114729   4.943   1.556   0.384
 4610SOL    HW214730   4.864   1.501   0.516
 4611SOL     OW14731   1.252   6.741   5.811
 4611SOL    HW114732   1.200   6.816   5.853
 4611SOL    HW214733   1.324   6.711   5.874
 4612SOL     OW14734   2.227   6.801   0.836
 4612SOL    HW114735   2.249   6.849   0.751
 4612SOL    HW214736   2.131   6.773   0.835
 4613SOL     OW14737   1.755   5.644   2.046
 4613SOL    HW114738   1.671   5.690   2.017
 4613SOL    HW214739   1.813   5.708   2.095
 4614SOL     OW14740   5.679   3.265   3.568
 4614SOL    HW114741   5.620   3.202   3.517
 4614SOL    HW214742   5.723   3.215   3.643
 4615SOL     OW14743   0.694   1.583   0.587
 4615SOL    HW114744   0.597   1.571   0.606
 4615SOL    HW214745   0.713   1.559   0.492
 4616SOL     OW14746   6.075   1.282   4.579
 4616SOL    HW114747   6.091   1.186   4.553
 4616SOL    HW214748   6.028   1.330   4.505
 4617SOL     OW14749   1.266   1.677   2.915
 4617SOL    HW114750   1.204   1.701   2.990
 4617SOL    HW214751   1.329   1.606   2.945
 4618SOL     OW14752   2.140   3.199   5.367
 4618SOL    HW114753   2.232   3.221   5.399
 4618SOL    HW214754   2.146   3.145   5.283
 4619SOL     OW14755   2.833   5.913   3.476
 4619SOL    HW114756   2.855   6.003   3.439
 4619SOL    HW214757   2.915   5.872   3.516
 4620SOL     OW14758   0.839   5.256   1.051
 4620SOL    HW114759   0.743   5.246   1.025
 4620SOL    HW214760   0.851   5.232   1.147
 4621SOL     OW14761   4.940   1.021   2.258
 4621SOL    HW114762   4.898   1.074   2.332
 4621SOL    HW214763   4.893   0.933   2.249
 4622SOL     OW14764   3.911   4.746   0.714
 4622SOL    HW114765   3.821   4.791   0.707
 4622SOL    HW214766   3.924   4.712   0.807
 4623SOL     OW14767   4.909   5.754   1.570
 4623SOL    HW114768   4.896   5.659   1.540
 4623SOL    HW214769   4.962   5.803   1.501
 4624SOL     OW14770   3.389   0.202   2.791
 4624SOL    HW114771   3.488   0.192   2.801
 4624SOL    HW214772   3.348   0.224   2.879
 4625SOL     OW14773   1.551   5.099   1.966
 4625SOL    HW114774   1.615   5.022   1.974
 4625SOL    HW214775   1.531   5.135   2.057
 4626SOL     OW14776   4.693   4.020   1.695
 4626SOL    HW114777   4.620   4.071   1.740
 4626SOL    HW214778   4.770   4.010   1.758
 4627SOL     OW14779   1.751   4.833   5.085
 4627SOL    HW114780   1.813   4.755   5.086
 4627SOL    HW214781   1.794   4.909   5.035
 4628SOL     OW14782   4.605   4.386   4.884
 4628SOL    HW114783   4.652   4.321   4.943
 4628SOL    HW214784   4.509   4.392   4.910
 4629SOL     OW14785   2.453   5.435   5.714
 4629SOL    HW114786   2.444   5.527   5.676
 4629SOL    HW214787   2.413   5.434   5.806
 4630SOL     OW14788   2.237   5.584   2.368
 4630SOL    HW114789   2.282   5.635   2.296
 4630SOL    HW214790   2.256   5.486   2.357
 4631SOL     OW14791   1.214   6.475   3.110
 4631SOL    HW114792   1.297   6.432   3.147
 4631SOL    HW214793   1.228   6.497   3.014
 4632SOL     OW14794   2.393   4.349   2.390
 4632SOL    HW114795   2.406   4.349   2.489
 4632SOL    HW214796   2.430   4.434   2.352
 4633SOL     OW14797   5.776   0.813   4.421
 4633SOL    HW114798   5.864   0.766   4.415
 4633SOL    HW214799   5.702   0.749   4.398
 4634SOL     OW14800   2.767   4.000   5.259
 4634SOL    HW114801   2.842   3.940   5.233
 4634SOL    HW214802   2.682   3.968   5.217
 4635SOL     OW14803   4.424   4.213   1.475
 4635SOL    HW114804   4.452   4.146   1.545
 4635SOL    HW214805   4.332   4.190   1.443
 4636SOL     OW14806   2.297   4.134   0.554
 4636SOL    HW114807   2.279   4.050   0.605
 4636SOL    HW214808   2.391   4.163   0.569
 4637SOL     OW14809   0.771   6.780   1.117
 4637SOL    HW114810   0.762   6.698   1.061
 4637SOL    HW214811   0.841   6.840   1.076
 4638SOL     OW14812   4.120   5.742   0.132
 4638SOL    HW114813   4.134   5.742   0.033
 4638SOL    HW214814   4.054   5.814   0.157
 4639SOL     OW14815   3.294   2.641   6.335
 4639SOL    HW114816   3.198   2.648   6.307
 4639SOL    HW214817   3.335   2.733   6.336
 4640SOL     OW14818   5.265   4.009   4.506
 4640SOL    HW114819   5.325   4.064   4.448
 4640SOL    HW214820   5.305   3.918   4.518
 4641SOL     OW14821   2.385   0.354   4.234
 4641SOL    HW114822   2.433   0.383   4.151
 4641SOL    HW214823   2.446   0.363   4.313
 4642SOL     OW14824   1.482   6.885   2.890
 4642SOL    HW114825   1.404   6.947   2.889
 4642SOL    HW214826   1.461   6.806   2.947
 4643SOL     OW14827   6.579   1.474   0.182
 4643SOL    HW114828   6.549   1.475   0.087
 4643SOL    HW214829   6.613   1.565   0.207
 4644SOL     OW14830   0.473   0.475   5.452
 4644SOL    HW114831   0.392   0.450   5.399
 4644SOL    HW214832   0.552   0.425   5.417
 4645SOL     OW14833   1.635   0.735   4.661
 4645SOL    HW114834   1.557   0.742   4.723
 4645SOL    HW214835   1.616   0.666   4.591
 4646SOL     OW14836   2.570   5.631   3.610
 4646SOL    HW114837   2.551   5.725   3.637
 4646SOL    HW214838   2.487   5.576   3.619
 4647SOL     OW14839   1.692   0.618   2.556
 4647SOL    HW114840   1.630   0.540   2.563
 4647SOL    HW214841   1.675   0.681   2.631
 4648SOL     OW14842   3.919   1.038   3.438
 4648SOL    HW114843   3.928   1.136   3.419
 4648SOL    HW214844   3.844   1.024   3.503
 4649SOL     OW14845   6.037   0.783   0.923
 4649SOL    HW114846   6.029   0.871   0.970
 4649SOL    HW214847   6.106   0.727   0.970
 4650SOL     OW14848   4.765   5.548   2.158
 4650SOL    HW114849   4.673   5.574   2.130
 4650SOL    HW214850   4.827   5.626   2.144
 4651SOL     OW14851   6.922   3.446   6.360
 4651SOL    HW114852   6.899   3.360   6.405
 4651SOL    HW214853   6.985   3.428   6.284
 4652SOL     OW14854   6.781   5.952   4.699
 4652SOL    HW114855   6.719   5.883   4.736
 4652SOL    HW214856   6.874   5.916   4.699
 4653SOL     OW14857   5.279   6.128   1.192
 4653SOL    HW114858   5.371   6.116   1.155
 4653SOL    HW214859   5.285   6.142   1.291
 4654SOL     OW14860   0.664   5.750   6.126
 4654SOL    HW114861   0.697   5.754   6.220
 4654SOL    HW214862   0.728   5.698   6.070
 4655SOL     OW14863   6.101   3.479   1.302
 4655SOL    HW114864   6.116   3.430   1.388
 4655SOL    HW214865   6.169   3.451   1.235
 4656SOL     OW14866   1.185   1.259   1.705
 4656SOL    HW114867   1.255   1.226   1.642
 4656SOL    HW214868   1.195   1.214   1.793
 4657SOL     OW14869   4.772   5.833   1.791
 4657SOL    HW114870   4.831   5.816   1.712
 4657SOL    HW214871   4.752   5.931   1.798
 4658SOL     OW14872   2.797   0.790   4.573
 4658SOL    HW114873   2.840   0.824   4.490
 4658SOL    HW214874   2.850   0.715   4.610
 4659SOL     OW14875   2.724   4.218   6.307
 4659SOL    HW114876   2.681   4.144   6.255
 4659SOL    HW214877   2.773   4.178   6.385
 4660SOL     OW14878   1.116   6.143   4.550
 4660SOL    HW114879   1.126   6.158   4.451
 4660SOL    HW214880   1.192   6.188   4.598
 4661SOL     OW14881   3.058   4.688   6.322
 4661SOL    HW114882   3.143   4.676   6.270
 4661SOL    HW214883   2.988   4.726   6.262
 4662SOL     OW14884   2.770   0.549   5.476
 4662SOL    HW114885   2.826   0.627   5.448
 4662SOL    HW214886   2.777   0.536   5.575
 4663SOL     OW14887   0.342   0.788   1.123
 4663SOL    HW114888   0.271   0.717   1.127
 4663SOL    HW214889   0.425   0.755   1.168
 4664SOL     OW14890   1.152   0.516   0.325
 4664SOL    HW114891   1.142   0.584   0.398
 4664SOL    HW214892   1.243   0.475   0.330
 4665SOL     OW14893   3.047   6.845   6.270
 4665SOL    HW114894   3.032   6.880   6.362
 4665SOL    HW214895   2.988   6.765   6.255
 4666SOL     OW14896   2.121   2.693   0.280
 4666SOL    HW114897   2.023   2.703   0.295
 4666SOL    HW214898   2.150   2.758   0.209
 4667SOL     OW14899   6.361   3.704   1.601
 4667SOL    HW114900   6.291   3.704   1.672
 4667SOL    HW214901   6.407   3.793   1.599
 4668SOL     OW14902   4.539   1.804   4.358
 4668SOL    HW114903   4.505   1.713   4.383
 4668SOL    HW214904   4.589   1.843   4.435
 4669SOL     OW14905   5.027   6.092   6.614
 4669SOL    HW114906   5.016   6.103   6.712
 4669SOL    HW214907   5.106   6.033   6.596
 4670SOL     OW14908   1.120   2.606   6.429
 4670SOL    HW114909   1.023   2.584   6.437
 4670SOL    HW214910   1.142   2.684   6.488
 4671SOL     OW14911   0.512   3.324   6.710
 4671SOL    HW114912   0.496   3.422   6.697
 4671SOL    HW214913   0.525   3.305   6.807
 4672SOL     OW14914   3.071   4.712   6.608
 4672SOL    HW114915   3.163   4.753   6.610
 4672SOL    HW214916   3.058   4.665   6.520
 4673SOL     OW14917   4.824   0.155   1.248
 4673SOL    HW114918   4.887   0.214   1.198
 4673SOL    HW214919   4.731   0.190   1.239
 4674SOL     OW14920   5.434   1.450   6.981
 4674SOL    HW114921   5.368   1.507   6.933
 4674SOL    HW214922   5.514   1.505   7.006
 4675SOL     OW14923   3.515   0.678   0.513
 4675SOL    HW114924   3.431   0.730   0.500
 4675SOL    HW214925   3.497   0.599   0.571
 4676SOL     OW14926   0.255   6.344   4.377
 4676SOL    HW114927   0.326   6.308   4.316
 4676SOL    HW214928   0.227   6.435   4.346
 4677SOL     OW14929   2.856   0.981   0.650
 4677SOL    HW114930   2.855   0.945   0.557
 4677SOL    HW214931   2.946   0.964   0.691
 4678SOL     OW14932   1.545   4.429   2.553
 4678SOL    HW114933   1.607   4.483   2.609
 4678SOL    HW214934   1.539   4.469   2.462
 4679SOL     OW14935   3.300   1.011   0.157
 4679SOL    HW114936   3.208   1.049   0.158
 4679SOL    HW214937   3.364   1.077   0.197
 4680SOL     OW14938   1.847   0.341   1.885
 4680SOL    HW114939   1.867   0.371   1.979
 4680SOL    HW214940   1.796   0.255   1.889
 4681SOL     OW14941   6.087   5.266   5.662
 4681SOL    HW114942   6.181   5.259   5.695
 4681SOL    HW214943   6.061   5.362   5.656
 4682SOL     OW14944   4.142   4.269   6.988
 4682SOL    HW114945   4.102   4.298   0.057
 4682SOL    HW214946   4.153   4.170   6.988
 4683SOL     OW14947   4.688   4.891   2.504
 4683SOL    HW114948   4.706   4.974   2.555
 4683SOL    HW214949   4.772   4.838   2.495
 4684SOL     OW14950   6.982   1.643   4.339
 4684SOL    HW114951   6.998   1.571   4.407
 4684SOL    HW214952   6.886   1.673   4.344
 4685SOL     OW14953   0.504   6.416   5.283
 4685SOL    HW114954   0.503   6.397   5.381
 4685SOL    HW214955   0.430   6.480   5.260
 4686SOL     OW14956   5.390   5.422   0.280
 4686SOL    HW114957   5.451   5.399   0.203
 4686SOL    HW214958   5.431   5.496   0.334
 4687SOL     OW14959   0.108   4.951   5.353
 4687SOL    HW114960   0.155   4.944   5.265
 4687SOL    HW214961   0.169   4.921   5.426
 4688SOL     OW14962   6.976   3.546   5.739
 4688SOL    HW114963   6.946   3.451   5.735
 4688SOL    HW214964   7.007   3.575   5.648
 4689SOL     OW14965   6.017   0.414   6.914
 4689SOL    HW114966   6.105   0.454   6.940
 4689SOL    HW214967   5.974   0.375   6.996
 4690SOL     OW14968   1.328   0.873   7.007
 4690SOL    HW114969   1.293   0.933   6.935
 4690SOL    HW214970   1.252   0.829   0.036
 4691SOL     OW14971   3.135   4.724   1.887
 4691SOL    HW114972   3.054   4.676   1.919
 4691SOL    HW214973   3.172   4.781   1.960
 4692SOL     OW14974   6.691   6.054   2.483
 4692SOL    HW114975   6.695   6.129   2.550
 4692SOL    HW214976   6.628   5.983   2.517
 4693SOL     OW14977   0.458   0.751   3.865
 4693SOL    HW114978   0.540   0.705   3.898
 4693SOL    HW214979   0.432   0.714   3.776
 4694SOL     OW14980   2.974   0.197   0.357
 4694SOL    HW114981   2.915   0.227   0.281
 4694SOL    HW214982   3.017   0.276   0.399
 4695SOL     OW14983   2.579   3.372   1.684
 4695SOL    HW114984   2.515   3.409   1.751
 4695SOL    HW214985   2.562   3.274   1.673
 4696SOL     OW14986   0.542   4.505   5.403
 4696SOL    HW114987   0.516   4.412   5.430
 4696SOL    HW214988   0.621   4.502   5.342
 4697SOL     OW14989   1.658   2.920   1.004
 4697SOL    HW114990   1.659   3.010   0.962
 4697SOL    HW214991   1.677   2.850   0.935
 4698SOL     OW14992   3.736   5.766   3.159
 4698SOL    HW114993   3.665   5.757   3.228
 4698SOL    HW214994   3.777   5.857   3.165
 4699SOL     OW14995   1.143   6.472   2.317
 4699SOL    HW114996   1.055   6.429   2.332
 4699SOL    HW214997   1.189   6.428   2.239
 4700SOL     OW14998   6.233   1.356   2.750
 4700SOL    HW114999   6.264   1.372   2.656
 4700SOL    HW215000   6.243   1.440   2.803
 4701SOL     OW15001   1.691   1.895   1.061
 4701SOL    HW115002   1.700   1.911   1.159
 4701SOL    HW215003   1.717   1.800   1.039
 4702SOL     OW15004   5.974   4.781   6.414
 4702SOL    HW115005   5.958   4.682   6.415
 4702SOL    HW215006   5.956   4.817   6.322
 4703SOL     OW15007   1.399   2.410   1.568
 4703SOL    HW115008   1.478   2.416   1.506
 4703SOL    HW215009   1.426   2.364   1.653
 4704SOL     OW15010   1.088   6.717   6.948
 4704SOL    HW115011   1.046   6.671   6.869
 4704SOL    HW215012   1.042   6.686   0.013
 4705SOL     OW15013   3.557   3.532   2.996
 4705SOL    HW115014   3.636   3.481   2.964
 4705SOL    HW215015   3.548   3.617   2.943
 4706SOL     OW15016   3.534   6.313   6.180
 4706SOL    HW115017   3.445   6.273   6.201
 4706SOL    HW215018   3.579   6.341   6.265
 4707SOL     OW15019   2.270   5.553   0.656
 4707SOL    HW115020   2.219   5.612   0.718
 4707SOL    HW215021   2.264   5.590   0.563
 4708SOL     OW15022   1.619   2.153   6.756
 4708SOL    HW115023   1.570   2.201   6.683
 4708SOL    HW215024   1.562   2.151   6.838
 4709SOL     OW15025   3.906   5.478   5.137
 4709SOL    HW115026   3.871   5.563   5.175
 4709SOL    HW215027   3.889   5.476   5.039
 4710SOL     OW15028   3.495   1.162   5.776
 4710SOL    HW115029   3.583   1.116   5.787
 4710SOL    HW215030   3.452   1.174   5.866
 4711SOL     OW15031   5.399   0.546   2.172
 4711SOL    HW115032   5.320   0.506   2.126
 4711SOL    HW215033   5.483   0.524   2.121
 4712SOL     OW15034   2.912   4.358   0.661
 4712SOL    HW115035   3.001   4.392   0.690
 4712SOL    HW215036   2.924   4.294   0.585
 4713SOL     OW15037   3.045   4.093   1.142
 4713SOL    HW115038   3.019   4.003   1.107
 4713SOL    HW215039   2.977   4.124   1.208
 4714SOL     OW15040   1.873   2.017   0.302
 4714SOL    HW115041   1.956   2.068   0.326
 4714SOL    HW215042   1.796   2.053   0.355
 4715SOL     OW15043   6.574   3.514   1.681
 4715SOL    HW115044   6.536   3.604   1.661
 4715SOL    HW215045   6.513   3.443   1.647
 4716SOL     OW15046   4.134   6.006   6.628
 4716SOL    HW115047   4.101   6.066   6.701
 4716SOL    HW215048   4.075   5.926   6.621
 4717SOL     OW15049   6.961   6.477   3.673
 4717SOL    HW115050   6.899   6.490   3.595
 4717SOL    HW215051   0.016   6.414   3.647
 4718SOL     OW15052   5.817   2.144   6.743
 4718SOL    HW115053   5.779   2.072   6.801
 4718SOL    HW215054   5.742   2.198   6.704
 4719SOL     OW15055   5.287   3.495   2.542
 4719SOL    HW115056   5.262   3.423   2.606
 4719SOL    HW215057   5.277   3.463   2.448
 4720SOL     OW15058   2.116   6.107   5.728
 4720SOL    HW115059   2.064   6.028   5.760
 4720SOL    HW215060   2.053   6.176   5.693
 4721SOL     OW15061   0.024   2.487   1.312
 4721SOL    HW115062   0.028   2.428   1.231
 4721SOL    HW215063   0.004   2.430   1.393
 4722SOL     OW15064   1.225   5.699   6.744
 4722SOL    HW115065   1.219   5.709   6.844
 4722SOL    HW215066   1.190   5.782   6.701
 4723SOL     OW15067   2.192   5.026   6.162
 4723SOL    HW115068   2.215   4.963   6.088
 4723SOL    HW215069   2.269   5.087   6.179
 4724SOL     OW15070   5.190   5.945   3.044
 4724SOL    HW115071   5.114   5.969   3.106
 4724SOL    HW215072   5.276   5.948   3.095
 4725SOL     OW15073   6.364   6.803   2.354
 4725SOL    HW115074   6.334   6.713   2.321
 4725SOL    HW215075   6.285   6.854   2.388
 4726SOL     OW15076   2.002   3.247   6.583
 4726SOL    HW115077   2.039   3.178   6.521
 4726SOL    HW215078   1.905   3.231   6.598
 4727SOL     OW15079   6.989   6.592   6.689
 4727SOL    HW115080   0.052   6.641   6.656
 4727SOL    HW215081   6.918   6.593   6.619
 4728SOL     OW15082   5.129   0.574   0.529
 4728SOL    HW115083   5.070   0.497   0.552
 4728SOL    HW215084   5.225   0.547   0.538
 4729SOL     OW15085   2.373   1.487   1.706
 4729SOL    HW115086   2.341   1.543   1.630
 4729SOL    HW215087   2.294   1.452   1.757
 4730SOL     OW15088   2.406   5.811   5.383
 4730SOL    HW115089   2.405   5.910   5.367
 4730SOL    HW215090   2.432   5.793   5.478
 4731SOL     OW15091   4.414   6.894   6.113
 4731SOL    HW115092   4.368   6.873   6.199
 4731SOL    HW215093   4.474   6.818   6.088
 4732SOL     OW15094   0.159   3.778   5.662
 4732SOL    HW115095   0.092   3.815   5.597
 4732SOL    HW215096   0.120   3.777   5.754
 4733SOL     OW15097   1.413   4.235   3.219
 4733SOL    HW115098   1.508   4.202   3.214
 4733SOL    HW215099   1.398   4.278   3.307
 4734SOL     OW15100   5.048   3.155   6.495
 4734SOL    HW115101   4.956   3.183   6.524
 4734SOL    HW215102   5.040   3.080   6.429
 4735SOL     OW15103   0.597   5.938   4.326
 4735SOL    HW115104   0.604   5.904   4.232
 4735SOL    HW215105   0.619   5.864   4.390
 4736SOL     OW15106   0.412   1.634   6.226
 4736SOL    HW115107   0.485   1.585   6.273
 4736SOL    HW215108   0.340   1.569   6.200
 4737SOL     OW15109   1.017   5.113   2.241
 4737SOL    HW115110   0.946   5.047   2.266
 4737SOL    HW215111   1.092   5.066   2.194
 4738SOL     OW15112   0.126   5.801   2.851
 4738SOL    HW115113   0.215   5.771   2.815
 4738SOL    HW215114   0.066   5.823   2.775
 4739SOL     OW15115   4.530   6.708   3.328
 4739SOL    HW115116   4.474   6.659   3.262
 4739SOL    HW215117   4.563   6.644   3.398
 4740SOL     OW15118   0.141   1.573   0.925
 4740SOL    HW115119   0.232   1.613   0.911
 4740SOL    HW215120   0.145   1.504   0.998
 4741SOL     OW15121   3.415   2.942   1.243
 4741SOL    HW115122   3.406   2.904   1.335
 4741SOL    HW215123   3.329   2.929   1.193
 4742SOL     OW15124   2.220   6.517   5.107
 4742SOL    HW115125   2.306   6.564   5.128
 4742SOL    HW215126   2.143   6.577   5.127
 4743SOL     OW15127   2.274   4.050   2.711
 4743SOL    HW115128   2.260   3.952   2.723
 4743SOL    HW215129   2.275   4.072   2.614
 4744SOL     OW15130   1.636   5.102   0.841
 4744SOL    HW115131   1.692   5.159   0.781
 4744SOL    HW215132   1.610   5.156   0.922
 4745SOL     OW15133   2.815   4.019   6.480
 4745SOL    HW115134   2.857   4.081   6.547
 4745SOL    HW215135   2.831   3.925   6.508
 4746SOL     OW15136   4.543   6.688   3.792
 4746SOL    HW115137   4.480   6.687   3.870
 4746SOL    HW215138   4.625   6.636   3.814
 4747SOL     OW15139   0.818   4.013   0.804
 4747SOL    HW115140   0.897   3.954   0.786
 4747SOL    HW215141   0.844   4.087   0.866
 4748SOL     OW15142   1.823   5.961   1.399
 4748SOL    HW115143   1.779   5.888   1.347
 4748SOL    HW215144   1.754   6.030   1.425
 4749SOL     OW15145   1.754   6.833   6.497
 4749SOL    HW115146   1.698   6.875   6.425
 4749SOL    HW215147   1.851   6.851   6.479
 4750SOL     OW15148   7.012   3.393   5.307
 4750SOL    HW115149   7.015   3.303   5.264
 4750SOL    HW215150   0.073   3.447   5.277
 4751SOL     OW15151   4.605   2.716   2.974
 4751SOL    HW115152   4.679   2.782   2.964
 4751SOL    HW215153   4.577   2.683   2.883
 4752SOL     OW15154   4.366   0.811   7.001
 4752SOL    HW115155   4.331   0.899   0.014
 4752SOL    HW215156   4.466   0.811   7.004
 4753SOL     OW15157   0.620   0.150   4.002
 4753SOL    HW115158   0.643   0.227   4.062
 4753SOL    HW215159   0.533   0.169   3.956
 4754SOL     OW15160   5.181   3.917   4.837
 4754SOL    HW115161   5.148   3.913   4.931
 4754SOL    HW215162   5.238   3.998   4.824
 4755SOL     OW15163   3.052   0.986   0.847
 4755SOL    HW115164   3.027   0.928   0.925
 4755SOL    HW215165   3.146   1.019   0.859
 4756SOL     OW15166   5.673   3.790   5.460
 4756SOL    HW115167   5.674   3.859   5.388
 4756SOL    HW215168   5.765   3.776   5.495
 4757SOL     OW15169   2.164   1.909   1.417
 4757SOL    HW115170   2.156   1.943   1.323
 4757SOL    HW215171   2.079   1.865   1.443
 4758SOL     OW15172   1.464   6.388   3.172
 4758SOL    HW115173   1.500   6.296   3.156
 4758SOL    HW215174   1.500   6.423   3.258
 4759SOL     OW15175   0.843   4.712   6.275
 4759SOL    HW115176   0.852   4.650   6.197
 4759SOL    HW215177   0.843   4.807   6.243
 4760SOL     OW15178   2.328   1.441   0.619
 4760SOL    HW115179   2.412   1.435   0.673
 4760SOL    HW215180   2.249   1.446   0.680
 4761SOL     OW15181   1.359   0.415   0.627
 4761SOL    HW115182   1.410   0.498   0.651
 4761SOL    HW215183   1.330   0.368   0.710
 4762SOL     OW15184   1.425   5.853   2.604
 4762SOL    HW115185   1.398   5.791   2.531
 4762SOL    HW215186   1.505   5.906   2.576
 4763SOL     OW15187   5.254   0.449   2.624
 4763SOL    HW115188   5.247   0.479   2.720
 4763SOL    HW215189   5.213   0.518   2.565
 4764SOL     OW15190   4.550   3.478   5.350
 4764SOL    HW115191   4.599   3.508   5.268
 4764SOL    HW215192   4.453   3.503   5.342
 4765SOL     OW15193   3.691   0.684   5.725
 4765SOL    HW115194   3.680   0.737   5.641
 4765SOL    HW215195   3.647   0.732   5.801
 4766SOL     OW15196   6.112   6.047   4.179
 4766SOL    HW115197   6.110   6.146   4.169
 4766SOL    HW215198   6.032   6.007   4.134
 4767SOL     OW15199   3.372   4.771   5.210
 4767SOL    HW115200   3.276   4.744   5.220
 4767SOL    HW215201   3.430   4.710   5.264
 4768SOL     OW15202   3.513   2.658   5.758
 4768SOL    HW115203   3.555   2.643   5.669
 4768SOL    HW215204   3.414   2.648   5.751
 4769SOL     OW15205   4.386   6.264   0.560
 4769SOL    HW115206   4.408   6.244   0.655
 4769SOL    HW215207   4.291   6.240   0.541
 4770SOL     OW15208   0.582   1.898   4.711
 4770SOL    HW115209   0.532   1.848   4.639
 4770SOL    HW215210   0.668   1.850   4.729
 4771SOL     OW15211   2.712   6.789   6.287
 4771SOL    HW115212   2.705   6.730   6.367
 4771SOL    HW215213   2.727   6.884   6.317
 4772SOL     OW15214   3.215   4.668   1.044
 4772SOL    HW115215   3.228   4.695   1.140
 4772SOL    HW215216   3.227   4.748   0.985
 4773SOL     OW15217   0.475   5.772   5.350
 4773SOL    HW115218   0.490   5.755   5.448
 4773SOL    HW215219   0.464   5.870   5.334
 4774SOL     OW15220   1.638   4.160   0.947
 4774SOL    HW115221   1.626   4.204   1.036
 4774SOL    HW215222   1.644   4.230   0.875
 4775SOL     OW15223   4.865   6.915   3.693
 4775SOL    HW115224   4.887   6.967   3.611
 4775SOL    HW215225   4.852   6.819   3.670
 4776SOL     OW15226   0.927   1.100   5.359
 4776SOL    HW115227   0.844   1.111   5.303
 4776SOL    HW215228   0.945   1.186   5.407
 4777SOL     OW15229   2.002   5.662   0.870
 4777SOL    HW115230   2.024   5.646   0.966
 4777SOL    HW215231   2.015   5.759   0.848
 4778SOL     OW15232   0.131   2.565   4.599
 4778SOL    HW115233   0.099   2.658   4.614
 4778SOL    HW215234   0.109   2.509   4.680
 4779SOL     OW15235   5.601   0.005   3.473
 4779SOL    HW115236   5.633   0.079   3.532
 4779SOL    HW215237   5.610   6.936   3.522
 4780SOL     OW15238   5.607   2.554   6.839
 4780SOL    HW115239   5.650   2.611   6.769
 4780SOL    HW215240   5.509   2.544   6.820
 4781SOL     OW15241   2.797   5.643   1.859
 4781SOL    HW115242   2.881   5.609   1.815
 4781SOL    HW215243   2.739   5.566   1.885
 4782SOL     OW15244   6.049   5.683   6.423
 4782SOL    HW115245   6.079   5.607   6.366
 4782SOL    HW215246   5.984   5.649   6.491
 4783SOL     OW15247   5.852   3.370   6.878
 4783SOL    HW115248   5.839   3.271   6.866
 4783SOL    HW215249   5.765   3.417   6.865
 4784SOL     OW15250   6.016   2.067   6.144
 4784SOL    HW115251   5.969   1.989   6.186
 4784SOL    HW215252   6.114   2.062   6.163
 4785SOL     OW15253   0.202   6.705   3.246
 4785SOL    HW115254   0.271   6.635   3.259
 4785SOL    HW215255   0.116   6.662   3.218
 4786SOL     OW15256   2.663   6.563   6.956
 4786SOL    HW115257   2.692   6.562   0.034
 4786SOL    HW215258   2.564   6.548   6.951
 4787SOL     OW15259   3.801   1.984   3.328
 4787SOL    HW115260   3.827   2.071   3.288
 4787SOL    HW215261   3.719   1.950   3.283
 4788SOL     OW15262   6.825   5.587   0.701
 4788SOL    HW115263   6.806   5.549   0.610
 4788SOL    HW215264   6.741   5.591   0.754
 4789SOL     OW15265   4.979   1.981   1.470
 4789SOL    HW115266   4.938   1.968   1.561
 4789SOL    HW215267   4.938   1.915   1.406
 4790SOL     OW15268   5.744   1.881   5.936
 4790SOL    HW115269   5.777   1.827   5.858
 4790SOL    HW215270   5.818   1.891   6.002
 4791SOL     OW15271   0.188   2.918   1.988
 4791SOL    HW115272   0.172   2.850   1.917
 4791SOL    HW215273   0.147   2.886   2.074
 4792SOL     OW15274   2.127   4.541   4.577
 4792SOL    HW115275   2.200   4.475   4.558
 4792SOL    HW215276   2.073   4.510   4.655
 4793SOL     OW15277   1.948   3.729   5.053
 4793SOL    HW115278   1.865   3.786   5.053
 4793SOL    HW215279   2.022   3.780   5.096
 4794SOL     OW15280   4.285   6.806   4.537
 4794SOL    HW115281   4.186   6.806   4.552
 4794SOL    HW215282   4.331   6.828   4.624
 4795SOL     OW15283   6.444   1.563   4.091
 4795SOL    HW115284   6.529   1.610   4.066
 4795SOL    HW215285   6.366   1.614   4.054
 4796SOL     OW15286   4.120   0.323   6.461
 4796SOL    HW115287   4.076   0.391   6.520
 4796SOL    HW215288   4.062   0.304   6.382
 4797SOL     OW15289   0.717   5.966   4.782
 4797SOL    HW115290   0.667   6.049   4.807
 4797SOL    HW215291   0.774   5.984   4.702
 4798SOL     OW15292   6.359   5.017   5.218
 4798SOL    HW115293   6.266   5.053   5.215
 4798SOL    HW215294   6.415   5.065   5.150
 4799SOL     OW15295   4.353   1.484   0.916
 4799SOL    HW115296   4.352   1.581   0.892
 4799SOL    HW215297   4.305   1.432   0.845
 4800SOL     OW15298   1.723   4.135   6.902
 4800SOL    HW115299   1.670   4.186   6.835
 4800SOL    HW215300   1.759   4.199   6.971
 4801SOL     OW15301   3.409   2.486   6.579
 4801SOL    HW115302   3.401   2.564   6.640
 4801SOL    HW215303   3.399   2.516   6.484
 4802SOL     OW15304   0.210   6.563   2.127
 4802SOL    HW115305   0.171   6.476   2.100
 4802SOL    HW215306   0.152   6.638   2.095
 4803SOL     OW15307   6.854   4.640   0.931
 4803SOL    HW115308   6.762   4.667   0.958
 4803SOL    HW215309   6.919   4.666   1.003
 4804SOL     OW15310   6.764   6.865   1.252
 4804SOL    HW115311   6.710   6.865   1.167
 4804SOL    HW215312   6.703   6.870   1.331
 4805SOL     OW15313   6.406   1.239   2.067
 4805SOL    HW115314   6.434   1.162   2.124
 4805SOL    HW215315   6.308   1.253   2.076
 4806SOL     OW15316   1.087   3.484   2.786
 4806SOL    HW115317   1.058   3.579   2.781
 4806SOL    HW215318   1.167   3.470   2.727
 4807SOL     OW15319   1.160   4.191   6.241
 4807SOL    HW115320   1.152   4.290   6.233
 4807SOL    HW215321   1.240   4.169   6.298
 4808SOL     OW15322   3.985   5.442   0.959
 4808SOL    HW115323   4.038   5.522   0.928
 4808SOL    HW215324   4.038   5.393   1.028
 4809SOL     OW15325   3.809   4.943   1.505
 4809SOL    HW115326   3.888   4.939   1.566
 4809SOL    HW215327   3.840   4.941   1.410
 4810SOL     OW15328   1.652   4.458   2.932
 4810SOL    HW115329   1.671   4.370   2.889
 4810SOL    HW215330   1.700   4.463   3.020
 4811SOL     OW15331   3.807   4.070   3.140
 4811SOL    HW115332   3.728   4.132   3.137
 4811SOL    HW215333   3.811   4.017   3.055
 4812SOL     OW15334   0.195   0.372   2.313
 4812SOL    HW115335   0.133   0.414   2.246
 4812SOL    HW215336   0.277   0.339   2.266
 4813SOL     OW15337   6.221   1.531   6.226
 4813SOL    HW115338   6.167   1.534   6.310
 4813SOL    HW215339   6.165   1.495   6.151
 4814SOL     OW15340   0.021   3.150   1.978
 4814SOL    HW115341   0.088   3.078   1.961
 4814SOL    HW215342   6.948   3.118   1.951
 4815SOL     OW15343   5.388   4.453   2.823
 4815SOL    HW115344   5.444   4.535   2.826
 4815SOL    HW215345   5.292   4.477   2.839
 4816SOL     OW15346   2.174   5.231   1.624
 4816SOL    HW115347   2.236   5.276   1.689
 4816SOL    HW215348   2.119   5.301   1.578
 4817SOL     OW15349   2.930   0.917   1.616
 4817SOL    HW115350   2.992   0.982   1.660
 4817SOL    HW215351   2.982   0.857   1.555
 4818SOL     OW15352   0.929   1.367   4.072
 4818SOL    HW115353   0.904   1.388   3.977
 4818SOL    HW215354   0.969   1.276   4.077
 4819SOL     OW15355   3.024   2.502   1.397
 4819SOL    HW115356   3.002   2.466   1.488
 4819SOL    HW215357   2.974   2.587   1.382
 4820SOL     OW15358   6.565   2.110   0.482
 4820SOL    HW115359   6.543   2.091   0.386
 4820SOL    HW215360   6.664   2.113   0.494
 4821SOL     OW15361   0.037   6.930   1.271
 4821SOL    HW115362   6.959   6.903   1.264
 4821SOL    HW215363   0.047   7.002   1.339
 4822SOL     OW15364   1.960   2.801   3.668
 4822SOL    HW115365   2.045   2.849   3.645
 4822SOL    HW215366   1.882   2.852   3.634
 4823SOL     OW15367   0.269   1.476   3.762
 4823SOL    HW115368   0.332   1.504   3.690
 4823SOL    HW215369   0.301   1.511   3.850
 4824SOL     OW15370   5.844   2.087   3.415
 4824SOL    HW115371   5.910   2.018   3.442
 4824SOL    HW215372   5.877   2.133   3.332
 4825SOL     OW15373   2.337   2.724   4.302
 4825SOL    HW115374   2.283   2.689   4.226
 4825SOL    HW215375   2.278   2.738   4.382
 4826SOL     OW15376   0.610   0.599   6.698
 4826SOL    HW115377   0.674   0.609   6.773
 4826SOL    HW215378   0.549   0.678   6.695
 4827SOL     OW15379   5.716   0.967   1.607
 4827SOL    HW115380   5.732   1.024   1.687
 4827SOL    HW215381   5.684   1.023   1.531
 4828SOL     OW15382   5.560   3.031   0.877
 4828SOL    HW115383   5.629   3.068   0.940
 4828SOL    HW215384   5.484   2.994   0.930
 4829SOL     OW15385   3.795   6.391   6.886
 4829SOL    HW115386   3.799   6.294   6.863
 4829SOL    HW215387   3.856   6.442   6.826
 4830SOL     OW15388   5.167   5.868   4.154
 4830SOL    HW115389   5.224   5.905   4.228
 4830SOL    HW215390   5.081   5.918   4.150
 4831SOL     OW15391   6.903   5.467   5.906
 4831SOL    HW115392   6.836   5.412   5.957
 4831SOL    HW215393   6.937   5.540   5.964
 4832SOL     OW15394   2.816   2.553   5.683
 4832SOL    HW115395   2.843   2.647   5.660
 4832SOL    HW215396   2.740   2.555   5.747
 4833SOL     OW15397   5.440   1.212   3.267
 4833SOL    HW115398   5.355   1.162   3.283
 4833SOL    HW215399   5.443   1.243   3.172
 4834SOL     OW15400   3.803   0.455   0.749
 4834SOL    HW115401   3.801   0.550   0.779
 4834SOL    HW215402   3.730   0.439   0.683
 4835SOL     OW15403   1.097   1.326   6.468
 4835SOL    HW115404   1.122   1.344   6.373
 4835SOL    HW215405   1.054   1.236   6.475
 4836SOL     OW15406   4.895   3.296   3.323
 4836SOL    HW115407   4.944   3.213   3.295
 4836SOL    HW215408   4.847   3.278   3.409
 4837SOL     OW15409   4.419   3.364   1.600
 4837SOL    HW115410   4.494   3.421   1.635
 4837SOL    HW215411   4.420   3.276   1.646
 4838SOL     OW15412   2.253   5.279   2.047
 4838SOL    HW115413   2.314   5.214   2.001
 4838SOL    HW215414   2.191   5.228   2.107
 4839SOL     OW15415   1.702   3.893   5.495
 4839SOL    HW115416   1.617   3.850   5.466
 4839SOL    HW215417   1.727   3.860   5.586
 4840SOL     OW15418   0.710   6.618   5.461
 4840SOL    HW115419   0.710   6.711   5.499
 4840SOL    HW215420   0.676   6.554   5.530
 4841SOL     OW15421   2.815   6.204   1.439
 4841SOL    HW115422   2.866   6.125   1.473
 4841SOL    HW215423   2.823   6.208   1.339
 4842SOL     OW15424   3.383   4.829   1.757
 4842SOL    HW115425   3.414   4.915   1.718
 4842SOL    HW215426   3.460   4.783   1.801
 4843SOL     OW15427   5.823   3.594   0.506
 4843SOL    HW115428   5.898   3.527   0.505
 4843SOL    HW215429   5.745   3.557   0.455
 4844SOL     OW15430   6.746   3.517   5.887
 4844SOL    HW115431   6.825   3.555   5.839
 4844SOL    HW215432   6.681   3.590   5.908
 4845SOL     OW15433   6.688   5.697   4.440
 4845SOL    HW115434   6.671   5.724   4.535
 4845SOL    HW215435   6.732   5.608   4.438
 4846SOL     OW15436   6.606   3.458   3.058
 4846SOL    HW115437   6.670   3.530   3.033
 4846SOL    HW215438   6.591   3.460   3.157
 4847SOL     OW15439   3.525   1.425   5.720
 4847SOL    HW115440   3.611   1.460   5.756
 4847SOL    HW215441   3.514   1.329   5.746
 4848SOL     OW15442   1.516   0.911   3.445
 4848SOL    HW115443   1.477   1.002   3.430
 4848SOL    HW215444   1.452   0.855   3.497
 4849SOL     OW15445   1.116   6.695   6.370
 4849SOL    HW115446   1.080   6.605   6.344
 4849SOL    HW215447   1.062   6.733   6.445
 4850SOL     OW15448   3.857   1.491   2.569
 4850SOL    HW115449   3.843   1.392   2.574
 4850SOL    HW215450   3.937   1.509   2.511
 4851SOL     OW15451   3.670   5.969   5.080
 4851SOL    HW115452   3.694   5.969   5.177
 4851SOL    HW215453   3.746   6.006   5.026
 4852SOL     OW15454   0.639   0.701   5.436
 4852SOL    HW115455   0.588   0.620   5.466
 4852SOL    HW215456   0.661   0.758   5.515
 4853SOL     OW15457   3.139   1.140   2.717
 4853SOL    HW115458   3.149   1.145   2.816
 4853SOL    HW215459   3.109   1.048   2.691
 4854SOL     OW15460   5.012   7.000   2.374
 4854SOL    HW115461   4.999   7.015   2.276
 4854SOL    HW215462   4.947   6.931   2.405
 4855SOL     OW15463   5.562   2.819   2.172
 4855SOL    HW115464   5.662   2.821   2.179
 4855SOL    HW215465   5.522   2.863   2.253
 4856SOL     OW15466   2.267   4.108   2.447
 4856SOL    HW115467   2.353   4.145   2.413
 4856SOL    HW215468   2.229   4.045   2.379
 4857SOL     OW15469   2.437   3.179   5.515
 4857SOL    HW115470   2.509   3.233   5.472
 4857SOL    HW215471   2.428   3.092   5.467
 4858SOL     OW15472   1.331   1.453   4.641
 4858SOL    HW115473   1.279   1.421   4.720
 4858SOL    HW215474   1.368   1.375   4.591
 4859SOL     OW15475   1.474   0.843   4.406
 4859SOL    HW115476   1.511   0.774   4.468
 4859SOL    HW215477   1.386   0.812   4.370
 4860SOL     OW15478   3.884   4.811   2.038
 4860SOL    HW115479   3.785   4.794   2.034
 4860SOL    HW215480   3.931   4.752   1.973
 4861SOL     OW15481   5.168   4.955   0.289
 4861SOL    HW115482   5.091   4.937   0.351
 4861SOL    HW215483   5.224   4.873   0.281
 4862SOL     OW15484   2.866   4.858   4.847
 4862SOL    HW115485   2.780   4.908   4.860
 4862SOL    HW215486   2.868   4.777   4.905
 4863SOL     OW15487   6.012   4.392   1.697
 4863SOL    HW115488   5.984   4.373   1.603
 4863SOL    HW215489   6.090   4.335   1.721
 4864SOL     OW15490   4.122   1.262   3.633
 4864SOL    HW115491   4.023   1.267   3.646
 4864SOL    HW215492   4.158   1.183   3.682
 4865SOL     OW15493   2.318   0.538   5.750
 4865SOL    HW115494   2.375   0.513   5.672
 4865SOL    HW215495   2.240   0.593   5.718
 4866SOL     OW15496   0.320   2.589   0.495
 4866SOL    HW115497   0.366   2.632   0.573
 4866SOL    HW215498   0.251   2.525   0.528
 4867SOL     OW15499   3.991   5.029   3.285
 4867SOL    HW115500   3.982   4.938   3.245
 4867SOL    HW215501   3.974   5.025   3.383
 4868SOL     OW15502   6.866   5.399   2.904
 4868SOL    HW115503   6.801   5.418   2.978
 4868SOL    HW215504   6.816   5.372   2.822
 4869SOL     OW15505   1.031   1.761   2.488
 4869SOL    HW115506   1.067   1.786   2.578
 4869SOL    HW215507   1.050   1.835   2.423
 4870SOL     OW15508   0.354   6.202   1.973
 4870SOL    HW115509   0.429   6.262   1.944
 4870SOL    HW215510   0.383   6.106   1.966
 4871SOL     OW15511   1.689   0.907   3.694
 4871SOL    HW115512   1.737   0.854   3.624
 4871SOL    HW215513   1.671   0.999   3.659
 4872SOL     OW15514   6.442   0.323   3.611
 4872SOL    HW115515   6.362   0.346   3.666
 4872SOL    HW215516   6.451   0.388   3.536
 4873SOL     OW15517   6.457   5.294   4.005
 4873SOL    HW115518   6.367   5.307   3.965
 4873SOL    HW215519   6.482   5.197   4.001
 4874SOL     OW15520   5.889   3.870   1.954
 4874SOL    HW115521   5.878   3.961   1.994
 4874SOL    HW215522   5.931   3.808   2.021
 4875SOL     OW15523   6.045   1.605   0.664
 4875SOL    HW115524   6.113   1.534   0.679
 4875SOL    HW215525   5.955   1.571   0.692
 4876SOL     OW15526   6.103   2.217   2.770
 4876SOL    HW115527   6.092   2.304   2.722
 4876SOL    HW215528   6.037   2.151   2.735
 4877SOL     OW15529   1.596   2.052   5.654
 4877SOL    HW115530   1.591   2.056   5.754
 4877SOL    HW215531   1.565   1.962   5.623
 4878SOL     OW15532   6.240   0.986   1.853
 4878SOL    HW115533   6.334   0.986   1.886
 4878SOL    HW215534   6.177   0.987   1.931
 4879SOL     OW15535   4.546   2.030   2.648
 4879SOL    HW115536   4.484   1.979   2.590
 4879SOL    HW215537   4.567   1.977   2.730
 4880SOL     OW15538   5.322   3.602   6.987
 4880SOL    HW115539   5.247   3.569   6.929
 4880SOL    HW215540   5.382   3.526   7.010
 4881SOL     OW15541   1.476   1.185   7.003
 4881SOL    HW115542   1.456   1.143   6.915
 4881SOL    HW215543   1.390   1.204   0.033
 4882SOL     OW15544   4.800   0.567   4.854
 4882SOL    HW115545   4.812   0.476   4.893
 4882SOL    HW215546   4.879   0.589   4.796
 4883SOL     OW15547   5.058   4.876   1.455
 4883SOL    HW115548   5.145   4.852   1.497
 4883SOL    HW215549   5.021   4.958   1.499
 4884SOL     OW15550   3.185   6.150   1.674
 4884SOL    HW115551   3.112   6.173   1.611
 4884SOL    HW215552   3.223   6.060   1.650
 4885SOL     OW15553   2.316   5.073   1.448
 4885SOL    HW115554   2.263   5.082   1.532
 4885SOL    HW215555   2.259   5.035   1.375
 4886SOL     OW15556   1.973   5.876   1.665
 4886SOL    HW115557   1.934   5.784   1.673
 4886SOL    HW215558   1.947   5.915   1.577
 4887SOL     OW15559   6.858   7.013   1.625
 4887SOL    HW115560   6.911   6.928   1.622
 4887SOL    HW215561   6.845   0.023   1.720
 4888SOL     OW15562   2.884   0.543   4.738
 4888SOL    HW115563   2.902   0.477   4.665
 4888SOL    HW215564   2.824   0.502   4.807
 4889SOL     OW15565   6.748   1.287   5.344
 4889SOL    HW115566   6.827   1.230   5.319
 4889SOL    HW215567   6.671   1.228   5.369
 4890SOL     OW15568   6.910   1.346   6.070
 4890SOL    HW115569   6.957   1.374   6.154
 4890SOL    HW215570   6.889   1.426   6.015
 4891SOL     OW15571   1.640   4.531   0.306
 4891SOL    HW115572   1.722   4.569   0.347
 4891SOL    HW215573   1.652   4.432   0.291
 4892SOL     OW15574   3.697   5.642   2.356
 4892SOL    HW115575   3.769   5.584   2.317
 4892SOL    HW215576   3.617   5.586   2.376
 4893SOL     OW15577   6.460   2.496   1.444
 4893SOL    HW115578   6.449   2.397   1.436
 4893SOL    HW215579   6.370   2.539   1.455
 4894SOL     OW15580   3.718   0.952   2.463
 4894SOL    HW115581   3.630   0.997   2.449
 4894SOL    HW215582   3.721   0.915   2.555
 4895SOL     OW15583   0.776   4.971   4.434
 4895SOL    HW115584   0.748   4.953   4.339
 4895SOL    HW215585   0.705   4.938   4.496
 4896SOL     OW15586   2.272   4.190   1.775
 4896SOL    HW115587   2.275   4.149   1.866
 4896SOL    HW215588   2.183   4.235   1.762
 4897SOL     OW15589   1.843   5.019   5.894
 4897SOL    HW115590   1.871   4.971   5.977
 4897SOL    HW215591   1.882   4.972   5.814
 4898SOL     OW15592   4.566   0.992   4.801
 4898SOL    HW115593   4.649   1.024   4.756
 4898SOL    HW215594   4.510   0.941   4.735
 4899SOL     OW15595   5.892   5.330   2.853
 4899SOL    HW115596   5.812   5.271   2.848
 4899SOL    HW215597   5.923   5.337   2.948
 4900SOL     OW15598   3.281   6.302   4.961
 4900SOL    HW115599   3.337   6.251   5.027
 4900SOL    HW215600   3.340   6.334   4.886
 4901SOL     OW15601   2.849   1.593   5.578
 4901SOL    HW115602   2.776   1.537   5.540
 4901SOL    HW215603   2.933   1.579   5.525
 4902SOL     OW15604   1.881   1.607   5.335
 4902SOL    HW115605   1.839   1.690   5.298
 4902SOL    HW215606   1.980   1.615   5.331
 4903SOL     OW15607   3.553   5.548   0.505
 4903SOL    HW115608   3.583   5.608   0.579
 4903SOL    HW215609   3.611   5.563   0.425
 4904SOL     OW15610   2.077   0.534   5.370
 4904SOL    HW115611   2.086   0.467   5.443
 4904SOL    HW215612   2.001   0.596   5.391
 4905SOL     OW15613   3.331   0.602   3.404
 4905SOL    HW115614   3.302   0.691   3.440
 4905SOL    HW215615   3.325   0.604   3.304
 4906SOL     OW15616   5.067   1.597   6.574
 4906SOL    HW115617   5.063   1.691   6.606
 4906SOL    HW215618   4.983   1.575   6.523
 4907SOL     OW15619   4.396   6.442   2.247
 4907SOL    HW115620   4.302   6.472   2.260
 4907SOL    HW215621   4.406   6.401   2.156
 4908SOL     OW15622   5.633   6.503   6.868
 4908SOL    HW115623   5.671   6.569   6.932
 4908SOL    HW215624   5.705   6.470   6.807
 4909SOL     OW15625   0.621   6.253   3.741
 4909SOL    HW115626   0.662   6.231   3.830
 4909SOL    HW215627   0.614   6.353   3.732
 4910SOL     OW15628   5.268   1.178   4.355
 4910SOL    HW115629   5.214   1.122   4.292
 4910SOL    HW215630   5.309   1.254   4.304
 4911SOL     OW15631   1.706   4.202   3.193
 4911SOL    HW115632   1.736   4.293   3.162
 4911SOL    HW215633   1.755   4.132   3.141
 4912SOL     OW15634   5.690   0.949   6.120
 4912SOL    HW115635   5.751   0.891   6.175
 4912SOL    HW215636   5.661   1.028   6.175
 4913SOL     OW15637   4.037   3.209   5.041
 4913SOL    HW115638   4.073   3.217   4.948
 4913SOL    HW215639   3.999   3.117   5.053
 4914SOL     OW15640   4.129   6.820   4.878
 4914SOL    HW115641   4.196   6.826   4.951
 4914SOL    HW215642   4.130   6.905   4.824
 4915SOL     OW15643   2.911   5.466   5.905
 4915SOL    HW115644   2.879   5.449   5.998
 4915SOL    HW215645   2.978   5.541   5.906
 4916SOL     OW15646   1.228   0.767   4.065
 4916SOL    HW115647   1.302   0.800   4.007
 4916SOL    HW215648   1.156   0.728   4.008
 4917SOL     OW15649   2.384   5.326   1.294
 4917SOL    HW115650   2.483   5.336   1.307
 4917SOL    HW215651   2.348   5.261   1.362
 4918SOL     OW15652   5.325   6.668   2.018
 4918SOL    HW115653   5.248   6.707   1.968
 4918SOL    HW215654   5.399   6.646   1.954
 4919SOL     OW15655   3.783   2.673   0.343
 4919SOL    HW115656   3.757   2.714   0.431
 4919SOL    HW215657   3.870   2.624   0.354
 4920SOL     OW15658   5.344   0.222   4.750
 4920SOL    HW115659   5.271   0.190   4.689
 4920SOL    HW215660   5.364   0.152   4.817
 4921SOL     OW15661   1.161   5.751   7.007
 4921SOL    HW115662   1.067   5.719   7.000
 4921SOL    HW215663   1.206   5.706   0.066
 4922SOL     OW15664   2.877   2.230   4.831
 4922SOL    HW115665   2.797   2.277   4.868
 4922SOL    HW215666   2.959   2.261   4.877
 4923SOL     OW15667   3.506   1.369   2.270
 4923SOL    HW115668   3.428   1.416   2.229
 4923SOL    HW215669   3.590   1.418   2.246
 4924SOL     OW15670   3.397   1.243   5.063
 4924SOL    HW115671   3.383   1.334   5.023
 4924SOL    HW215672   3.311   1.193   5.062
 4925SOL     OW15673   6.343   0.239   2.279
 4925SOL    HW115674   6.395   0.311   2.324
 4925SOL    HW215675   6.280   0.197   2.344
 4926SOL     OW15676   5.118   1.327   0.933
 4926SOL    HW115677   5.131   1.370   1.022
 4926SOL    HW215678   5.061   1.386   0.876
 4927SOL     OW15679   3.510   3.740   4.646
 4927SOL    HW115680   3.588   3.681   4.665
 4927SOL    HW215681   3.455   3.701   4.572
 4928SOL     OW15682   1.551   0.313   6.711
 4928SOL    HW115683   1.602   0.398   6.725
 4928SOL    HW215684   1.515   0.310   6.618
 4929SOL     OW15685   6.478   6.818   4.500
 4929SOL    HW115686   6.449   6.726   4.475
 4929SOL    HW215687   6.401   6.880   4.494
 4930SOL     OW15688   5.499   0.922   3.187
 4930SOL    HW115689   5.539   0.968   3.108
 4930SOL    HW215690   5.551   0.947   3.269
 4931SOL     OW15691   6.951   6.622   1.250
 4931SOL    HW115692   6.999   6.556   1.193
 4931SOL    HW215693   6.913   6.694   1.193
 4932SOL     OW15694   3.646   3.279   2.118
 4932SOL    HW115695   3.623   3.246   2.210
 4932SOL    HW215696   3.594   3.227   2.050
 4933SOL     OW15697   2.354   6.739   2.133
 4933SOL    HW115698   2.417   6.733   2.056
 4933SOL    HW215699   2.398   6.700   2.214
 4934SOL     OW15700   3.380   5.249   3.137
 4934SOL    HW115701   3.346   5.327   3.189
 4934SOL    HW215702   3.324   5.236   3.055
 4935SOL     OW15703   1.512   2.112   6.333
 4935SOL    HW115704   1.510   2.014   6.314
 4935SOL    HW215705   1.595   2.152   6.295
 4936SOL     OW15706   3.135   5.323   1.336
 4936SOL    HW115707   3.187   5.258   1.280
 4936SOL    HW215708   3.058   5.358   1.283
 4937SOL     OW15709   5.859   2.999   6.110
 4937SOL    HW115710   5.928   2.931   6.136
 4937SOL    HW215711   5.888   3.089   6.141
 4938SOL     OW15712   2.126   5.505   5.732
 4938SOL    HW115713   2.165   5.534   5.644
 4938SOL    HW215714   2.155   5.411   5.752
 4939SOL     OW15715   5.729   2.211   4.684
 4939SOL    HW115716   5.708   2.228   4.587
 4939SOL    HW215717   5.758   2.116   4.695
 4940SOL     OW15718   0.782   1.127   4.882
 4940SOL    HW115719   0.881   1.117   4.893
 4940SOL    HW215720   0.764   1.183   4.801
 4941SOL     OW15721   4.617   1.963   5.804
 4941SOL    HW115722   4.671   2.046   5.816
 4941SOL    HW215723   4.566   1.969   5.718
 4942SOL     OW15724   5.280   2.961   5.759
 4942SOL    HW115725   5.233   3.049   5.772
 4942SOL    HW215726   5.319   2.931   5.845
 4943SOL     OW15727   4.452   3.203   6.992
 4943SOL    HW115728   4.407   3.270   6.934
 4943SOL    HW215729   4.384   3.158   0.032
 4944SOL     OW15730   1.933   4.384   2.028
 4944SOL    HW115731   2.033   4.380   2.029
 4944SOL    HW215732   1.902   4.448   2.099
 4945SOL     OW15733   1.192   1.323   3.747
 4945SOL    HW115734   1.211   1.228   3.723
 4945SOL    HW215735   1.205   1.336   3.845
 4946SOL     OW15736   0.351   3.260   1.121
 4946SOL    HW115737   0.282   3.264   1.192
 4946SOL    HW215738   0.367   3.165   1.095
 4947SOL     OW15739   1.927   0.985   1.505
 4947SOL    HW115740   1.996   1.005   1.575
 4947SOL    HW215741   1.937   1.051   1.430
 4948SOL     OW15742   1.950   1.020   2.936
 4948SOL    HW115743   2.036   1.071   2.937
 4948SOL    HW215744   1.967   0.929   2.898
 4949SOL     OW15745   4.121   6.393   6.499
 4949SOL    HW115746   4.099   6.317   6.561
 4949SOL    HW215747   4.083   6.374   6.408
 4950SOL     OW15748   3.058   5.594   4.551
 4950SOL    HW115749   3.120   5.518   4.569
 4950SOL    HW215750   3.108   5.680   4.556
 4951SOL     OW15751   5.354   1.483   4.463
 4951SOL    HW115752   5.302   1.497   4.548
 4951SOL    HW215753   5.318   1.543   4.391
 4952SOL     OW15754   0.008   0.536   5.087
 4952SOL    HW115755   0.100   0.518   5.121
 4952SOL    HW215756   0.012   0.552   4.988
 4953SOL     OW15757   2.076   6.706   2.052
 4953SOL    HW115758   2.033   6.699   2.143
 4953SOL    HW215759   2.170   6.739   2.062
 4954SOL     OW15760   4.349   3.914   6.867
 4954SOL    HW115761   4.270   3.931   6.926
 4954SOL    HW215762   4.421   3.868   6.920
 4955SOL     OW15763   2.147   6.179   6.539
 4955SOL    HW115764   2.119   6.223   6.624
 4955SOL    HW215765   2.090   6.213   6.464
 4956SOL     OW15766   2.595   6.920   4.849
 4956SOL    HW115767   2.618   6.835   4.897
 4956SOL    HW215768   2.587   6.902   4.751
 4957SOL     OW15769   0.258   1.742   3.060
 4957SOL    HW115770   0.177   1.797   3.078
 4957SOL    HW215771   0.319   1.792   2.999
 4958SOL     OW15772   6.824   6.291   5.523
 4958SOL    HW115773   6.743   6.318   5.471
 4958SOL    HW215774   6.863   6.208   5.483
 4959SOL     OW15775   6.823   1.797   6.812
 4959SOL    HW115776   6.836   1.859   6.736
 4959SOL    HW215777   6.892   1.725   6.809
 4960SOL     OW15778   3.147   5.937   3.990
 4960SOL    HW115779   3.213   5.908   3.921
 4960SOL    HW215780   3.188   6.008   4.048
 4961SOL     OW15781   4.964   1.520   5.767
 4961SOL    HW115782   4.910   1.604   5.771
 4961SOL    HW215783   4.922   1.451   5.826
 4962SOL     OW15784   6.058   2.502   0.953
 4962SOL    HW115785   5.990   2.442   0.912
 4962SOL    HW215786   6.149   2.461   0.943
 4963SOL     OW15787   6.528   6.094   6.879
 4963SOL    HW115788   6.606   6.082   6.941
 4963SOL    HW215789   6.460   6.153   6.923
 4964SOL     OW15790   3.567   6.965   3.521
 4964SOL    HW115791   3.575   6.985   3.618
 4964SOL    HW215792   3.649   6.997   3.473
 4965SOL     OW15793   0.123   0.431   3.563
 4965SOL    HW115794   0.024   0.429   3.548
 4965SOL    HW215795   0.160   0.339   3.550
 4966SOL     OW15796   1.774   0.365   5.139
 4966SOL    HW115797   1.743   0.309   5.216
 4966SOL    HW215798   1.847   0.318   5.090
 4967SOL     OW15799   4.105   3.271   5.856
 4967SOL    HW115800   4.201   3.299   5.861
 4967SOL    HW215801   4.100   3.176   5.824
 4968SOL     OW15802   5.780   2.937   3.308
 4968SOL    HW115803   5.705   3.001   3.321
 4968SOL    HW215804   5.768   2.859   3.370
 4969SOL     OW15805   2.087   1.120   2.170
 4969SOL    HW115806   2.092   1.090   2.075
 4969SOL    HW215807   2.036   1.206   2.174
 4970SOL     OW15808   1.724   2.218   4.454
 4970SOL    HW115809   1.692   2.192   4.545
 4970SOL    HW215810   1.670   2.170   4.384
 4971SOL     OW15811   6.000   6.010   3.632
 4971SOL    HW115812   5.919   6.047   3.587
 4971SOL    HW215813   6.041   5.940   3.574
 4972SOL     OW15814   1.450   2.969   0.715
 4972SOL    HW115815   1.456   2.885   0.769
 4972SOL    HW215816   1.532   2.979   0.660
 4973SOL     OW15817   0.096   0.193   2.071
 4973SOL    HW115818   0.125   0.148   2.155
 4973SOL    HW215819   0.139   0.149   1.992
 4974SOL     OW15820   6.016   4.580   0.863
 4974SOL    HW115821   5.980   4.670   0.836
 4974SOL    HW215822   6.053   4.586   0.956
 4975SOL     OW15823   5.244   5.370   6.289
 4975SOL    HW115824   5.161   5.371   6.233
 4975SOL    HW215825   5.223   5.337   6.381
 4976SOL     OW15826   3.007   0.027   4.980
 4976SOL    HW115827   3.022   6.950   4.952
 4976SOL    HW215828   2.910   0.049   4.969
 4977SOL     OW15829   5.081   4.028   0.382
 4977SOL    HW115830   4.996   4.061   0.339
 4977SOL    HW215831   5.076   4.043   0.480
 4978SOL     OW15832   6.994   3.632   5.477
 4978SOL    HW115833   7.012   3.698   5.404
 4978SOL    HW215834   6.951   3.550   5.438
 4979SOL     OW15835   0.144   1.173   5.351
 4979SOL    HW115836   0.196   1.089   5.370
 4979SOL    HW215837   0.114   1.213   5.438
 4980SOL     OW15838   4.559   0.421   3.497
 4980SOL    HW115839   4.461   0.427   3.477
 4980SOL    HW215840   4.603   0.506   3.469
 4981SOL     OW15841   4.471   5.455   5.985
 4981SOL    HW115842   4.421   5.371   5.961
 4981SOL    HW215843   4.562   5.453   5.943
 4982SOL     OW15844   1.921   2.146   0.064
 4982SOL    HW115845   1.992   2.085   0.028
 4982SOL    HW215846   1.870   2.100   0.136
 4983SOL     OW15847   5.055   2.758   3.980
 4983SOL    HW115848   5.026   2.852   4.000
 4983SOL    HW215849   5.005   2.695   4.038
 4984SOL     OW15850   5.454   3.883   4.251
 4984SOL    HW115851   5.515   3.836   4.187
 4984SOL    HW215852   5.496   3.970   4.279
 4985SOL     OW15853   6.299   6.142   3.412
 4985SOL    HW115854   6.383   6.178   3.453
 4985SOL    HW215855   6.321   6.097   3.326
 4986SOL     OW15856   6.760   4.103   3.148
 4986SOL    HW115857   6.667   4.067   3.144
 4986SOL    HW215858   6.794   4.097   3.242
 4987SOL     OW15859   0.895   1.978   1.211
 4987SOL    HW115860   0.825   1.911   1.232
 4987SOL    HW215861   0.941   2.007   1.295
 4988SOL     OW15862   6.322   1.980   3.503
 4988SOL    HW115863   6.231   1.983   3.463
 4988SOL    HW215864   6.384   2.038   3.449
 4989SOL     OW15865   5.221   0.590   1.012
 4989SOL    HW115866   5.301   0.616   1.066
 4989SOL    HW215867   5.216   0.647   0.930
 4990SOL     OW15868   1.734   1.496   6.019
 4990SOL    HW115869   1.676   1.424   6.058
 4990SOL    HW215870   1.752   1.565   6.088
 4991SOL     OW15871   0.693   3.466   4.086
 4991SOL    HW115872   0.771   3.469   4.149
 4991SOL    HW215873   0.672   3.559   4.056
 4992SOL     OW15874   5.037   1.063   4.225
 4992SOL    HW115875   5.059   0.966   4.212
 4992SOL    HW215876   5.007   1.103   4.139
 4993SOL     OW15877   3.262   5.662   4.236
 4993SOL    HW115878   3.313   5.589   4.191
 4993SOL    HW215879   3.319   5.744   4.241
 4994SOL     OW15880   1.354   0.516   2.233
 4994SOL    HW115881   1.359   0.557   2.324
 4994SOL    HW215882   1.446   0.512   2.194
 4995SOL     OW15883   6.490   2.535   5.905
 4995SOL    HW115884   6.458   2.501   5.817
 4995SOL    HW215885   6.460   2.473   5.978
 4996SOL     OW15886   1.414   1.328   2.813
 4996SOL    HW115887   1.469   1.313   2.732
 4996SOL    HW215888   1.327   1.370   2.786
 4997SOL     OW15889   6.294   2.004   2.776
 4997SOL    HW115890   6.250   2.093   2.788
 4997SOL    HW215891   6.390   2.018   2.751
 4998SOL     OW15892   2.127   3.770   4.861
 4998SOL    HW115893   2.208   3.806   4.908
 4998SOL    HW215894   2.061   3.736   4.929
 4999SOL     OW15895   5.582   5.245   0.863
 4999SOL    HW115896   5.661   5.238   0.802
 4999SOL    HW215897   5.533   5.331   0.845
 5000SOL     OW15898   1.592   0.153   4.170
 5000SOL    HW115899   1.521   0.086   4.188
 5000SOL    HW215900   1.554   0.245   4.175
 5001SOL     OW15901   1.350   4.019   6.030
 5001SOL    HW115902   1.307   4.069   5.956
 5001SOL    HW215903   1.283   4.002   6.103
 5002SOL     OW15904   1.471   3.507   3.019
 5002SOL    HW115905   1.519   3.514   2.932
 5002SOL    HW215906   1.380   3.548   3.011
 5003SOL     OW15907   1.933   6.703   2.957
 5003SOL    HW115908   1.921   6.714   3.055
 5003SOL    HW215909   2.011   6.642   2.940
 5004SOL     OW15910   2.930   4.850   5.166
 5004SOL    HW115911   2.857   4.895   5.115
 5004SOL    HW215912   2.921   4.751   5.156
 5005SOL     OW15913   3.294   2.742   0.662
 5005SOL    HW115914   3.336   2.804   0.595
 5005SOL    HW215915   3.257   2.662   0.615
 5006SOL     OW15916   5.399   6.524   7.015
 5006SOL    HW115917   5.468   6.514   6.943
 5006SOL    HW215918   5.346   6.608   6.999
 5007SOL     OW15919   2.139   0.424   6.711
 5007SOL    HW115920   2.073   0.401   6.640
 5007SOL    HW215921   2.173   0.340   6.753
 5008SOL     OW15922   6.633   0.739   3.601
 5008SOL    HW115923   6.698   0.664   3.589
 5008SOL    HW215924   6.677   0.813   3.651
 5009SOL     OW15925   2.139   6.622   1.796
 5009SOL    HW115926   2.100   6.650   1.885
 5009SOL    HW215927   2.238   6.625   1.801
 5010SOL     OW15928   3.222   3.042   3.434
 5010SOL    HW115929   3.256   3.134   3.455
 5010SOL    HW215930   3.174   3.043   3.347
 5011SOL     OW15931   1.883   3.559   2.012
 5011SOL    HW115932   1.804   3.516   1.969
 5011SOL    HW215933   1.924   3.624   1.949
 5012SOL     OW15934   5.154   3.202   5.798
 5012SOL    HW115935   5.127   3.213   5.703
 5012SOL    HW215936   5.074   3.207   5.857
 5013SOL     OW15937   5.271   2.144   6.909
 5013SOL    HW115938   5.346   2.092   6.868
 5013SOL    HW215939   5.309   2.216   6.968
 5014SOL     OW15940   5.506   4.820   0.450
 5014SOL    HW115941   5.580   4.783   0.394
 5014SOL    HW215942   5.423   4.828   0.394
 5015SOL     OW15943   4.577   2.209   3.984
 5015SOL    HW115944   4.633   2.135   3.946
 5015SOL    HW215945   4.621   2.297   3.964
 5016SOL     OW15946   2.751   1.746   1.639
 5016SOL    HW115947   2.829   1.802   1.608
 5016SOL    HW215948   2.785   1.660   1.676
 5017SOL     OW15949   2.105   2.191   0.379
 5017SOL    HW115950   2.156   2.185   0.465
 5017SOL    HW215951   2.148   2.259   0.320
 5018SOL     OW15952   0.839   4.733   1.446
 5018SOL    HW115953   0.839   4.819   1.497
 5018SOL    HW215954   0.773   4.670   1.486
 5019SOL     OW15955   2.361   4.166   6.991
 5019SOL    HW115956   2.281   4.147   6.935
 5019SOL    HW215957   2.344   4.138   0.067
 5020SOL     OW15958   4.386   6.206   5.566
 5020SOL    HW115959   4.300   6.244   5.531
 5020SOL    HW215960   4.396   6.112   5.533
 5021SOL     OW15961   1.678   2.492   5.435
 5021SOL    HW115962   1.726   2.518   5.352
 5021SOL    HW215963   1.585   2.465   5.413
 5022SOL     OW15964   1.986   0.458   0.929
 5022SOL    HW115965   1.945   0.464   0.838
 5022SOL    HW215966   1.952   0.377   0.976
 5023SOL     OW15967   6.591   2.866   1.319
 5023SOL    HW115968   6.641   2.901   1.241
 5023SOL    HW215969   6.528   2.794   1.289
 5024SOL     OW15970   6.782   4.136   2.869
 5024SOL    HW115971   6.858   4.182   2.823
 5024SOL    HW215972   6.791   4.147   2.968
 5025SOL     OW15973   4.076   1.953   1.884
 5025SOL    HW115974   4.086   2.027   1.817
 5025SOL    HW215975   4.090   1.865   1.838
 5026SOL     OW15976   5.520   5.572   6.331
 5026SOL    HW115977   5.575   5.632   6.273
 5026SOL    HW215978   5.423   5.595   6.320
 5027SOL     OW15979   0.469   0.220   2.052
 5027SOL    HW115980   0.466   0.242   2.150
 5027SOL    HW215981   0.451   0.123   2.040
 5028SOL     OW15982   0.210   6.678   2.704
 5028SOL    HW115983   0.271   6.746   2.745
 5028SOL    HW215984   0.264   6.605   2.663
 5029SOL     OW15985   6.382   3.002   4.042
 5029SOL    HW115986   6.409   2.924   4.099
 5029SOL    HW215987   6.283   3.018   4.051
 5030SOL     OW15988   6.642   0.614   6.923
 5030SOL    HW115989   6.609   0.691   6.869
 5030SOL    HW215990   6.737   0.629   6.949
 5031SOL     OW15991   5.554   1.326   5.007
 5031SOL    HW115992   5.606   1.368   4.933
 5031SOL    HW215993   5.615   1.311   5.086
 5032SOL     OW15994   1.180   4.068   1.484
 5032SOL    HW115995   1.153   4.040   1.392
 5032SOL    HW215996   1.128   4.149   1.511
 5033SOL     OW15997   1.668   4.529   6.537
 5033SOL    HW115998   1.723   4.503   6.458
 5033SOL    HW215999   1.576   4.556   6.507
 5034SOL     OW16000   6.469   3.207   2.615
 5034SOL    HW116001   6.456   3.305   2.633
 5034SOL    HW216002   6.561   3.180   2.644
 5035SOL     OW16003   5.970   4.281   0.588
 5035SOL    HW116004   5.997   4.306   0.681
 5035SOL    HW216005   5.889   4.332   0.562
 5036SOL     OW16006   0.479   5.140   6.580
 5036SOL    HW116007   0.456   5.101   6.670
 5036SOL    HW216008   0.447   5.078   6.509
 5037SOL     OW16009   4.582   2.575   2.247
 5037SOL    HW116010   4.567   2.507   2.175
 5037SOL    HW216011   4.632   2.653   2.210
 5038SOL     OW16012   1.731   5.057   5.609
 5038SOL    HW116013   1.688   5.061   5.519
 5038SOL    HW216014   1.681   5.116   5.673
 5039SOL     OW16015   2.114   3.546   5.281
 5039SOL    HW116016   2.133   3.636   5.241
 5039SOL    HW216017   2.107   3.478   5.207
 5040SOL     OW16018   2.213   4.286   6.184
 5040SOL    HW116019   2.251   4.332   6.264
 5040SOL    HW216020   2.287   4.263   6.120
 5041SOL     OW16021   1.156   3.533   1.254
 5041SOL    HW116022   1.210   3.453   1.279
 5041SOL    HW216023   1.078   3.542   1.315
 5042SOL     OW16024   0.224   2.977   6.744
 5042SOL    HW116025   0.245   3.036   6.823
 5042SOL    HW216026   0.134   3.001   6.708
 5043SOL     OW16027   3.459   0.984   5.427
 5043SOL    HW116028   3.497   1.062   5.377
 5043SOL    HW216029   3.411   1.016   5.508
 5044SOL     OW16030   6.167   7.016   3.051
 5044SOL    HW116031   6.091   0.060   3.069
 5044SOL    HW216032   6.131   6.926   3.024
 5045SOL     OW16033   5.507   3.128   0.043
 5045SOL    HW116034   5.584   3.067   0.023
 5045SOL    HW216035   5.463   3.154   6.976
 5046SOL     OW16036   4.122   3.524   4.708
 5046SOL    HW116037   4.118   3.602   4.646
 5046SOL    HW216038   4.157   3.554   4.797
 5047SOL     OW16039   6.685   2.238   2.323
 5047SOL    HW116040   6.748   2.280   2.257
 5047SOL    HW216041   6.669   2.143   2.297
 5048SOL     OW16042   6.845   2.155   1.082
 5048SOL    HW116043   6.920   2.220   1.081
 5048SOL    HW216044   6.758   2.204   1.094
 5049SOL     OW16045   7.003   1.249   3.780
 5049SOL    HW116046   0.049   1.286   3.848
 5049SOL    HW216047   6.909   1.269   3.808
 5050SOL     OW16048   0.584   1.540   2.174
 5050SOL    HW116049   0.587   1.603   2.251
 5050SOL    HW216050   0.650   1.569   2.104
 5051SOL     OW16051   4.092   3.804   0.523
 5051SOL    HW116052   4.134   3.716   0.543
 5051SOL    HW216053   4.147   3.878   0.563
 5052SOL     OW16054   2.745   5.160   5.864
 5052SOL    HW116055   2.718   5.076   5.818
 5052SOL    HW216056   2.824   5.200   5.817
 5053SOL     OW16057   1.916   3.956   3.165
 5053SOL    HW116058   1.914   3.954   3.264
 5053SOL    HW216059   2.011   3.967   3.133
 5054SOL     OW16060   3.820   5.544   4.889
 5054SOL    HW116061   3.738   5.516   4.839
 5054SOL    HW216062   3.810   5.639   4.918
 5055SOL     OW16063   0.362   1.333   5.166
 5055SOL    HW116064   0.276   1.282   5.174
 5055SOL    HW216065   0.428   1.296   5.231
 5056SOL     OW16066   6.408   4.212   6.874
 5056SOL    HW116067   6.497   4.241   6.910
 5056SOL    HW216068   6.376   4.133   6.925
 5057SOL     OW16069   1.062   5.394   3.489
 5057SOL    HW116070   1.142   5.367   3.542
 5057SOL    HW216071   1.088   5.407   3.393
 5058SOL     OW16072   2.736   3.424   6.494
 5058SOL    HW116073   2.819   3.452   6.543
 5058SOL    HW216074   2.705   3.500   6.437
 5059SOL     OW16075   5.533   3.534   4.528
 5059SOL    HW116076   5.602   3.560   4.595
 5059SOL    HW216077   5.452   3.592   4.538
 5060SOL     OW16078   0.223   2.630   5.359
 5060SOL    HW116079   0.175   2.565   5.300
 5060SOL    HW216080   0.211   2.722   5.322
 5061SOL     OW16081   3.051   3.192   3.713
 5061SOL    HW116082   2.972   3.189   3.774
 5061SOL    HW216083   3.087   3.100   3.699
 5062SOL     OW16084   5.759   1.445   2.396
 5062SOL    HW116085   5.683   1.441   2.460
 5062SOL    HW216086   5.844   1.422   2.444
 5063SOL     OW16087   1.088   6.000   2.061
 5063SOL    HW116088   1.011   5.987   1.998
 5063SOL    HW216089   1.156   5.928   2.045
 5064SOL     OW16090   4.839   5.435   1.221
 5064SOL    HW116091   4.938   5.442   1.213
 5064SOL    HW216092   4.795   5.486   1.147
 5065SOL     OW16093   1.669   1.015   2.988
 5065SOL    HW116094   1.598   1.086   2.990
 5065SOL    HW216095   1.758   1.058   2.971
 5066SOL     OW16096   2.620   4.464   1.713
 5066SOL    HW116097   2.627   4.441   1.616
 5066SOL    HW216098   2.712   4.474   1.751
 5067SOL     OW16099   4.768   1.413   2.580
 5067SOL    HW116100   4.786   1.508   2.554
 5067SOL    HW216101   4.670   1.401   2.595
 5068SOL     OW16102   2.989   5.445   6.874
 5068SOL    HW116103   3.088   5.439   6.865
 5068SOL    HW216104   2.960   5.394   6.956
 5069SOL     OW16105   2.433   3.320   5.968
 5069SOL    HW116106   2.424   3.414   5.934
 5069SOL    HW216107   2.424   3.320   6.068
 5070SOL     OW16108   5.866   4.336   4.666
 5070SOL    HW116109   5.856   4.239   4.686
 5070SOL    HW216110   5.816   4.389   4.735
 5071SOL     OW16111   3.984   2.210   3.312
 5071SOL    HW116112   3.961   2.221   3.409
 5071SOL    HW216113   4.083   2.208   3.301
 5072SOL     OW16114   1.794   1.301   1.462
 5072SOL    HW116115   1.861   1.268   1.395
 5072SOL    HW216116   1.843   1.333   1.544
 5073SOL     OW16117   1.516   5.280   1.236
 5073SOL    HW116118   1.417   5.288   1.238
 5073SOL    HW216119   1.543   5.189   1.269
 5074SOL     OW16120   4.059   2.212   1.468
 5074SOL    HW116121   4.084   2.219   1.372
 5074SOL    HW216122   4.138   2.182   1.521
 5075SOL     OW16123   1.068   2.168   6.807
 5075SOL    HW116124   1.061   2.253   6.755
 5075SOL    HW216125   1.066   2.187   6.905
 5076SOL     OW16126   5.715   6.956   0.027
 5076SOL    HW116127   5.633   6.962   0.084
 5076SOL    HW216128   5.692   6.979   6.951
 5077SOL     OW16129   0.298   3.814   5.986
 5077SOL    HW116130   0.322   3.904   5.948
 5077SOL    HW216131   0.202   3.796   5.969
 5078SOL     OW16132   0.361   0.715   4.125
 5078SOL    HW116133   0.388   0.750   4.035
 5078SOL    HW216134   0.262   0.730   4.137
 5079SOL     OW16135   2.429   2.604   5.670
 5079SOL    HW116136   2.444   2.703   5.673
 5079SOL    HW216137   2.449   2.565   5.760
 5080SOL     OW16138   5.435   5.587   5.654
 5080SOL    HW116139   5.479   5.654   5.594
 5080SOL    HW216140   5.395   5.515   5.598
 5081SOL     OW16141   2.846   4.551   5.601
 5081SOL    HW116142   2.933   4.594   5.577
 5081SOL    HW216143   2.772   4.599   5.553
 5082SOL     OW16144   5.224   6.844   0.437
 5082SOL    HW116145   5.307   6.900   0.427
 5082SOL    HW216146   5.250   6.752   0.467
 5083SOL     OW16147   3.369   0.494   1.654
 5083SOL    HW116148   3.307   0.542   1.716
 5083SOL    HW216149   3.420   0.425   1.704
 5084SOL     OW16150   0.667   4.922   4.187
 5084SOL    HW116151   0.592   4.988   4.180
 5084SOL    HW216152   0.749   4.962   4.146
 5085SOL     OW16153   0.826   3.161   5.637
 5085SOL    HW116154   0.811   3.259   5.620
 5085SOL    HW216155   0.884   3.124   5.565
 5086SOL     OW16156   1.086   4.016   2.466
 5086SOL    HW116157   1.104   4.076   2.544
 5086SOL    HW216158   1.155   4.031   2.395
 5087SOL     OW16159   6.807   5.542   1.657
 5087SOL    HW116160   6.752   5.513   1.578
 5087SOL    HW216161   6.796   5.640   1.671
 5088SOL     OW16162   5.125   6.775   3.313
 5088SOL    HW116163   5.098   6.854   3.368
 5088SOL    HW216164   5.130   6.800   3.217
 5089SOL     OW16165   6.064   4.532   4.278
 5089SOL    HW116166   6.102   4.596   4.211
 5089SOL    HW216167   6.018   4.457   4.231
 5090SOL     OW16168   2.259   1.477   2.439
 5090SOL    HW116169   2.240   1.531   2.522
 5090SOL    HW216170   2.200   1.396   2.438
 5091SOL     OW16171   6.493   0.654   1.423
 5091SOL    HW116172   6.519   0.658   1.519
 5091SOL    HW216173   6.416   0.592   1.411
 5092SOL     OW16174   3.449   2.921   3.270
 5092SOL    HW116175   3.543   2.922   3.303
 5092SOL    HW216176   3.388   2.890   3.343
 5093SOL     OW16177   3.455   1.629   0.704
 5093SOL    HW116178   3.478   1.593   0.613
 5093SOL    HW216179   3.469   1.728   0.705
 5094SOL     OW16180   2.128   5.898   6.727
 5094SOL    HW116181   2.056   5.947   6.677
 5094SOL    HW216182   2.085   5.838   6.795
 5095SOL     OW16183   0.138   2.361   3.486
 5095SOL    HW116184   0.082   2.441   3.469
 5095SOL    HW216185   0.088   2.279   3.458
 5096SOL     OW16186   4.730   4.929   6.353
 5096SOL    HW116187   4.656   4.930   6.420
 5096SOL    HW216188   4.783   4.845   6.363
 5097SOL     OW16189   6.976   6.763   0.113
 5097SOL    HW116190   6.966   6.863   0.117
 5097SOL    HW216191   6.886   6.721   0.101
 5098SOL     OW16192   3.424   1.424   1.637
 5098SOL    HW116193   3.396   1.398   1.729
 5098SOL    HW216194   3.344   1.433   1.578
 5099SOL     OW16195   0.533   6.517   2.251
 5099SOL    HW116196   0.480   6.437   2.224
 5099SOL    HW216197   0.630   6.500   2.233
 5100SOL     OW16198   3.469   5.558   4.476
 5100SOL    HW116199   3.421   5.540   4.390
 5100SOL    HW216200   3.405   5.592   4.544
 5101SOL     OW16201   4.302   6.720   5.634
 5101SOL    HW116202   4.287   6.785   5.709
 5101SOL    HW216203   4.279   6.628   5.666
 5102SOL     OW16204   5.391   6.525   4.454
 5102SOL    HW116205   5.356   6.578   4.531
 5102SOL    HW216206   5.319   6.516   4.384
 5103SOL     OW16207   0.983   1.441   4.326
 5103SOL    HW116208   1.081   1.418   4.328
 5103SOL    HW216209   0.942   1.406   4.242
 5104SOL     OW16210   2.864   6.689   1.905
 5104SOL    HW116211   2.961   6.710   1.910
 5104SOL    HW216212   2.817   6.724   1.985
 5105SOL     OW16213   3.299   2.906   6.580
 5105SOL    HW116214   3.271   2.989   6.628
 5105SOL    HW216215   3.399   2.903   6.575
 5106SOL     OW16216   4.250   1.234   1.727
 5106SOL    HW116217   4.257   1.166   1.799
 5106SOL    HW216218   4.340   1.273   1.709
 5107SOL     OW16219   4.892   2.235   1.609
 5107SOL    HW116220   4.948   2.317   1.595
 5107SOL    HW216221   4.885   2.185   1.523
 5108SOL     OW16222   4.141   3.661   4.949
 5108SOL    HW116223   4.103   3.752   4.932
 5108SOL    HW216224   4.069   3.600   4.981
 5109SOL     OW16225   1.278   2.146   0.448
 5109SOL    HW116226   1.186   2.153   0.409
 5109SOL    HW216227   1.280   2.072   0.515
 5110SOL     OW16228   0.957   0.760   6.192
 5110SOL    HW116229   0.875   0.703   6.182
 5110SOL    HW216230   0.941   0.829   6.263
 5111SOL     OW16231   1.800   0.058   4.031
 5111SOL    HW116232   1.713   0.088   4.070
 5111SOL    HW216233   1.856   0.137   4.008
 5112SOL     OW16234   0.576   0.249   2.783
 5112SOL    HW116235   0.601   0.322   2.719
 5112SOL    HW216236   0.656   0.191   2.801
 5113SOL     OW16237   1.457   5.787   1.523
 5113SOL    HW116238   1.450   5.698   1.566
 5113SOL    HW216239   1.375   5.804   1.468
 5114SOL     OW16240   3.934   6.771   6.636
 5114SOL    HW116241   4.002   6.789   6.707
 5114SOL    HW216242   3.885   6.856   6.614
 5115SOL     OW16243   1.276   4.859   2.864
 5115SOL    HW116244   1.217   4.778   2.866
 5115SOL    HW216245   1.371   4.831   2.848
 5116SOL     OW16246   0.825   6.596   0.921
 5116SOL    HW116247   0.924   6.611   0.931
 5116SOL    HW216248   0.801   6.505   0.955
 5117SOL     OW16249   0.636   3.702   3.986
 5117SOL    HW116250   0.669   3.793   4.014
 5117SOL    HW216251   0.542   3.710   3.953
 5118SOL     OW16252   5.276   0.694   0.212
 5118SOL    HW116253   5.206   0.765   0.204
 5118SOL    HW216254   5.338   0.699   0.134
 5119SOL     OW16255   4.620   0.900   2.627
 5119SOL    HW116256   4.704   0.919   2.678
 5119SOL    HW216257   4.543   0.891   2.691
 5120SOL     OW16258   4.337   6.900   5.036
 5120SOL    HW116259   4.387   6.981   5.069
 5120SOL    HW216260   4.306   6.847   5.115
 5121SOL     OW16261   3.396   2.985   0.028
 5121SOL    HW116262   3.469   2.975   0.095
 5121SOL    HW216263   3.369   3.081   0.023
 5122SOL     OW16264   3.344   6.232   3.248
 5122SOL    HW116265   3.386   6.156   3.198
 5122SOL    HW216266   3.265   6.198   3.299
 5123SOL     OW16267   5.481   1.801   4.284
 5123SOL    HW116268   5.505   1.753   4.368
 5123SOL    HW216269   5.391   1.844   4.295
 5124SOL     OW16270   1.966   5.854   4.347
 5124SOL    HW116271   1.891   5.861   4.413
 5124SOL    HW216272   1.954   5.771   4.292
 5125SOL     OW16273   6.298   2.954   3.096
 5125SOL    HW116274   6.293   3.019   3.020
 5125SOL    HW216275   6.304   3.003   3.182
 5126SOL     OW16276   6.849   5.782   6.988
 5126SOL    HW116277   6.901   5.697   6.987
 5126SOL    HW216278   6.838   5.816   6.895
 5127SOL     OW16279   0.061   3.800   0.076
 5127SOL    HW116280   0.103   3.831   7.008
 5127SOL    HW216281   6.982   3.780   0.061
 5128SOL     OW16282   0.487   0.024   0.313
 5128SOL    HW116283   0.529   6.992   0.237
 5128SOL    HW216284   0.459   6.977   0.384
 5129SOL     OW16285   6.349   6.803   2.805
 5129SOL    HW116286   6.377   6.750   2.725
 5129SOL    HW216287   6.430   6.843   2.848
 5130SOL     OW16288   6.778   5.686   2.637
 5130SOL    HW116289   6.756   5.720   2.546
 5130SOL    HW216290   6.694   5.653   2.682
 5131SOL     OW16291   1.999   3.661   4.419
 5131SOL    HW116292   1.992   3.728   4.345
 5131SOL    HW216293   1.958   3.575   4.389
 5132SOL     OW16294   4.000   2.584   5.988
 5132SOL    HW116295   4.088   2.627   6.007
 5132SOL    HW216296   3.952   2.638   5.919
 5133SOL     OW16297   1.823   4.965   0.045
 5133SOL    HW116298   1.813   4.986   0.142
 5133SOL    HW216299   1.754   5.016   7.011
 5134SOL     OW16300   6.666   2.932   2.153
 5134SOL    HW116301   6.644   2.840   2.184
 5134SOL    HW216302   6.704   2.985   2.229
 5135SOL     OW16303   6.178   2.577   5.214
 5135SOL    HW116304   6.093   2.561   5.265
 5135SOL    HW216305   6.175   2.667   5.171
 5136SOL     OW16306   4.684   0.581   6.321
 5136SOL    HW116307   4.619   0.505   6.331
 5136SOL    HW216308   4.683   0.637   6.403
 5137SOL     OW16309   5.676   3.222   6.305
 5137SOL    HW116310   5.633   3.225   6.215
 5137SOL    HW216311   5.624   3.160   6.364
 5138SOL     OW16312   2.997   2.461   5.935
 5138SOL    HW116313   2.929   2.444   6.008
 5138SOL    HW216314   2.952   2.506   5.858
 5139SOL     OW16315   1.626   0.073   3.029
 5139SOL    HW116316   1.725   0.061   3.037
 5139SOL    HW216317   1.588   7.016   2.974
 5140SOL     OW16318   3.592   1.856   0.267
 5140SOL    HW116319   3.494   1.846   0.288
 5140SOL    HW216320   3.608   1.945   0.225
 5141SOL     OW16321   6.608   3.939   0.517
 5141SOL    HW116322   6.687   3.877   0.508
 5141SOL    HW216323   6.528   3.897   0.474
 5142SOL     OW16324   5.845   0.644   4.138
 5142SOL    HW116325   5.755   0.637   4.182
 5142SOL    HW216326   5.912   0.675   4.206
 5143SOL     OW16327   0.085   4.432   3.791
 5143SOL    HW116328   0.043   4.378   3.719
 5143SOL    HW216329   0.020   4.444   3.866
 5144SOL     OW16330   1.112   4.794   6.131
 5144SOL    HW116331   1.181   4.743   6.079
 5144SOL    HW216332   1.131   4.892   6.124
 5145SOL     OW16333   2.126   4.711   5.719
 5145SOL    HW116334   2.200   4.778   5.722
 5145SOL    HW216335   2.088   4.707   5.627
 5146SOL     OW16336   4.030   3.916   5.286
 5146SOL    HW116337   4.039   4.006   5.242
 5146SOL    HW216338   3.941   3.877   5.264
 5147SOL     OW16339   0.116   4.601   2.698
 5147SOL    HW116340   0.126   4.688   2.746
 5147SOL    HW216341   0.107   4.618   2.600
 5148SOL     OW16342   0.937   6.490   1.320
 5148SOL    HW116343   0.990   6.528   1.396
 5148SOL    HW216344   0.840   6.511   1.333
 5149SOL     OW16345   6.163   6.067   3.859
 5149SOL    HW116346   6.117   5.980   3.872
 5149SOL    HW216347   6.228   6.060   3.783
 5150SOL     OW16348   2.271   4.943   2.566
 5150SOL    HW116349   2.339   4.994   2.618
 5150SOL    HW216350   2.204   4.903   2.628
 5151SOL     OW16351   4.912   1.805   0.852
 5151SOL    HW116352   4.824   1.850   0.837
 5151SOL    HW216353   4.968   1.814   0.770
 5152SOL     OW16354   2.021   4.246   0.039
 5152SOL    HW116355   2.029   4.343   0.017
 5152SOL    HW216356   2.032   4.233   0.138
 5153SOL     OW16357   2.355   0.531   6.881
 5153SOL    HW116358   2.334   0.452   6.939
 5153SOL    HW216359   2.307   0.522   6.794
 5154SOL     OW16360   1.708   3.001   6.222
 5154SOL    HW116361   1.766   2.988   6.142
 5154SOL    HW216362   1.706   3.098   6.247
 5155SOL     OW16363   3.779   0.104   2.949
 5155SOL    HW116364   3.794   0.194   2.908
 5155SOL    HW216365   3.866   0.069   2.984
 5156SOL     OW16366   6.749   3.155   6.254
 5156SOL    HW116367   6.652   3.136   6.268
 5156SOL    HW216368   6.761   3.213   6.174
 5157SOL     OW16369   4.359   2.194   3.804
 5157SOL    HW116370   4.302   2.133   3.859
 5157SOL    HW216371   4.446   2.210   3.852
 5158SOL     OW16372   3.786   1.381   1.393
 5158SOL    HW116373   3.857   1.368   1.462
 5158SOL    HW216374   3.704   1.330   1.418
 5159SOL     OW16375   0.171   3.065   3.932
 5159SOL    HW116376   0.173   3.128   3.854
 5159SOL    HW216377   0.230   3.101   4.005
 5160SOL     OW16378   0.457   4.335   3.425
 5160SOL    HW116379   0.494   4.376   3.508
 5160SOL    HW216380   0.359   4.357   3.417
 5161SOL     OW16381   1.605   3.457   4.606
 5161SOL    HW116382   1.686   3.514   4.597
 5161SOL    HW216383   1.614   3.398   4.686
 5162SOL     OW16384   1.221   5.023   3.603
 5162SOL    HW116385   1.206   4.924   3.598
 5162SOL    HW216386   1.311   5.041   3.643
 5163SOL     OW16387   4.477   6.047   1.313
 5163SOL    HW116388   4.529   5.962   1.302
 5163SOL    HW216389   4.407   6.033   1.383
 5164SOL     OW16390   4.546   2.469   6.410
 5164SOL    HW116391   4.519   2.554   6.456
 5164SOL    HW216392   4.465   2.426   6.370
 5165SOL     OW16393   5.924   3.991   5.347
 5165SOL    HW116394   5.841   4.028   5.389
 5165SOL    HW216395   5.982   4.066   5.314
 5166SOL     OW16396   0.194   5.635   2.328
 5166SOL    HW116397   0.108   5.612   2.373
 5166SOL    HW216398   0.219   5.562   2.265
 5167SOL     OW16399   6.375   5.794   5.467
 5167SOL    HW116400   6.392   5.845   5.552
 5167SOL    HW216401   6.423   5.839   5.392
 5168SOL     OW16402   5.322   3.535   3.252
 5168SOL    HW116403   5.281   3.458   3.302
 5168SOL    HW216404   5.392   3.578   3.309
 5169SOL     OW16405   4.310   1.853   5.188
 5169SOL    HW116406   4.309   1.936   5.244
 5169SOL    HW216407   4.218   1.837   5.152
 5170SOL     OW16408   0.464   4.144   5.319
 5170SOL    HW116409   0.508   4.188   5.396
 5170SOL    HW216410   0.365   4.146   5.331
 5171SOL     OW16411   1.797   5.544   3.808
 5171SOL    HW116412   1.734   5.482   3.855
 5171SOL    HW216413   1.889   5.506   3.810
 5172SOL     OW16414   6.629   2.733   2.343
 5172SOL    HW116415   6.599   2.762   2.435
 5172SOL    HW216416   6.567   2.664   2.308
 5173SOL     OW16417   5.715   4.578   5.885
 5173SOL    HW116418   5.733   4.481   5.868
 5173SOL    HW216419   5.654   4.587   5.963
 5174SOL     OW16420   2.308   4.713   3.733
 5174SOL    HW116421   2.332   4.723   3.637
 5174SOL    HW216422   2.210   4.730   3.746
 5175SOL     OW16423   2.295   3.855   0.019
 5175SOL    HW116424   2.339   3.772   0.054
 5175SOL    HW216425   2.330   3.934   0.069
 5176SOL     OW16426   4.535   3.304   6.503
 5176SOL    HW116427   4.597   3.252   6.562
 5176SOL    HW216428   4.496   3.380   6.556
 5177SOL     OW16429   5.262   0.079   6.602
 5177SOL    HW116430   5.243   6.999   6.594
 5177SOL    HW216431   5.183   0.131   6.569
 5178SOL     OW16432   1.519   3.469   1.409
 5178SOL    HW116433   1.574   3.426   1.338
 5178SOL    HW216434   1.428   3.426   1.411
 5179SOL     OW16435   4.003   5.793   4.722
 5179SOL    HW116436   3.928   5.813   4.659
 5179SOL    HW216437   3.985   5.837   4.810
 5180SOL     OW16438   3.049   2.796   6.857
 5180SOL    HW116439   3.052   2.868   6.789
 5180SOL    HW216440   2.955   2.765   6.869
 5181SOL     OW16441   4.766   1.821   2.135
 5181SOL    HW116442   4.801   1.889   2.200
 5181SOL    HW216443   4.670   1.802   2.155
 5182SOL     OW16444   3.974   4.961   1.720
 5182SOL    HW116445   3.877   4.967   1.740
 5182SOL    HW216446   4.008   4.870   1.744
 5183SOL     OW16447   3.818   1.215   2.604
 5183SOL    HW116448   3.737   1.158   2.589
 5183SOL    HW216449   3.876   1.171   2.672
 5184SOL     OW16450   0.363   2.317   4.298
 5184SOL    HW116451   0.279   2.372   4.305
 5184SOL    HW216452   0.440   2.377   4.277
 5185SOL     OW16453   5.485   0.549   2.513
 5185SOL    HW116454   5.454   0.630   2.462
 5185SOL    HW216455   5.405   0.499   2.548
 5186SOL     OW16456   5.903   3.491   0.980
 5186SOL    HW116457   5.944   3.582   0.981
 5186SOL    HW216458   5.872   3.466   1.072
 5187SOL     OW16459   6.740   0.947   3.781
 5187SOL    HW116460   6.696   1.030   3.747
 5187SOL    HW216461   6.750   0.953   3.881
 5188SOL     OW16462   0.753   5.610   0.624
 5188SOL    HW116463   0.796   5.552   0.555
 5188SOL    HW216464   0.677   5.660   0.583
 5189SOL     OW16465   4.893   4.906   0.883
 5189SOL    HW116466   4.920   4.995   0.845
 5189SOL    HW216467   4.968   4.867   0.935
 5190SOL     OW16468   0.272   2.955   4.304
 5190SOL    HW116469   0.256   3.043   4.260
 5190SOL    HW216470   0.334   2.901   4.248
 5191SOL     OW16471   4.608   0.480   2.075
 5191SOL    HW116472   4.551   0.553   2.113
 5191SOL    HW216473   4.550   0.408   2.037
 5192SOL     OW16474   2.771   5.510   3.214
 5192SOL    HW116475   2.739   5.581   3.277
 5192SOL    HW216476   2.807   5.433   3.266
 5193SOL     OW16477   5.029   4.802   4.061
 5193SOL    HW116478   5.084   4.761   3.989
 5193SOL    HW216479   4.997   4.731   4.123
 5194SOL     OW16480   4.141   0.670   6.965
 5194SOL    HW116481   4.075   0.746   6.959
 5194SOL    HW216482   4.233   0.707   6.981
 5195SOL     OW16483   7.007   5.713   4.000
 5195SOL    HW116484   6.974   5.621   4.022
 5195SOL    HW216485   0.062   5.738   4.063
 5196SOL     OW16486   1.523   3.907   0.770
 5196SOL    HW116487   1.514   3.811   0.799
 5196SOL    HW216488   1.561   3.961   0.846
 5197SOL     OW16489   1.434   5.545   5.009
 5197SOL    HW116490   1.419   5.604   5.089
 5197SOL    HW216491   1.455   5.602   4.929
 5198SOL     OW16492   4.129   7.007   4.003
 5198SOL    HW116493   4.121   0.048   3.923
 5198SOL    HW216494   4.068   6.929   3.994
 5199SOL     OW16495   1.313   6.444   6.772
 5199SOL    HW116496   1.248   6.372   6.796
 5199SOL    HW216497   1.342   6.433   6.677
 5200SOL     OW16498   1.471   1.798   5.278
 5200SOL    HW116499   1.488   1.880   5.224
 5200SOL    HW216500   1.437   1.824   5.368
 5201SOL     OW16501   5.557   6.162   4.369
 5201SOL    HW116502   5.600   6.224   4.304
 5201SOL    HW216503   5.613   6.080   4.380
 5202SOL     OW16504   6.073   3.874   5.734
 5202SOL    HW116505   6.019   3.945   5.689
 5202SOL    HW216506   6.017   3.830   5.804
 5203SOL     OW16507   2.491   0.857   6.915
 5203SOL    HW116508   2.435   0.936   6.938
 5203SOL    HW216509   2.453   0.774   6.957
 5204SOL     OW16510   3.763   6.225   0.476
 5204SOL    HW116511   3.770   6.147   0.538
 5204SOL    HW216512   3.728   6.305   0.524
 5205SOL     OW16513   6.768   6.066   7.008
 5205SOL    HW116514   6.829   6.140   6.981
 5205SOL    HW216515   6.821   5.983   0.009
 5206SOL     OW16516   0.174   4.859   6.516
 5206SOL    HW116517   0.153   4.828   6.609
 5206SOL    HW216518   0.273   4.864   6.505
 5207SOL     OW16519   0.926   0.456   3.400
 5207SOL    HW116520   0.987   0.385   3.365
 5207SOL    HW216521   0.935   0.538   3.343
 5208SOL     OW16522   4.305   2.596   0.130
 5208SOL    HW116523   4.402   2.604   0.155
 5208SOL    HW216524   4.278   2.500   0.133
 5209SOL     OW16525   5.380   0.913   1.372
 5209SOL    HW116526   5.326   0.901   1.455
 5209SOL    HW216527   5.434   0.997   1.379
 5210SOL     OW16528   4.873   3.707   0.578
 5210SOL    HW116529   4.944   3.636   0.577
 5210SOL    HW216530   4.839   3.723   0.486
 5211SOL     OW16531   4.816   1.851   5.255
 5211SOL    HW116532   4.723   1.832   5.223
 5211SOL    HW216533   4.827   1.950   5.266
 5212SOL     OW16534   1.966   2.719   1.425
 5212SOL    HW116535   1.920   2.660   1.491
 5212SOL    HW216536   1.898   2.770   1.373
 5213SOL     OW16537   4.285   3.589   0.911
 5213SOL    HW116538   4.341   3.671   0.900
 5213SOL    HW216539   4.212   3.607   0.977
 5214SOL     OW16540   5.667   2.646   5.737
 5214SOL    HW116541   5.659   2.668   5.640
 5214SOL    HW216542   5.690   2.729   5.788
 5215SOL     OW16543   0.436   4.557   4.406
 5215SOL    HW116544   0.376   4.548   4.326
 5215SOL    HW216545   0.398   4.624   4.469
 5216SOL     OW16546   4.840   5.347   0.920
 5216SOL    HW116547   4.811   5.313   1.010
 5216SOL    HW216548   4.938   5.365   0.922
 5217SOL     OW16549   3.628   5.754   4.275
 5217SOL    HW116550   3.640   5.655   4.288
 5217SOL    HW216551   3.657   5.779   4.183
 5218SOL     OW16552   0.666   1.316   1.565
 5218SOL    HW116553   0.595   1.274   1.508
 5218SOL    HW216554   0.738   1.249   1.583
 5219SOL     OW16555   3.781   2.087   4.764
 5219SOL    HW116556   3.686   2.108   4.784
 5219SOL    HW216557   3.791   1.989   4.748
 5220SOL     OW16558   1.692   4.754   2.988
 5220SOL    HW116559   1.626   4.689   3.028
 5220SOL    HW216560   1.768   4.768   3.052
 5221SOL     OW16561   6.312   0.459   2.648
 5221SOL    HW116562   6.233   0.511   2.679
 5221SOL    HW216563   6.289   0.362   2.644
 5222SOL     OW16564   3.903   6.251   2.168
 5222SOL    HW116565   3.885   6.168   2.114
 5222SOL    HW216566   3.841   6.324   2.138
 5223SOL     OW16567   0.085   2.880   0.167
 5223SOL    HW116568   0.058   2.976   0.164
 5223SOL    HW216569   0.163   2.869   0.229
 5224SOL     OW16570   6.945   2.642   4.012
 5224SOL    HW116571   6.958   2.739   3.991
 5224SOL    HW216572   7.012   2.613   4.080
 5225SOL     OW16573   6.318   0.903   3.304
 5225SOL    HW116574   6.375   0.828   3.338
 5225SOL    HW216575   6.304   0.970   3.378
 5226SOL     OW16576   0.561   6.534   3.905
 5226SOL    HW116577   0.640   6.482   3.939
 5226SOL    HW216578   0.576   6.631   3.920
 5227SOL     OW16579   0.345   4.334   5.790
 5227SOL    HW116580   0.405   4.387   5.850
 5227SOL    HW216581   0.250   4.357   5.810
 5228SOL     OW16582   0.900   2.248   0.093
 5228SOL    HW116583   0.802   2.227   0.088
 5228SOL    HW216584   0.914   2.334   0.142
 5229SOL     OW16585   3.234   6.327   0.323
 5229SOL    HW116586   3.165   6.343   0.253
 5229SOL    HW216587   3.190   6.317   0.412
 5230SOL     OW16588   6.699   6.150   2.204
 5230SOL    HW116589   6.740   6.088   2.138
 5230SOL    HW216590   6.737   6.134   2.294
 5231SOL     OW16591   4.665   2.590   3.462
 5231SOL    HW116592   4.606   2.517   3.497
 5231SOL    HW216593   4.668   2.585   3.362
 5232SOL     OW16594   0.982   4.219   5.937
 5232SOL    HW116595   0.946   4.217   6.031
 5232SOL    HW216596   1.081   4.204   5.940
 5233SOL     OW16597   3.445   1.136   2.607
 5233SOL    HW116598   3.452   1.167   2.512
 5233SOL    HW216599   3.355   1.159   2.643
 5234SOL     OW16600   2.261   2.546   6.648
 5234SOL    HW116601   2.204   2.559   6.730
 5234SOL    HW216602   2.353   2.581   6.667
 5235SOL     OW16603   2.173   2.113   0.980
 5235SOL    HW116604   2.142   2.191   1.034
 5235SOL    HW216605   2.262   2.133   0.940
 5236SOL     OW16606   3.485   5.614   2.107
 5236SOL    HW116607   3.446   5.646   2.193
 5236SOL    HW216608   3.584   5.626   2.108
 5237SOL     OW16609   1.391   1.021   5.065
 5237SOL    HW116610   1.451   0.947   5.094
 5237SOL    HW216611   1.442   1.085   5.008
 5238SOL     OW16612   0.552   6.237   0.242
 5238SOL    HW116613   0.624   6.183   0.199
 5238SOL    HW216614   0.485   6.175   0.283
 5239SOL     OW16615   3.630   2.739   0.113
 5239SOL    HW116616   3.661   2.702   0.201
 5239SOL    HW216617   3.710   2.760   0.056
 5240SOL     OW16618   3.376   2.109   5.179
 5240SOL    HW116619   3.314   2.048   5.228
 5240SOL    HW216620   3.334   2.199   5.169
 5241SOL     OW16621   0.845   5.847   3.724
 5241SOL    HW116622   0.865   5.932   3.676
 5241SOL    HW216623   0.930   5.796   3.740
 5242SOL     OW16624   5.617   6.708   2.148
 5242SOL    HW116625   5.592   6.679   2.055
 5242SOL    HW216626   5.558   6.661   2.214
 5243SOL     OW16627   2.191   5.994   1.535
 5243SOL    HW116628   2.144   5.924   1.589
 5243SOL    HW216629   2.290   5.987   1.551
 5244SOL     OW16630   3.546   4.472   6.433
 5244SOL    HW116631   3.593   4.504   6.351
 5244SOL    HW216632   3.509   4.550   6.483
 5245SOL     OW16633   3.630   4.493   0.607
 5245SOL    HW116634   3.708   4.502   0.545
 5245SOL    HW216635   3.623   4.575   0.664
 5246SOL     OW16636   6.444   2.745   1.982
 5246SOL    HW116637   6.371   2.739   1.914
 5246SOL    HW216638   6.405   2.742   2.074
 5247SOL     OW16639   2.533   0.475   6.348
 5247SOL    HW116640   2.451   0.418   6.345
 5247SOL    HW216641   2.526   0.540   6.423
 5248SOL     OW16642   6.857   2.546   3.002
 5248SOL    HW116643   6.912   2.477   3.049
 5248SOL    HW216644   6.865   2.633   3.049
 5249SOL     OW16645   0.944   5.812   6.043
 5249SOL    HW116646   0.995   5.735   6.081
 5249SOL    HW216647   0.898   5.784   5.959
 5250SOL     OW16648   0.968   6.184   0.270
 5250SOL    HW116649   1.046   6.216   0.216
 5250SOL    HW216650   0.993   6.183   0.366
 5251SOL     OW16651   1.030   3.295   0.714
 5251SOL    HW116652   1.061   3.372   0.658
 5251SOL    HW216653   1.096   3.278   0.788
 5252SOL     OW16654   2.857   6.647   1.188
 5252SOL    HW116655   2.854   6.606   1.279
 5252SOL    HW216656   2.950   6.680   1.169
 5253SOL     OW16657   6.843   3.878   4.886
 5253SOL    HW116658   6.848   3.791   4.936
 5253SOL    HW216659   6.781   3.868   4.808
 5254SOL     OW16660   5.759   0.825   3.653
 5254SOL    HW116661   5.853   0.850   3.674
 5254SOL    HW216662   5.715   0.785   3.734
 5255SOL     OW16663   5.333   2.261   5.205
 5255SOL    HW116664   5.292   2.171   5.189
 5255SOL    HW216665   5.285   2.307   5.279
 5256SOL     OW16666   5.367   2.084   3.854
 5256SOL    HW116667   5.273   2.093   3.889
 5256SOL    HW216668   5.365   2.090   3.754
 5257SOL     OW16669   4.644   6.947   1.398
 5257SOL    HW116670   4.689   0.002   1.347
 5257SOL    HW216671   4.547   6.969   1.408
 5258SOL     OW16672   5.867   2.899   1.809
 5258SOL    HW116673   5.933   2.891   1.884
 5258SOL    HW216674   5.863   2.813   1.759
 5259SOL     OW16675   4.896   5.850   2.807
 5259SOL    HW116676   4.926   5.755   2.800
 5259SOL    HW216677   4.914   5.897   2.720
 5260SOL     OW16678   4.206   4.030   0.662
 5260SOL    HW116679   4.240   4.050   0.754
 5260SOL    HW216680   4.153   4.107   0.627
 5261SOL     OW16681   6.391   3.970   6.180
 5261SOL    HW116682   6.418   4.044   6.119
 5261SOL    HW216683   6.331   3.907   6.132
 5262SOL     OW16684   2.734   1.453   3.380
 5262SOL    HW116685   2.666   1.415   3.318
 5262SOL    HW216686   2.737   1.400   3.464
 5263SOL     OW16687   1.914   1.468   3.353
 5263SOL    HW116688   1.916   1.472   3.253
 5263SOL    HW216689   1.979   1.534   3.390
 5264SOL     OW16690   6.418   2.032   1.941
 5264SOL    HW116691   6.502   2.010   1.892
 5264SOL    HW216692   6.350   2.067   1.876
 5265SOL     OW16693   5.898   3.747   3.957
 5265SOL    HW116694   5.970   3.816   3.968
 5265SOL    HW216695   5.924   3.664   4.006
 5266SOL     OW16696   3.358   5.548   6.619
 5266SOL    HW116697   3.285   5.578   6.557
 5266SOL    HW216698   3.385   5.455   6.596
 5267SOL     OW16699   4.966   2.560   4.722
 5267SOL    HW116700   4.906   2.532   4.646
 5267SOL    HW216701   5.046   2.500   4.724
 5268SOL     OW16702   5.711   0.935   0.466
 5268SOL    HW116703   5.758   0.858   0.509
 5268SOL    HW216704   5.615   0.913   0.453
 5269SOL     OW16705   0.960   6.430   2.937
 5269SOL    HW116706   0.919   6.387   2.856
 5269SOL    HW216707   1.012   6.362   2.988
 5270SOL     OW16708   5.203   1.186   1.992
 5270SOL    HW116709   5.245   1.276   2.004
 5270SOL    HW216710   5.108   1.189   2.020
 5271SOL     OW16711   6.206   4.258   5.039
 5271SOL    HW116712   6.227   4.267   5.136
 5271SOL    HW216713   6.278   4.205   4.994
 5272SOL     OW16714   3.462   6.347   1.707
 5272SOL    HW116715   3.430   6.273   1.648
 5272SOL    HW216716   3.476   6.311   1.800
 5273SOL     OW16717   0.642   2.874   3.464
 5273SOL    HW116718   0.619   2.888   3.368
 5273SOL    HW216719   0.570   2.821   3.508
 5274SOL     OW16720   6.002   0.251   2.824
 5274SOL    HW116721   6.002   0.231   2.922
 5274SOL    HW216722   5.964   0.341   2.807
 5275SOL     OW16723   3.809   1.871   0.427
 5275SOL    HW116724   3.726   1.849   0.376
 5275SOL    HW216725   3.793   1.853   0.525
 5276SOL     OW16726   2.192   0.268   0.716
 5276SOL    HW116727   2.155   0.283   0.807
 5276SOL    HW216728   2.221   0.172   0.707
 5277SOL     OW16729   2.523   1.451   2.397
 5277SOL    HW116730   2.530   1.368   2.342
 5277SOL    HW216731   2.434   1.452   2.443
 5278SOL     OW16732   5.369   5.962   3.557
 5278SOL    HW116733   5.297   6.030   3.538
 5278SOL    HW216734   5.427   5.953   3.477
 5279SOL     OW16735   2.273   4.989   0.319
 5279SOL    HW116736   2.325   5.026   0.395
 5279SOL    HW216737   2.264   5.059   0.247
 5280SOL     OW16738   3.317   5.929   5.295
 5280SOL    HW116739   3.402   5.956   5.251
 5280SOL    HW216740   3.247   5.914   5.225
 5281SOL     OW16741   6.715   1.645   2.005
 5281SOL    HW116742   6.790   1.580   2.019
 5281SOL    HW216743   6.628   1.600   2.027
 5282SOL     OW16744   3.959   1.765   3.415
 5282SOL    HW116745   4.035   1.785   3.353
 5282SOL    HW216746   3.888   1.834   3.403
 5283SOL     OW16747   4.521   6.310   2.430
 5283SOL    HW116748   4.478   6.379   2.372
 5283SOL    HW216749   4.597   6.268   2.381
 5284SOL     OW16750   4.549   4.500   3.375
 5284SOL    HW116751   4.548   4.420   3.435
 5284SOL    HW216752   4.596   4.477   3.290
 5285SOL     OW16753   2.636   4.633   4.268
 5285SOL    HW116754   2.568   4.626   4.341
 5285SOL    HW216755   2.592   4.614   4.180
 5286SOL     OW16756   1.933   4.401   0.856
 5286SOL    HW116757   1.955   4.355   0.770
 5286SOL    HW216758   1.836   4.427   0.857
 5287SOL     OW16759   3.232   0.789   0.453
 5287SOL    HW116760   3.188   0.875   0.426
 5287SOL    HW216761   3.208   0.718   0.387
 5288SOL     OW16762   2.861   0.411   1.782
 5288SOL    HW116763   2.875   0.323   1.737
 5288SOL    HW216764   2.888   0.405   1.878
 5289SOL     OW16765   1.818   5.025   6.526
 5289SOL    HW116766   1.898   5.015   6.585
 5289SOL    HW216767   1.813   4.947   6.463
 5290SOL     OW16768   2.718   5.849   5.728
 5290SOL    HW116769   2.705   5.948   5.727
 5290SOL    HW216770   2.756   5.821   5.816
 5291SOL     OW16771   2.221   6.110   5.127
 5291SOL    HW116772   2.129   6.145   5.144
 5291SOL    HW216773   2.221   6.011   5.134
 5292SOL     OW16774   5.644   2.645   0.138
 5292SOL    HW116775   5.652   2.744   0.138
 5292SOL    HW216776   5.547   2.619   0.139
 5293SOL     OW16777   0.387   0.982   5.018
 5293SOL    HW116778   0.429   1.052   4.961
 5293SOL    HW216779   0.295   1.012   5.044
 5294SOL     OW16780   5.419   3.482   6.069
 5294SOL    HW116781   5.465   3.488   6.158
 5294SOL    HW216782   5.320   3.485   6.083
 5295SOL     OW16783   6.250   1.088   2.745
 5295SOL    HW116784   6.254   1.184   2.774
 5295SOL    HW216785   6.236   1.084   2.646
 5296SOL     OW16786   1.839   5.897   6.975
 5296SOL    HW116787   1.767   5.967   6.977
 5296SOL    HW216788   1.797   5.806   6.969
 5297SOL     OW16789   1.571   2.132   1.558
 5297SOL    HW116790   1.535   2.078   1.482
 5297SOL    HW216791   1.644   2.192   1.525
 5298SOL     OW16792   6.275   5.882   2.324
 5298SOL    HW116793   6.320   5.810   2.376
 5298SOL    HW216794   6.219   5.937   2.385
 5299SOL     OW16795   3.024   2.014   1.325
 5299SOL    HW116796   2.965   2.094   1.335
 5299SOL    HW216797   3.115   2.043   1.293
 5300SOL     OW16798   0.316   5.393   2.501
 5300SOL    HW116799   0.365   5.480   2.509
 5300SOL    HW216800   0.287   5.363   2.592
 5301SOL     OW16801   4.261   1.031   0.049
 5301SOL    HW116802   4.342   1.088   0.065
 5301SOL    HW216803   4.180   1.090   0.045
 5302SOL     OW16804   6.310   4.499   3.198
 5302SOL    HW116805   6.370   4.527   3.272
 5302SOL    HW216806   6.364   4.456   3.125
 5303SOL     OW16807   6.835   6.462   4.029
 5303SOL    HW116808   6.912   6.401   4.049
 5303SOL    HW216809   6.802   6.445   3.936
 5304SOL     OW16810   5.690   1.963   6.420
 5304SOL    HW116811   5.764   1.920   6.471
 5304SOL    HW216812   5.723   1.990   6.330
 5305SOL     OW16813   0.974   0.505   3.985
 5305SOL    HW116814   0.894   0.545   3.942
 5305SOL    HW216815   0.957   0.408   4.004
 5306SOL     OW16816   1.840   6.469   5.132
 5306SOL    HW116817   1.750   6.482   5.089
 5306SOL    HW216818   1.908   6.448   5.063
 5307SOL     OW16819   4.429   6.178   6.199
 5307SOL    HW116820   4.360   6.106   6.195
 5307SOL    HW216821   4.413   6.236   6.279
 5308SOL     OW16822   0.020   0.927   4.036
 5308SOL    HW116823   0.043   0.874   3.955
 5308SOL    HW216824   6.938   0.931   4.046
 5309SOL     OW16825   3.832   3.921   3.382
 5309SOL    HW116826   3.808   3.955   3.291
 5309SOL    HW216827   3.851   3.999   3.442
 5310SOL     OW16828   4.981   2.649   1.959
 5310SOL    HW116829   4.965   2.625   2.055
 5310SOL    HW216830   5.080   2.648   1.940
 5311SOL     OW16831   0.318   5.954   6.908
 5311SOL    HW116832   0.268   6.040   6.897
 5311SOL    HW216833   0.333   5.912   6.819
 5312SOL     OW16834   0.344   4.740   2.155
 5312SOL    HW116835   0.348   4.840   2.152
 5312SOL    HW216836   0.278   4.712   2.224
 5313SOL     OW16837   0.570   5.514   6.954
 5313SOL    HW116838   0.600   5.542   6.863
 5313SOL    HW216839   0.637   5.544   0.004
 5314SOL     OW16840   4.445   5.057   0.259
 5314SOL    HW116841   4.541   5.059   0.230
 5314SOL    HW216842   4.441   5.061   0.359
 5315SOL     OW16843   4.521   4.597   2.001
 5315SOL    HW116844   4.610   4.634   2.030
 5315SOL    HW216845   4.535   4.508   1.956
 5316SOL     OW16846   0.665   5.302   4.837
 5316SOL    HW116847   0.659   5.334   4.742
 5316SOL    HW216848   0.737   5.354   4.884
 5317SOL     OW16849   5.407   1.607   4.014
 5317SOL    HW116850   5.483   1.651   4.063
 5317SOL    HW216851   5.411   1.508   4.031
 5318SOL     OW16852   0.001   2.014   4.488
 5318SOL    HW116853   7.018   1.931   4.545
 5318SOL    HW216854   6.926   2.042   4.468
 5319SOL     OW16855   5.291   6.456   6.363
 5319SOL    HW116856   5.218   6.401   6.404
 5319SOL    HW216857   5.379   6.409   6.376
 5320SOL     OW16858   6.366   5.162   0.466
 5320SOL    HW116859   6.373   5.226   0.389
 5320SOL    HW216860   6.438   5.094   0.459
 5321SOL     OW16861   0.986   5.094   3.411
 5321SOL    HW116862   1.045   5.084   3.491
 5321SOL    HW216863   1.041   5.122   3.333
 5322SOL     OW16864   4.067   6.500   6.898
 5322SOL    HW116865   4.126   6.480   6.820
 5322SOL    HW216866   4.082   6.432   6.970
 5323SOL     OW16867   4.674   2.715   1.243
 5323SOL    HW116868   4.766   2.751   1.262
 5323SOL    HW216869   4.607   2.767   1.296
 5324SOL     OW16870   3.739   2.473   1.670
 5324SOL    HW116871   3.738   2.424   1.583
 5324SOL    HW216872   3.707   2.413   1.743
 5325SOL     OW16873   5.574   0.140   2.853
 5325SOL    HW116874   5.574   0.076   2.776
 5325SOL    HW216875   5.549   0.231   2.820
 5326SOL     OW16876   6.295   5.117   2.251
 5326SOL    HW116877   6.328   5.059   2.177
 5326SOL    HW216878   6.228   5.182   2.216
 5327SOL     OW16879   0.628   6.466   5.676
 5327SOL    HW116880   0.595   6.532   5.744
 5327SOL    HW216881   0.551   6.416   5.637
 5328SOL     OW16882   3.569   2.355   5.734
 5328SOL    HW116883   3.643   2.350   5.800
 5328SOL    HW216884   3.605   2.342   5.642
 5329SOL     OW16885   6.618   4.246   0.790
 5329SOL    HW116886   6.553   4.186   0.743
 5329SOL    HW216887   6.705   4.198   0.802
 5330SOL     OW16888   3.564   4.038   6.840
 5330SOL    HW116889   3.613   4.106   6.786
 5330SOL    HW216890   3.482   4.080   6.880
 5331SOL     OW16891   4.827   2.408   0.762
 5331SOL    HW116892   4.891   2.340   0.727
 5331SOL    HW216893   4.766   2.437   0.689
 5332SOL     OW16894   6.363   4.893   0.290
 5332SOL    HW116895   6.272   4.934   0.281
 5332SOL    HW216896   6.400   4.873   0.199
 5333SOL     OW16897   1.983   0.958   3.514
 5333SOL    HW116898   1.920   0.894   3.471
 5333SOL    HW216899   1.960   1.051   3.485
 5334SOL     OW16900   4.930   5.055   4.608
 5334SOL    HW116901   4.906   5.136   4.661
 5334SOL    HW216902   4.849   5.022   4.559
 5335SOL     OW16903   6.534   4.456   2.619
 5335SOL    HW116904   6.463   4.387   2.604
 5335SOL    HW216905   6.572   4.445   2.711
 5336SOL     OW16906   2.322   1.600   3.860
 5336SOL    HW116907   2.321   1.573   3.763
 5336SOL    HW216908   2.298   1.696   3.868
 5337SOL     OW16909   5.938   4.814   1.450
 5337SOL    HW116910   6.028   4.780   1.477
 5337SOL    HW216911   5.868   4.771   1.506
 5338SOL     OW16912   5.323   2.895   0.220
 5338SOL    HW116913   5.378   2.950   0.157
 5338SOL    HW216914   5.384   2.843   0.280
 5339SOL     OW16915   5.721   1.821   2.092
 5339SOL    HW116916   5.768   1.784   2.172
 5339SOL    HW216917   5.743   1.918   2.083
 5340SOL     OW16918   5.490   3.804   1.610
 5340SOL    HW116919   5.489   3.814   1.710
 5340SOL    HW216920   5.415   3.745   1.582
 5341SOL     OW16921   4.441   4.877   4.218
 5341SOL    HW116922   4.382   4.887   4.298
 5341SOL    HW216923   4.494   4.961   4.205
 5342SOL     OW16924   4.606   6.558   5.504
 5342SOL    HW116925   4.635   6.552   5.408
 5342SOL    HW216926   4.615   6.653   5.536
 5343SOL     OW16927   3.592   3.379   4.480
 5343SOL    HW116928   3.651   3.416   4.408
 5343SOL    HW216929   3.502   3.423   4.476
 5344SOL     OW16930   0.371   1.603   6.933
 5344SOL    HW116931   0.314   1.655   6.997
 5344SOL    HW216932   0.351   1.506   6.943
 5345SOL     OW16933   5.033   1.100   0.017
 5345SOL    HW116934   5.104   1.055   0.071
 5345SOL    HW216935   4.946   1.052   0.028
 5346SOL     OW16936   2.698   4.978   4.265
 5346SOL    HW116937   2.600   4.962   4.266
 5346SOL    HW216938   2.720   5.054   4.326
 5347SOL     OW16939   0.171   2.862   3.365
 5347SOL    HW116940   0.191   2.799   3.290
 5347SOL    HW216941   0.159   2.954   3.329
 5348SOL     OW16942   0.322   1.533   4.976
 5348SOL    HW116943   0.224   1.556   4.984
 5348SOL    HW216944   0.340   1.448   5.025
 5349SOL     OW16945   1.865   2.864   1.725
 5349SOL    HW116946   1.930   2.919   1.673
 5349SOL    HW216947   1.813   2.806   1.662
 5350SOL     OW16948   1.654   0.023   5.645
 5350SOL    HW116949   1.745   0.065   5.643
 5350SOL    HW216950   1.660   6.949   5.604
 5351SOL     OW16951   0.230   4.513   2.030
 5351SOL    HW116952   0.175   4.558   1.959
 5351SOL    HW216953   0.290   4.580   2.073
 5352SOL     OW16954   2.482   4.430   2.970
 5352SOL    HW116955   2.502   4.470   3.060
 5352SOL    HW216956   2.444   4.499   2.910
 5353SOL     OW16957   3.437   5.238   3.693
 5353SOL    HW116958   3.437   5.138   3.695
 5353SOL    HW216959   3.349   5.273   3.726
 5354SOL     OW16960   3.036   4.282   0.165
 5354SOL    HW116961   3.106   4.345   0.200
 5354SOL    HW216962   2.950   4.332   0.153
 5355SOL     OW16963   4.713   4.760   5.028
 5355SOL    HW116964   4.764   4.812   4.960
 5355SOL    HW216965   4.628   4.726   4.987
 5356SOL     OW16966   6.822   3.346   1.791
 5356SOL    HW116967   6.740   3.392   1.755
 5356SOL    HW216968   6.835   3.260   1.743
 5357SOL     OW16969   4.139   4.811   2.155
 5357SOL    HW116970   4.216   4.872   2.136
 5357SOL    HW216971   4.063   4.835   2.094
 5358SOL     OW16972   4.431   1.931   0.228
 5358SOL    HW116973   4.354   1.869   0.209
 5358SOL    HW216974   4.411   2.021   0.190
 5359SOL     OW16975   2.160   2.436   0.242
 5359SOL    HW116976   2.093   2.424   0.169
 5359SOL    HW216977   2.142   2.521   0.291
 5360SOL     OW16978   5.416   6.081   3.272
 5360SOL    HW116979   5.439   6.132   3.189
 5360SOL    HW216980   5.472   5.999   3.278
 5361SOL     OW16981   2.898   6.626   2.961
 5361SOL    HW116982   2.987   6.635   3.006
 5361SOL    HW216983   2.860   6.536   2.982
 5362SOL     OW16984   6.151   6.898   2.554
 5362SOL    HW116985   6.118   6.811   2.592
 5362SOL    HW216986   6.143   6.970   2.623
 5363SOL     OW16987   5.267   6.595   4.752
 5363SOL    HW116988   5.180   6.619   4.708
 5363SOL    HW216989   5.284   6.497   4.742
 5364SOL     OW16990   5.268   0.731   2.355
 5364SOL    HW116991   5.254   0.822   2.314
 5364SOL    HW216992   5.315   0.672   2.290
 5365SOL     OW16993   3.147   3.781   2.583
 5365SOL    HW116994   3.133   3.863   2.640
 5365SOL    HW216995   3.195   3.711   2.636
 5366SOL     OW16996   6.578   0.517   1.680
 5366SOL    HW116997   6.602   0.440   1.622
 5366SOL    HW216998   6.484   0.508   1.711
 5367SOL     OW16999   6.254   0.124   0.776
 5367SOL    HW117000   6.281   0.039   0.821
 5367SOL    HW217001   6.156   0.140   0.790
 5368SOL     OW17002   6.793   5.935   2.070
 5368SOL    HW117003   6.707   5.899   2.032
 5368SOL    HW217004   6.852   5.859   2.096
 5369SOL     OW17005   2.699   5.801   1.622
 5369SOL    HW117006   2.718   5.703   1.632
 5369SOL    HW217007   2.735   5.849   1.702
 5370SOL     OW17008   4.228   3.273   1.849
 5370SOL    HW117009   4.276   3.208   1.792
 5370SOL    HW217010   4.164   3.326   1.793
 5371SOL     OW17011   6.947   5.069   5.202
 5371SOL    HW117012   6.999   5.028   5.277
 5371SOL    HW217013   6.952   5.010   5.121
 5372SOL     OW17014   0.994   0.414   2.386
 5372SOL    HW117015   1.048   0.415   2.302
 5372SOL    HW217016   0.994   0.321   2.424
 5373SOL     OW17017   3.795   6.601   6.281
 5373SOL    HW117018   3.759   6.581   6.372
 5373SOL    HW217019   3.729   6.574   6.212
 5374SOL     OW17020   2.374   4.786   1.133
 5374SOL    HW117021   2.305   4.831   1.190
 5374SOL    HW217022   2.462   4.833   1.143
 5375SOL     OW17023   0.985   6.586   5.398
 5375SOL    HW117024   1.005   6.494   5.431
 5375SOL    HW217025   0.890   6.609   5.419
 5376SOL     OW17026   1.442   1.957   1.994
 5376SOL    HW117027   1.408   1.872   2.036
 5376SOL    HW217028   1.408   1.964   1.901
 5377SOL     OW17029   2.319   0.928   3.160
 5377SOL    HW117030   2.406   0.903   3.203
 5377SOL    HW217031   2.267   0.845   3.139
 5378SOL     OW17032   5.991   0.156   0.810
 5378SOL    HW117033   5.955   0.118   0.725
 5378SOL    HW217034   5.955   0.249   0.823
 5379SOL     OW17035   1.172   2.859   6.211
 5379SOL    HW117036   1.218   2.776   6.242
 5379SOL    HW217037   1.172   2.862   6.111
 5380SOL     OW17038   3.476   6.994   1.334
 5380SOL    HW117039   3.529   0.046   1.382
 5380SOL    HW217040   3.489   7.004   1.236
 5381SOL     OW17041   6.143   6.295   2.217
 5381SOL    HW117042   6.141   6.392   2.190
 5381SOL    HW217043   6.238   6.263   2.217
 5382SOL     OW17044   3.803   2.075   2.524
 5382SOL    HW117045   3.735   2.092   2.596
 5382SOL    HW217046   3.762   2.091   2.434
 5383SOL     OW17047   0.993   2.990   4.712
 5383SOL    HW117048   1.056   3.038   4.652
 5383SOL    HW217049   1.032   2.902   4.738
 5384SOL     OW17050   4.553   5.274   4.806
 5384SOL    HW117051   4.549   5.359   4.859
 5384SOL    HW217052   4.473   5.268   4.747
 5385SOL     OW17053   6.145   2.513   6.025
 5385SOL    HW117054   6.169   2.603   6.063
 5385SOL    HW217055   6.224   2.452   6.032
 5386SOL     OW17056   5.595   2.877   4.129
 5386SOL    HW117057   5.607   2.786   4.090
 5386SOL    HW217058   5.518   2.875   4.193
 5387SOL     OW17059   2.594   0.091   3.145
 5387SOL    HW117060   2.564   0.174   3.098
 5387SOL    HW217061   2.654   0.039   3.085
 5388SOL     OW17062   1.173   6.789   3.141
 5388SOL    HW117063   1.126   6.710   3.101
 5388SOL    HW217064   1.271   6.769   3.147
 5389SOL     OW17065   4.470   2.536   4.355
 5389SOL    HW117066   4.423   2.510   4.440
 5389SOL    HW217067   4.417   2.504   4.277
 5390SOL     OW17068   5.608   3.739   4.053
 5390SOL    HW117069   5.708   3.739   4.058
 5390SOL    HW217070   5.575   3.645   4.052
 5391SOL     OW17071   2.636   2.490   6.941
 5391SOL    HW117072   2.722   2.531   6.970
 5391SOL    HW217073   2.652   2.433   6.859
 5392SOL     OW17074   4.736   2.851   2.658
 5392SOL    HW117075   4.672   2.793   2.609
 5392SOL    HW217076   4.785   2.909   2.593
 5393SOL     OW17077   4.389   0.169   4.905
 5393SOL    HW117078   4.371   0.232   4.829
 5393SOL    HW217079   4.333   0.194   4.984
 5394SOL     OW17080   0.842   5.998   1.574
 5394SOL    HW117081   0.912   6.043   1.519
 5394SOL    HW217082   0.773   5.957   1.513
 5395SOL     OW17083   4.967   1.147   1.062
 5395SOL    HW117084   4.983   1.059   1.018
 5395SOL    HW217085   5.025   1.216   1.019
 5396SOL     OW17086   5.464   5.846   2.213
 5396SOL    HW117087   5.449   5.748   2.209
 5396SOL    HW217088   5.511   5.877   2.130
 5397SOL     OW17089   6.822   1.962   2.338
 5397SOL    HW117090   6.749   1.896   2.350
 5397SOL    HW217091   6.910   1.915   2.339
 5398SOL     OW17092   4.154   2.284   4.100
 5398SOL    HW117093   4.119   2.277   4.007
 5398SOL    HW217094   4.078   2.273   4.165
 5399SOL     OW17095   1.919   6.481   5.741
 5399SOL    HW117096   1.876   6.411   5.798
 5399SOL    HW217097   1.932   6.446   5.648
 5400SOL     OW17098   3.498   3.273   0.946
 5400SOL    HW117099   3.505   3.257   0.847
 5400SOL    HW217100   3.477   3.369   0.963
 5401SOL     OW17101   4.805   4.693   3.422
 5401SOL    HW117102   4.793   4.594   3.427
 5401SOL    HW217103   4.722   4.735   3.386
 5402SOL     OW17104   3.188   6.521   1.008
 5402SOL    HW117105   3.180   6.618   1.032
 5402SOL    HW217106   3.214   6.469   1.090
 5403SOL     OW17107   5.397   3.181   6.391
 5403SOL    HW117108   5.399   3.132   6.479
 5403SOL    HW217109   5.320   3.147   6.336
 5404SOL     OW17110   0.499   0.756   0.868
 5404SOL    HW117111   0.419   0.774   0.925
 5404SOL    HW217112   0.470   0.713   0.783
 5405SOL     OW17113   5.230   5.116   0.053
 5405SOL    HW117114   5.301   5.169   0.100
 5405SOL    HW217115   5.199   5.041   0.113
 5406SOL     OW17116   1.983   0.461   4.482
 5406SOL    HW117117   1.994   0.409   4.566
 5406SOL    HW217118   1.959   0.555   4.504
 5407SOL     OW17119   2.972   0.870   1.065
 5407SOL    HW117120   2.967   0.799   1.135
 5407SOL    HW217121   2.881   0.884   1.025
 5408SOL     OW17122   4.088   1.704   4.690
 5408SOL    HW117123   4.180   1.729   4.657
 5408SOL    HW217124   4.092   1.689   4.789
 5409SOL     OW17125   6.299   2.155   1.748
 5409SOL    HW117126   6.382   2.120   1.704
 5409SOL    HW217127   6.265   2.234   1.695
 5410SOL     OW17128   0.017   3.049   0.975
 5410SOL    HW117129   0.113   3.065   0.951
 5410SOL    HW217130   7.018   2.951   0.979
 5411SOL     OW17131   5.504   4.065   6.935
 5411SOL    HW117132   5.456   4.145   6.970
 5411SOL    HW217133   5.480   3.985   6.989
 5412SOL     OW17134   2.083   1.327   6.202
 5412SOL    HW117135   2.121   1.247   6.248
 5412SOL    HW217136   2.124   1.336   6.111
 5413SOL     OW17137   6.522   0.166   5.614
 5413SOL    HW117138   6.426   0.145   5.596
 5413SOL    HW217139   6.540   0.161   5.713
 5414SOL     OW17140   0.469   4.700   5.595
 5414SOL    HW117141   0.538   4.682   5.665
 5414SOL    HW217142   0.480   4.635   5.519
 5415SOL     OW17143   3.045   5.641   0.114
 5415SOL    HW117144   2.962   5.590   0.093
 5415SOL    HW217145   3.125   5.586   0.088
 5416SOL     OW17146   2.976   5.407   5.013
 5416SOL    HW117147   3.009   5.312   5.019
 5416SOL    HW217148   2.876   5.407   5.013
 5417SOL     OW17149   4.703   6.453   3.955
 5417SOL    HW117150   4.638   6.384   3.986
 5417SOL    HW217151   4.718   6.520   4.028
 5418SOL     OW17152   5.623   4.654   4.754
 5418SOL    HW117153   5.558   4.725   4.729
 5418SOL    HW217154   5.583   4.564   4.734
 5419SOL     OW17155   4.345   6.576   0.074
 5419SOL    HW117156   4.345   6.673   0.095
 5419SOL    HW217157   4.439   6.546   0.055
 5420SOL     OW17158   1.329   1.508   1.792
 5420SOL    HW117159   1.289   1.421   1.765
 5420SOL    HW217160   1.370   1.552   1.712
 5421SOL     OW17161   3.270   5.284   2.184
 5421SOL    HW117162   3.214   5.338   2.247
 5421SOL    HW217163   3.224   5.279   2.095
 5422SOL     OW17164   2.053   5.598   4.204
 5422SOL    HW117165   2.130   5.651   4.240
 5422SOL    HW217166   2.057   5.505   4.241
 5423SOL     OW17167   6.458   5.632   2.063
 5423SOL    HW117168   6.454   5.584   1.975
 5423SOL    HW217169   6.402   5.583   2.130
 5424SOL     OW17170   5.118   4.496   4.758
 5424SOL    HW117171   5.101   4.584   4.802
 5424SOL    HW217172   5.177   4.440   4.816
 5425SOL     OW17173   6.430   3.062   4.710
 5425SOL    HW117174   6.345   3.057   4.761
 5425SOL    HW217175   6.411   3.089   4.616
 5426SOL     OW17176   5.108   5.223   1.954
 5426SOL    HW117177   5.017   5.263   1.966
 5426SOL    HW217178   5.104   5.124   1.967
 5427SOL     OW17179   4.719   2.655   6.890
 5427SOL    HW117180   4.703   2.575   6.833
 5427SOL    HW217181   4.811   2.652   6.927
 5428SOL     OW17182   5.542   6.155   2.664
 5428SOL    HW117183   5.536   6.088   2.738
 5428SOL    HW217184   5.608   6.226   2.690
 5429SOL     OW17185   2.977   0.331   4.267
 5429SOL    HW117186   2.905   0.361   4.330
 5429SOL    HW217187   2.936   0.277   4.194
 5430SOL     OW17188   2.219   3.514   5.827
 5430SOL    HW117189   2.262   3.468   5.749
 5430SOL    HW217190   2.289   3.565   5.878
 5431SOL     OW17191   3.455   5.064   6.121
 5431SOL    HW117192   3.415   5.036   6.033
 5431SOL    HW217193   3.390   5.043   6.194
 5432SOL     OW17194   5.548   5.849   0.641
 5432SOL    HW117195   5.625   5.824   0.583
 5432SOL    HW217196   5.498   5.926   0.600
 5433SOL     OW17197   1.302   0.089   1.064
 5433SOL    HW117198   1.203   0.083   1.081
 5433SOL    HW217199   1.342   7.016   1.069
 5434SOL     OW17200   4.951   1.023   4.940
 5434SOL    HW117201   4.885   1.081   4.988
 5434SOL    HW217202   5.008   0.976   5.006
 5435SOL     OW17203   6.347   3.894   0.421
 5435SOL    HW117204   6.349   3.984   0.375
 5435SOL    HW217205   6.283   3.897   0.497
 5436SOL     OW17206   0.530   5.727   3.000
 5436SOL    HW117207   0.532   5.776   3.087
 5436SOL    HW217208   0.452   5.665   2.997
 5437SOL     OW17209   3.079   4.920   6.063
 5437SOL    HW117210   3.164   4.875   6.091
 5437SOL    HW217211   3.004   4.853   6.065
 5438SOL     OW17212   4.854   4.273   1.986
 5438SOL    HW117213   4.951   4.297   1.980
 5438SOL    HW217214   4.832   4.249   2.080
 5439SOL     OW17215   1.094   4.147   0.461
 5439SOL    HW117216   1.101   4.244   0.483
 5439SOL    HW217217   1.030   4.133   0.386
 5440SOL     OW17218   5.568   6.971   3.175
 5440SOL    HW117219   5.558   0.005   3.259
 5440SOL    HW217220   5.487   6.985   3.117
 5441SOL     OW17221   5.187   3.285   3.734
 5441SOL    HW117222   5.178   3.231   3.817
 5441SOL    HW217223   5.146   3.235   3.657
 5442SOL     OW17224   5.181   0.851   3.787
 5442SOL    HW117225   5.163   0.755   3.767
 5442SOL    HW217226   5.097   0.904   3.775
 5443SOL     OW17227   4.913   6.800   4.738
 5443SOL    HW117228   4.885   6.737   4.666
 5443SOL    HW217229   4.844   6.871   4.750
 5444SOL     OW17230   0.642   1.902   4.250
 5444SOL    HW117231   0.692   1.987   4.269
 5444SOL    HW217232   0.581   1.916   4.172
 5445SOL     OW17233   5.190   5.333   4.999
 5445SOL    HW117234   5.277   5.305   5.040
 5445SOL    HW217235   5.206   5.408   4.935
 5446SOL     OW17236   6.811   4.851   5.050
 5446SOL    HW117237   6.823   4.762   5.007
 5446SOL    HW217238   6.802   4.839   5.149
 5447SOL     OW17239   2.217   1.627   1.518
 5447SOL    HW117240   2.226   1.552   1.452
 5447SOL    HW217241   2.142   1.607   1.581
 5448SOL     OW17242   4.433   5.767   3.941
 5448SOL    HW117243   4.468   5.848   3.986
 5448SOL    HW217244   4.399   5.702   4.009
 5449SOL     OW17245   3.085   1.334   1.825
 5449SOL    HW117246   3.150   1.376   1.889
 5449SOL    HW217247   3.116   1.349   1.731
 5450SOL     OW17248   3.529   5.914   1.780
 5450SOL    HW117249   3.530   5.908   1.880
 5450SOL    HW217250   3.602   5.856   1.743
 5451SOL     OW17251   0.972   0.161   2.470
 5451SOL    HW117252   1.014   0.077   2.437
 5451SOL    HW217253   0.983   0.168   2.569
 5452SOL     OW17254   1.273   4.894   1.024
 5452SOL    HW117255   1.223   4.810   1.002
 5452SOL    HW217256   1.293   4.896   1.122
 5453SOL     OW17257   4.795   3.825   2.379
 5453SOL    HW117258   4.823   3.771   2.459
 5453SOL    HW217259   4.767   3.916   2.408
 5454SOL     OW17260   5.805   5.947   2.380
 5454SOL    HW117261   5.860   6.029   2.398
 5454SOL    HW217262   5.723   5.947   2.437
 5455SOL     OW17263   0.646   1.280   2.749
 5455SOL    HW117264   0.622   1.189   2.715
 5455SOL    HW217265   0.715   1.321   2.689
 5456SOL     OW17266   5.037   0.588   6.994
 5456SOL    HW117267   5.026   0.598   0.075
 5456SOL    HW217268   5.122   0.539   6.974
 5457SOL     OW17269   6.230   2.106   0.053
 5457SOL    HW117270   6.274   2.051   7.000
 5457SOL    HW217271   6.262   2.076   0.143
 5458SOL     OW17272   6.181   4.824   0.497
 5458SOL    HW117273   6.221   4.757   0.561
 5458SOL    HW217274   6.251   4.852   0.431
 5459SOL     OW17275   2.054   5.115   5.660
 5459SOL    HW117276   1.955   5.101   5.653
 5459SOL    HW217277   2.100   5.064   5.587
 5460SOL     OW17278   2.097   1.401   1.133
 5460SOL    HW117279   2.135   1.475   1.188
 5460SOL    HW217280   2.169   1.334   1.112
 5461SOL     OW17281   1.142   1.595   5.526
 5461SOL    HW117282   1.227   1.615   5.478
 5461SOL    HW217283   1.101   1.681   5.559
 5462SOL     OW17284   5.470   5.969   6.765
 5462SOL    HW117285   5.532   5.948   6.841
 5462SOL    HW217286   5.436   6.062   6.775
 5463SOL     OW17287   6.499   2.089   6.297
 5463SOL    HW117288   6.427   2.044   6.244
 5463SOL    HW217289   6.579   2.104   6.238
 5464SOL     OW17290   6.394   5.459   5.198
 5464SOL    HW117291   6.310   5.416   5.164
 5464SOL    HW217292   6.376   5.499   5.288
 5465SOL     OW17293   6.185   6.843   3.270
 5465SOL    HW117294   6.185   6.940   3.245
 5465SOL    HW217295   6.122   6.829   3.347
 5466SOL     OW17296   5.644   3.030   5.153
 5466SOL    HW117297   5.590   2.954   5.190
 5466SOL    HW217298   5.614   3.116   5.196
 5467SOL     OW17299   5.762   3.786   3.681
 5467SOL    HW117300   5.796   3.799   3.774
 5467SOL    HW217301   5.692   3.855   3.662
 5468SOL     OW17302   6.838   2.763   3.140
 5468SOL    HW117303   6.803   2.713   3.219
 5468SOL    HW217304   6.801   2.857   3.141
 5469SOL     OW17305   1.578   0.035   5.961
 5469SOL    HW117306   1.641   6.990   6.006
 5469SOL    HW217307   1.592   0.029   5.862
 5470SOL     OW17308   4.296   5.314   3.930
 5470SOL    HW117309   4.278   5.361   3.843
 5470SOL    HW217310   4.326   5.220   3.911
 5471SOL     OW17311   5.770   0.766   2.619
 5471SOL    HW117312   5.738   0.858   2.644
 5471SOL    HW217313   5.785   0.762   2.520
 5472SOL     OW17314   3.049   2.805   5.874
 5472SOL    HW117315   3.058   2.869   5.950
 5472SOL    HW217316   2.975   2.836   5.813
 5473SOL     OW17317   1.406   4.711   0.635
 5473SOL    HW117318   1.431   4.781   0.569
 5473SOL    HW217319   1.444   4.734   0.725
 5474SOL     OW17320   1.067   5.783   3.526
 5474SOL    HW117321   1.071   5.714   3.453
 5474SOL    HW217322   1.074   5.874   3.486
 5475SOL     OW17323   1.734   1.611   1.039
 5475SOL    HW117324   1.658   1.547   1.023
 5475SOL    HW217325   1.767   1.600   1.133
 5476SOL     OW17326   2.340   5.089   5.443
 5476SOL    HW117327   2.256   5.076   5.391
 5476SOL    HW217328   2.389   5.169   5.409
 5477SOL     OW17329   2.040   4.223   2.827
 5477SOL    HW117330   2.069   4.208   2.732
 5477SOL    HW217331   2.074   4.312   2.858
 5478SOL     OW17332   4.262   5.640   6.021
 5478SOL    HW117333   4.353   5.598   6.017
 5478SOL    HW217334   4.195   5.573   6.053
 5479SOL     OW17335   4.423   0.883   4.162
 5479SOL    HW117336   4.360   0.918   4.231
 5479SOL    HW217337   4.463   0.960   4.112
 5480SOL     OW17338   6.147   4.967   4.781
 5480SOL    HW117339   6.197   4.934   4.862
 5480SOL    HW217340   6.098   4.890   4.740
 5481SOL     OW17341   4.814   0.659   5.158
 5481SOL    HW117342   4.723   0.674   5.199
 5481SOL    HW217343   4.803   0.623   5.066
 5482SOL     OW17344   3.505   4.073   2.227
 5482SOL    HW117345   3.501   4.020   2.142
 5482SOL    HW217346   3.420   4.125   2.239
 5483SOL     OW17347   6.293   2.610   5.465
 5483SOL    HW117348   6.331   2.702   5.469
 5483SOL    HW217349   6.242   2.599   5.379
 5484SOL     OW17350   6.116   0.132   3.399
 5484SOL    HW117351   6.121   0.103   3.495
 5484SOL    HW217352   6.031   0.182   3.384
 5485SOL     OW17353   2.842   0.121   4.519
 5485SOL    HW117354   2.913   0.053   4.502
 5485SOL    HW217355   2.884   0.209   4.539
 5486SOL     OW17356   2.140   6.741   3.880
 5486SOL    HW117357   2.223   6.789   3.908
 5486SOL    HW217358   2.163   6.646   3.856
 5487SOL     OW17359   5.887   3.905   6.770
 5487SOL    HW117360   5.971   3.887   6.719
 5487SOL    HW217361   5.903   3.981   6.834
 5488SOL     OW17362   4.702   1.541   0.709
 5488SOL    HW117363   4.713   1.455   0.760
 5488SOL    HW217364   4.626   1.532   0.644
 5489SOL     OW17365   1.657   4.099   1.764
 5489SOL    HW117366   1.705   4.165   1.822
 5489SOL    HW217367   1.702   4.094   1.674
 5490SOL     OW17368   3.961   6.953   0.758
 5490SOL    HW117369   3.909   0.012   0.721
 5490SOL    HW217370   3.964   6.879   0.690
 5491SOL     OW17371   1.267   4.306   6.663
 5491SOL    HW117372   1.213   4.246   6.723
 5491SOL    HW217373   1.258   4.401   6.694
 5492SOL     OW17374   1.022   1.339   5.992
 5492SOL    HW117375   1.012   1.363   5.896
 5492SOL    HW217376   0.959   1.265   6.015
 5493SOL     OW17377   3.439   3.314   4.798
 5493SOL    HW117378   3.465   3.220   4.775
 5493SOL    HW217379   3.518   3.361   4.837
 5494SOL     OW17380   6.329   2.471   0.266
 5494SOL    HW117381   6.353   2.416   0.346
 5494SOL    HW217382   6.229   2.476   0.257
 5495SOL     OW17383   3.144   2.917   1.717
 5495SOL    HW117384   3.190   2.847   1.772
 5495SOL    HW217385   3.126   2.880   1.626
 5496SOL     OW17386   2.717   6.552   2.364
 5496SOL    HW117387   2.717   6.473   2.426
 5496SOL    HW217388   2.803   6.601   2.372
 5497SOL     OW17389   0.519   2.233   3.309
 5497SOL    HW117390   0.582   2.182   3.367
 5497SOL    HW217391   0.467   2.170   3.252
 5498SOL     OW17392   5.364   0.559   0.650
 5498SOL    HW117393   5.411   0.592   0.732
 5498SOL    HW217394   5.398   0.610   0.571
 5499SOL     OW17395   0.898   1.107   3.849
 5499SOL    HW117396   0.912   1.096   3.751
 5499SOL    HW217397   0.801   1.122   3.868
 5500SOL     OW17398   1.849   6.010   6.725
 5500SOL    HW117399   1.829   5.944   6.797
 5500SOL    HW217400   1.857   6.102   6.765
 5501SOL     OW17401   3.245   6.991   0.946
 5501SOL    HW117402   3.154   0.009   0.967
 5501SOL    HW217403   3.264   6.913   1.005
 5502SOL     OW17404   6.072   4.237   5.991
 5502SOL    HW117405   6.105   4.301   6.061
 5502SOL    HW217406   5.990   4.190   6.024
 5503SOL     OW17407   0.483   4.475   3.160
 5503SOL    HW117408   0.494   4.513   3.251
 5503SOL    HW217409   0.526   4.385   3.155
 5504SOL     OW17410   3.126   1.237   5.610
 5504SOL    HW117411   3.175   1.165   5.658
 5504SOL    HW217412   3.035   1.248   5.649
 5505SOL     OW17413   2.629   5.635   5.112
 5505SOL    HW117414   2.686   5.686   5.047
 5505SOL    HW217415   2.685   5.605   5.189
 5506SOL     OW17416   6.470   0.426   5.955
 5506SOL    HW117417   6.512   0.336   5.939
 5506SOL    HW217418   6.371   0.416   5.958
 5507SOL     OW17419   2.256   0.183   2.576
 5507SOL    HW117420   2.182   0.212   2.637
 5507SOL    HW217421   2.250   0.234   2.490
 5508SOL     OW17422   2.706   1.243   6.922
 5508SOL    HW117423   2.698   1.231   6.823
 5508SOL    HW217424   2.725   1.339   6.942
 5509SOL     OW17425   0.940   6.580   0.114
 5509SOL    HW117426   0.949   6.611   0.209
 5509SOL    HW217427   0.982   6.489   0.105
 5510SOL     OW17428   4.995   5.859   0.688
 5510SOL    HW117429   5.031   5.815   0.770
 5510SOL    HW217430   5.069   5.906   0.640
 5511SOL     OW17431   2.530   0.092   4.114
 5511SOL    HW117432   2.599   0.022   4.130
 5511SOL    HW217433   2.507   0.138   4.200
 5512SOL     OW17434   6.695   1.884   0.822
 5512SOL    HW117435   6.678   1.788   0.845
 5512SOL    HW217436   6.611   1.936   0.832
 5513SOL     OW17437   4.337   4.455   6.171
 5513SOL    HW117438   4.267   4.430   6.237
 5513SOL    HW217439   4.400   4.378   6.159
 5514SOL     OW17440   5.278   5.894   2.625
 5514SOL    HW117441   5.346   5.821   2.632
 5514SOL    HW217442   5.205   5.865   2.563
 5515SOL     OW17443   0.233   4.157   1.381
 5515SOL    HW117444   0.244   4.072   1.329
 5515SOL    HW217445   0.323   4.187   1.414
 5516SOL     OW17446   1.191   2.916   0.588
 5516SOL    HW117447   1.290   2.930   0.588
 5516SOL    HW217448   1.150   2.959   0.668
 5517SOL     OW17449   2.726   2.148   2.499
 5517SOL    HW117450   2.695   2.190   2.414
 5517SOL    HW217451   2.710   2.210   2.576
 5518SOL     OW17452   6.449   6.213   6.121
 5518SOL    HW117453   6.508   6.227   6.201
 5518SOL    HW217454   6.390   6.293   6.109
 5519SOL     OW17455   4.847   3.767   2.813
 5519SOL    HW117456   4.857   3.702   2.889
 5519SOL    HW217457   4.872   3.723   2.727
 5520SOL     OW17458   0.393   4.758   2.988
 5520SOL    HW117459   0.484   4.794   2.969
 5520SOL    HW217460   0.401   4.665   3.025
 5521SOL     OW17461   3.722   5.890   2.772
 5521SOL    HW117462   3.803   5.870   2.827
 5521SOL    HW217463   3.694   5.808   2.722
 5522SOL     OW17464   1.646   4.351   0.751
 5522SOL    HW117465   1.626   4.424   0.817
 5522SOL    HW217466   1.606   4.373   0.662
 5523SOL     OW17467   2.885   0.209   3.167
 5523SOL    HW117468   2.844   0.127   3.208
 5523SOL    HW217469   2.828   0.240   3.091
 5524SOL     OW17470   6.740   5.390   4.473
 5524SOL    HW117471   6.770   5.385   4.568
 5524SOL    HW217472   6.650   5.347   4.464
 5525SOL     OW17473   6.847   3.792   0.509
 5525SOL    HW117474   6.936   3.781   0.466
 5525SOL    HW217475   6.847   3.746   0.598
 5526SOL     OW17476   6.156   3.554   5.089
 5526SOL    HW117477   6.139   3.636   5.143
 5526SOL    HW217478   6.244   3.515   5.113
 5527SOL     OW17479   0.691   3.759   3.620
 5527SOL    HW117480   0.738   3.703   3.689
 5527SOL    HW217481   0.758   3.816   3.572
 5528SOL     OW17482   0.751   2.045   6.397
 5528SOL    HW117483   0.776   2.075   6.489
 5528SOL    HW217484   0.720   2.124   6.343
 5529SOL     OW17485   2.317   6.789   4.637
 5529SOL    HW117486   2.395   6.846   4.661
 5529SOL    HW217487   2.334   6.695   4.665
 5530SOL     OW17488   6.977   2.764   2.457
 5530SOL    HW117489   6.931   2.696   2.401
 5530SOL    HW217490   6.951   2.752   2.553
 5531SOL     OW17491   3.541   3.841   3.153
 5531SOL    HW117492   3.486   3.857   3.071
 5531SOL    HW217493   3.582   3.927   3.182
 5532SOL     OW17494   1.277   1.548   1.184
 5532SOL    HW117495   1.309   1.464   1.227
 5532SOL    HW217496   1.177   1.551   1.186
 5533SOL     OW17497   2.913   1.273   2.523
 5533SOL    HW117498   3.010   1.287   2.541
 5533SOL    HW217499   2.879   1.348   2.466
 5534SOL     OW17500   1.363   3.225   6.136
 5534SOL    HW117501   1.427   3.176   6.195
 5534SOL    HW217502   1.330   3.163   6.064
 5535SOL     OW17503   0.395   2.775   3.559
 5535SOL    HW117504   0.386   2.816   3.650
 5535SOL    HW217505   0.308   2.783   3.510
 5536SOL     OW17506   3.778   1.405   4.339
 5536SOL    HW117507   3.860   1.453   4.370
 5536SOL    HW217508   3.697   1.459   4.363
 5537SOL     OW17509   3.027   0.616   4.477
 5537SOL    HW117510   3.051   0.532   4.526
 5537SOL    HW217511   3.044   0.695   4.537
 5538SOL     OW17512   3.173   0.429   5.125
 5538SOL    HW117513   3.123   0.514   5.110
 5538SOL    HW217514   3.177   0.378   5.039
 5539SOL     OW17515   1.007   2.768   0.957
 5539SOL    HW117516   1.043   2.837   0.894
 5539SOL    HW217517   1.011   2.804   1.051
 5540SOL     OW17518   5.538   3.587   2.311
 5540SOL    HW117519   5.632   3.566   2.283
 5540SOL    HW217520   5.494   3.503   2.344
 5541SOL     OW17521   5.294   2.308   6.302
 5541SOL    HW117522   5.316   2.215   6.272
 5541SOL    HW217523   5.369   2.343   6.359
 5542SOL     OW17524   5.812   6.359   5.314
 5542SOL    HW117525   5.789   6.456   5.316
 5542SOL    HW217526   5.793   6.318   5.404
 5543SOL     OW17527   2.302   5.418   6.226
 5543SOL    HW117528   2.204   5.398   6.229
 5543SOL    HW217529   2.350   5.358   6.290
 5544SOL     OW17530   5.067   5.727   6.065
 5544SOL    HW117531   5.146   5.772   6.024
 5544SOL    HW217532   4.993   5.721   5.997
 5545SOL     OW17533   4.811   1.343   3.090
 5545SOL    HW117534   4.757   1.305   3.166
 5545SOL    HW217535   4.801   1.285   3.010
 5546SOL     OW17536   0.818   6.921   4.326
 5546SOL    HW117537   0.842   6.868   4.408
 5546SOL    HW217538   0.727   6.960   4.337
 5547SOL     OW17539   4.149   0.883   4.887
 5547SOL    HW117540   4.201   0.965   4.863
 5547SOL    HW217541   4.065   0.909   4.934
 5548SOL     OW17542   6.085   3.146   5.220
 5548SOL    HW117543   6.021   3.074   5.246
 5548SOL    HW217544   6.128   3.123   5.133
 5549SOL     OW17545   3.863   4.524   0.898
 5549SOL    HW117546   3.777   4.565   0.866
 5549SOL    HW217547   3.885   4.444   0.843
 5550SOL     OW17548   2.141   4.564   2.276
 5550SOL    HW117549   2.169   4.501   2.203
 5550SOL    HW217550   2.051   4.537   2.310
 5551SOL     OW17551   1.449   6.688   3.061
 5551SOL    HW117552   1.447   6.589   3.046
 5551SOL    HW217553   1.519   6.710   3.129
 5552SOL     OW17554   6.735   0.533   6.510
 5552SOL    HW117555   6.742   0.631   6.490
 5552SOL    HW217556   6.652   0.516   6.563
 5553SOL     OW17557   4.688   5.875   6.204
 5553SOL    HW117558   4.637   5.795   6.235
 5553SOL    HW217559   4.666   5.953   6.261
 5554SOL     OW17560   4.028   2.302   6.917
 5554SOL    HW117561   3.929   2.290   6.926
 5554SOL    HW217562   4.052   2.299   6.820
 5555SOL     OW17563   0.876   3.967   2.848
 5555SOL    HW117564   0.845   3.924   2.933
 5555SOL    HW217565   0.904   4.061   2.866
 5556SOL     OW17566   6.276   1.836   2.990
 5556SOL    HW117567   6.281   1.896   2.910
 5556SOL    HW217568   6.349   1.768   2.986
 5557SOL     OW17569   3.609   6.401   2.864
 5557SOL    HW117570   3.670   6.340   2.915
 5557SOL    HW217571   3.623   6.495   2.894
 5558SOL     OW17572   3.604   3.948   6.088
 5558SOL    HW117573   3.682   3.932   6.028
 5558SOL    HW217574   3.624   3.914   6.180
 5559SOL     OW17575   1.944   0.225   1.293
 5559SOL    HW117576   1.891   0.293   1.343
 5559SOL    HW217577   1.947   0.140   1.346
 5560SOL     OW17578   0.461   5.454   1.592
 5560SOL    HW117579   0.383   5.392   1.586
 5560SOL    HW217580   0.545   5.401   1.601
 5561SOL     OW17581   1.524   1.337   4.373
 5561SOL    HW117582   1.527   1.437   4.376
 5561SOL    HW217583   1.587   1.300   4.441
 5562SOL     OW17584   4.205   2.643   6.346
 5562SOL    HW117585   4.205   2.616   6.442
 5562SOL    HW217586   4.116   2.682   6.323
 5563SOL     OW17587   3.476   4.873   2.484
 5563SOL    HW117588   3.571   4.878   2.514
 5563SOL    HW217589   3.469   4.904   2.389
 5564SOL     OW17590   4.960   6.982   0.989
 5564SOL    HW117591   4.868   6.943   0.998
 5564SOL    HW217592   4.957   0.062   1.011
 5565SOL     OW17593   4.478   2.202   6.195
 5565SOL    HW117594   4.492   2.147   6.277
 5565SOL    HW217595   4.412   2.275   6.215
 5566SOL     OW17596   1.432   3.725   6.652
 5566SOL    HW117597   1.446   3.647   6.592
 5566SOL    HW217598   1.514   3.739   6.708
 5567SOL     OW17599   6.983   2.778   0.977
 5567SOL    HW117600   6.935   2.753   1.061
 5567SOL    HW217601   6.954   2.717   0.903
 5568SOL     OW17602   5.007   1.892   3.873
 5568SOL    HW117603   4.968   1.934   3.791
 5568SOL    HW217604   4.963   1.805   3.891
 5569SOL     OW17605   1.969   1.914   2.405
 5569SOL    HW117606   1.973   1.820   2.371
 5569SOL    HW217607   1.885   1.925   2.458
 5570SOL     OW17608   6.944   3.619   5.012
 5570SOL    HW117609   6.959   3.520   5.007
 5570SOL    HW217610   6.958   3.650   5.107
 5571SOL     OW17611   6.249   6.124   0.183
 5571SOL    HW117612   6.280   6.029   0.194
 5571SOL    HW217613   6.301   6.168   0.110
 5572SOL     OW17614   1.113   2.767   4.830
 5572SOL    HW117615   1.209   2.778   4.855
 5572SOL    HW217616   1.100   2.677   4.788
 5573SOL     OW17617   1.943   5.336   5.167
 5573SOL    HW117618   2.019   5.376   5.115
 5573SOL    HW217619   1.975   5.254   5.214
 5574SOL     OW17620   6.970   1.755   2.583
 5574SOL    HW117621   7.005   1.805   2.504
 5574SOL    HW217622   6.981   1.657   2.568
 5575SOL     OW17623   6.839   0.855   0.967
 5575SOL    HW117624   6.888   0.909   0.898
 5575SOL    HW217625   6.744   0.843   0.939
 5576SOL     OW17626   0.990   4.485   1.739
 5576SOL    HW117627   0.983   4.430   1.656
 5576SOL    HW217628   0.952   4.435   1.816
 5577SOL     OW17629   3.223   3.157   5.669
 5577SOL    HW117630   3.138   3.143   5.720
 5577SOL    HW217631   3.253   3.252   5.678
 5578SOL     OW17632   3.588   3.652   1.205
 5578SOL    HW117633   3.664   3.628   1.145
 5578SOL    HW217634   3.597   3.603   1.291
 5579SOL     OW17635   0.703   3.217   0.974
 5579SOL    HW117636   0.619   3.271   0.979
 5579SOL    HW217637   0.765   3.245   1.047
 5580SOL     OW17638   5.356   2.529   5.606
 5580SOL    HW117639   5.441   2.553   5.560
 5580SOL    HW217640   5.372   2.526   5.705
 5581SOL     OW17641   1.525   6.871   1.809
 5581SOL    HW117642   1.468   6.852   1.728
 5581SOL    HW217643   1.466   6.893   1.886
 5582SOL     OW17644   3.202   3.513   5.332
 5582SOL    HW117645   3.205   3.505   5.232
 5582SOL    HW217646   3.290   3.550   5.364
 5583SOL     OW17647   4.945   0.403   2.941
 5583SOL    HW117648   4.917   0.424   3.034
 5583SOL    HW217649   4.868   0.416   2.879
 5584SOL     OW17650   6.068   5.293   3.386
 5584SOL    HW117651   6.043   5.324   3.478
 5584SOL    HW217652   6.166   5.276   3.383
 5585SOL     OW17653   5.115   5.176   3.511
 5585SOL    HW117654   5.027   5.163   3.465
 5585SOL    HW217655   5.129   5.274   3.528
 5586SOL     OW17656   0.419   2.499   6.275
 5586SOL    HW117657   0.365   2.418   6.254
 5586SOL    HW217658   0.510   2.490   6.234
 5587SOL     OW17659   4.347   6.559   1.469
 5587SOL    HW117660   4.305   6.469   1.463
 5587SOL    HW217661   4.409   6.573   1.392
 5588SOL     OW17662   2.149   5.561   3.205
 5588SOL    HW117663   2.126   5.614   3.123
 5588SOL    HW217664   2.065   5.527   3.248
 5589SOL     OW17665   6.631   3.350   5.403
 5589SOL    HW117666   6.706   3.307   5.454
 5589SOL    HW217667   6.547   3.345   5.457
 5590SOL     OW17668   0.012   6.660   3.852
 5590SOL    HW117669   7.013   6.624   3.944
 5590SOL    HW217670   6.980   6.605   3.785
 5591SOL     OW17671   5.502   1.559   0.480
 5591SOL    HW117672   5.490   1.620   0.402
 5591SOL    HW217673   5.423   1.497   0.485
 5592SOL     OW17674   0.388   5.030   2.167
 5592SOL    HW117675   0.406   5.114   2.117
 5592SOL    HW217676   0.449   5.025   2.246
 5593SOL     OW17677   0.847   3.652   0.444
 5593SOL    HW117678   0.860   3.686   0.351
 5593SOL    HW217679   0.895   3.712   0.508
 5594SOL     OW17680   4.428   1.006   6.331
 5594SOL    HW117681   4.498   0.967   6.391
 5594SOL    HW217682   4.345   1.022   6.383
 5595SOL     OW17683   7.012   0.857   4.790
 5595SOL    HW117684   0.055   0.891   4.719
 5595SOL    HW217685   6.958   0.780   4.754
 5596SOL     OW17686   4.682   0.628   3.377
 5596SOL    HW117687   4.762   0.642   3.318
 5596SOL    HW217688   4.615   0.699   3.359
 5597SOL     OW17689   4.938   2.858   5.156
 5597SOL    HW117690   4.994   2.922   5.209
 5597SOL    HW217691   4.842   2.873   5.177
 5598SOL     OW17692   5.849   4.143   3.377
 5598SOL    HW117693   5.926   4.203   3.397
 5598SOL    HW217694   5.871   4.049   3.405
 5599SOL     OW17695   0.890   2.428   1.626
 5599SOL    HW117696   0.974   2.416   1.678
 5599SOL    HW217697   0.820   2.467   1.686
 5600SOL     OW17698   1.573   1.311   1.216
 5600SOL    HW117699   1.631   1.247   1.268
 5600SOL    HW217700   1.606   1.317   1.122
 5601SOL     OW17701   2.265   0.941   6.556
 5601SOL    HW117702   2.265   1.013   6.625
 5601SOL    HW217703   2.336   0.874   6.576
 5602SOL     OW17704   0.413   1.889   1.315
 5602SOL    HW117705   0.348   1.815   1.330
 5602SOL    HW217706   0.371   1.976   1.341
 5603SOL     OW17707   5.795   2.466   0.370
 5603SOL    HW117708   5.730   2.539   0.349
 5603SOL    HW217709   5.783   2.391   0.305
 5604SOL     OW17710   6.259   2.213   4.446
 5604SOL    HW117711   6.272   2.188   4.542
 5604SOL    HW217712   6.179   2.164   4.410
 5605SOL     OW17713   6.838   1.037   5.183
 5605SOL    HW117714   6.896   0.974   5.132
 5605SOL    HW217715   6.743   1.024   5.155
 5606SOL     OW17716   5.174   5.899   0.021
 5606SOL    HW117717   5.248   5.962   0.041
 5606SOL    HW217718   5.086   5.946   0.030
 5607SOL     OW17719   5.944   1.304   2.829
 5607SOL    HW117720   6.021   1.273   2.885
 5607SOL    HW217721   5.900   1.382   2.872
 5608SOL     OW17722   5.442   0.323   3.776
 5608SOL    HW117723   5.476   0.414   3.799
 5608SOL    HW217724   5.447   0.310   3.677
 5609SOL     OW17725   3.360   6.031   1.324
 5609SOL    HW117726   3.396   6.061   1.413
 5609SOL    HW217727   3.429   5.975   1.278
 5610SOL     OW17728   4.425   5.463   1.027
 5610SOL    HW117729   4.373   5.548   1.024
 5610SOL    HW217730   4.472   5.455   1.115
 5611SOL     OW17731   0.768   5.790   2.913
 5611SOL    HW117732   0.687   5.762   2.965
 5611SOL    HW217733   0.745   5.868   2.854
 5612SOL     OW17734   4.099   1.936   5.871
 5612SOL    HW117735   4.182   1.970   5.916
 5612SOL    HW217736   4.076   1.995   5.794
 5613SOL     OW17737   6.887   4.782   3.738
 5613SOL    HW117738   6.907   4.835   3.820
 5613SOL    HW217739   6.954   4.709   3.729
 5614SOL     OW17740   4.790   2.456   4.543
 5614SOL    HW117741   4.726   2.380   4.555
 5614SOL    HW217742   4.754   2.519   4.473
 5615SOL     OW17743   6.699   1.501   3.344
 5615SOL    HW117744   6.613   1.548   3.323
 5615SOL    HW217745   6.682   1.403   3.354
 5616SOL     OW17746   2.685   2.206   4.231
 5616SOL    HW117747   2.736   2.131   4.273
 5616SOL    HW217748   2.696   2.202   4.131
 5617SOL     OW17749   2.690   6.146   5.471
 5617SOL    HW117750   2.789   6.157   5.477
 5617SOL    HW217751   2.652   6.131   5.562
 5618SOL     OW17752   0.380   4.361   3.849
 5618SOL    HW117753   0.394   4.294   3.921
 5618SOL    HW217754   0.282   4.377   3.836
 5619SOL     OW17755   3.891   3.864   4.704
 5619SOL    HW117756   3.831   3.786   4.721
 5619SOL    HW217757   3.963   3.867   4.773
 5620SOL     OW17758   4.465   3.838   0.586
 5620SOL    HW117759   4.408   3.876   0.659
 5620SOL    HW217760   4.543   3.790   0.626
 5621SOL     OW17761   2.444   2.793   0.351
 5621SOL    HW117762   2.396   2.791   0.263
 5621SOL    HW217763   2.509   2.717   0.356
 5622SOL     OW17764   4.701   0.153   5.761
 5622SOL    HW117765   4.625   0.093   5.788
 5622SOL    HW217766   4.675   0.203   5.678
 5623SOL     OW17767   3.843   5.721   5.255
 5623SOL    HW117768   3.785   5.794   5.292
 5623SOL    HW217769   3.928   5.761   5.220
 5624SOL     OW17770   0.713   4.473   3.355
 5624SOL    HW117771   0.649   4.396   3.352
 5624SOL    HW217772   0.800   4.442   3.394
 5625SOL     OW17773   5.611   0.533   5.070
 5625SOL    HW117774   5.685   0.527   5.136
 5625SOL    HW217775   5.544   0.461   5.088
 5626SOL     OW17776   2.205   5.932   4.485
 5626SOL    HW117777   2.129   5.903   4.426
 5626SOL    HW217778   2.202   5.879   4.569
 5627SOL     OW17779   0.305   5.445   6.090
 5627SOL    HW117780   0.327   5.370   6.028
 5627SOL    HW217781   0.307   5.532   6.040
 5628SOL     OW17782   1.415   2.157   2.170
 5628SOL    HW117783   1.479   2.234   2.174
 5628SOL    HW217784   1.449   2.089   2.105
 5629SOL     OW17785   3.879   3.611   2.277
 5629SOL    HW117786   3.887   3.519   2.313
 5629SOL    HW217787   3.934   3.674   2.332
 5630SOL     OW17788   1.742   3.718   6.674
 5630SOL    HW117789   1.734   3.762   6.585
 5630SOL    HW217790   1.702   3.777   6.744
 5631SOL     OW17791   4.457   2.230   1.293
 5631SOL    HW117792   4.436   2.311   1.349
 5631SOL    HW217793   4.531   2.252   1.229
 5632SOL     OW17794   3.137   2.290   6.322
 5632SOL    HW117795   3.200   2.220   6.353
 5632SOL    HW217796   3.180   2.344   6.249
 5633SOL     OW17797   6.295   4.275   4.661
 5633SOL    HW117798   6.312   4.316   4.751
 5633SOL    HW217799   6.234   4.196   4.672
 5634SOL     OW17800   2.056   5.053   3.843
 5634SOL    HW117801   2.148   5.027   3.814
 5634SOL    HW217802   2.060   5.087   3.937
 5635SOL     OW17803   1.845   4.820   5.669
 5635SOL    HW117804   1.899   4.758   5.612
 5635SOL    HW217805   1.813   4.897   5.614
 5636SOL     OW17806   4.705   6.959   4.786
 5636SOL    HW117807   4.690   0.002   4.864
 5636SOL    HW217808   4.617   6.935   4.745
 5637SOL     OW17809   5.191   0.533   2.877
 5637SOL    HW117810   5.227   0.626   2.883
 5637SOL    HW217811   5.091   0.536   2.890
 5638SOL     OW17812   6.461   4.050   0.711
 5638SOL    HW117813   6.367   4.050   0.678
 5638SOL    HW217814   6.521   4.013   0.640
 5639SOL     OW17815   1.096   0.903   2.655
 5639SOL    HW117816   1.195   0.919   2.659
 5639SOL    HW217817   1.077   0.828   2.592
 5640SOL     OW17818   3.813   0.388   3.582
 5640SOL    HW117819   3.735   0.394   3.519
 5640SOL    HW217820   3.876   0.464   3.564
 5641SOL     OW17821   0.830   5.058   4.783
 5641SOL    HW117822   0.809   5.155   4.766
 5641SOL    HW217823   0.884   5.022   4.706
 5642SOL     OW17824   1.817   6.740   5.242
 5642SOL    HW117825   1.721   6.767   5.235
 5642SOL    HW217826   1.826   6.644   5.217
 5643SOL     OW17827   4.465   1.261   5.483
 5643SOL    HW117828   4.382   1.290   5.436
 5643SOL    HW217829   4.544   1.305   5.440
 5644SOL     OW17830   2.755   0.445   5.208
 5644SOL    HW117831   2.763   0.346   5.211
 5644SOL    HW217832   2.751   0.482   5.301
 5645SOL     OW17833   6.395   4.875   3.691
 5645SOL    HW117834   6.323   4.842   3.629
 5645SOL    HW217835   6.355   4.903   3.777
 5646SOL     OW17836   1.494   4.807   3.491
 5646SOL    HW117837   1.399   4.786   3.513
 5646SOL    HW217838   1.538   4.846   3.572
 5647SOL     OW17839   5.114   5.329   0.938
 5647SOL    HW117840   5.181   5.317   0.865
 5647SOL    HW217841   5.152   5.390   1.008
 5648SOL     OW17842   1.915   6.930   2.824
 5648SOL    HW117843   1.928   6.840   2.867
 5648SOL    HW217844   1.922   7.001   2.894
 5649SOL     OW17845   0.703   0.361   4.179
 5649SOL    HW117846   0.615   0.408   4.177
 5649SOL    HW217847   0.772   0.421   4.220
 5650SOL     OW17848   0.583   5.828   1.162
 5650SOL    HW117849   0.598   5.764   1.086
 5650SOL    HW217850   0.545   5.913   1.127
 5651SOL     OW17851   1.557   0.626   1.468
 5651SOL    HW117852   1.496   0.602   1.544
 5651SOL    HW217853   1.627   0.689   1.501
 5652SOL     OW17854   6.353   0.232   1.447
 5652SOL    HW117855   6.345   0.331   1.434
 5652SOL    HW217856   6.316   0.185   1.367
 5653SOL     OW17857   6.118   6.265   6.044
 5653SOL    HW117858   6.098   6.207   6.123
 5653SOL    HW217859   6.190   6.330   6.069
 5654SOL     OW17860   0.432   6.334   5.565
 5654SOL    HW117861   0.424   6.276   5.646
 5654SOL    HW217862   0.355   6.316   5.504
 5655SOL     OW17863   1.250   3.627   4.269
 5655SOL    HW117864   1.221   3.706   4.323
 5655SOL    HW217865   1.169   3.574   4.241
 5656SOL     OW17866   0.132   3.879   6.510
 5656SOL    HW117867   0.072   3.801   6.524
 5656SOL    HW217868   0.224   3.847   6.486
 5657SOL     OW17869   6.033   2.711   0.170
 5657SOL    HW117870   6.067   2.745   0.258
 5657SOL    HW217871   6.077   2.624   0.149
 5658SOL     OW17872   3.119   3.072   6.742
 5658SOL    HW117873   3.186   3.146   6.728
 5658SOL    HW217874   3.062   3.093   6.821
 5659SOL     OW17875   3.433   3.504   5.087
 5659SOL    HW117876   3.399   3.411   5.093
 5659SOL    HW217877   3.359   3.566   5.062
 5660SOL     OW17878   4.316   6.799   6.351
 5660SOL    HW117879   4.246   6.761   6.412
 5660SOL    HW217880   4.407   6.785   6.392
 5661SOL     OW17881   1.743   5.494   5.088
 5661SOL    HW117882   1.811   5.439   5.137
 5661SOL    HW217883   1.669   5.434   5.056
 5662SOL     OW17884   2.705   6.470   3.966
 5662SOL    HW117885   2.753   6.407   3.905
 5662SOL    HW217886   2.607   6.467   3.945
 5663SOL     OW17887   2.281   2.146   0.601
 5663SOL    HW117888   2.329   2.076   0.548
 5663SOL    HW217889   2.300   2.133   0.698
 5664SOL     OW17890   0.187   3.223   4.386
 5664SOL    HW117891   0.247   3.282   4.441
 5664SOL    HW217892   0.196   3.128   4.417
 5665SOL     OW17893   2.517   0.889   0.238
 5665SOL    HW117894   2.436   0.902   0.294
 5665SOL    HW217895   2.506   0.809   0.179
 5666SOL     OW17896   6.510   6.967   3.584
 5666SOL    HW117897   6.585   6.990   3.523
 5666SOL    HW217898   6.459   6.889   3.547
 5667SOL     OW17899   1.532   4.846   4.748
 5667SOL    HW117900   1.552   4.889   4.836
 5667SOL    HW217901   1.456   4.895   4.703
 5668SOL     OW17902   5.359   2.903   3.225
 5668SOL    HW117903   5.452   2.936   3.244
 5668SOL    HW217904   5.329   2.844   3.301
 5669SOL     OW17905   6.641   3.885   0.914
 5669SOL    HW117906   6.622   3.839   1.001
 5669SOL    HW217907   6.555   3.909   0.869
 5670SOL     OW17908   1.041   3.524   4.146
 5670SOL    HW117909   1.057   3.456   4.075
 5670SOL    HW217910   1.006   3.608   4.105
 5671SOL     OW17911   5.834   5.763   5.510
 5671SOL    HW117912   5.838   5.700   5.432
 5671SOL    HW217913   5.902   5.836   5.497
 5672SOL     OW17914   4.333   3.753   6.619
 5672SOL    HW117915   4.353   3.818   6.693
 5672SOL    HW217916   4.238   3.722   6.627
 5673SOL     OW17917   2.000   6.688   1.133
 5673SOL    HW117918   2.055   6.650   1.207
 5673SOL    HW217919   1.978   6.616   1.067
 5674SOL     OW17920   0.548   4.263   5.078
 5674SOL    HW117921   0.452   4.283   5.060
 5674SOL    HW217922   0.559   4.233   5.172
 5675SOL     OW17923   4.443   3.007   6.141
 5675SOL    HW117924   4.419   2.911   6.152
 5675SOL    HW217925   4.491   3.039   6.223
 5676SOL     OW17926   2.722   1.513   2.656
 5676SOL    HW117927   2.658   1.577   2.614
 5676SOL    HW217928   2.799   1.497   2.594
 5677SOL     OW17929   0.544   1.011   0.742
 5677SOL    HW117930   0.555   0.977   0.649
 5677SOL    HW217931   0.522   0.934   0.802
 5678SOL     OW17932   4.020   6.819   2.704
 5678SOL    HW117933   4.080   6.827   2.784
 5678SOL    HW217934   3.933   6.780   2.732
 5679SOL     OW17935   6.219   1.530   3.518
 5679SOL    HW117936   6.128   1.515   3.557
 5679SOL    HW217937   6.260   1.611   3.559
 5680SOL     OW17938   1.645   5.433   6.241
 5680SOL    HW117939   1.704   5.371   6.190
 5680SOL    HW217940   1.581   5.380   6.297
 5681SOL     OW17941   0.645   3.456   1.757
 5681SOL    HW117942   0.740   3.443   1.728
 5681SOL    HW217943   0.598   3.368   1.757
 5682SOL     OW17944   1.900   5.228   4.754
 5682SOL    HW117945   1.917   5.316   4.799
 5682SOL    HW217946   1.816   5.234   4.700
 5683SOL     OW17947   3.751   1.034   5.798
 5683SOL    HW117948   3.698   0.973   5.858
 5683SOL    HW217949   3.803   0.979   5.733
 5684SOL     OW17950   2.374   3.677   5.949
 5684SOL    HW117951   2.473   3.685   5.964
 5684SOL    HW217952   2.329   3.762   5.976
 5685SOL     OW17953   2.344   1.495   3.585
 5685SOL    HW117954   2.270   1.448   3.538
 5685SOL    HW217955   2.410   1.428   3.620
 5686SOL     OW17956   3.010   1.434   6.187
 5686SOL    HW117957   3.086   1.496   6.172
 5686SOL    HW217958   2.959   1.422   6.101
 5687SOL     OW17959   0.282   5.311   6.551
 5687SOL    HW117960   0.264   5.343   6.458
 5687SOL    HW217961   0.358   5.245   6.549
 5688SOL     OW17962   1.193   2.293   2.299
 5688SOL    HW117963   1.255   2.251   2.232
 5688SOL    HW217964   1.180   2.389   2.276
 5689SOL     OW17965   3.168   1.436   1.557
 5689SOL    HW117966   3.140   1.351   1.511
 5689SOL    HW217967   3.182   1.507   1.488
 5690SOL     OW17968   1.613   6.214   0.286
 5690SOL    HW117969   1.681   6.201   0.358
 5690SOL    HW217970   1.537   6.151   0.300
 5691SOL     OW17971   4.147   0.544   2.220
 5691SOL    HW117972   4.214   0.501   2.159
 5691SOL    HW217973   4.145   0.643   2.203
 5692SOL     OW17974   5.514   3.756   0.741
 5692SOL    HW117975   5.479   3.662   0.737
 5692SOL    HW217976   5.557   3.771   0.830
 5693SOL     OW17977   4.388   1.824   2.530
 5693SOL    HW117978   4.341   1.863   2.451
 5693SOL    HW217979   4.351   1.734   2.550
 5694SOL     OW17980   1.075   1.196   2.994
 5694SOL    HW117981   1.042   1.289   2.981
 5694SOL    HW217982   1.061   1.144   2.910
 5695SOL     OW17983   1.620   1.923   3.931
 5695SOL    HW117984   1.624   2.023   3.922
 5695SOL    HW217985   1.709   1.884   3.907
 5696SOL     OW17986   0.916   1.121   3.586
 5696SOL    HW117987   0.993   1.074   3.542
 5696SOL    HW217988   0.831   1.074   3.564
 5697SOL     OW17989   5.984   2.117   1.796
 5697SOL    HW117990   5.915   2.065   1.747
 5697SOL    HW217991   6.051   2.154   1.731
 5698SOL     OW17992   0.844   4.471   3.888
 5698SOL    HW117993   0.773   4.499   3.952
 5698SOL    HW217994   0.913   4.544   3.881
 5699SOL     OW17995   1.180   2.969   3.248
 5699SOL    HW117996   1.253   2.986   3.315
 5699SOL    HW217997   1.117   3.046   3.247
 5700SOL     OW17998   6.276   6.970   3.717
 5700SOL    HW117999   6.316   6.894   3.768
 5700SOL    HW218000   6.345   7.008   3.655
 5701SOL     OW18001   0.560   0.325   1.314
 5701SOL    HW118002   0.488   0.287   1.373
 5701SOL    HW218003   0.643   0.271   1.326
 5702SOL     OW18004   2.763   5.177   4.436
 5702SOL    HW118005   2.778   5.175   4.534
 5702SOL    HW218006   2.850   5.193   4.389
 5703SOL     OW18007   6.562   4.627   0.556
 5703SOL    HW118008   6.569   4.563   0.633
 5703SOL    HW218009   6.536   4.718   0.590
 5704SOL     OW18010   4.733   4.164   3.055
 5704SOL    HW118011   4.794   4.141   3.130
 5704SOL    HW218012   4.763   4.118   2.972
 5705SOL     OW18013   5.062   6.419   6.853
 5705SOL    HW118014   5.089   6.471   6.772
 5705SOL    HW218015   5.067   6.477   6.934
 5706SOL     OW18016   6.732   3.111   2.349
 5706SOL    HW118017   6.758   3.043   2.418
 5706SOL    HW218018   6.781   3.196   2.367
 5707SOL     OW18019   6.775   6.776   0.600
 5707SOL    HW118020   6.781   6.686   0.557
 5707SOL    HW218021   6.766   6.846   0.529
 5708SOL     OW18022   5.093   5.842   2.417
 5708SOL    HW118023   5.057   5.765   2.365
 5708SOL    HW218024   5.142   5.903   2.355
 5709SOL     OW18025   1.136   1.359   2.467
 5709SOL    HW118026   1.215   1.416   2.444
 5709SOL    HW218027   1.077   1.351   2.386
 5710SOL     OW18028   2.903   2.808   0.636
 5710SOL    HW118029   2.938   2.802   0.730
 5710SOL    HW218030   2.813   2.765   0.631
 5711SOL     OW18031   5.406   1.238   2.904
 5711SOL    HW118032   5.331   1.255   2.839
 5711SOL    HW218033   5.449   1.325   2.928
 5712SOL     OW18034   6.001   0.257   0.407
 5712SOL    HW118035   5.942   0.292   0.334
 5712SOL    HW218036   6.078   0.319   0.421
 5713SOL     OW18037   2.921   4.152   1.435
 5713SOL    HW118038   3.011   4.194   1.446
 5713SOL    HW218039   2.895   4.106   1.520
 5714SOL     OW18040   0.269   5.538   0.952
 5714SOL    HW118041   0.350   5.559   1.006
 5714SOL    HW218042   0.262   5.600   0.874
 5715SOL     OW18043   0.855   0.589   2.640
 5715SOL    HW118044   0.926   0.603   2.571
 5715SOL    HW218045   0.776   0.646   2.618
 5716SOL     OW18046   1.437   5.039   6.041
 5716SOL    HW118047   1.489   4.986   5.974
 5716SOL    HW218048   1.340   5.015   6.033
 5717SOL     OW18049   1.853   4.905   0.758
 5717SOL    HW118050   1.908   4.966   0.701
 5717SOL    HW218051   1.824   4.953   0.841
 5718SOL     OW18052   0.530   3.312   0.343
 5718SOL    HW118053   0.613   3.360   0.314
 5718SOL    HW218054   0.520   3.228   0.289
 5719SOL     OW18055   1.614   2.692   0.070
 5719SOL    HW118056   1.636   2.597   0.048
 5719SOL    HW218057   1.633   2.709   0.167
 5720SOL     OW18058   2.491   5.980   5.109
 5720SOL    HW118059   2.437   6.059   5.138
 5720SOL    HW218060   2.584   5.988   5.146
 5721SOL     OW18061   6.353   3.822   0.869
 5721SOL    HW118062   6.349   3.898   0.934
 5721SOL    HW218063   6.378   3.738   0.918
 5722SOL     OW18064   6.646   2.049   5.041
 5722SOL    HW118065   6.653   1.953   5.015
 5722SOL    HW218066   6.579   2.060   5.114
 5723SOL     OW18067   4.344   3.271   0.317
 5723SOL    HW118068   4.319   3.364   0.287
 5723SOL    HW218069   4.430   3.274   0.367
 5724SOL     OW18070   5.398   2.865   4.330
 5724SOL    HW118071   5.310   2.820   4.318
 5724SOL    HW218072   5.454   2.813   4.394
 5725SOL     OW18073   6.335   5.236   3.704
 5725SOL    HW118074   6.277   5.294   3.761
 5725SOL    HW218075   6.427   5.273   3.701
 5726SOL     OW18076   6.466   5.613   4.323
 5726SOL    HW118077   6.470   5.515   4.305
 5726SOL    HW218078   6.553   5.644   4.363
 5727SOL     OW18079   5.990   2.247   4.302
 5727SOL    HW118080   5.970   2.180   4.231
 5727SOL    HW218081   5.906   2.268   4.352
 5728SOL     OW18082   3.947   6.194   5.713
 5728SOL    HW118083   4.043   6.165   5.716
 5728SOL    HW218084   3.942   6.294   5.709
 5729SOL     OW18085   2.464   0.336   0.108
 5729SOL    HW118086   2.372   0.333   0.147
 5729SOL    HW218087   2.519   0.402   0.160
 5730SOL     OW18088   5.256   4.734   6.094
 5730SOL    HW118089   5.217   4.644   6.114
 5730SOL    HW218090   5.200   4.780   6.026
 5731SOL     OW18091   0.327   6.742   2.992
 5731SOL    HW118092   0.322   6.831   3.036
 5731SOL    HW218093   0.314   6.670   3.061
 5732SOL     OW18094   0.467   5.507   3.826
 5732SOL    HW118095   0.517   5.575   3.773
 5732SOL    HW218096   0.520   5.422   3.831
 5733SOL     OW18097   3.226   6.225   5.511
 5733SOL    HW118098   3.307   6.259   5.464
 5733SOL    HW218099   3.252   6.150   5.573
 5734SOL     OW18100   1.100   0.542   4.976
 5734SOL    HW118101   1.101   0.443   4.991
 5734SOL    HW218102   1.006   0.572   4.956
 5735SOL     OW18103   3.977   1.892   1.448
 5735SOL    HW118104   4.011   1.827   1.516
 5735SOL    HW218105   3.925   1.964   1.493
 5736SOL     OW18106   6.032   4.109   6.943
 5736SOL    HW118107   6.123   4.068   6.929
 5736SOL    HW218108   6.011   4.110   0.023
 5737SOL     OW18109   5.701   6.136   0.121
 5737SOL    HW118110   5.794   6.173   0.120
 5737SOL    HW218111   5.685   6.082   0.039
 5738SOL     OW18112   1.946   2.598   5.838
 5738SOL    HW118113   2.012   2.614   5.765
 5738SOL    HW218114   1.863   2.557   5.799
 5739SOL     OW18115   2.027   0.915   5.939
 5739SOL    HW118116   1.978   0.895   6.024
 5739SOL    HW218117   1.962   0.949   5.870
 5740SOL     OW18118   4.161   4.445   0.591
 5740SOL    HW118119   4.188   4.438   0.687
 5740SOL    HW218120   4.234   4.490   0.539
 5741SOL     OW18121   0.942   5.546   4.817
 5741SOL    HW118122   0.897   5.608   4.881
 5741SOL    HW218123   1.024   5.508   4.861
 5742SOL     OW18124   5.717   6.555   2.743
 5742SOL    HW118125   5.711   6.544   2.644
 5742SOL    HW218126   5.644   6.617   2.774
 5743SOL     OW18127   2.272   6.175   4.623
 5743SOL    HW118128   2.184   6.196   4.667
 5743SOL    HW218129   2.265   6.088   4.575
 5744SOL     OW18130   4.366   0.315   2.369
 5744SOL    HW118131   4.352   0.325   2.270
 5744SOL    HW218132   4.349   0.221   2.395
 5745SOL     OW18133   3.752   0.635   3.892
 5745SOL    HW118134   3.816   0.711   3.890
 5745SOL    HW218135   3.781   0.569   3.962
 5746SOL     OW18136   5.371   0.220   1.613
 5746SOL    HW118137   5.428   0.227   1.531
 5746SOL    HW218138   5.400   0.289   1.679
 5747SOL     OW18139   0.240   4.932   2.588
 5747SOL    HW118140   0.337   4.946   2.605
 5747SOL    HW218141   0.190   4.942   2.674
 5748SOL     OW18142   1.196   5.341   0.664
 5748SOL    HW118143   1.204   5.289   0.748
 5748SOL    HW218144   1.213   5.281   0.586
 5749SOL     OW18145   2.256   0.326   4.684
 5749SOL    HW118146   2.295   0.264   4.752
 5749SOL    HW218147   2.175   0.372   4.722
 5750SOL     OW18148   6.129   5.244   4.511
 5750SOL    HW118149   6.138   5.152   4.471
 5750SOL    HW218150   6.093   5.236   4.604
 5751SOL     OW18151   2.535   2.579   4.438
 5751SOL    HW118152   2.493   2.649   4.380
 5751SOL    HW218153   2.519   2.488   4.398
 5752SOL     OW18154   6.487   0.483   6.639
 5752SOL    HW118155   6.468   0.418   6.713
 5752SOL    HW218156   6.412   0.549   6.632
 5753SOL     OW18157   3.068   3.493   5.559
 5753SOL    HW118158   3.134   3.484   5.633
 5753SOL    HW218159   3.116   3.511   5.473
 5754SOL     OW18160   6.002   4.905   1.189
 5754SOL    HW118161   5.960   4.990   1.158
 5754SOL    HW218162   5.968   4.881   1.280
 5755SOL     OW18163   2.900   3.252   5.522
 5755SOL    HW118164   2.958   3.334   5.529
 5755SOL    HW218165   2.807   3.275   5.551
 5756SOL     OW18166   6.409   5.990   3.181
 5756SOL    HW118167   6.353   6.029   3.108
 5756SOL    HW218168   6.491   5.949   3.142
 5757SOL     OW18169   6.618   6.610   2.570
 5757SOL    HW118170   6.632   6.704   2.601
 5757SOL    HW218171   6.521   6.590   2.568
 5758SOL     OW18172   3.323   1.430   4.001
 5758SOL    HW118173   3.328   1.529   4.007
 5758SOL    HW218174   3.412   1.394   3.971
 5759SOL     OW18175   4.377   1.749   6.522
 5759SOL    HW118176   4.455   1.691   6.547
 5759SOL    HW218177   4.393   1.788   6.431
 5760SOL     OW18178   1.432   5.092   1.707
 5760SOL    HW118179   1.486   5.144   1.642
 5760SOL    HW218180   1.490   5.065   1.785
 5761SOL     OW18181   5.437   0.128   6.061
 5761SOL    HW118182   5.366   0.133   6.130
 5761SOL    HW218183   5.448   0.218   6.018
 5762SOL     OW18184   4.835   6.710   0.216
 5762SOL    HW118185   4.837   6.657   0.301
 5762SOL    HW218186   4.928   6.736   0.191
 5763SOL     OW18187   0.244   0.297   0.136
 5763SOL    HW118188   0.225   0.205   0.101
 5763SOL    HW218189   0.321   0.292   0.201
 5764SOL     OW18190   5.530   4.608   6.086
 5764SOL    HW118191   5.433   4.630   6.082
 5764SOL    HW218192   5.559   4.600   6.181
 5765SOL     OW18193   6.725   3.935   6.239
 5765SOL    HW118194   6.763   4.027   6.238
 5765SOL    HW218195   6.625   3.939   6.231
 5766SOL     OW18196   2.601   1.679   0.881
 5766SOL    HW118197   2.589   1.643   0.973
 5766SOL    HW218198   2.598   1.605   0.814
 5767SOL     OW18199   2.711   0.042   0.358
 5767SOL    HW118200   2.739   0.134   0.332
 5767SOL    HW218201   2.774   6.993   0.317
 5768SOL     OW18202   0.283   6.946   3.362
 5768SOL    HW118203   0.209   7.006   3.333
 5768SOL    HW218204   0.266   6.853   3.328
 5769SOL     OW18205   2.443   0.060   3.783
 5769SOL    HW118206   2.518   0.011   3.827
 5769SOL    HW218207   2.480   0.127   3.718
 5770SOL     OW18208   0.098   6.862   0.564
 5770SOL    HW118209   0.059   6.771   0.583
 5770SOL    HW218210   0.173   6.853   0.498
 5771SOL     OW18211   0.933   6.011   2.531
 5771SOL    HW118212   0.851   6.033   2.477
 5771SOL    HW218213   1.008   5.989   2.469
 5772SOL     OW18214   5.804   2.623   0.668
 5772SOL    HW118215   5.805   2.701   0.731
 5772SOL    HW218216   5.794   2.655   0.574
 5773SOL     OW18217   5.373   0.976   3.931
 5773SOL    HW118218   5.305   0.934   3.871
 5773SOL    HW218219   5.371   0.931   4.021
 5774SOL     OW18220   2.403   5.253   4.134
 5774SOL    HW118221   2.437   5.260   4.228
 5774SOL    HW218222   2.303   5.254   4.135
 5775SOL     OW18223   1.436   6.868   1.095
 5775SOL    HW118224   1.341   6.845   1.115
 5775SOL    HW218225   1.485   6.883   1.181
 5776SOL     OW18226   6.797   1.136   6.182
 5776SOL    HW118227   6.823   1.219   6.132
 5776SOL    HW218228   6.743   1.077   6.122
 5777SOL     OW18229   6.022   0.696   4.342
 5777SOL    HW118230   6.098   0.747   4.383
 5777SOL    HW218231   6.048   0.600   4.332
 5778SOL     OW18232   1.777   6.832   1.152
 5778SOL    HW118233   1.854   6.772   1.130
 5778SOL    HW218234   1.737   6.868   1.068
 5779SOL     OW18235   3.929   1.007   1.451
 5779SOL    HW118236   4.026   1.018   1.473
 5779SOL    HW218237   3.874   1.029   1.532
 5780SOL     OW18238   6.138   5.152   2.567
 5780SOL    HW118239   6.095   5.078   2.617
 5780SOL    HW218240   6.163   5.121   2.476
 5781SOL     OW18241   1.548   4.096   4.863
 5781SOL    HW118242   1.641   4.094   4.900
 5781SOL    HW218243   1.497   4.016   4.895
 5782SOL     OW18244   1.549   0.934   1.195
 5782SOL    HW118245   1.633   0.987   1.192
 5782SOL    HW218246   1.570   0.837   1.179
 5783SOL     OW18247   1.781   1.089   1.153
 5783SOL    HW118248   1.824   1.093   1.063
 5783SOL    HW218249   1.850   1.103   1.223
 5784SOL     OW18250   0.341   6.648   0.170
 5784SOL    HW118251   0.251   6.605   0.182
 5784SOL    HW218252   0.404   6.581   0.131
 5785SOL     OW18253   1.770   2.256   1.429
 5785SOL    HW118254   1.760   2.247   1.330
 5785SOL    HW218255   1.820   2.178   1.465
 5786SOL     OW18256   1.339   4.207   0.739
 5786SOL    HW118257   1.396   4.181   0.660
 5786SOL    HW218258   1.382   4.283   0.788
 5787SOL     OW18259   5.062   2.316   4.312
 5787SOL    HW118260   5.096   2.300   4.405
 5787SOL    HW218261   5.002   2.240   4.285
 5788SOL     OW18262   3.137   0.272   1.406
 5788SOL    HW118263   3.088   0.201   1.357
 5788SOL    HW218264   3.236   0.256   1.398
 5789SOL     OW18265   3.832   2.426   6.344
 5789SOL    HW118266   3.742   2.395   6.314
 5789SOL    HW218267   3.837   2.526   6.338
 5790SOL     OW18268   6.805   5.969   5.173
 5790SOL    HW118269   6.786   6.057   5.128
 5790SOL    HW218270   6.793   5.978   5.271
 5791SOL     OW18271   3.322   1.486   2.589
 5791SOL    HW118272   3.314   1.462   2.492
 5791SOL    HW218273   3.418   1.497   2.613
 5792SOL     OW18274   4.906   3.856   3.329
 5792SOL    HW118275   4.942   3.764   3.312
 5792SOL    HW218276   4.909   3.909   3.244
 5793SOL     OW18277   6.332   1.247   6.009
 5793SOL    HW118278   6.341   1.169   5.946
 5793SOL    HW218279   6.422   1.274   6.041
 5794SOL     OW18280   3.439   6.736   6.885
 5794SOL    HW118281   3.486   6.813   6.842
 5794SOL    HW218282   3.491   6.706   6.965
 5795SOL     OW18283   0.546   6.248   1.512
 5795SOL    HW118284   0.533   6.346   1.500
 5795SOL    HW218285   0.643   6.228   1.524
 5796SOL     OW18286   4.783   0.295   6.725
 5796SOL    HW118287   4.776   0.252   6.816
 5796SOL    HW218288   4.692   0.318   6.692
 5797SOL     OW18289   5.608   1.096   0.173
 5797SOL    HW118290   5.661   1.095   0.088
 5797SOL    HW218291   5.582   1.002   0.197
 5798SOL     OW18292   0.694   3.930   4.475
 5798SOL    HW118293   0.603   3.898   4.501
 5798SOL    HW218294   0.752   3.936   4.556
 5799SOL     OW18295   0.741   0.027   2.779
 5799SOL    HW118296   0.680   0.001   2.853
 5799SOL    HW218297   0.744   6.972   2.711
 5800SOL     OW18298   0.900   0.338   1.607
 5800SOL    HW118299   0.941   0.275   1.672
 5800SOL    HW218300   0.970   0.372   1.544
 5801SOL     OW18301   2.448   2.693   3.991
 5801SOL    HW118302   2.441   2.747   4.075
 5801SOL    HW218303   2.509   2.615   4.007
 5802SOL     OW18304   6.146   3.743   2.426
 5802SOL    HW118305   6.050   3.771   2.431
 5802SOL    HW218306   6.159   3.659   2.480
 5803SOL     OW18307   0.939   4.758   3.687
 5803SOL    HW118308   0.989   4.708   3.758
 5803SOL    HW218309   0.853   4.711   3.668
 5804SOL     OW18310   6.686   6.347   3.813
 5804SOL    HW118311   6.763   6.299   3.771
 5804SOL    HW218312   6.607   6.286   3.819
 5805SOL     OW18313   1.412   3.273   0.733
 5805SOL    HW118314   1.397   3.174   0.727
 5805SOL    HW218315   1.341   3.314   0.789
 5806SOL     OW18316   6.994   4.256   4.618
 5806SOL    HW118317   6.916   4.194   4.620
 5806SOL    HW218318   0.034   4.240   4.698
 5807SOL     OW18319   1.426   6.117   1.246
 5807SOL    HW118320   1.484   6.089   1.169
 5807SOL    HW218321   1.482   6.166   1.313
 5808SOL     OW18322   6.359   6.848   4.828
 5808SOL    HW118323   6.266   6.858   4.793
 5808SOL    HW218324   6.414   6.928   4.803
 5809SOL     OW18325   0.092   2.261   5.661
 5809SOL    HW118326   0.162   2.194   5.687
 5809SOL    HW218327   0.067   2.314   5.742
 5810SOL     OW18328   4.039   0.278   4.844
 5810SOL    HW118329   3.945   0.259   4.872
 5810SOL    HW218330   4.039   0.358   4.784
 5811SOL     OW18331   2.512   2.206   5.565
 5811SOL    HW118332   2.413   2.203   5.550
 5811SOL    HW218333   2.550   2.288   5.522
 5812SOL     OW18334   5.735   3.509   6.438
 5812SOL    HW118335   5.817   3.529   6.385
 5812SOL    HW218336   5.747   3.423   6.487
 5813SOL     OW18337   3.126   5.884   1.199
 5813SOL    HW118338   3.206   5.937   1.226
 5813SOL    HW218339   3.099   5.823   1.273
 5814SOL     OW18340   0.002   1.962   2.055
 5814SOL    HW118341   0.036   1.875   2.019
 5814SOL    HW218342   7.001   2.025   1.980
 5815SOL     OW18343   5.723   1.977   4.322
 5815SOL    HW118344   5.687   2.059   4.277
 5815SOL    HW218345   5.650   1.909   4.330
 5816SOL     OW18346   6.871   4.979   2.105
 5816SOL    HW118347   6.864   5.043   2.182
 5816SOL    HW218348   6.909   4.893   2.138
 5817SOL     OW18349   6.093   4.247   5.337
 5817SOL    HW118350   6.100   4.347   5.332
 5817SOL    HW218351   6.151   4.213   5.411
 5818SOL     OW18352   1.133   5.911   5.350
 5818SOL    HW118353   1.110   5.897   5.253
 5818SOL    HW218354   1.193   5.991   5.359
 5819SOL     OW18355   3.014   5.107   6.678
 5819SOL    HW118356   2.972   5.025   6.640
 5819SOL    HW218357   3.063   5.156   6.606
 5820SOL     OW18358   4.626   4.965   2.202
 5820SOL    HW118359   4.667   4.900   2.138
 5820SOL    HW218360   4.648   4.938   2.295
 5821SOL     OW18361   6.532   0.850   1.708
 5821SOL    HW118362   6.581   0.802   1.780
 5821SOL    HW218363   6.581   0.934   1.684
 5822SOL     OW18364   1.057   2.523   2.858
 5822SOL    HW118365   0.993   2.504   2.932
 5822SOL    HW218366   1.107   2.439   2.835
 5823SOL     OW18367   2.480   6.412   4.516
 5823SOL    HW118368   2.411   6.452   4.456
 5823SOL    HW218369   2.445   6.327   4.555
 5824SOL     OW18370   0.653   0.056   2.498
 5824SOL    HW118371   0.559   0.033   2.524
 5824SOL    HW218372   0.687   0.130   2.557
 5825SOL     OW18373   0.434   5.952   5.009
 5825SOL    HW118374   0.344   5.995   5.013
 5825SOL    HW218375   0.480   5.963   5.097
 5826SOL     OW18376   7.016   6.918   5.518
 5826SOL    HW118377   0.001   6.932   5.419
 5826SOL    HW218378   6.935   6.865   5.541
 5827SOL     OW18379   1.087   3.739   4.985
 5827SOL    HW118380   0.996   3.722   5.021
 5827SOL    HW218381   1.081   3.799   4.905
 5828SOL     OW18382   4.962   1.004   3.743
 5828SOL    HW118383   4.920   1.092   3.764
 5828SOL    HW218384   4.898   0.949   3.688
 5829SOL     OW18385   1.362   0.454   5.059
 5829SOL    HW118386   1.299   0.532   5.053
 5829SOL    HW218387   1.447   0.477   5.012
 5830SOL     OW18388   4.225   5.757   5.388
 5830SOL    HW118389   4.245   5.666   5.351
 5830SOL    HW218390   4.209   5.751   5.486
 5831SOL     OW18391   1.112   1.901   5.554
 5831SOL    HW118392   1.012   1.900   5.556
 5831SOL    HW218393   1.145   1.994   5.572
 5832SOL     OW18394   3.635   4.598   1.322
 5832SOL    HW118395   3.636   4.656   1.403
 5832SOL    HW218396   3.548   4.608   1.274
 5833SOL     OW18397   3.823   3.354   5.525
 5833SOL    HW118398   3.869   3.271   5.495
 5833SOL    HW218399   3.727   3.352   5.496
 5834SOL     OW18400   6.709   3.264   6.605
 5834SOL    HW118401   6.797   3.246   6.562
 5834SOL    HW218402   6.659   3.332   6.551
 5835SOL     OW18403   6.330   1.639   2.740
 5835SOL    HW118404   6.257   1.703   2.717
 5835SOL    HW218405   6.364   1.597   2.655
 5836SOL     OW18406   3.206   6.837   2.166
 5836SOL    HW118407   3.160   6.752   2.193
 5836SOL    HW218408   3.261   6.871   2.242
 5837SOL     OW18409   4.050   3.905   0.271
 5837SOL    HW118410   4.022   3.918   0.366
 5837SOL    HW218411   4.143   3.869   0.268
 5838SOL     OW18412   2.688   1.351   1.269
 5838SOL    HW118413   2.751   1.341   1.191
 5838SOL    HW218414   2.685   1.266   1.320
 5839SOL     OW18415   0.721   2.793   1.384
 5839SOL    HW118416   0.720   2.847   1.300
 5839SOL    HW218417   0.754   2.701   1.363
 5840SOL     OW18418   0.003   3.933   1.457
 5840SOL    HW118419   0.090   3.972   1.487
 5840SOL    HW218420   0.007   3.913   1.359
 5841SOL     OW18421   4.878   0.699   1.854
 5841SOL    HW118422   4.960   0.735   1.899
 5841SOL    HW218423   4.899   0.678   1.758
 5842SOL     OW18424   3.973   2.135   0.777
 5842SOL    HW118425   3.919   2.153   0.859
 5842SOL    HW218426   3.949   2.201   0.706
 5843SOL     OW18427   2.228   3.536   1.129
 5843SOL    HW118428   2.206   3.585   1.214
 5843SOL    HW218429   2.252   3.601   1.058
 5844SOL     OW18430   0.917   6.256   4.972
 5844SOL    HW118431   0.826   6.252   5.012
 5844SOL    HW218432   0.911   6.279   4.875
 5845SOL     OW18433   0.276   7.007   1.555
 5845SOL    HW118434   0.299   6.946   1.480
 5845SOL    HW218435   0.249   0.078   1.517
 5846SOL     OW18436   6.242   3.562   5.438
 5846SOL    HW118437   6.187   3.485   5.472
 5846SOL    HW218438   6.181   3.634   5.405
 5847SOL     OW18439   2.934   2.670   1.701
 5847SOL    HW118440   2.905   2.575   1.689
 5847SOL    HW218441   3.011   2.675   1.764
 5848SOL     OW18442   2.096   5.791   3.999
 5848SOL    HW118443   2.049   5.855   4.060
 5848SOL    HW218444   2.080   5.697   4.032
 5849SOL     OW18445   1.960   6.442   5.453
 5849SOL    HW118446   2.055   6.471   5.463
 5849SOL    HW218447   1.920   6.486   5.373
 5850SOL     OW18448   1.097   3.139   1.872
 5850SOL    HW118449   1.069   3.051   1.834
 5850SOL    HW218450   1.193   3.135   1.898
 5851SOL     OW18451   5.447   3.688   3.494
 5851SOL    HW118452   5.368   3.629   3.510
 5851SOL    HW218453   5.460   3.748   3.573
 5852SOL     OW18454   4.426   6.072   3.040
 5852SOL    HW118455   4.498   6.029   3.094
 5852SOL    HW218456   4.416   6.025   2.953
 5853SOL     OW18457   4.450   5.071   5.189
 5853SOL    HW118458   4.365   5.114   5.157
 5853SOL    HW218459   4.485   5.122   5.267
 5854SOL     OW18460   3.872   4.337   5.277
 5854SOL    HW118461   3.878   4.436   5.295
 5854SOL    HW218462   3.932   4.288   5.340
 5855SOL     OW18463   1.943   2.704   4.237
 5855SOL    HW118464   1.849   2.690   4.206
 5855SOL    HW218465   1.994   2.618   4.230
 5856SOL     OW18466   1.112   6.974   2.378
 5856SOL    HW118467   1.159   7.015   2.299
 5856SOL    HW218468   1.137   6.878   2.385
 5857SOL     OW18469   6.858   3.264   5.477
 5857SOL    HW118470   6.913   3.303   5.403
 5857SOL    HW218471   6.859   3.164   5.471
 5858SOL     OW18472   2.419   2.203   2.447
 5858SOL    HW118473   2.513   2.232   2.429
 5858SOL    HW218474   2.411   2.105   2.430
 5859SOL     OW18475   5.877   6.302   1.645
 5859SOL    HW118476   5.899   6.396   1.672
 5859SOL    HW218477   5.784   6.300   1.606
 5860SOL     OW18478   0.782   4.645   3.158
 5860SOL    HW118479   0.824   4.728   3.194
 5860SOL    HW218480   0.762   4.581   3.233
 5861SOL     OW18481   5.672   0.465   4.780
 5861SOL    HW118482   5.720   0.550   4.763
 5861SOL    HW218483   5.639   0.463   4.874
 5862SOL     OW18484   6.149   5.744   2.058
 5862SOL    HW118485   6.129   5.842   2.063
 5862SOL    HW218486   6.205   5.717   2.136
 5863SOL     OW18487   3.192   1.357   4.645
 5863SOL    HW118488   3.270   1.306   4.608
 5863SOL    HW218489   3.221   1.407   4.726
 5864SOL     OW18490   3.782   3.752   2.672
 5864SOL    HW118491   3.712   3.781   2.606
 5864SOL    HW218492   3.869   3.797   2.650
 5865SOL     OW18493   5.683   0.622   5.516
 5865SOL    HW118494   5.627   0.566   5.455
 5865SOL    HW218495   5.656   0.718   5.506
 5866SOL     OW18496   3.171   3.266   0.467
 5866SOL    HW118497   3.138   3.351   0.424
 5866SOL    HW218498   3.219   3.288   0.551
 5867SOL     OW18499   2.440   2.101   1.797
 5867SOL    HW118500   2.480   2.010   1.812
 5867SOL    HW218501   2.392   2.102   1.710
 5868SOL     OW18502   1.027   2.256   5.888
 5868SOL    HW118503   0.991   2.164   5.900
 5868SOL    HW218504   1.097   2.274   5.956
 5869SOL     OW18505   1.581   4.320   3.607
 5869SOL    HW118506   1.666   4.328   3.553
 5869SOL    HW218507   1.504   4.354   3.552
 5870SOL     OW18508   4.136   5.373   5.501
 5870SOL    HW118509   4.150   5.334   5.592
 5870SOL    HW218510   4.094   5.464   5.509
 5871SOL     OW18511   4.014   3.823   2.389
 5871SOL    HW118512   3.976   3.869   2.469
 5871SOL    HW218513   4.001   3.880   2.308
 5872SOL     OW18514   4.149   6.176   1.653
 5872SOL    HW118515   4.237   6.178   1.698
 5872SOL    HW218516   4.157   6.218   1.562
 5873SOL     OW18517   2.872   5.732   2.177
 5873SOL    HW118518   2.854   5.766   2.084
 5873SOL    HW218519   2.965   5.696   2.181
 5874SOL     OW18520   2.263   4.142   5.323
 5874SOL    HW118521   2.326   4.202   5.373
 5874SOL    HW218522   2.315   4.088   5.257
 5875SOL     OW18523   3.645   2.098   0.175
 5875SOL    HW118524   3.590   2.181   0.166
 5875SOL    HW218525   3.730   2.120   0.223
 5876SOL     OW18526   3.894   3.429   2.032
 5876SOL    HW118527   3.974   3.368   2.031
 5876SOL    HW218528   3.812   3.375   2.052
 5877SOL     OW18529   6.003   6.557   0.070
 5877SOL    HW118530   5.937   6.619   0.027
 5877SOL    HW218531   6.025   6.483   0.006
 5878SOL     OW18532   1.270   5.886   3.873
 5878SOL    HW118533   1.295   5.915   3.781
 5878SOL    HW218534   1.260   5.787   3.876
 5879SOL     OW18535   0.421   3.636   0.774
 5879SOL    HW118536   0.331   3.653   0.735
 5879SOL    HW218537   0.492   3.662   0.708
 5880SOL     OW18538   2.792   4.746   0.904
 5880SOL    HW118539   2.768   4.651   0.885
 5880SOL    HW218540   2.797   4.797   0.818
 5881SOL     OW18541   0.176   4.904   3.075
 5881SOL    HW118542   0.252   4.848   3.041
 5881SOL    HW218543   0.164   4.887   3.173
 5882SOL     OW18544   6.237   6.255   1.131
 5882SOL    HW118545   6.314   6.269   1.193
 5882SOL    HW218546   6.262   6.285   1.039
 5883SOL     OW18547   0.790   2.030   6.675
 5883SOL    HW118548   0.742   1.960   6.727
 5883SOL    HW218549   0.872   2.059   6.724
 5884SOL     OW18550   2.687   1.227   4.224
 5884SOL    HW118551   2.632   1.275   4.293
 5884SOL    HW218552   2.718   1.293   4.156
 5885SOL     OW18553   0.125   6.867   2.204
 5885SOL    HW118554   0.178   6.825   2.277
 5885SOL    HW218555   0.029   6.843   2.214
 5886SOL     OW18556   0.513   1.952   5.162
 5886SOL    HW118557   0.595   2.006   5.147
 5886SOL    HW218558   0.512   1.874   5.099
 5887SOL     OW18559   3.722   1.045   3.644
 5887SOL    HW118560   3.757   0.994   3.722
 5887SOL    HW218561   3.626   1.020   3.627
 5888SOL     OW18562   2.512   0.706   2.653
 5888SOL    HW118563   2.572   0.774   2.611
 5888SOL    HW218564   2.417   0.724   2.625
 5889SOL     OW18565   1.477   6.480   1.372
 5889SOL    HW118566   1.446   6.517   1.459
 5889SOL    HW218567   1.570   6.513   1.353
 5890SOL     OW18568   1.023   6.979   5.388
 5890SOL    HW118569   0.945   7.011   5.441
 5890SOL    HW218570   1.073   6.911   5.442
 5891SOL     OW18571   3.454   2.956   5.760
 5891SOL    HW118572   3.380   3.017   5.729
 5891SOL    HW218573   3.457   2.876   5.701
 5892SOL     OW18574   0.825   5.636   1.583
 5892SOL    HW118575   0.749   5.694   1.610
 5892SOL    HW218576   0.907   5.691   1.570
 5893SOL     OW18577   1.339   4.116   4.035
 5893SOL    HW118578   1.355   4.174   3.955
 5893SOL    HW218579   1.395   4.033   4.028
 5894SOL     OW18580   0.928   6.080   3.272
 5894SOL    HW118581   0.866   6.107   3.199
 5894SOL    HW218582   0.878   6.025   3.340
 5895SOL     OW18583   4.819   3.105   4.229
 5895SOL    HW118584   4.917   3.090   4.247
 5895SOL    HW218585   4.784   3.175   4.292
 5896SOL     OW18586   4.138   1.654   0.655
 5896SOL    HW118587   4.108   1.616   0.742
 5896SOL    HW218588   4.090   1.740   0.637
 5897SOL     OW18589   3.720   0.293   1.752
 5897SOL    HW118590   3.788   0.233   1.709
 5897SOL    HW218591   3.737   0.388   1.724
 5898SOL     OW18592   1.941   6.676   3.252
 5898SOL    HW118593   1.950   6.603   3.321
 5898SOL    HW218594   1.848   6.712   3.253
 5899SOL     OW18595   4.773   6.528   5.710
 5899SOL    HW118596   4.708   6.518   5.635
 5899SOL    HW218597   4.761   6.617   5.753
 5900SOL     OW18598   4.545   5.466   3.625
 5900SOL    HW118599   4.592   5.537   3.574
 5900SOL    HW218600   4.612   5.405   3.668
 5901SOL     OW18601   2.785   0.245   0.161
 5901SOL    HW118602   2.704   0.302   0.171
 5901SOL    HW218603   2.796   0.218   0.065
 5902SOL     OW18604   0.062   2.447   0.007
 5902SOL    HW118605   0.117   2.477   6.947
 5902SOL    HW218606   0.017   2.360   7.002
 5903SOL     OW18607   4.344   4.160   0.218
 5903SOL    HW118608   4.306   4.083   0.167
 5903SOL    HW218609   4.409   4.209   0.160
 5904SOL     OW18610   0.942   3.483   1.680
 5904SOL    HW118611   0.996   3.550   1.629
 5904SOL    HW218612   0.956   3.497   1.778
 5905SOL     OW18613   6.644   6.344   3.001
 5905SOL    HW118614   6.613   6.256   2.966
 5905SOL    HW218615   6.572   6.412   2.991
 5906SOL     OW18616   4.916   1.575   4.596
 5906SOL    HW118617   4.818   1.566   4.615
 5906SOL    HW218618   4.955   1.644   4.657
 5907SOL     OW18619   1.949   5.797   2.175
 5907SOL    HW118620   2.002   5.820   2.093
 5907SOL    HW218621   1.969   5.864   2.247
 5908SOL     OW18622   0.774   2.274   6.215
 5908SOL    HW118623   0.726   2.360   6.196
 5908SOL    HW218624   0.812   2.238   6.130
 5909SOL     OW18625   6.552   5.308   0.932
 5909SOL    HW118626   6.611   5.239   0.890
 5909SOL    HW218627   6.458   5.294   0.903
 5910SOL     OW18628   0.951   2.855   3.435
 5910SOL    HW118629   0.856   2.880   3.453
 5910SOL    HW218630   0.994   2.926   3.378
 5911SOL     OW18631   6.332   5.689   6.650
 5911SOL    HW118632   6.331   5.596   6.686
 5911SOL    HW218633   6.401   5.743   6.697
 5912SOL     OW18634   6.449   0.555   5.315
 5912SOL    HW118635   6.354   0.539   5.289
 5912SOL    HW218636   6.453   0.609   5.399
 5913SOL     OW18637   4.437   2.769   6.515
 5913SOL    HW118638   4.459   2.792   6.609
 5913SOL    HW218639   4.342   2.795   6.495
 5914SOL     OW18640   0.863   5.951   6.800
 5914SOL    HW118641   0.873   6.026   6.866
 5914SOL    HW218642   0.842   5.867   6.849
 5915SOL     OW18643   4.373   6.164   1.103
 5915SOL    HW118644   4.413   6.255   1.094
 5915SOL    HW218645   4.419   6.115   1.177
 5916SOL     OW18646   0.293   6.176   2.601
 5916SOL    HW118647   0.389   6.197   2.586
 5916SOL    HW218648   0.279   6.077   2.593
 5917SOL     OW18649   3.261   4.081   4.921
 5917SOL    HW118650   3.227   4.097   5.014
 5917SOL    HW218651   3.357   4.111   4.916
 5918SOL     OW18652   2.117   5.193   5.921
 5918SOL    HW118653   2.063   5.143   5.989
 5918SOL    HW218654   2.081   5.176   5.830
 5919SOL     OW18655   3.167   3.630   2.273
 5919SOL    HW118656   3.254   3.660   2.312
 5919SOL    HW218657   3.158   3.664   2.180
 5920SOL     OW18658   4.958   0.567   6.209
 5920SOL    HW118659   4.977   0.654   6.162
 5920SOL    HW218660   4.873   0.575   6.261
 5921SOL     OW18661   4.033   5.244   6.310
 5921SOL    HW118662   4.023   5.150   6.279
 5921SOL    HW218663   4.088   5.246   6.393
 5922SOL     OW18664   6.040   3.977   4.484
 5922SOL    HW118665   6.084   3.980   4.573
 5922SOL    HW218666   6.005   4.067   4.460
 5923SOL     OW18667   6.886   0.977   2.297
 5923SOL    HW118668   6.900   1.070   2.262
 5923SOL    HW218669   6.801   0.974   2.350
 5924SOL     OW18670   6.170   0.034   2.773
 5924SOL    HW118671   6.243   0.001   2.834
 5924SOL    HW218672   6.134   0.120   2.808
 5925SOL     OW18673   3.482   6.188   1.960
 5925SOL    HW118674   3.535   6.121   2.012
 5925SOL    HW218675   3.389   6.192   1.996
 5926SOL     OW18676   4.405   4.634   2.242
 5926SOL    HW118677   4.307   4.640   2.227
 5926SOL    HW218678   4.452   4.643   2.154
 5927SOL     OW18679   1.136   4.339   2.022
 5927SOL    HW118680   1.045   4.355   1.984
 5927SOL    HW218681   1.133   4.349   2.121
 5928SOL     OW18682   3.904   6.588   1.619
 5928SOL    HW118683   3.927   6.662   1.683
 5928SOL    HW218684   3.805   6.575   1.619
 5929SOL     OW18685   5.902   0.534   5.679
 5929SOL    HW118686   5.820   0.560   5.629
 5929SOL    HW218687   5.915   0.595   5.757
 5930SOL     OW18688   0.774   3.216   3.124
 5930SOL    HW118689   0.835   3.271   3.067
 5930SOL    HW218690   0.688   3.200   3.077
 5931SOL     OW18691   6.204   6.249   2.801
 5931SOL    HW118692   6.118   6.197   2.800
 5931SOL    HW218693   6.194   6.326   2.865
 5932SOL     OW18694   3.775   0.238   0.382
 5932SOL    HW118695   3.836   0.312   0.354
 5932SOL    HW218696   3.681   0.271   0.382
 5933SOL     OW18697   6.888   4.767   4.357
 5933SOL    HW118698   6.821   4.832   4.323
 5933SOL    HW218699   6.874   4.751   4.455
 5934SOL     OW18700   3.870   2.985   5.173
 5934SOL    HW118701   3.871   2.969   5.074
 5934SOL    HW218702   3.909   2.906   5.220
 5935SOL     OW18703   0.532   5.297   6.197
 5935SOL    HW118704   0.470   5.225   6.228
 5935SOL    HW218705   0.479   5.375   6.164
 5936SOL     OW18706   3.053   3.437   1.600
 5936SOL    HW118707   3.058   3.446   1.700
 5936SOL    HW218708   3.135   3.476   1.559
 5937SOL     OW18709   6.124   3.143   1.857
 5937SOL    HW118710   6.196   3.081   1.825
 5937SOL    HW218711   6.163   3.234   1.871
 5938SOL     OW18712   6.256   5.785   4.008
 5938SOL    HW118713   6.224   5.748   4.095
 5938SOL    HW218714   6.314   5.865   4.025
 5939SOL     OW18715   2.802   5.979   4.099
 5939SOL    HW118716   2.878   6.009   4.157
 5939SOL    HW218717   2.825   5.996   4.003
 5940SOL     OW18718   4.192   5.303   3.684
 5940SOL    HW118719   4.236   5.220   3.650
 5940SOL    HW218720   4.180   5.367   3.608
 5941SOL     OW18721   5.613   2.983   2.430
 5941SOL    HW118722   5.682   2.941   2.488
 5941SOL    HW218723   5.655   3.055   2.375
 5942SOL     OW18724   5.652   3.750   6.819
 5942SOL    HW118725   5.606   3.762   6.907
 5942SOL    HW218726   5.709   3.830   6.800
 5943SOL     OW18727   3.518   3.598   6.154
 5943SOL    HW118728   3.616   3.596   6.174
 5943SOL    HW218729   3.503   3.635   6.063
 5944SOL     OW18730   0.569   2.628   0.335
 5944SOL    HW118731   0.595   2.709   0.282
 5944SOL    HW218732   0.515   2.566   0.277
 5945SOL     OW18733   0.088   5.248   4.861
 5945SOL    HW118734   0.135   5.273   4.946
 5945SOL    HW218735   0.145   5.187   4.807
 5946SOL     OW18736   3.495   4.289   0.110
 5946SOL    HW118737   3.428   4.216   0.124
 5946SOL    HW218738   3.457   4.375   0.145
 5947SOL     OW18739   3.126   3.575   2.853
 5947SOL    HW118740   3.030   3.567   2.823
 5947SOL    HW218741   3.180   3.504   2.808
 5948SOL     OW18742   4.207   4.972   2.491
 5948SOL    HW118743   4.290   4.916   2.496
 5948SOL    HW218744   4.133   4.918   2.451
 5949SOL     OW18745   5.341   5.039   1.237
 5949SOL    HW118746   5.359   4.948   1.274
 5949SOL    HW218747   5.344   5.106   1.311
 5950SOL     OW18748   5.523   2.057   4.893
 5950SOL    HW118749   5.471   2.136   4.862
 5950SOL    HW218750   5.612   2.054   4.846
 5951SOL     OW18751   0.937   5.588   5.167
 5951SOL    HW118752   0.845   5.626   5.180
 5951SOL    HW218753   0.932   5.507   5.110
 5952SOL     OW18754   4.669   5.896   3.530
 5952SOL    HW118755   4.629   5.900   3.621
 5952SOL    HW218756   4.767   5.912   3.535
 5953SOL     OW18757   6.993   4.279   5.214
 5953SOL    HW118758   6.940   4.218   5.155
 5953SOL    HW218759   6.935   4.356   5.241
 5954SOL     OW18760   6.667   5.237   4.718
 5954SOL    HW118761   6.576   5.226   4.757
 5954SOL    HW218762   6.725   5.162   4.749
 5955SOL     OW18763   4.832   5.311   2.003
 5955SOL    HW118764   4.836   5.244   2.077
 5955SOL    HW218765   4.821   5.403   2.041
 5956SOL     OW18766   5.665   2.615   4.035
 5956SOL    HW118767   5.713   2.572   4.111
 5956SOL    HW218768   5.632   2.545   3.972
 5957SOL     OW18769   3.126   1.750   4.549
 5957SOL    HW118770   3.129   1.849   4.565
 5957SOL    HW218771   3.064   1.730   4.473
 5958SOL     OW18772   3.856   0.381   2.861
 5958SOL    HW118773   3.939   0.365   2.914
 5958SOL    HW218774   3.874   0.362   2.764
 5959SOL     OW18775   4.646   2.665   5.565
 5959SOL    HW118776   4.586   2.707   5.497
 5959SOL    HW218777   4.635   2.712   5.653
 5960SOL     OW18778   3.576   6.467   4.225
 5960SOL    HW118779   3.597   6.401   4.298
 5960SOL    HW218780   3.650   6.534   4.218
 5961SOL     OW18781   4.619   1.693   2.611
 5961SOL    HW118782   4.562   1.765   2.573
 5961SOL    HW218783   4.568   1.644   2.681
 5962SOL     OW18784   5.291   5.895   5.964
 5962SOL    HW118785   5.272   5.985   5.926
 5962SOL    HW218786   5.333   5.905   6.054
 5963SOL     OW18787   3.108   3.729   6.541
 5963SOL    HW118788   3.180   3.685   6.487
 5963SOL    HW218789   3.151   3.786   6.612
 5964SOL     OW18790   1.763   6.349   4.727
 5964SOL    HW118791   1.747   6.447   4.736
 5964SOL    HW218792   1.676   6.302   4.713
 5965SOL     OW18793   2.255   0.959   0.321
 5965SOL    HW118794   2.239   1.044   0.371
 5965SOL    HW218795   2.235   0.973   0.224
 5966SOL     OW18796   1.385   6.494   6.495
 5966SOL    HW118797   1.384   6.574   6.555
 5966SOL    HW218798   1.345   6.518   6.407
 5967SOL     OW18799   2.449   0.394   5.936
 5967SOL    HW118800   2.501   0.317   5.899
 5967SOL    HW218801   2.405   0.444   5.862
 5968SOL     OW18802   5.459   2.335   0.011
 5968SOL    HW118803   5.509   2.386   6.958
 5968SOL    HW218804   5.457   2.389   0.095
 5969SOL     OW18805   5.889   0.868   0.249
 5969SOL    HW118806   5.968   0.807   0.262
 5969SOL    HW218807   5.820   0.848   0.319
 5970SOL     OW18808   6.954   4.803   1.680
 5970SOL    HW118809   6.976   4.891   1.639
 5970SOL    HW218810   6.946   4.733   1.608
 5971SOL     OW18811   0.070   0.397   0.998
 5971SOL    HW118812   0.148   0.336   0.988
 5971SOL    HW218813   0.016   0.397   0.914
 5972SOL     OW18814   4.882   5.834   6.579
 5972SOL    HW118815   4.910   5.790   6.494
 5972SOL    HW218816   4.900   5.932   6.573
 5973SOL     OW18817   1.656   2.513   2.960
 5973SOL    HW118818   1.754   2.495   2.977
 5973SOL    HW218819   1.647   2.590   2.897
 5974SOL     OW18820   5.029   6.568   0.038
 5974SOL    HW118821   5.032   6.505   0.116
 5974SOL    HW218822   5.102   6.636   0.047
 5975SOL     OW18823   4.151   6.481   0.848
 5975SOL    HW118824   4.250   6.471   0.849
 5975SOL    HW218825   4.122   6.534   0.927
 5976SOL     OW18826   3.798   2.712   5.455
 5976SOL    HW118827   3.886   2.753   5.430
 5976SOL    HW218828   3.806   2.613   5.455
 5977SOL     OW18829   1.024   5.798   0.299
 5977SOL    HW118830   1.037   5.791   0.398
 5977SOL    HW218831   1.005   5.893   0.274
 5978SOL     OW18832   3.389   5.679   1.466
 5978SOL    HW118833   3.481   5.685   1.505
 5978SOL    HW218834   3.346   5.593   1.494
 5979SOL     OW18835   6.742   0.415   2.216
 5979SOL    HW118836   6.795   0.458   2.288
 5979SOL    HW218837   6.752   0.316   2.220
 5980SOL     OW18838   4.439   3.834   1.426
 5980SOL    HW118839   4.532   3.809   1.452
 5980SOL    HW218840   4.407   3.908   1.486
 5981SOL     OW18841   4.917   1.559   0.210
 5981SOL    HW118842   4.999   1.509   0.181
 5981SOL    HW218843   4.894   1.627   0.141
 5982SOL     OW18844   6.358   2.066   2.375
 5982SOL    HW118845   6.369   2.038   2.470
 5982SOL    HW218846   6.312   1.994   2.324
 5983SOL     OW18847   1.255   1.377   4.275
 5983SOL    HW118848   1.318   1.448   4.307
 5983SOL    HW218849   1.279   1.290   4.316
 5984SOL     OW18850   4.827   6.820   3.301
 5984SOL    HW118851   4.903   6.755   3.298
 5984SOL    HW218852   4.741   6.770   3.311
 5985SOL     OW18853   6.626   3.181   3.685
 5985SOL    HW118854   6.668   3.161   3.597
 5985SOL    HW218855   6.624   3.280   3.699
 5986SOL     OW18856   3.534   3.876   5.184
 5986SOL    HW118857   3.520   3.971   5.209
 5986SOL    HW218858   3.502   3.861   5.091
 5987SOL     OW18859   5.102   0.015   4.037
 5987SOL    HW118860   5.122   0.021   3.939
 5987SOL    HW218861   5.003   0.010   4.050
 5988SOL     OW18862   4.586   0.320   6.368
 5988SOL    HW118863   4.540   0.304   6.455
 5988SOL    HW218864   4.543   0.263   6.297
 5989SOL     OW18865   1.956   5.575   6.168
 5989SOL    HW118866   2.007   5.499   6.208
 5989SOL    HW218867   1.874   5.541   6.124
 5990SOL     OW18868   3.606   3.408   0.291
 5990SOL    HW118869   3.591   3.486   0.231
 5990SOL    HW218870   3.522   3.355   0.299
 5991SOL     OW18871   4.477   6.122   6.893
 5991SOL    HW118872   4.467   6.154   6.988
 5991SOL    HW218873   4.446   6.027   6.887
 5992SOL     OW18874   3.740   6.973   2.074
 5992SOL    HW118875   3.753   0.054   2.077
 5992SOL    HW218876   3.737   6.937   2.167
 5993SOL     OW18877   4.360   3.939   5.932
 5993SOL    HW118878   4.357   3.840   5.918
 5993SOL    HW218879   4.352   3.960   6.029
 5994SOL     OW18880   6.713   2.198   0.102
 5994SOL    HW118881   6.759   2.267   0.047
 5994SOL    HW218882   6.745   2.205   0.197
 5995SOL     OW18883   5.037   3.353   2.152
 5995SOL    HW118884   5.005   3.444   2.177
 5995SOL    HW218885   4.967   3.286   2.174
 5996SOL     OW18886   0.634   5.914   1.422
 5996SOL    HW118887   0.610   5.829   1.469
 5996SOL    HW218888   0.616   5.904   1.324
 5997SOL     OW18889   1.212   5.740   2.756
 5997SOL    HW118890   1.249   5.727   2.848
 5997SOL    HW218891   1.273   5.800   2.703
 5998SOL     OW18892   6.451   1.503   1.977
 5998SOL    HW118893   6.455   1.413   2.020
 5998SOL    HW218894   6.415   1.494   1.884
 5999SOL     OW18895   3.033   3.246   1.415
 5999SOL    HW118896   2.959   3.179   1.425
 5999SOL    HW218897   3.015   3.324   1.474
 6000SOL     OW18898   1.053   6.466   0.598
 6000SOL    HW118899   1.099   6.378   0.608
 6000SOL    HW218900   1.119   6.535   0.569
 6001SOL     OW18901   6.841   4.966   6.996
 6001SOL    HW118902   6.926   4.922   0.008
 6001SOL    HW218903   6.772   4.896   6.975
 6002SOL     OW18904   6.057   6.903   5.754
 6002SOL    HW118905   6.044   6.934   5.660
 6002SOL    HW218906   6.137   6.843   5.758
 6003SOL     OW18907   5.907   2.050   5.237
 6003SOL    HW118908   5.817   2.072   5.276
 6003SOL    HW218909   5.931   1.956   5.259
 6004SOL     OW18910   6.367   3.147   3.806
 6004SOL    HW118911   6.457   3.167   3.768
 6004SOL    HW218912   6.377   3.105   3.896
 6005SOL     OW18913   6.004   4.716   4.708
 6005SOL    HW118914   6.074   4.659   4.751
 6005SOL    HW218915   5.984   4.682   4.617
 6006SOL     OW18916   2.464   0.698   4.888
 6006SOL    HW118917   2.459   0.622   4.823
 6006SOL    HW218918   2.421   0.779   4.848
 6007SOL     OW18919   6.773   3.386   6.102
 6007SOL    HW118920   6.752   3.424   6.012
 6007SOL    HW218921   6.749   3.452   6.173
 6008SOL     OW18922   2.598   4.964   6.079
 6008SOL    HW118923   2.534   4.992   6.008
 6008SOL    HW218924   2.674   5.030   6.082
 6009SOL     OW18925   3.805   0.117   3.485
 6009SOL    HW118926   3.812   0.213   3.513
 6009SOL    HW218927   3.852   0.059   3.551
 6010SOL     OW18928   0.550   4.448   3.662
 6010SOL    HW118929   0.640   4.467   3.701
 6010SOL    HW218930   0.492   4.403   3.731
 6011SOL     OW18931   5.430   3.438   3.033
 6011SOL    HW118932   5.366   3.458   3.107
 6011SOL    HW218933   5.444   3.520   2.978
 6012SOL     OW18934   5.979   0.432   0.774
 6012SOL    HW118935   6.075   0.459   0.766
 6012SOL    HW218936   5.950   0.441   0.870
 6013SOL     OW18937   4.866   1.051   2.967
 6013SOL    HW118938   4.771   1.046   2.936
 6013SOL    HW218939   4.911   0.962   2.952
 6014SOL     OW18940   3.430   4.191   3.622
 6014SOL    HW118941   3.441   4.287   3.597
 6014SOL    HW218942   3.510   4.161   3.674
 6015SOL     OW18943   6.142   4.070   4.734
 6015SOL    HW118944   6.132   3.971   4.727
 6015SOL    HW218945   6.058   4.110   4.770
 6016SOL     OW18946   6.207   1.456   5.898
 6016SOL    HW118947   6.109   1.439   5.910
 6016SOL    HW218948   6.257   1.371   5.913
 6017SOL     OW18949   6.062   5.142   4.084
 6017SOL    HW118950   6.059   5.054   4.132
 6017SOL    HW218951   6.135   5.198   4.122
 6018SOL     OW18952   3.467   1.120   6.075
 6018SOL    HW118953   3.372   1.141   6.097
 6018SOL    HW218954   3.490   1.028   6.109
 6019SOL     OW18955   0.865   3.397   5.312
 6019SOL    HW118956   0.793   3.448   5.265
 6019SOL    HW218957   0.850   3.403   5.411
 6020SOL     OW18958   0.820   5.172   6.966
 6020SOL    HW118959   0.788   5.079   6.983
 6020SOL    HW218960   0.871   5.205   0.028
 6021SOL     OW18961   4.230   0.662   2.969
 6021SOL    HW118962   4.246   0.668   2.870
 6021SOL    HW218963   4.173   0.739   2.998
 6022SOL     OW18964   0.156   1.922   3.429
 6022SOL    HW118965   0.253   1.899   3.442
 6022SOL    HW218966   0.113   1.934   3.518
 6023SOL     OW18967   5.212   0.657   1.591
 6023SOL    HW118968   5.124   0.696   1.617
 6023SOL    HW218969   5.286   0.719   1.617
 6024SOL     OW18970   0.960   4.613   1.204
 6024SOL    HW118971   1.053   4.620   1.170
 6024SOL    HW218972   0.946   4.678   1.278
 6025SOL     OW18973   3.099   2.165   3.306
 6025SOL    HW118974   3.153   2.207   3.379
 6025SOL    HW218975   3.159   2.146   3.228
 6026SOL     OW18976   0.032   5.848   4.729
 6026SOL    HW118977   0.053   5.782   4.657
 6026SOL    HW218978   0.050   5.807   4.819
 6027SOL     OW18979   0.299   3.480   6.463
 6027SOL    HW118980   0.374   3.538   6.430
 6027SOL    HW218981   0.316   3.385   6.438
 6028SOL     OW18982   5.720   4.534   0.993
 6028SOL    HW118983   5.691   4.629   0.990
 6028SOL    HW218984   5.815   4.529   1.023
 6029SOL     OW18985   2.966   6.734   3.732
 6029SOL    HW118986   3.021   6.682   3.666
 6029SOL    HW218987   3.013   6.818   3.757
 6030SOL     OW18988   4.636   4.671   4.165
 6030SOL    HW118989   4.683   4.623   4.240
 6030SOL    HW218990   4.545   4.698   4.196
 6031SOL     OW18991   2.722   5.459   4.181
 6031SOL    HW118992   2.814   5.422   4.182
 6031SOL    HW218993   2.713   5.526   4.107
 6032SOL     OW18994   2.381   5.075   2.989
 6032SOL    HW118995   2.392   5.173   3.006
 6032SOL    HW218996   2.284   5.055   2.970
 6033SOL     OW18997   2.176   3.098   2.847
 6033SOL    HW118998   2.177   3.112   2.748
 6033SOL    HW218999   2.084   3.074   2.877
 6034SOL     OW19000   1.306   1.322   5.859
 6034SOL    HW119001   1.381   1.268   5.821
 6034SOL    HW219002   1.228   1.262   5.878
 6035SOL     OW19003   1.576   1.011   2.020
 6035SOL    HW119004   1.656   0.977   2.068
 6035SOL    HW219005   1.552   0.948   1.946
 6036SOL     OW19006   5.324   4.860   2.198
 6036SOL    HW119007   5.305   4.762   2.206
 6036SOL    HW219008   5.420   4.877   2.221
 6037SOL     OW19009   3.839   0.176   0.651
 6037SOL    HW119010   3.845   0.275   0.666
 6037SOL    HW219011   3.791   0.158   0.565
 6038SOL     OW19012   1.765   2.412   6.437
 6038SOL    HW119013   1.840   2.466   6.398
 6038SOL    HW219014   1.757   2.433   6.534
 6039SOL     OW19015   3.902   3.046   3.190
 6039SOL    HW119016   3.983   3.084   3.147
 6039SOL    HW219017   3.828   3.040   3.123
 6040SOL     OW19018   1.634   1.669   0.681
 6040SOL    HW119019   1.666   1.722   0.603
 6040SOL    HW219020   1.595   1.583   0.650
 6041SOL     OW19021   2.688   2.136   4.641
 6041SOL    HW119022   2.600   2.180   4.623
 6041SOL    HW219023   2.740   2.191   4.707
 6042SOL     OW19024   3.809   6.744   2.872
 6042SOL    HW119025   3.751   6.739   2.953
 6042SOL    HW219026   3.878   6.671   2.876
 6043SOL     OW19027   0.528   0.282   4.787
 6043SOL    HW119028   0.579   0.265   4.704
 6043SOL    HW219029   0.572   0.236   4.864
 6044SOL     OW19030   2.432   2.511   1.817
 6044SOL    HW119031   2.498   2.528   1.743
 6044SOL    HW219032   2.340   2.535   1.786
 6045SOL     OW19033   5.672   3.512   3.483
 6045SOL    HW119034   5.675   3.426   3.535
 6045SOL    HW219035   5.590   3.563   3.509
 6046SOL     OW19036   3.055   2.463   0.997
 6046SOL    HW119037   3.102   2.457   1.085
 6046SOL    HW219038   2.964   2.502   1.010
 6047SOL     OW19039   5.433   2.333   1.439
 6047SOL    HW119040   5.472   2.411   1.390
 6047SOL    HW219041   5.440   2.349   1.538
 6048SOL     OW19042   4.818   5.231   4.766
 6048SOL    HW119043   4.865   5.217   4.853
 6048SOL    HW219044   4.721   5.249   4.783
 6049SOL     OW19045   4.417   4.619   6.637
 6049SOL    HW119046   4.412   4.523   6.666
 6049SOL    HW219047   4.456   4.623   6.545
 6050SOL     OW19048   2.020   5.372   6.882
 6050SOL    HW119049   1.998   5.275   6.874
 6050SOL    HW219050   1.940   5.426   6.855
 6051SOL     OW19051   1.938   0.049   3.050
 6051SOL    HW119052   2.027   0.086   3.024
 6051SOL    HW219053   1.948   7.012   3.133
 6052SOL     OW19054   5.220   1.648   1.710
 6052SOL    HW119055   5.291   1.582   1.735
 6052SOL    HW219056   5.150   1.650   1.782
 6053SOL     OW19057   4.248   0.807   6.192
 6053SOL    HW119058   4.227   0.737   6.260
 6053SOL    HW219059   4.321   0.866   6.226
 6054SOL     OW19060   2.428   3.630   0.086
 6054SOL    HW119061   2.502   3.609   0.022
 6054SOL    HW219062   2.348   3.574   0.063
 6055SOL     OW19063   4.939   5.996   5.241
 6055SOL    HW119064   5.010   5.974   5.175
 6055SOL    HW219065   4.953   6.088   5.277
 6056SOL     OW19066   4.889   3.415   5.333
 6056SOL    HW119067   4.886   3.498   5.389
 6056SOL    HW219068   4.820   3.422   5.260
 6057SOL     OW19069   6.505   0.659   2.235
 6057SOL    HW119070   6.431   0.716   2.199
 6057SOL    HW219071   6.526   0.586   2.169
 6058SOL     OW19072   5.262   3.868   0.667
 6058SOL    HW119073   5.355   3.845   0.695
 6058SOL    HW219074   5.231   3.948   0.718
 6059SOL     OW19075   4.716   4.809   5.850
 6059SOL    HW119076   4.774   4.732   5.877
 6059SOL    HW219077   4.664   4.840   5.930
 6060SOL     OW19078   2.255   3.396   6.371
 6060SOL    HW119079   2.218   3.442   6.452
 6060SOL    HW219080   2.323   3.454   6.327
 6061SOL     OW19081   5.053   3.794   0.037
 6061SOL    HW119082   5.113   3.860   0.082
 6061SOL    HW219083   5.067   3.704   0.078
 6062SOL     OW19084   2.559   1.413   6.226
 6062SOL    HW119085   2.511   1.465   6.297
 6062SOL    HW219086   2.496   1.394   6.151
 6063SOL     OW19087   4.453   2.478   5.836
 6063SOL    HW119088   4.532   2.463   5.777
 6063SOL    HW219089   4.433   2.576   5.840
 6064SOL     OW19090   1.534   0.642   0.650
 6064SOL    HW119091   1.484   0.667   0.567
 6064SOL    HW219092   1.575   0.724   0.690
 6065SOL     OW19093   0.583   6.182   2.559
 6065SOL    HW119094   0.555   6.087   2.570
 6065SOL    HW219095   0.579   6.208   2.463
 6066SOL     OW19096   5.263   1.041   5.878
 6066SOL    HW119097   5.301   0.981   5.947
 6066SOL    HW219098   5.230   1.125   5.921
 6067SOL     OW19099   4.407   0.416   5.253
 6067SOL    HW119100   4.357   0.389   5.171
 6067SOL    HW219101   4.480   0.349   5.271
 6068SOL     OW19102   5.067   2.949   4.556
 6068SOL    HW119103   5.106   3.026   4.505
 6068SOL    HW219104   4.969   2.963   4.568
 6069SOL     OW19105   5.991   3.391   5.224
 6069SOL    HW119106   6.005   3.293   5.209
 6069SOL    HW219107   6.067   3.441   5.182
 6070SOL     OW19108   2.808   2.732   1.447
 6070SOL    HW119109   2.866   2.747   1.526
 6070SOL    HW219110   2.713   2.722   1.477
 6071SOL     OW19111   0.516   5.747   4.862
 6071SOL    HW119112   0.615   5.761   4.851
 6071SOL    HW219113   0.477   5.826   4.909
 6072SOL     OW19114   0.569   0.733   1.462
 6072SOL    HW119115   0.654   0.697   1.500
 6072SOL    HW219116   0.551   0.823   1.502
 6073SOL     OW19117   4.902   3.209   0.673
 6073SOL    HW119118   4.917   3.130   0.733
 6073SOL    HW219119   4.809   3.244   0.687
 6074SOL     OW19120   1.847   6.137   2.040
 6074SOL    HW119121   1.822   6.071   1.970
 6074SOL    HW219122   1.924   6.103   2.093
 6075SOL     OW19123   4.669   6.813   5.599
 6075SOL    HW119124   4.621   6.898   5.579
 6075SOL    HW219125   4.667   6.795   5.697
 6076SOL     OW19126   2.763   4.765   3.201
 6076SOL    HW119127   2.678   4.795   3.157
 6076SOL    HW219128   2.834   4.754   3.131
 6077SOL     OW19129   6.388   5.259   1.524
 6077SOL    HW119130   6.342   5.277   1.437
 6077SOL    HW219131   6.399   5.344   1.575
 6078SOL     OW19132   4.926   4.736   0.123
 6078SOL    HW119133   4.902   4.652   0.073
 6078SOL    HW219134   4.989   4.790   0.067
 6079SOL     OW19135   4.907   3.484   5.683
 6079SOL    HW119136   4.853   3.515   5.605
 6079SOL    HW219137   4.933   3.388   5.669
 6080SOL     OW19138   0.210   5.760   0.816
 6080SOL    HW119139   0.114   5.781   0.796
 6080SOL    HW219140   0.258   5.843   0.842
 6081SOL     OW19141   0.027   2.477   5.486
 6081SOL    HW119142   0.087   2.556   5.474
 6081SOL    HW219143   0.063   2.418   5.559
 6082SOL     OW19144   3.255   0.086   2.584
 6082SOL    HW119145   3.306   0.023   2.527
 6082SOL    HW219146   3.305   0.102   2.670
 6083SOL     OW19147   5.985   6.206   0.129
 6083SOL    HW119148   6.083   6.194   0.117
 6083SOL    HW219149   5.968   6.284   0.190
 6084SOL     OW19150   0.932   6.717   2.242
 6084SOL    HW119151   0.998   6.729   2.316
 6084SOL    HW219152   0.853   6.775   2.258
 6085SOL     OW19153   0.337   6.859   7.000
 6085SOL    HW119154   0.286   6.931   0.028
 6085SOL    HW219155   0.349   6.782   0.044
 6086SOL     OW19156   2.715   2.017   5.533
 6086SOL    HW119157   2.803   2.047   5.496
 6086SOL    HW219158   2.651   2.094   5.534
 6087SOL     OW19159   3.477   6.108   1.570
 6087SOL    HW119160   3.509   6.042   1.638
 6087SOL    HW219161   3.556   6.155   1.530
 6088SOL     OW19162   5.343   0.404   4.315
 6088SOL    HW119163   5.411   0.399   4.388
 6088SOL    HW219164   5.261   0.353   4.341
 6089SOL     OW19165   6.140   2.492   2.704
 6089SOL    HW119166   6.162   2.487   2.607
 6089SOL    HW219167   6.209   2.547   2.751
 6090SOL     OW19168   2.077   5.041   4.394
 6090SOL    HW119169   2.170   5.005   4.396
 6090SOL    HW219170   2.063   5.105   4.469
 6091SOL     OW19171   2.631   1.808   6.748
 6091SOL    HW119172   2.630   1.723   6.696
 6091SOL    HW219173   2.557   1.807   6.816
 6092SOL     OW19174   4.428   0.887   2.826
 6092SOL    HW119175   4.360   0.940   2.775
 6092SOL    HW219176   4.406   0.789   2.820
 6093SOL     OW19177   2.211   2.643   2.272
 6093SOL    HW119178   2.223   2.545   2.253
 6093SOL    HW219179   2.224   2.695   2.188
 6094SOL     OW19180   1.442   5.682   3.478
 6094SOL    HW119181   1.451   5.766   3.423
 6094SOL    HW219182   1.496   5.692   3.562
 6095SOL     OW19183   4.654   4.878   6.781
 6095SOL    HW119184   4.620   4.914   6.694
 6095SOL    HW219185   4.601   4.918   6.856
 6096SOL     OW19186   6.626   0.145   2.458
 6096SOL    HW119187   6.578   0.233   2.460
 6096SOL    HW219188   6.700   0.150   2.390
 6097SOL     OW19189   1.980   5.603   2.370
 6097SOL    HW119190   2.079   5.598   2.382
 6097SOL    HW219191   1.958   5.661   2.292
 6098SOL     OW19192   0.173   1.570   5.850
 6098SOL    HW119193   0.121   1.653   5.829
 6098SOL    HW219194   0.269   1.585   5.827
 6099SOL     OW19195   5.335   5.716   5.389
 6099SOL    HW119196   5.267   5.780   5.426
 6099SOL    HW219197   5.427   5.745   5.416
 6100SOL     OW19198   5.597   6.217   1.311
 6100SOL    HW119199   5.593   6.135   1.368
 6100SOL    HW219200   5.595   6.298   1.369
 6101SOL     OW19201   0.091   3.087   3.009
 6101SOL    HW119202   0.046   3.009   2.966
 6101SOL    HW219203   0.076   3.169   2.954
 6102SOL     OW19204   3.953   5.953   3.161
 6102SOL    HW119205   4.017   5.877   3.148
 6102SOL    HW219206   3.979   6.005   3.242
 6103SOL     OW19207   5.459   1.475   1.785
 6103SOL    HW119208   5.487   1.507   1.694
 6103SOL    HW219209   5.443   1.376   1.782
 6104SOL     OW19210   5.727   6.926   4.924
 6104SOL    HW119211   5.691   7.004   4.872
 6104SOL    HW219212   5.674   6.844   4.903
 6105SOL     OW19213   2.078   5.683   6.387
 6105SOL    HW119214   2.020   5.641   6.457
 6105SOL    HW219215   2.039   5.666   6.296
 6106SOL     OW19216   1.618   4.745   6.176
 6106SOL    HW119217   1.584   4.760   6.269
 6106SOL    HW219218   1.716   4.726   6.178
 6107SOL     OW19219   4.615   5.607   4.788
 6107SOL    HW119220   4.585   5.568   4.876
 6107SOL    HW219221   4.701   5.656   4.802
 6108SOL     OW19222   2.186   2.276   2.983
 6108SOL    HW119223   2.248   2.353   2.994
 6108SOL    HW219224   2.091   2.309   2.986
 6109SOL     OW19225   5.797   1.445   5.194
 6109SOL    HW119226   5.882   1.430   5.145
 6109SOL    HW219227   5.772   1.363   5.245
 6110SOL     OW19228   2.540   3.673   1.264
 6110SOL    HW119229   2.576   3.612   1.193
 6110SOL    HW219230   2.527   3.621   1.348
 6111SOL     OW19231   1.327   3.008   2.203
 6111SOL    HW119232   1.260   2.969   2.139
 6111SOL    HW219233   1.416   2.966   2.187
 6112SOL     OW19234   3.518   0.292   2.451
 6112SOL    HW119235   3.560   0.211   2.492
 6112SOL    HW219236   3.478   0.349   2.523
 6113SOL     OW19237   2.564   2.099   5.822
 6113SOL    HW119238   2.557   2.121   5.725
 6113SOL    HW219239   2.489   2.037   5.848
 6114SOL     OW19240   5.064   4.538   2.263
 6114SOL    HW119241   5.160   4.553   2.239
 6114SOL    HW219242   5.054   4.447   2.305
 6115SOL     OW19243   6.326   0.268   4.299
 6115SOL    HW119244   6.388   0.346   4.307
 6115SOL    HW219245   6.250   0.292   4.238
 6116SOL     OW19246   3.710   1.717   6.163
 6116SOL    HW119247   3.753   1.793   6.211
 6116SOL    HW219248   3.775   1.678   6.098
 6117SOL     OW19249   2.449   1.845   3.467
 6117SOL    HW119250   2.518   1.779   3.495
 6117SOL    HW219251   2.424   1.829   3.371
 6118SOL     OW19252   5.567   1.247   1.025
 6118SOL    HW119253   5.609   1.296   0.948
 6118SOL    HW219254   5.483   1.202   0.994
 6119SOL     OW19255   0.977   3.847   0.598
 6119SOL    HW119256   1.055   3.784   0.603
 6119SOL    HW219257   1.008   3.934   0.560
 6120SOL     OW19258   2.436   6.898   5.518
 6120SOL    HW119259   2.405   6.934   5.606
 6120SOL    HW219260   2.514   6.837   5.532
 6121SOL     OW19261   1.231   3.739   5.227
 6121SOL    HW119262   1.166   3.757   5.153
 6121SOL    HW219263   1.200   3.659   5.280
 6122SOL     OW19264   4.029   5.360   0.001
 6122SOL    HW119265   4.027   5.445   6.966
 6122SOL    HW219266   4.124   5.334   0.017
 6123SOL     OW19267   5.224   6.664   6.155
 6123SOL    HW119268   5.231   6.595   6.227
 6123SOL    HW219269   5.145   6.642   6.096
 6124SOL     OW19270   1.140   0.084   5.672
 6124SOL    HW119271   1.217   0.128   5.625
 6124SOL    HW219272   1.111   0.003   5.621
 6125SOL     OW19273   1.691   4.146   0.228
 6125SOL    HW119274   1.692   4.214   0.154
 6125SOL    HW219275   1.687   4.054   0.189
 6126SOL     OW19276   0.140   0.932   4.558
 6126SOL    HW119277   0.224   0.984   4.571
 6126SOL    HW219278   0.080   0.980   4.495
 6127SOL     OW19279   3.285   6.749   1.141
 6127SOL    HW119280   3.378   6.727   1.114
 6127SOL    HW219281   3.284   6.777   1.237
 6128SOL     OW19282   5.911   5.298   0.360
 6128SOL    HW119283   5.908   5.204   0.394
 6128SOL    HW219284   5.981   5.306   0.289
 6129SOL     OW19285   0.488   3.002   2.760
 6129SOL    HW119286   0.571   2.947   2.766
 6129SOL    HW219287   0.408   2.941   2.756
 6130SOL     OW19288   4.657   2.637   2.499
 6130SOL    HW119289   4.624   2.612   2.408
 6130SOL    HW219290   4.722   2.568   2.531
 6131SOL     OW19291   0.451   1.628   3.610
 6131SOL    HW119292   0.529   1.609   3.670
 6131SOL    HW219293   0.414   1.719   3.631
 6132SOL     OW19294   3.943   1.780   6.910
 6132SOL    HW119295   3.997   1.806   6.991
 6132SOL    HW219296   4.003   1.743   6.840
 6133SOL     OW19297   2.159   3.615   3.339
 6133SOL    HW119298   2.159   3.712   3.318
 6133SOL    HW219299   2.202   3.564   3.264
 6134SOL     OW19300   4.358   5.896   6.743
 6134SOL    HW119301   4.448   5.874   6.707
 6134SOL    HW219302   4.305   5.945   6.674
 6135SOL     OW19303   0.156   6.172   1.074
 6135SOL    HW119304   0.190   6.189   0.981
 6135SOL    HW219305   0.231   6.181   1.139
 6136SOL     OW19306   1.397   2.818   1.846
 6136SOL    HW119307   1.350   2.784   1.765
 6136SOL    HW219308   1.472   2.757   1.870
 6137SOL     OW19309   6.883   4.017   2.305
 6137SOL    HW119310   6.928   3.929   2.324
 6137SOL    HW219311   6.931   4.090   2.354
 6138SOL     OW19312   3.733   0.262   3.158
 6138SOL    HW119313   3.745   0.208   3.074
 6138SOL    HW219314   3.675   0.211   3.222
 6139SOL     OW19315   0.822   0.235   5.781
 6139SOL    HW119316   0.870   0.215   5.867
 6139SOL    HW219317   0.830   0.332   5.761
 6140SOL     OW19318   1.145   0.359   2.139
 6140SOL    HW119319   1.116   0.373   2.044
 6140SOL    HW219320   1.226   0.415   2.158
 6141SOL     OW19321   0.567   0.035   6.142
 6141SOL    HW119322   0.556   6.957   6.116
 6141SOL    HW219323   0.648   0.072   6.096
 6142SOL     OW19324   6.934   5.997   6.254
 6142SOL    HW119325   6.880   5.931   6.307
 6142SOL    HW219326   6.872   6.062   6.210
 6143SOL     OW19327   6.596   3.892   1.191
 6143SOL    HW119328   6.550   3.830   1.255
 6143SOL    HW219329   6.530   3.958   1.155
 6144SOL     OW19330   5.566   4.975   4.189
 6144SOL    HW119331   5.480   4.955   4.141
 6144SOL    HW219332   5.555   4.955   4.286
 6145SOL     OW19333   5.681   5.122   3.995
 6145SOL    HW119334   5.749   5.193   4.014
 6145SOL    HW219335   5.662   5.071   4.078
 6146SOL     OW19336   3.056   5.470   3.932
 6146SOL    HW119337   3.026   5.548   3.988
 6146SOL    HW219338   3.042   5.492   3.836
 6147SOL     OW19339   2.439   2.561   5.198
 6147SOL    HW119340   2.507   2.598   5.261
 6147SOL    HW219341   2.413   2.631   5.132
 6148SOL     OW19342   4.171   6.591   4.759
 6148SOL    HW119343   4.091   6.534   4.780
 6148SOL    HW219344   4.153   6.685   4.790
 6149SOL     OW19345   2.462   6.821   1.535
 6149SOL    HW119346   2.545   6.871   1.512
 6149SOL    HW219347   2.384   6.863   1.489
 6150SOL     OW19348   5.981   4.466   0.244
 6150SOL    HW119349   6.075   4.470   0.278
 6150SOL    HW219350   5.975   4.397   0.172
 6151SOL     OW19351   6.453   4.767   5.875
 6151SOL    HW119352   6.484   4.698   5.940
 6151SOL    HW219353   6.355   4.785   5.889
 6152SOL     OW19354   0.730   6.159   4.398
 6152SOL    HW119355   0.672   6.079   4.384
 6152SOL    HW219356   0.805   6.136   4.460
 6153SOL     OW19357   5.478   4.823   1.361
 6153SOL    HW119358   5.472   4.781   1.270
 6153SOL    HW219359   5.568   4.867   1.372
 6154SOL     OW19360   6.056   2.697   2.003
 6154SOL    HW119361   6.032   2.792   2.025
 6154SOL    HW219362   6.053   2.642   2.086
 6155SOL     OW19363   2.282   1.364   3.205
 6155SOL    HW119364   2.226   1.408   3.275
 6155SOL    HW219365   2.246   1.273   3.185
 6156SOL     OW19366   4.789   4.566   2.115
 6156SOL    HW119367   4.736   4.483   2.133
 6156SOL    HW219368   4.876   4.562   2.165
 6157SOL     OW19369   6.749   2.297   3.261
 6157SOL    HW119370   6.841   2.307   3.223
 6157SOL    HW219371   6.752   2.238   3.341
 6158SOL     OW19372   3.874   1.983   6.717
 6158SOL    HW119373   3.896   1.928   6.637
 6158SOL    HW219374   3.900   1.934   6.800
 6159SOL     OW19375   4.073   1.914   0.657
 6159SOL    HW119376   4.053   1.989   0.720
 6159SOL    HW219377   4.126   1.948   0.580
 6160SOL     OW19378   5.513   0.378   6.923
 6160SOL    HW119379   5.482   0.286   6.900
 6160SOL    HW219380   5.594   0.400   6.869
 6161SOL     OW19381   5.713   1.650   6.666
 6161SOL    HW119382   5.712   1.641   6.766
 6161SOL    HW219383   5.787   1.712   6.639
 6162SOL     OW19384   6.377   0.020   4.171
 6162SOL    HW119385   6.356   0.099   4.228
 6162SOL    HW219386   6.445   6.980   4.216
 6163SOL     OW19387   5.536   6.107   1.084
 6163SOL    HW119388   5.558   6.014   1.054
 6163SOL    HW219389   5.569   6.121   1.177
 6164SOL     OW19390   3.198   4.028   4.043
 6164SOL    HW119391   3.270   4.059   4.105
 6164SOL    HW219392   3.134   3.969   4.092
 6165SOL     OW19393   3.923   1.378   6.455
 6165SOL    HW119394   3.866   1.429   6.520
 6165SOL    HW219395   3.981   1.314   6.505
 6166SOL     OW19396   5.263   1.722   0.056
 6166SOL    HW119397   5.354   1.756   0.078
 6166SOL    HW219398   5.229   1.666   0.132
 6167SOL     OW19399   0.878   4.642   2.907
 6167SOL    HW119400   0.822   4.642   2.990
 6167SOL    HW219401   0.848   4.568   2.847
 6168SOL     OW19402   1.458   3.383   3.277
 6168SOL    HW119403   1.402   3.453   3.322
 6168SOL    HW219404   1.482   3.415   3.185
 6169SOL     OW19405   1.347   1.868   0.572
 6169SOL    HW119406   1.299   1.842   0.656
 6169SOL    HW219407   1.317   1.807   0.498
 6170SOL     OW19408   2.976   3.894   5.751
 6170SOL    HW119409   2.926   3.935   5.674
 6170SOL    HW219410   3.049   3.956   5.779
 6171SOL     OW19411   1.726   3.687   1.008
 6171SOL    HW119412   1.756   3.719   0.919
 6171SOL    HW219413   1.795   3.626   1.047
 6172SOL     OW19414   1.746   1.222   3.870
 6172SOL    HW119415   1.677   1.188   3.806
 6172SOL    HW219416   1.830   1.245   3.821
 6173SOL     OW19417   6.430   5.425   2.709
 6173SOL    HW119418   6.480   5.416   2.623
 6173SOL    HW219419   6.482   5.485   2.771
 6174SOL     OW19420   6.111   5.516   2.922
 6174SOL    HW119421   6.146   5.436   2.873
 6174SOL    HW219422   6.047   5.486   2.993
 6175SOL     OW19423   4.524   0.853   3.266
 6175SOL    HW119424   4.538   0.940   3.218
 6175SOL    HW219425   4.471   0.869   3.349
 6176SOL     OW19426   6.313   2.999   0.238
 6176SOL    HW119427   6.252   2.935   0.285
 6176SOL    HW219428   6.308   3.089   0.281
 6177SOL     OW19429   5.115   1.624   1.414
 6177SOL    HW119430   5.137   1.630   1.511
 6177SOL    HW219431   5.187   1.669   1.361
 6178SOL     OW19432   4.519   5.015   3.025
 6178SOL    HW119433   4.450   5.052   3.088
 6178SOL    HW219434   4.523   5.072   2.943
 6179SOL     OW19435   6.348   4.676   4.503
 6179SOL    HW119436   6.292   4.653   4.583
 6179SOL    HW219437   6.333   4.772   4.478
 6180SOL     OW19438   3.764   5.555   0.258
 6180SOL    HW119439   3.751   5.456   0.253
 6180SOL    HW219440   3.701   5.600   0.195
 6181SOL     OW19441   4.367   6.627   1.124
 6181SOL    HW119442   4.393   6.722   1.103
 6181SOL    HW219443   4.273   6.611   1.095
 6182SOL     OW19444   5.935   3.233   6.232
 6182SOL    HW119445   5.853   3.248   6.288
 6182SOL    HW219446   6.015   3.265   6.282
 6183SOL     OW19447   1.930   0.552   3.002
 6183SOL    HW119448   1.989   0.527   3.078
 6183SOL    HW219449   1.889   0.469   2.963
 6184SOL     OW19450   1.343   0.038   6.273
 6184SOL    HW119451   1.287   0.031   6.356
 6184SOL    HW219452   1.323   0.124   6.226
 6185SOL     OW19453   0.358   4.288   6.441
 6185SOL    HW119454   0.407   4.249   6.364
 6185SOL    HW219455   0.417   4.290   6.522
 6186SOL     OW19456   6.199   6.821   5.445
 6186SOL    HW119457   6.170   6.875   5.366
 6186SOL    HW219458   6.142   6.739   5.452
 6187SOL     OW19459   4.280   5.054   3.645
 6187SOL    HW119460   4.320   5.058   3.737
 6187SOL    HW219461   4.216   4.977   3.640
 6188SOL     OW19462   2.498   0.522   0.494
 6188SOL    HW119463   2.443   0.588   0.545
 6188SOL    HW219464   2.543   0.460   0.559
 6189SOL     OW19465   4.793   3.976   4.295
 6189SOL    HW119466   4.828   3.905   4.235
 6189SOL    HW219467   4.826   4.066   4.265
 6190SOL     OW19468   6.733   3.982   5.708
 6190SOL    HW119469   6.814   4.021   5.753
 6190SOL    HW219470   6.651   4.028   5.743
 6191SOL     OW19471   3.892   2.757   7.004
 6191SOL    HW119472   3.991   2.770   7.017
 6191SOL    HW219473   3.877   2.709   6.917
 6192SOL     OW19474   3.099   2.927   6.397
 6192SOL    HW119475   3.127   3.020   6.373
 6192SOL    HW219476   3.159   2.892   6.469
 6193SOL     OW19477   5.410   0.998   2.583
 6193SOL    HW119478   5.470   0.939   2.529
 6193SOL    HW219479   5.451   1.088   2.592
 6194SOL     OW19480   1.310   0.056   0.686
 6194SOL    HW119481   1.380   0.018   0.625
 6194SOL    HW219482   1.331   0.152   0.706
 6195SOL     OW19483   3.950   6.598   5.122
 6195SOL    HW119484   3.937   6.561   5.030
 6195SOL    HW219485   3.999   6.685   5.116
 6196SOL     OW19486   5.976   2.105   1.321
 6196SOL    HW119487   5.966   2.049   1.403
 6196SOL    HW219488   6.044   2.063   1.260
 6197SOL     OW19489   4.311   4.613   0.447
 6197SOL    HW119490   4.238   4.679   0.464
 6197SOL    HW219491   4.348   4.628   0.355
 6198SOL     OW19492   3.143   5.679   2.217
 6198SOL    HW119493   3.139   5.580   2.232
 6198SOL    HW219494   3.160   5.726   2.303
 6199SOL     OW19495   1.119   0.642   0.766
 6199SOL    HW119496   1.198   0.630   0.827
 6199SOL    HW219497   1.045   0.686   0.816
 6200SOL     OW19498   1.628   1.455   5.397
 6200SOL    HW119499   1.710   1.511   5.380
 6200SOL    HW219500   1.591   1.423   5.310
 6201SOL     OW19501   1.284   4.042   4.703
 6201SOL    HW119502   1.227   3.973   4.748
 6201SOL    HW219503   1.332   4.095   4.773
 6202SOL     OW19504   4.233   1.547   2.219
 6202SOL    HW119505   4.194   1.620   2.163
 6202SOL    HW219506   4.217   1.459   2.175
 6203SOL     OW19507   6.419   6.718   3.144
 6203SOL    HW119508   6.367   6.747   3.224
 6203SOL    HW219509   6.430   6.794   3.081
 6204SOL     OW19510   1.397   5.416   4.675
 6204SOL    HW119511   1.408   5.514   4.685
 6204SOL    HW219512   1.322   5.384   4.734
 6205SOL     OW19513   6.556   6.381   0.137
 6205SOL    HW119514   6.553   6.476   0.169
 6205SOL    HW219515   6.591   6.322   0.210
 6206SOL     OW19516   0.020   0.749   2.387
 6206SOL    HW119517   7.003   0.678   2.326
 6206SOL    HW219518   6.990   0.835   2.369
 6207SOL     OW19519   1.426   5.367   4.364
 6207SOL    HW119520   1.515   5.325   4.348
 6207SOL    HW219521   1.409   5.373   4.462
 6208SOL     OW19522   5.639   1.682   6.284
 6208SOL    HW119523   5.691   1.760   6.318
 6208SOL    HW219524   5.566   1.660   6.349
 6209SOL     OW19525   4.436   5.488   0.082
 6209SOL    HW119526   4.382   5.493   7.016
 6209SOL    HW219527   4.528   5.525   0.065
 6210SOL     OW19528   5.336   3.924   3.331
 6210SOL    HW119529   5.393   4.005   3.341
 6210SOL    HW219530   5.392   3.842   3.338
 6211SOL     OW19531   3.061   6.251   5.825
 6211SOL    HW119532   3.130   6.192   5.783
 6211SOL    HW219533   3.035   6.322   5.759
 6212SOL     OW19534   2.127   4.903   2.921
 6212SOL    HW119535   2.089   4.833   2.981
 6212SOL    HW219536   2.088   4.893   2.829
 6213SOL     OW19537   5.606   0.293   6.628
 6213SOL    HW119538   5.631   0.380   6.669
 6213SOL    HW219539   5.662   0.220   6.668
 6214SOL     OW19540   4.714   4.922   4.434
 6214SOL    HW119541   4.688   4.868   4.354
 6214SOL    HW219542   4.691   4.872   4.517
 6215SOL     OW19543   4.223   1.684   1.380
 6215SOL    HW119544   4.174   1.732   1.307
 6215SOL    HW219545   4.211   1.586   1.370
 6216SOL     OW19546   6.118   1.770   1.818
 6216SOL    HW119547   6.069   1.689   1.852
 6216SOL    HW219548   6.068   1.852   1.842
 6217SOL     OW19549   0.749   2.881   1.920
 6217SOL    HW119550   0.768   2.844   1.829
 6217SOL    HW219551   0.808   2.960   1.937
 6218SOL     OW19552   3.788   4.995   5.373
 6218SOL    HW119553   3.829   5.007   5.463
 6218SOL    HW219554   3.839   5.049   5.306
 6219SOL     OW19555   0.811   2.123   4.264
 6219SOL    HW119556   0.752   2.175   4.201
 6219SOL    HW219557   0.887   2.084   4.213
 6220SOL     OW19558   1.367   2.782   4.948
 6220SOL    HW119559   1.385   2.721   5.026
 6220SOL    HW219560   1.370   2.877   4.980
 6221SOL     OW19561   5.954   5.980   6.979
 6221SOL    HW119562   5.940   6.010   6.885
 6221SOL    HW219563   5.982   6.058   0.017
 6222SOL     OW19564   0.506   6.296   0.985
 6222SOL    HW119565   0.429   6.359   0.995
 6222SOL    HW219566   0.516   6.241   1.068
 6223SOL     OW19567   0.408   4.874   3.902
 6223SOL    HW119568   0.414   4.796   3.964
 6223SOL    HW219569   0.311   4.898   3.889
 6224SOL     OW19570   2.374   1.754   6.087
 6224SOL    HW119571   2.322   1.669   6.091
 6224SOL    HW219572   2.365   1.803   6.174
 6225SOL     OW19573   3.301   4.026   0.374
 6225SOL    HW119574   3.296   4.125   0.385
 6225SOL    HW219575   3.244   3.981   0.442
 6226SOL     OW19576   6.006   1.358   5.031
 6226SOL    HW119577   6.070   1.383   4.960
 6226SOL    HW219578   6.031   1.269   5.069
 6227SOL     OW19579   3.871   5.689   5.713
 6227SOL    HW119580   3.794   5.633   5.681
 6227SOL    HW219581   3.862   5.782   5.677
 6228SOL     OW19582   1.296   2.659   3.275
 6228SOL    HW119583   1.237   2.582   3.250
 6228SOL    HW219584   1.268   2.696   3.363
 6229SOL     OW19585   0.156   2.229   2.909
 6229SOL    HW119586   0.212   2.280   2.974
 6229SOL    HW219587   0.209   2.155   2.869
 6230SOL     OW19588   1.646   1.148   3.635
 6230SOL    HW119589   1.708   1.134   3.557
 6230SOL    HW219590   1.608   1.240   3.631
 6231SOL     OW19591   6.114   5.198   0.899
 6231SOL    HW119592   6.159   5.268   0.955
 6231SOL    HW219593   6.038   5.158   0.951
 6232SOL     OW19594   6.505   0.910   0.734
 6232SOL    HW119595   6.570   0.931   0.661
 6232SOL    HW219596   6.412   0.925   0.701
 6233SOL     OW19597   6.472   0.434   0.490
 6233SOL    HW119598   6.528   0.508   0.527
 6233SOL    HW219599   6.432   0.463   0.404
 6234SOL     OW19600   6.257   1.621   5.682
 6234SOL    HW119601   6.182   1.584   5.628
 6234SOL    HW219602   6.266   1.569   5.767
 6235SOL     OW19603   1.285   0.286   1.795
 6235SOL    HW119604   1.320   0.361   1.738
 6235SOL    HW219605   1.353   0.262   1.864
 6236SOL     OW19606   0.557   4.088   0.750
 6236SOL    HW119607   0.502   4.029   0.809
 6236SOL    HW219608   0.653   4.061   0.756
 6237SOL     OW19609   3.674   6.403   0.112
 6237SOL    HW119610   3.690   6.442   0.022
 6237SOL    HW219611   3.667   6.476   0.180
 6238SOL     OW19612   4.244   5.179   2.995
 6238SOL    HW119613   4.253   5.110   3.066
 6238SOL    HW219614   4.312   5.252   3.010
 6239SOL     OW19615   2.994   6.941   2.436
 6239SOL    HW119616   3.082   6.959   2.479
 6239SOL    HW219617   2.954   0.009   2.404
 6240SOL     OW19618   2.724   3.129   5.884
 6240SOL    HW119619   2.692   3.204   5.826
 6240SOL    HW219620   2.716   3.156   5.980
 6241SOL     OW19621   3.832   0.216   2.000
 6241SOL    HW119622   3.808   0.284   2.068
 6241SOL    HW219623   3.797   0.245   1.910
 6242SOL     OW19624   5.355   1.528   3.208
 6242SOL    HW119625   5.265   1.504   3.244
 6242SOL    HW219626   5.424   1.508   3.278
 6243SOL     OW19627   6.171   7.007   3.967
 6243SOL    HW119628   6.223   0.022   3.888
 6243SOL    HW219629   6.232   6.999   4.046
 6244SOL     OW19630   0.787   2.588   2.598
 6244SOL    HW119631   0.874   2.637   2.593
 6244SOL    HW219632   0.756   2.586   2.693
 6245SOL     OW19633   1.643   3.798   0.150
 6245SOL    HW119634   1.613   3.822   0.243
 6245SOL    HW219635   1.724   3.741   0.156
 6246SOL     OW19636   1.851   2.210   5.717
 6246SOL    HW119637   1.795   2.157   5.654
 6246SOL    HW219638   1.871   2.155   5.798
 6247SOL     OW19639   1.508   6.193   4.727
 6247SOL    HW119640   1.459   6.255   4.789
 6247SOL    HW219641   1.509   6.101   4.765
 6248SOL     OW19642   3.385   3.240   0.289
 6248SOL    HW119643   3.445   3.160   0.283
 6248SOL    HW219644   3.329   3.232   0.371
 6249SOL     OW19645   0.368   3.983   0.905
 6249SOL    HW119646   0.316   3.901   0.881
 6249SOL    HW219647   0.372   3.993   1.004
 6250SOL     OW19648   6.577   6.015   0.210
 6250SOL    HW119649   6.598   6.089   0.274
 6250SOL    HW219650   6.638   6.019   0.132
 6251SOL     OW19651   3.673   5.349   6.814
 6251SOL    HW119652   3.740   5.282   6.847
 6251SOL    HW219653   3.701   5.441   6.841
 6252SOL     OW19654   1.412   6.844   5.448
 6252SOL    HW119655   1.319   6.809   5.460
 6252SOL    HW219656   1.461   6.839   5.535
 6253SOL     OW19657   2.104   3.824   2.783
 6253SOL    HW119658   2.166   3.749   2.808
 6253SOL    HW219659   2.010   3.789   2.779
 6254SOL     OW19660   4.927   1.822   0.571
 6254SOL    HW119661   4.866   1.887   0.524
 6254SOL    HW219662   4.919   1.733   0.527
 6255SOL     OW19663   3.018   0.117   0.987
 6255SOL    HW119664   2.940   0.058   0.966
 6255SOL    HW219665   2.986   0.211   1.000
 6256SOL     OW19666   3.486   5.164   2.326
 6256SOL    HW119667   3.391   5.183   2.301
 6256SOL    HW219668   3.522   5.093   2.266
 6257SOL     OW19669   4.759   2.330   0.058
 6257SOL    HW119670   4.850   2.316   0.096
 6257SOL    HW219671   4.713   2.242   0.048
 6258SOL     OW19672   3.837   0.167   4.131
 6258SOL    HW119673   3.929   0.204   4.115
 6258SOL    HW219674   3.821   0.091   4.068
 6259SOL     OW19675   2.496   2.384   0.709
 6259SOL    HW119676   2.593   2.361   0.721
 6259SOL    HW219677   2.474   2.464   0.764
 6260SOL     OW19678   3.065   5.824   0.650
 6260SOL    HW119679   3.056   5.903   0.711
 6260SOL    HW219680   3.101   5.854   0.562
 6261SOL     OW19681   4.130   0.606   6.382
 6261SOL    HW119682   4.132   0.536   6.310
 6261SOL    HW219683   4.040   0.605   6.427
 6262SOL     OW19684   1.809   6.053   0.426
 6262SOL    HW119685   1.899   6.067   0.467
 6262SOL    HW219686   1.821   6.015   0.334
 6263SOL     OW19687   6.510   0.319   5.065
 6263SOL    HW119688   6.486   0.415   5.083
 6263SOL    HW219689   6.480   0.262   5.142
 6264SOL     OW19690   1.445   6.593   2.406
 6264SOL    HW119691   1.395   6.639   2.480
 6264SOL    HW219692   1.533   6.638   2.392
 6265SOL     OW19693   3.190   4.216   0.519
 6265SOL    HW119694   3.213   4.312   0.534
 6265SOL    HW219695   3.092   4.207   0.504
 6266SOL     OW19696   3.854   0.982   4.731
 6266SOL    HW119697   3.827   0.886   4.721
 6266SOL    HW219698   3.892   0.996   4.823
 6267SOL     OW19699   2.466   0.752   6.587
 6267SOL    HW119700   2.415   0.666   6.582
 6267SOL    HW219701   2.563   0.734   6.571
 6268SOL     OW19702   3.281   0.134   3.680
 6268SOL    HW119703   3.367   0.168   3.716
 6268SOL    HW219704   3.205   0.168   3.736
 6269SOL     OW19705   6.857   6.322   1.569
 6269SOL    HW119706   6.805   6.278   1.496
 6269SOL    HW219707   6.837   6.278   1.656
 6270SOL     OW19708   1.620   0.472   4.944
 6270SOL    HW119709   1.680   0.550   4.923
 6270SOL    HW219710   1.666   0.411   5.009
 6271SOL     OW19711   6.057   2.157   6.521
 6271SOL    HW119712   6.025   2.149   6.615
 6271SOL    HW219713   6.151   2.124   6.514
 6272SOL     OW19714   0.427   2.331   0.012
 6272SOL    HW119715   0.472   2.419   7.013
 6272SOL    HW219716   0.363   2.340   0.088
 6273SOL     OW19717   1.691   6.661   2.474
 6273SOL    HW119718   1.684   6.713   2.559
 6273SOL    HW219719   1.724   6.569   2.494
 6274SOL     OW19720   2.858   5.827   5.984
 6274SOL    HW119721   2.914   5.784   6.055
 6274SOL    HW219722   2.884   5.923   5.975
 6275SOL     OW19723   1.681   6.563   5.431
 6275SOL    HW119724   1.616   6.566   5.355
 6275SOL    HW219725   1.675   6.474   5.476
 6276SOL     OW19726   2.317   4.208   2.955
 6276SOL    HW119727   2.320   4.166   2.864
 6276SOL    HW219728   2.378   4.287   2.957
 6277SOL     OW19729   5.397   3.479   1.784
 6277SOL    HW119730   5.478   3.502   1.730
 6277SOL    HW219731   5.339   3.416   1.731
 6278SOL     OW19732   5.274   6.477   4.153
 6278SOL    HW119733   5.207   6.551   4.157
 6278SOL    HW219734   5.229   6.393   4.126
 6279SOL     OW19735   4.100   0.133   6.883
 6279SOL    HW119736   4.171   0.099   6.822
 6279SOL    HW219737   4.122   0.226   6.913
 6280SOL     OW19738   1.212   2.403   5.312
 6280SOL    HW119739   1.126   2.356   5.290
 6280SOL    HW219740   1.206   2.498   5.283
 6281SOL     OW19741   1.307   5.080   3.238
 6281SOL    HW119742   1.276   5.154   3.178
 6281SOL    HW219743   1.398   5.102   3.274
 6282SOL     OW19744   1.298   6.645   4.794
 6282SOL    HW119745   1.241   6.713   4.841
 6282SOL    HW219746   1.280   6.648   4.696
 6283SOL     OW19747   7.000   3.070   5.987
 6283SOL    HW119748   6.916   3.054   5.934
 6283SOL    HW219749   0.054   3.101   5.925
 6284SOL     OW19750   1.930   5.471   4.866
 6284SOL    HW119751   1.891   5.454   4.956
 6284SOL    HW219752   1.899   5.560   4.833
 6285SOL     OW19753   0.230   3.144   4.965
 6285SOL    HW119754   0.271   3.219   4.913
 6285SOL    HW219755   0.175   3.087   4.903
 6286SOL     OW19756   6.470   2.155   3.111
 6286SOL    HW119757   6.374   2.128   3.098
 6286SOL    HW219758   6.476   2.255   3.117
 6287SOL     OW19759   3.505   4.896   3.921
 6287SOL    HW119760   3.451   4.926   3.842
 6287SOL    HW219761   3.444   4.881   3.999
 6288SOL     OW19762   4.914   4.739   2.392
 6288SOL    HW119763   4.979   4.776   2.459
 6288SOL    HW219764   4.964   4.698   2.316
 6289SOL     OW19765   1.858   4.734   1.849
 6289SOL    HW119766   1.890   4.802   1.783
 6289SOL    HW219767   1.937   4.698   1.900
 6290SOL     OW19768   6.702   4.241   4.877
 6290SOL    HW119769   6.734   4.187   4.800
 6290SOL    HW219770   6.643   4.315   4.844
 6291SOL     OW19771   3.980   3.055   4.623
 6291SOL    HW119772   3.882   3.075   4.615
 6291SOL    HW219773   4.021   3.055   4.532
 6292SOL     OW19774   1.707   2.621   4.160
 6292SOL    HW119775   1.722   2.553   4.232
 6292SOL    HW219776   1.621   2.669   4.177
 6293SOL     OW19777   3.466   0.541   0.068
 6293SOL    HW119778   3.554   0.570   0.105
 6293SOL    HW219779   3.407   0.621   0.057
 6294SOL     OW19780   3.932   4.890   4.954
 6294SOL    HW119781   3.904   4.861   4.863
 6294SOL    HW219782   3.865   4.955   4.990
 6295SOL     OW19783   5.736   4.706   5.576
 6295SOL    HW119784   5.751   4.611   5.604
 6295SOL    HW219785   5.711   4.760   5.656
 6296SOL     OW19786   0.294   0.002   6.105
 6296SOL    HW119787   0.297   6.942   6.168
 6296SOL    HW219788   0.383   0.049   6.106
 6297SOL     OW19789   4.722   6.557   4.339
 6297SOL    HW119790   4.661   6.636   4.347
 6297SOL    HW219791   4.817   6.588   4.341
 6298SOL     OW19792   1.099   2.817   6.598
 6298SOL    HW119793   1.129   2.787   6.688
 6298SOL    HW219794   1.014   2.870   6.607
 6299SOL     OW19795   5.121   1.846   6.800
 6299SOL    HW119796   5.193   1.792   6.844
 6299SOL    HW219797   5.140   1.943   6.812
 6300SOL     OW19798   6.346   0.189   0.529
 6300SOL    HW119799   6.326   0.156   0.622
 6300SOL    HW219800   6.366   0.287   0.533
 6301SOL     OW19801   3.983   0.483   0.517
 6301SOL    HW119802   3.933   0.462   0.601
 6301SOL    HW219803   4.064   0.538   0.539
 6302SOL     OW19804   1.934   0.415   3.409
 6302SOL    HW119805   1.848   0.465   3.416
 6302SOL    HW219806   2.002   0.458   3.468
 6303SOL     OW19807   1.473   1.618   4.308
 6303SOL    HW119808   1.531   1.651   4.383
 6303SOL    HW219809   1.451   1.693   4.247
 6304SOL     OW19810   2.256   1.418   1.368
 6304SOL    HW119811   2.265   1.376   1.458
 6304SOL    HW219812   2.268   1.348   1.298
 6305SOL     OW19813   5.647   0.140   1.852
 6305SOL    HW119814   5.611   0.048   1.838
 6305SOL    HW219815   5.572   0.206   1.847
 6306SOL     OW19816   0.299   3.789   4.419
 6306SOL    HW119817   0.312   3.759   4.325
 6306SOL    HW219818   0.307   3.888   4.424
 6307SOL     OW19819   3.950   4.210   5.574
 6307SOL    HW119820   4.030   4.259   5.539
 6307SOL    HW219821   3.961   4.192   5.672
 6308SOL     OW19822   1.989   2.421   4.201
 6308SOL    HW119823   2.075   2.381   4.234
 6308SOL    HW219824   1.913   2.360   4.222
 6309SOL     OW19825   5.296   4.982   5.219
 6309SOL    HW119826   5.226   4.912   5.202
 6309SOL    HW219827   5.345   4.960   5.303
 6310SOL     OW19828   1.626   6.016   3.267
 6310SOL    HW119829   1.679   6.072   3.203
 6310SOL    HW219830   1.684   5.943   3.303
 6311SOL     OW19831   4.667   0.698   6.091
 6311SOL    HW119832   4.599   0.771   6.099
 6311SOL    HW219833   4.666   0.642   6.174
 6312SOL     OW19834   6.034   5.553   5.584
 6312SOL    HW119835   6.005   5.635   5.633
 6312SOL    HW219836   6.125   5.569   5.545
 6313SOL     OW19837   1.537   6.640   4.503
 6313SOL    HW119838   1.509   6.682   4.417
 6313SOL    HW219839   1.527   6.540   4.496
 6314SOL     OW19840   3.805   6.155   1.651
 6314SOL    HW119841   3.766   6.214   1.722
 6314SOL    HW219842   3.873   6.207   1.599
 6315SOL     OW19843   2.137   2.641   5.662
 6315SOL    HW119844   2.231   2.606   5.660
 6315SOL    HW219845   2.122   2.701   5.583
 6316SOL     OW19846   4.689   1.414   6.944
 6316SOL    HW119847   4.619   1.468   6.897
 6316SOL    HW219848   4.780   1.438   6.909
 6317SOL     OW19849   4.633   5.698   2.837
 6317SOL    HW119850   4.703   5.765   2.863
 6317SOL    HW219851   4.669   5.640   2.764
 6318SOL     OW19852   3.900   1.659   4.976
 6318SOL    HW119853   3.892   1.633   5.073
 6318SOL    HW219854   3.957   1.592   4.929
 6319SOL     OW19855   6.693   1.614   4.334
 6319SOL    HW119856   6.682   1.521   4.300
 6319SOL    HW219857   6.659   1.679   4.265
 6320SOL     OW19858   5.618   5.751   5.152
 6320SOL    HW119859   5.596   5.826   5.213
 6320SOL    HW219860   5.653   5.674   5.206
 6321SOL     OW19861   3.325   3.500   0.758
 6321SOL    HW119862   3.321   3.474   0.855
 6321SOL    HW219863   3.382   3.580   0.747
 6322SOL     OW19864   1.547   2.306   0.280
 6322SOL    HW119865   1.593   2.255   0.352
 6322SOL    HW219866   1.480   2.248   0.235
 6323SOL     OW19867   3.562   2.613   1.465
 6323SOL    HW119868   3.561   2.713   1.477
 6323SOL    HW219869   3.609   2.571   1.542
 6324SOL     OW19870   5.268   6.837   6.478
 6324SOL    HW119871   5.354   6.787   6.479
 6324SOL    HW219872   5.193   6.775   6.504
 6325SOL     OW19873   2.570   1.709   2.474
 6325SOL    HW119874   2.642   1.772   2.443
 6325SOL    HW219875   2.581   1.621   2.429
 6326SOL     OW19876   4.840   5.079   1.816
 6326SOL    HW119877   4.812   5.162   1.866
 6326SOL    HW219878   4.762   5.018   1.808
 6327SOL     OW19879   6.750   0.345   4.618
 6327SOL    HW119880   6.759   0.271   4.553
 6327SOL    HW219881   6.833   0.351   4.674
 6328SOL     OW19882   2.724   3.127   0.634
 6328SOL    HW119883   2.822   3.113   0.620
 6328SOL    HW219884   2.673   3.076   0.565
 6329SOL     OW19885   2.447   2.493   3.792
 6329SOL    HW119886   2.453   2.543   3.705
 6329SOL    HW219887   2.361   2.515   3.838
 6330SOL     OW19888   4.989   0.780   1.365
 6330SOL    HW119889   4.900   0.741   1.342
 6330SOL    HW219890   5.058   0.709   1.364
 6331SOL     OW19891   6.372   2.135   6.532
 6331SOL    HW119892   6.435   2.124   6.454
 6331SOL    HW219893   6.380   2.228   6.568
 6332SOL     OW19894   6.116   3.293   1.493
 6332SOL    HW119895   6.043   3.285   1.560
 6332SOL    HW219896   6.166   3.207   1.487
 6333SOL     OW19897   4.837   5.569   5.218
 6333SOL    HW119898   4.856   5.475   5.246
 6333SOL    HW219899   4.755   5.602   5.265
 6334SOL     OW19900   3.058   0.468   1.584
 6334SOL    HW119901   2.990   0.443   1.653
 6334SOL    HW219902   3.074   0.391   1.523
 6335SOL     OW19903   4.248   1.247   0.466
 6335SOL    HW119904   4.319   1.180   0.443
 6335SOL    HW219905   4.268   1.334   0.419
 6336SOL     OW19906   0.789   2.328   5.713
 6336SOL    HW119907   0.873   2.380   5.731
 6336SOL    HW219908   0.729   2.382   5.653
 6337SOL     OW19909   5.041   3.831   6.345
 6337SOL    HW119910   5.100   3.750   6.339
 6337SOL    HW219911   5.066   3.896   6.273
 6338SOL     OW19912   3.867   1.947   4.190
 6338SOL    HW119913   3.944   1.886   4.213
 6338SOL    HW219914   3.783   1.894   4.186
 6339SOL     OW19915   1.349   4.014   2.758
 6339SOL    HW119916   1.262   3.989   2.801
 6339SOL    HW219917   1.340   4.104   2.715
 6340SOL     OW19918   1.686   5.024   2.946
 6340SOL    HW119919   1.593   5.060   2.942
 6340SOL    HW219920   1.685   4.932   2.984
 6341SOL     OW19921   0.987   4.123   4.441
 6341SOL    HW119922   0.930   4.054   4.486
 6341SOL    HW219923   0.979   4.210   4.490
 6342SOL     OW19924   2.294   1.312   1.998
 6342SOL    HW119925   2.372   1.287   2.056
 6342SOL    HW219926   2.225   1.360   2.053
 6343SOL     OW19927   4.481   2.067   6.449
 6343SOL    HW119928   4.422   2.036   6.523
 6343SOL    HW219929   4.476   2.001   6.373
 6344SOL     OW19930   5.759   3.047   5.500
 6344SOL    HW119931   5.752   3.140   5.465
 6344SOL    HW219932   5.667   3.007   5.508
 6345SOL     OW19933   5.099   2.763   2.301
 6345SOL    HW119934   5.181   2.706   2.294
 6345SOL    HW219935   5.018   2.704   2.306
 6346SOL     OW19936   6.700   4.663   3.579
 6346SOL    HW119937   6.739   4.579   3.540
 6346SOL    HW219938   6.774   4.724   3.608
 6347SOL     OW19939   2.407   0.642   0.740
 6347SOL    HW119940   2.366   0.572   0.800
 6347SOL    HW219941   2.343   0.717   0.728
 6348SOL     OW19942   1.058   4.166   5.375
 6348SOL    HW119943   1.130   4.151   5.307
 6348SOL    HW219944   0.992   4.091   5.370
 6349SOL     OW19945   2.671   0.482   1.370
 6349SOL    HW119946   2.591   0.529   1.407
 6349SOL    HW219947   2.749   0.545   1.369
 6350SOL     OW19948   2.042   5.046   4.123
 6350SOL    HW119949   1.989   4.962   4.107
 6350SOL    HW219950   2.058   5.057   4.221
 6351SOL     OW19951   6.436   3.552   3.524
 6351SOL    HW119952   6.394   3.461   3.523
 6351SOL    HW219953   6.464   3.574   3.617
 6352SOL     OW19954   3.793   5.873   4.540
 6352SOL    HW119955   3.709   5.867   4.593
 6352SOL    HW219956   3.783   5.822   4.454
 6353SOL     OW19957   0.245   0.384   5.902
 6353SOL    HW119958   0.205   0.359   5.990
 6353SOL    HW219959   0.172   0.403   5.836
 6354SOL     OW19960   1.765   5.807   3.361
 6354SOL    HW119961   1.745   5.717   3.400
 6354SOL    HW219962   1.853   5.802   3.312
 6355SOL     OW19963   0.935   5.196   6.487
 6355SOL    HW119964   0.924   5.123   6.554
 6355SOL    HW219965   0.846   5.234   6.464
 6356SOL     OW19966   4.137   5.437   2.169
 6356SOL    HW119967   4.180   5.347   2.163
 6356SOL    HW219968   4.207   5.506   2.189
 6357SOL     OW19969   5.365   3.578   2.101
 6357SOL    HW119970   5.430   3.599   2.174
 6357SOL    HW219971   5.324   3.489   2.118
 6358SOL     OW19972   0.772   1.624   6.575
 6358SOL    HW119973   0.858   1.614   6.526
 6358SOL    HW219974   0.742   1.719   6.571
 6359SOL     OW19975   6.263   6.742   6.105
 6359SOL    HW119976   6.181   6.788   6.069
 6359SOL    HW219977   6.293   6.789   6.188
 6360SOL     OW19978   1.108   4.034   3.912
 6360SOL    HW119979   1.039   4.107   3.915
 6360SOL    HW219980   1.186   4.060   3.969
 6361SOL     OW19981   6.265   6.905   0.981
 6361SOL    HW119982   6.286   6.808   0.966
 6361SOL    HW219983   6.335   6.945   1.041
 6362SOL     OW19984   0.591   6.429   0.728
 6362SOL    HW119985   0.594   6.375   0.812
 6362SOL    HW219986   0.663   6.397   0.666
 6363SOL     OW19987   2.175   4.506   3.478
 6363SOL    HW119988   2.217   4.491   3.389
 6363SOL    HW219989   2.241   4.487   3.551
 6364SOL     OW19990   3.287   1.031   5.706
 6364SOL    HW119991   3.364   1.092   5.722
 6364SOL    HW219992   3.288   0.958   5.775
 6365SOL     OW19993   5.386   0.276   4.052
 6365SOL    HW119994   5.375   0.323   3.964
 6365SOL    HW219995   5.340   0.329   4.123
 6366SOL     OW19996   1.260   6.122   6.020
 6366SOL    HW119997   1.289   6.193   5.956
 6366SOL    HW219998   1.227   6.164   6.104
 6367SOL     OW19999   3.990   0.646   4.925
 6367SOL    HW120000   4.036   0.731   4.900
 6367SOL    HW220001   3.960   0.651   5.020
 6368SOL     OW20002   3.424   4.953   3.570
 6368SOL    HW120003   3.368   4.992   3.497
 6368SOL    HW220004   3.513   4.926   3.534
 6369SOL     OW20005   1.679   5.270   3.640
 6369SOL    HW120006   1.622   5.283   3.559
 6369SOL    HW220007   1.773   5.250   3.612
 6370SOL     OW20008   0.382   3.057   3.128
 6370SOL    HW120009   0.295   3.073   3.081
 6370SOL    HW220010   0.457   3.093   3.073
 6371SOL     OW20011   5.263   4.057   4.173
 6371SOL    HW120012   5.334   3.989   4.158
 6371SOL    HW220013   5.222   4.043   4.263
 6372SOL     OW20014   2.455   0.351   2.090
 6372SOL    HW120015   2.357   0.372   2.087
 6372SOL    HW220016   2.497   0.379   2.004
 6373SOL     OW20017   4.979   4.382   3.095
 6373SOL    HW120018   4.908   4.383   3.024
 6373SOL    HW220019   5.062   4.340   3.059
 6374SOL     OW20020   2.973   3.827   4.205
 6374SOL    HW120021   2.946   3.732   4.219
 6374SOL    HW220022   2.908   3.887   4.250
 6375SOL     OW20023   6.317   1.758   3.651
 6375SOL    HW120024   6.414   1.735   3.637
 6375SOL    HW220025   6.299   1.849   3.612
 6376SOL     OW20026   5.742   3.001   4.678
 6376SOL    HW120027   5.650   2.999   4.639
 6376SOL    HW220028   5.752   2.925   4.742
 6377SOL     OW20029   6.094   1.356   5.317
 6377SOL    HW120030   6.169   1.333   5.379
 6377SOL    HW220031   6.068   1.275   5.265
 6378SOL     OW20032   4.718   5.278   3.803
 6378SOL    HW120033   4.810   5.305   3.832
 6378SOL    HW220034   4.652   5.301   3.874
 6379SOL     OW20035   1.910   3.848   4.226
 6379SOL    HW120036   1.928   3.937   4.269
 6379SOL    HW220037   1.900   3.860   4.127
 6380SOL     OW20038   0.407   1.943   6.177
 6380SOL    HW120039   0.345   1.903   6.109
 6380SOL    HW220040   0.446   1.870   6.233
 6381SOL     OW20041   3.741   3.414   1.731
 6381SOL    HW120042   3.693   3.330   1.757
 6381SOL    HW220043   3.686   3.493   1.760
 6382SOL     OW20044   1.213   1.431   0.691
 6382SOL    HW120045   1.241   1.504   0.753
 6382SOL    HW220046   1.118   1.445   0.663
 6383SOL     OW20047   1.335   1.911   3.176
 6383SOL    HW120048   1.387   1.851   3.237
 6383SOL    HW220049   1.254   1.864   3.143
 6384SOL     OW20050   5.738   4.069   1.439
 6384SOL    HW120051   5.777   4.086   1.529
 6384SOL    HW220052   5.812   4.054   1.373
 6385SOL     OW20053   0.090   4.681   3.539
 6385SOL    HW120054   0.185   4.660   3.559
 6385SOL    HW220055   0.039   4.595   3.530
 6386SOL     OW20056   2.467   4.235   6.045
 6386SOL    HW120057   2.556   4.279   6.053
 6386SOL    HW220058   2.426   4.258   5.957
 6387SOL     OW20059   0.741   1.440   6.773
 6387SOL    HW120060   0.768   1.487   6.689
 6387SOL    HW220061   0.694   1.355   6.749
 6388SOL     OW20062   4.116   4.640   0.988
 6388SOL    HW120063   4.071   4.654   1.076
 6388SOL    HW220064   4.053   4.592   0.926
 6389SOL     OW20065   0.546   5.591   2.540
 6389SOL    HW120066   0.620   5.603   2.606
 6389SOL    HW220067   0.586   5.580   2.448
 6390SOL     OW20068   0.473   1.972   5.447
 6390SOL    HW120069   0.476   1.992   5.349
 6390SOL    HW220070   0.526   1.889   5.466
 6391SOL     OW20071   2.534   6.875   6.066
 6391SOL    HW120072   2.458   6.816   6.036
 6391SOL    HW220073   2.562   6.849   6.158
 6392SOL     OW20074   2.395   6.707   2.872
 6392SOL    HW120075   2.399   6.804   2.894
 6392SOL    HW220076   2.366   6.695   2.777
 6393SOL     OW20077   6.909   0.050   1.900
 6393SOL    HW120078   6.852   0.131   1.910
 6393SOL    HW220079   7.002   0.077   1.875
 6394SOL     OW20080   2.058   4.685   0.766
 6394SOL    HW120081   1.994   4.762   0.768
 6394SOL    HW220082   2.102   4.680   0.677
 6395SOL     OW20083   6.658   2.349   1.165
 6395SOL    HW120084   6.629   2.445   1.169
 6395SOL    HW220085   6.577   2.290   1.170
 6396SOL     OW20086   5.194   3.168   6.151
 6396SOL    HW120087   5.141   3.090   6.119
 6396SOL    HW220088   5.142   3.252   6.136
 6397SOL     OW20089   5.333   2.543   6.785
 6397SOL    HW120090   5.307   2.548   6.688
 6397SOL    HW220091   5.263   2.588   6.840
 6398SOL     OW20092   3.457   0.267   0.779
 6398SOL    HW120093   3.404   0.196   0.733
 6398SOL    HW220094   3.397   0.342   0.807
 6399SOL     OW20095   1.199   5.725   6.339
 6399SOL    HW120096   1.196   5.625   6.333
 6399SOL    HW220097   1.242   5.761   6.256
 6400SOL     OW20098   2.098   6.366   2.094
 6400SOL    HW120099   2.060   6.447   2.048
 6400SOL    HW220100   2.181   6.393   2.143
 6401SOL     OW20101   0.280   4.927   3.588
 6401SOL    HW120102   0.348   4.857   3.608
 6401SOL    HW220103   0.203   4.918   3.652
 6402SOL     OW20104   4.079   1.596   2.459
 6402SOL    HW120105   4.047   1.683   2.421
 6402SOL    HW220106   4.163   1.568   2.411
 6403SOL     OW20107   6.544   6.482   6.229
 6403SOL    HW120108   6.594   6.536   6.162
 6403SOL    HW220109   6.583   6.497   6.320
 6404SOL     OW20110   4.459   1.527   2.360
 6404SOL    HW120111   4.371   1.544   2.314
 6404SOL    HW220112   4.446   1.526   2.459
 6405SOL     OW20113   2.638   0.214   3.699
 6405SOL    HW120114   2.732   0.203   3.668
 6405SOL    HW220115   2.638   0.259   3.788
 6406SOL     OW20116   1.153   2.408   3.220
 6406SOL    HW120117   1.192   2.332   3.168
 6406SOL    HW220118   1.102   2.372   3.298
 6407SOL     OW20119   2.631   6.152   4.234
 6407SOL    HW120120   2.580   6.105   4.306
 6407SOL    HW220121   2.669   6.085   4.171
 6408SOL     OW20122   5.604   1.976   0.436
 6408SOL    HW120123   5.619   1.921   0.518
 6408SOL    HW220124   5.591   2.072   0.462
 6409SOL     OW20125   6.723   4.323   3.371
 6409SOL    HW120126   6.698   4.319   3.274
 6409SOL    HW220127   6.657   4.269   3.424
 6410SOL     OW20128   1.870   1.469   0.443
 6410SOL    HW120129   1.841   1.564   0.452
 6410SOL    HW220130   1.853   1.437   0.350
 6411SOL     OW20131   0.582   2.613   3.168
 6411SOL    HW120132   0.551   2.707   3.187
 6411SOL    HW220133   0.535   2.550   3.229
 6412SOL     OW20134   0.307   2.153   5.153
 6412SOL    HW120135   0.351   2.068   5.181
 6412SOL    HW220136   0.339   2.180   5.063
 6413SOL     OW20137   4.221   4.689   3.828
 6413SOL    HW120138   4.232   4.662   3.924
 6413SOL    HW220139   4.305   4.668   3.778
 6414SOL     OW20140   5.595   1.007   0.746
 6414SOL    HW120141   5.652   1.008   0.664
 6414SOL    HW220142   5.651   0.981   0.825
 6415SOL     OW20143   1.832   2.554   3.216
 6415SOL    HW120144   1.848   2.509   3.305
 6415SOL    HW220145   1.752   2.614   3.223
 6416SOL     OW20146   1.206   1.356   6.751
 6416SOL    HW120147   1.180   1.379   6.657
 6416SOL    HW220148   1.287   1.408   6.776
 6417SOL     OW20149   6.521   5.162   2.384
 6417SOL    HW120150   6.432   5.147   2.340
 6417SOL    HW220151   6.574   5.077   2.382
 6418SOL     OW20152   4.999   4.541   1.828
 6418SOL    HW120153   4.996   4.514   1.732
 6418SOL    HW220154   5.018   4.460   1.885
 6419SOL     OW20155   2.536   4.561   2.578
 6419SOL    HW120156   2.551   4.577   2.481
 6419SOL    HW220157   2.621   4.575   2.628
 6420SOL     OW20158   3.427   4.046   5.600
 6420SOL    HW120159   3.330   4.032   5.578
 6420SOL    HW220160   3.479   4.053   5.515
 6421SOL     OW20161   5.299   0.921   2.838
 6421SOL    HW120162   5.323   0.927   2.741
 6421SOL    HW220163   5.326   1.005   2.884
 6422SOL     OW20164   0.554   0.571   3.389
 6422SOL    HW120165   0.455   0.572   3.400
 6422SOL    HW220166   0.594   0.499   3.445
 6423SOL     OW20167   4.803   5.097   2.687
 6423SOL    HW120168   4.861   5.107   2.767
 6423SOL    HW220169   4.834   5.158   2.615
 6424SOL     OW20170   6.800   6.192   6.099
 6424SOL    HW120171   6.731   6.237   6.155
 6424SOL    HW220172   6.767   6.185   6.005
 6425SOL     OW20173   6.350   5.883   2.829
 6425SOL    HW120174   6.279   5.819   2.799
 6425SOL    HW220175   6.311   5.948   2.894
 6426SOL     OW20176   1.015   4.805   2.712
 6426SOL    HW120177   1.105   4.761   2.708
 6426SOL    HW220178   0.969   4.780   2.797
 6427SOL     OW20179   3.050   2.637   6.188
 6427SOL    HW120180   3.039   2.583   6.105
 6427SOL    HW220181   2.961   2.669   6.219
 6428SOL     OW20182   6.489   3.163   0.087
 6428SOL    HW120183   6.431   3.108   0.147
 6428SOL    HW220184   6.556   3.103   0.042
 6429SOL     OW20185   1.846   2.014   5.940
 6429SOL    HW120186   1.751   2.022   5.971
 6429SOL    HW220187   1.870   1.917   5.929
 6430SOL     OW20188   5.597   1.146   2.115
 6430SOL    HW120189   5.528   1.112   2.051
 6430SOL    HW220190   5.570   1.122   2.208
 6431SOL     OW20191   5.151   6.299   3.823
 6431SOL    HW120192   5.181   6.277   3.916
 6431SOL    HW220193   5.064   6.347   3.826
 6432SOL     OW20194   3.792   3.826   6.379
 6432SOL    HW120195   3.802   3.908   6.323
 6432SOL    HW220196   3.761   3.851   6.471
 6433SOL     OW20197   2.878   3.921   0.580
 6433SOL    HW120198   2.968   3.888   0.552
 6433SOL    HW220199   2.829   3.848   0.628
 6434SOL     OW20200   1.417   3.778   6.963
 6434SOL    HW120201   1.477   3.758   0.022
 6434SOL    HW220202   1.372   3.693   6.933
 6435SOL     OW20203   4.233   6.209   6.810
 6435SOL    HW120204   4.242   6.296   6.763
 6435SOL    HW220205   4.322   6.164   6.816
 6436SOL     OW20206   1.942   3.429   3.385
 6436SOL    HW120207   2.008   3.504   3.377
 6436SOL    HW220208   1.849   3.466   3.381
 6437SOL     OW20209   2.413   1.109   0.794
 6437SOL    HW120210   2.482   1.141   0.728
 6437SOL    HW220211   2.375   1.022   0.764
 6438SOL     OW20212   0.518   4.003   6.448
 6438SOL    HW120213   0.530   4.080   6.511
 6438SOL    HW220214   0.506   4.037   6.355
 6439SOL     OW20215   5.380   0.743   1.925
 6439SOL    HW120216   5.416   0.662   1.970
 6439SOL    HW220217   5.281   0.749   1.940
 6440SOL     OW20218   2.331   1.750   6.799
 6440SOL    HW120219   2.322   1.650   6.793
 6440SOL    HW220220   2.308   1.780   6.891
 6441SOL     OW20221   0.792   6.066   2.269
 6441SOL    HW120222   0.701   6.099   2.294
 6441SOL    HW220223   0.786   6.012   2.185
 6442SOL     OW20224   2.499   0.483   4.723
 6442SOL    HW120225   2.409   0.446   4.698
 6442SOL    HW220226   2.567   0.410   4.717
 6443SOL     OW20227   3.859   2.332   5.595
 6443SOL    HW120228   3.834   2.403   5.661
 6443SOL    HW220229   3.790   2.328   5.523
 6444SOL     OW20230   6.589   2.338   3.902
 6444SOL    HW120231   6.580   2.290   3.989
 6444SOL    HW220232   6.500   2.347   3.859
 6445SOL     OW20233   4.637   3.246   5.480
 6445SOL    HW120234   4.733   3.223   5.467
 6445SOL    HW220235   4.616   3.331   5.432
 6446SOL     OW20236   1.638   1.021   5.899
 6446SOL    HW120237   1.606   0.928   5.882
 6446SOL    HW220238   1.678   1.026   5.990
 6447SOL     OW20239   0.515   4.871   2.567
 6447SOL    HW120240   0.517   4.771   2.563
 6447SOL    HW220241   0.530   4.909   2.476
 6448SOL     OW20242   4.821   5.493   2.649
 6448SOL    HW120243   4.764   5.540   2.582
 6448SOL    HW220244   4.842   5.401   2.616
 6449SOL     OW20245   2.819   4.877   0.664
 6449SOL    HW120246   2.772   4.949   0.612
 6449SOL    HW220247   2.889   4.835   0.607
 6450SOL     OW20248   0.208   3.543   1.376
 6450SOL    HW120249   0.294   3.570   1.331
 6450SOL    HW220250   0.216   3.449   1.410
 6451SOL     OW20251   2.020   6.964   4.889
 6451SOL    HW120252   2.099   6.937   4.944
 6451SOL    HW220253   2.033   6.934   4.794
 6452SOL     OW20254   3.231   6.849   4.698
 6452SOL    HW120255   3.168   6.789   4.650
 6452SOL    HW220256   3.284   6.795   4.764
 6453SOL     OW20257   2.367   6.623   1.130
 6453SOL    HW120258   2.369   6.614   1.230
 6453SOL    HW220259   2.408   6.710   1.103
 6454SOL     OW20260   2.539   2.050   3.820
 6454SOL    HW120261   2.592   1.967   3.805
 6454SOL    HW220262   2.520   2.094   3.733
 6455SOL     OW20263   0.366   2.017   4.163
 6455SOL    HW120264   0.346   2.115   4.173
 6455SOL    HW220265   0.314   1.965   4.230
 6456SOL     OW20266   1.654   0.537   3.361
 6456SOL    HW120267   1.568   0.534   3.411
 6456SOL    HW220268   1.636   0.539   3.263
 6457SOL     OW20269   4.836   2.116   0.776
 6457SOL    HW120270   4.933   2.136   0.766
 6457SOL    HW220271   4.817   2.088   0.870
 6458SOL     OW20272   0.823   6.993   3.844
 6458SOL    HW120273   0.858   0.002   3.754
 6458SOL    HW220274   0.741   0.028   3.865
 6459SOL     OW20275   6.128   4.976   0.212
 6459SOL    HW120276   6.047   5.022   0.247
 6459SOL    HW220277   6.117   4.956   0.115
 6460SOL     OW20278   4.765   5.562   5.690
 6460SOL    HW120279   4.748   5.661   5.692
 6460SOL    HW220280   4.705   5.520   5.622
 6461SOL     OW20281   2.487   4.845   5.411
 6461SOL    HW120282   2.581   4.868   5.386
 6461SOL    HW220283   2.435   4.928   5.428
 6462SOL     OW20284   2.438   2.544   4.692
 6462SOL    HW120285   2.368   2.476   4.670
 6462SOL    HW220286   2.493   2.562   4.611
 6463SOL     OW20287   6.862   3.743   6.844
 6463SOL    HW120288   6.793   3.695   6.790
 6463SOL    HW220289   6.948   3.693   6.840
 6464SOL     OW20290   1.523   4.740   4.203
 6464SOL    HW120291   1.541   4.644   4.182
 6464SOL    HW220292   1.457   4.746   4.278
 6465SOL     OW20293   6.566   2.904   3.369
 6465SOL    HW120294   6.621   2.974   3.322
 6465SOL    HW220295   6.612   2.878   3.454
 6466SOL     OW20296   1.240   1.743   6.528
 6466SOL    HW120297   1.336   1.717   6.516
 6466SOL    HW220298   1.235   1.831   6.574
 6467SOL     OW20299   3.325   0.200   6.659
 6467SOL    HW120300   3.388   0.241   6.725
 6467SOL    HW220301   3.307   0.105   6.684
 6468SOL     OW20302   4.057   6.582   1.113
 6468SOL    HW120303   3.966   6.546   1.092
 6468SOL    HW220304   4.055   6.629   1.201
 6469SOL     OW20305   4.562   0.432   4.976
 6469SOL    HW120306   4.621   0.492   4.922
 6469SOL    HW220307   4.470   0.470   4.977
 6470SOL     OW20308   6.425   4.591   6.996
 6470SOL    HW120309   6.463   4.595   6.904
 6470SOL    HW220310   6.368   4.510   7.006
 6471SOL     OW20311   6.425   6.174   5.195
 6471SOL    HW120312   6.364   6.216   5.128
 6471SOL    HW220313   6.443   6.239   5.269
 6472SOL     OW20314   0.617   4.840   1.291
 6472SOL    HW120315   0.588   4.911   1.355
 6472SOL    HW220316   0.696   4.791   1.329
 6473SOL     OW20317   2.969   1.196   4.321
 6473SOL    HW120318   3.016   1.282   4.302
 6473SOL    HW220319   2.883   1.193   4.269
 6474SOL     OW20320   2.520   3.970   5.794
 6474SOL    HW120321   2.480   3.891   5.748
 6474SOL    HW220322   2.459   4.049   5.785
 6475SOL     OW20323   6.191   5.308   4.247
 6475SOL    HW120324   6.170   5.404   4.230
 6475SOL    HW220325   6.163   5.283   4.340
 6476SOL     OW20326   4.549   3.094   1.066
 6476SOL    HW120327   4.460   3.140   1.065
 6476SOL    HW220328   4.546   3.014   1.006
 6477SOL     OW20329   6.333   4.714   1.036
 6477SOL    HW120330   6.317   4.807   1.004
 6477SOL    HW220331   6.248   4.674   1.070
 6478SOL     OW20332   3.729   6.279   1.883
 6478SOL    HW120333   3.635   6.274   1.915
 6478SOL    HW220334   3.764   6.372   1.898
 6479SOL     OW20335   3.675   5.762   3.835
 6479SOL    HW120336   3.576   5.776   3.846
 6479SOL    HW220337   3.698   5.764   3.738
 6480SOL     OW20338   3.399   2.166   5.615
 6480SOL    HW120339   3.431   2.233   5.682
 6480SOL    HW220340   3.348   2.094   5.662
 6481SOL     OW20341   3.722   2.080   1.705
 6481SOL    HW120342   3.694   2.159   1.760
 6481SOL    HW220343   3.680   2.086   1.614
 6482SOL     OW20344   7.018   0.431   5.753
 6482SOL    HW120345   6.940   0.374   5.725
 6482SOL    HW220346   6.987   0.525   5.767
 6483SOL     OW20347   0.975   6.293   1.164
 6483SOL    HW120348   1.066   6.250   1.164
 6483SOL    HW220349   0.976   6.373   1.223
 6484SOL     OW20350   3.433   0.273   1.798
 6484SOL    HW120351   3.503   0.204   1.778
 6484SOL    HW220352   3.357   0.229   1.846
 6485SOL     OW20353   1.833   4.447   3.162
 6485SOL    HW120354   1.930   4.458   3.140
 6485SOL    HW220355   1.824   4.422   3.259
 6486SOL     OW20356   1.917   4.578   4.396
 6486SOL    HW120357   1.981   4.569   4.473
 6486SOL    HW220358   1.898   4.675   4.381
 6487SOL     OW20359   6.783   6.602   5.003
 6487SOL    HW120360   6.833   6.553   4.932
 6487SOL    HW220361   6.699   6.640   4.966
 6488SOL     OW20362   3.574   6.053   5.583
 6488SOL    HW120363   3.572   6.075   5.486
 6488SOL    HW220364   3.524   5.968   5.599
 6489SOL     OW20365   2.505   2.677   6.637
 6489SOL    HW120366   2.541   2.644   6.550
 6489SOL    HW220367   2.581   2.690   6.702
 6490SOL     OW20368   3.975   1.524   6.201
 6490SOL    HW120369   3.989   1.613   6.245
 6490SOL    HW220370   3.958   1.454   6.270
 6491SOL     OW20371   4.049   1.188   0.059
 6491SOL    HW120372   3.986   1.230   0.124
 6491SOL    HW220373   4.011   1.192   6.985
 6492SOL     OW20374   5.668   5.275   0.193
 6492SOL    HW120375   5.654   5.175   0.194
 6492SOL    HW220376   5.765   5.295   0.211
 6493SOL     OW20377   1.423   5.711   4.766
 6493SOL    HW120378   1.342   5.769   4.775
 6493SOL    HW220379   1.480   5.746   4.691
 6494SOL     OW20380   0.275   1.352   3.458
 6494SOL    HW120381   0.177   1.371   3.473
 6494SOL    HW220382   0.330   1.421   3.505
 6495SOL     OW20383   4.907   6.112   4.116
 6495SOL    HW120384   4.846   6.161   4.179
 6495SOL    HW220385   4.852   6.058   4.052
 6496SOL     OW20386   0.016   0.545   2.169
 6496SOL    HW120387   0.089   0.565   2.103
 6496SOL    HW220388   6.947   0.579   2.134
 6497SOL     OW20389   2.472   2.608   0.874
 6497SOL    HW120390   2.439   2.695   0.908
 6497SOL    HW220391   2.492   2.547   0.950
 6498SOL     OW20392   2.090   3.659   4.114
 6498SOL    HW120393   2.139   3.745   4.130
 6498SOL    HW220394   2.006   3.658   4.169
 6499SOL     OW20395   5.308   2.280   4.905
 6499SOL    HW120396   5.312   2.307   5.001
 6499SOL    HW220397   5.282   2.359   4.849
 6500SOL     OW20398   7.005   4.221   3.590
 6500SOL    HW120399   0.007   4.302   3.534
 6500SOL    HW220400   0.065   4.159   3.587
 6501SOL     OW20401   6.363   2.782   6.447
 6501SOL    HW120402   6.450   2.775   6.400
 6501SOL    HW220403   6.290   2.743   6.391
 6502SOL     OW20404   6.368   3.322   1.601
 6502SOL    HW120405   6.344   3.226   1.597
 6502SOL    HW220406   6.360   3.363   1.510
 6503SOL     OW20407   4.502   1.421   3.650
 6503SOL    HW120408   4.553   1.480   3.587
 6503SOL    HW220409   4.490   1.331   3.609
 6504SOL     OW20410   4.893   5.983   6.072
 6504SOL    HW120411   4.816   5.926   6.102
 6504SOL    HW220412   4.915   5.961   5.977
 6505SOL     OW20413   5.372   5.600   1.327
 6505SOL    HW120414   5.355   5.568   1.421
 6505SOL    HW220415   5.356   5.698   1.322
 6506SOL     OW20416   6.218   3.408   1.827
 6506SOL    HW120417   6.123   3.426   1.801
 6506SOL    HW220418   6.272   3.388   1.745
 6507SOL     OW20419   1.817   5.311   6.060
 6507SOL    HW120420   1.875   5.240   6.100
 6507SOL    HW220421   1.766   5.273   5.983
 6508SOL     OW20422   2.481   0.637   3.280
 6508SOL    HW120423   2.494   0.538   3.273
 6508SOL    HW220424   2.434   0.670   3.198
 6509SOL     OW20425   3.094   1.839   4.941
 6509SOL    HW120426   3.011   1.889   4.969
 6509SOL    HW220427   3.137   1.800   5.022
 6510SOL     OW20428   0.207   4.395   6.881
 6510SOL    HW120429   0.256   4.461   6.824
 6510SOL    HW220430   0.116   4.380   6.843
 6511SOL     OW20431   4.834   1.103   4.703
 6511SOL    HW120432   4.881   1.082   4.789
 6511SOL    HW220433   4.882   1.061   4.627
 6512SOL     OW20434   4.973   0.004   2.103
 6512SOL    HW120435   4.911   0.039   2.033
 6512SOL    HW220436   5.066   0.032   2.082
 6513SOL     OW20437   3.241   4.930   2.889
 6513SOL    HW120438   3.238   5.030   2.893
 6513SOL    HW220439   3.254   4.902   2.794
 6514SOL     OW20440   5.232   1.245   3.886
 6514SOL    HW120441   5.284   1.161   3.876
 6514SOL    HW220442   5.236   1.297   3.800
 6515SOL     OW20443   0.480   5.111   4.031
 6515SOL    HW120444   0.522   5.174   3.966
 6515SOL    HW220445   0.452   5.028   3.984
 6516SOL     OW20446   0.493   3.185   1.746
 6516SOL    HW120447   0.451   3.156   1.660
 6516SOL    HW220448   0.430   3.169   1.822
 6517SOL     OW20449   6.625   0.968   0.481
 6517SOL    HW120450   6.532   0.989   0.450
 6517SOL    HW220451   6.684   1.046   0.465
 6518SOL     OW20452   0.010   0.068   6.803
 6518SOL    HW120453   6.940   0.030   6.832
 6518SOL    HW220454   0.003   0.167   6.796
 6519SOL     OW20455   2.869   1.781   3.607
 6519SOL    HW120456   2.949   1.752   3.660
 6519SOL    HW220457   2.896   1.852   3.542
 6520SOL     OW20458   5.610   5.371   1.868
 6520SOL    HW120459   5.698   5.328   1.889
 6520SOL    HW220460   5.537   5.304   1.879
 6521SOL     OW20461   1.883   2.753   4.485
 6521SOL    HW120462   1.894   2.766   4.386
 6521SOL    HW220463   1.968   2.718   4.524
 6522SOL     OW20464   3.737   4.519   0.155
 6522SOL    HW120465   3.700   4.450   0.218
 6522SOL    HW220466   3.819   4.559   0.196
 6523SOL     OW20467   3.562   0.492   6.826
 6523SOL    HW120468   3.653   0.449   6.833
 6523SOL    HW220469   3.522   0.502   6.917
 6524SOL     OW20470   2.831   3.528   2.111
 6524SOL    HW120471   2.732   3.530   2.093
 6524SOL    HW220472   2.857   3.435   2.139
 6525SOL     OW20473   1.244   4.086   3.626
 6525SOL    HW120474   1.163   4.130   3.664
 6525SOL    HW220475   1.220   3.995   3.593
 6526SOL     OW20476   1.964   0.148   6.452
 6526SOL    HW120477   1.947   0.247   6.459
 6526SOL    HW220478   1.891   0.105   6.400
 6527SOL     OW20479   0.933   2.516   4.799
 6527SOL    HW120480   0.835   2.497   4.796
 6527SOL    HW220481   0.962   2.525   4.894
 6528SOL     OW20482   0.228   1.124   4.032
 6528SOL    HW120483   0.291   1.101   3.957
 6528SOL    HW220484   0.150   1.062   4.029
 6529SOL     OW20485   0.355   1.521   2.472
 6529SOL    HW120486   0.358   1.579   2.554
 6529SOL    HW220487   0.262   1.485   2.461
 6530SOL     OW20488   6.788   3.631   1.535
 6530SOL    HW120489   6.717   3.569   1.568
 6530SOL    HW220490   6.815   3.694   1.608
 6531SOL     OW20491   5.491   3.867   4.767
 6531SOL    HW120492   5.410   3.860   4.824
 6531SOL    HW220493   5.491   3.795   4.698
 6532SOL     OW20494   6.209   0.560   6.674
 6532SOL    HW120495   6.181   0.615   6.595
 6532SOL    HW220496   6.165   0.471   6.669
 6533SOL     OW20497   4.643   6.093   0.900
 6533SOL    HW120498   4.604   6.034   0.970
 6533SOL    HW220499   4.712   6.153   0.940
 6534SOL     OW20500   3.264   4.286   1.016
 6534SOL    HW120501   3.221   4.225   1.083
 6534SOL    HW220502   3.328   4.235   0.960
 6535SOL     OW20503   6.202   3.807   4.320
 6535SOL    HW120504   6.128   3.846   4.374
 6535SOL    HW220505   6.278   3.873   4.315
 6536SOL     OW20506   0.617   2.220   5.883
 6536SOL    HW120507   0.577   2.129   5.869
 6536SOL    HW220508   0.675   2.242   5.806
 6537SOL     OW20509   5.967   5.387   6.770
 6537SOL    HW120510   5.914   5.433   6.698
 6537SOL    HW220511   5.993   5.296   6.739
 6538SOL     OW20512   3.198   4.061   6.925
 6538SOL    HW120513   3.155   4.150   6.943
 6538SOL    HW220514   3.263   4.041   6.998
 6539SOL     OW20515   3.426   0.142   6.388
 6539SOL    HW120516   3.403   0.181   6.477
 6539SOL    HW220517   3.522   0.159   6.368
 6540SOL     OW20518   5.497   1.533   5.284
 6540SOL    HW120519   5.593   1.526   5.258
 6540SOL    HW220520   5.441   1.555   5.204
 6541SOL     OW20521   3.922   1.191   5.099
 6541SOL    HW120522   3.928   1.203   5.198
 6541SOL    HW220523   3.992   1.247   5.054
 6542SOL     OW20524   6.603   4.359   4.389
 6542SOL    HW120525   6.542   4.296   4.438
 6542SOL    HW220526   6.598   4.449   4.431
 6543SOL     OW20527   6.156   3.304   6.352
 6543SOL    HW120528   6.171   3.258   6.440
 6543SOL    HW220529   6.230   3.282   6.289
 6544SOL     OW20530   0.466   6.403   2.972
 6544SOL    HW120531   0.456   6.304   2.982
 6544SOL    HW220532   0.459   6.446   3.063
 6545SOL     OW20533   5.096   2.057   6.552
 6545SOL    HW120534   5.005   2.021   6.572
 6545SOL    HW220535   5.118   2.040   6.455
 6546SOL     OW20536   3.630   4.201   6.455
 6546SOL    HW120537   3.676   4.179   6.369
 6546SOL    HW220538   3.602   4.297   6.454
 6547SOL     OW20539   4.907   1.318   5.998
 6547SOL    HW120540   4.844   1.381   6.043
 6547SOL    HW220541   4.998   1.330   6.037
 6548SOL     OW20542   0.857   3.705   0.170
 6548SOL    HW120543   0.876   3.772   0.098
 6548SOL    HW220544   0.782   3.645   0.140
 6549SOL     OW20545   4.472   1.351   1.123
 6549SOL    HW120546   4.443   1.406   1.045
 6549SOL    HW220547   4.559   1.307   1.101
 6550SOL     OW20548   0.669   6.778   3.977
 6550SOL    HW120549   0.731   6.845   3.935
 6550SOL    HW220550   0.710   6.744   4.062
 6551SOL     OW20551   1.611   4.622   2.333
 6551SOL    HW120552   1.580   4.624   2.238
 6551SOL    HW220553   1.608   4.715   2.370
 6552SOL     OW20554   2.126   0.315   5.526
 6552SOL    HW120555   2.050   0.283   5.583
 6552SOL    HW220556   2.212   0.278   5.562
 6553SOL     OW20557   0.620   1.362   3.016
 6553SOL    HW120558   0.613   1.284   3.079
 6553SOL    HW220559   0.644   1.329   2.925
 6554SOL     OW20560   5.693   1.122   5.588
 6554SOL    HW120561   5.625   1.109   5.661
 6554SOL    HW220562   5.657   1.186   5.520
 6555SOL     OW20563   0.189   2.137   1.906
 6555SOL    HW120564   0.239   2.057   1.873
 6555SOL    HW220565   0.226   2.220   1.865
 6556SOL     OW20566   4.627   4.545   5.234
 6556SOL    HW120567   4.706   4.563   5.175
 6556SOL    HW220568   4.593   4.631   5.271
 6557SOL     OW20569   3.341   5.706   1.109
 6557SOL    HW120570   3.261   5.710   1.169
 6557SOL    HW220571   3.357   5.612   1.081
 6558SOL     OW20572   6.658   4.948   0.326
 6558SOL    HW120573   6.559   4.930   0.326
 6558SOL    HW220574   6.674   5.046   0.322
 6559SOL     OW20575   0.002   4.297   6.494
 6559SOL    HW120576   0.071   4.323   6.427
 6559SOL    HW220577   6.971   4.378   6.524
 6560SOL     OW20578   4.476   4.278   0.943
 6560SOL    HW120579   4.510   4.200   0.996
 6560SOL    HW220580   4.429   4.342   1.003
 6561SOL     OW20581   3.772   3.973   2.276
 6561SOL    HW120582   3.808   3.986   2.183
 6561SOL    HW220583   3.672   3.981   2.275
 6562SOL     OW20584   5.433   4.283   0.053
 6562SOL    HW120585   5.401   4.317   0.141
 6562SOL    HW220586   5.376   4.318   6.997
 6563SOL     OW20587   0.021   5.709   0.252
 6563SOL    HW120588   6.972   5.640   0.280
 6563SOL    HW220589   6.990   5.792   0.223
 6564SOL     OW20590   6.947   3.954   2.650
 6564SOL    HW120591   6.974   3.984   2.742
 6564SOL    HW220592   6.978   4.022   2.583
 6565SOL     OW20593   6.605   2.231   4.153
 6565SOL    HW120594   6.609   2.138   4.188
 6565SOL    HW220595   6.576   2.293   4.226
 6566SOL     OW20596   2.838   6.190   2.508
 6566SOL    HW120597   2.924   6.234   2.534
 6566SOL    HW220598   2.858   6.112   2.448
 6567SOL     OW20599   3.996   2.555   0.845
 6567SOL    HW120600   4.060   2.530   0.772
 6567SOL    HW220601   4.026   2.514   0.931
 6568SOL     OW20602   4.725   0.054   3.355
 6568SOL    HW120603   4.791   7.003   3.324
 6568SOL    HW220604   4.633   0.017   3.348
 6569SOL     OW20605   2.451   3.999   6.673
 6569SOL    HW120606   2.462   3.929   6.744
 6569SOL    HW220607   2.495   3.969   6.589
 6570SOL     OW20608   4.300   6.585   2.647
 6570SOL    HW120609   4.284   6.563   2.551
 6570SOL    HW220610   4.293   6.502   2.702
 6571SOL     OW20611   2.756   5.632   2.423
 6571SOL    HW120612   2.777   5.663   2.330
 6571SOL    HW220613   2.737   5.534   2.422
 6572SOL     OW20614   0.113   5.884   5.733
 6572SOL    HW120615   0.084   5.809   5.674
 6572SOL    HW220616   0.081   5.971   5.697
 6573SOL     OW20617   2.438   1.608   2.012
 6573SOL    HW120618   2.408   1.514   1.996
 6573SOL    HW220619   2.530   1.620   1.975
 6574SOL     OW20620   3.059   6.355   2.676
 6574SOL    HW120621   3.038   6.433   2.735
 6574SOL    HW220622   3.088   6.277   2.733
 6575SOL     OW20623   1.061   1.122   2.073
 6575SOL    HW120624   1.158   1.122   2.047
 6575SOL    HW220625   1.015   1.044   2.031
 6576SOL     OW20626   1.930   6.267   6.389
 6576SOL    HW120627   1.930   6.270   6.289
 6576SOL    HW220628   1.876   6.343   6.425
 6577SOL     OW20629   1.005   2.271   3.387
 6577SOL    HW120630   0.940   2.303   3.456
 6577SOL    HW220631   1.049   2.188   3.419
 6578SOL     OW20632   0.938   4.242   2.906
 6578SOL    HW120633   0.853   4.248   2.853
 6578SOL    HW220634   0.925   4.286   2.995
 6579SOL     OW20635   6.988   3.352   4.928
 6579SOL    HW120636   6.897   3.366   4.889
 6579SOL    HW220637   6.989   3.266   4.978
 6580SOL     OW20638   6.423   1.394   1.252
 6580SOL    HW120639   6.351   1.374   1.186
 6580SOL    HW220640   6.503   1.432   1.204
 6581SOL     OW20641   2.912   1.451   6.646
 6581SOL    HW120642   2.820   1.465   6.682
 6581SOL    HW220643   2.918   1.486   6.553
 6582SOL     OW20644   1.535   1.254   1.591
 6582SOL    HW120645   1.567   1.320   1.523
 6582SOL    HW220646   1.472   1.189   1.547
 6583SOL     OW20647   4.318   0.545   4.936
 6583SOL    HW120648   4.238   0.495   4.970
 6583SOL    HW220649   4.333   0.626   4.992
 6584SOL     OW20650   4.784   2.108   6.766
 6584SOL    HW120651   4.842   2.185   6.793
 6584SOL    HW220652   4.770   2.109   6.667
 6585SOL     OW20653   6.728   0.274   6.839
 6585SOL    HW120654   6.781   0.284   6.755
 6585SOL    HW220655   6.787   0.286   6.918
 6586SOL     OW20656   6.189   1.905   5.760
 6586SOL    HW120657   6.189   1.856   5.673
 6586SOL    HW220658   6.276   1.951   5.774
 6587SOL     OW20659   2.397   6.295   5.012
 6587SOL    HW120660   2.333   6.242   5.068
 6587SOL    HW220661   2.348   6.371   4.969
 6588SOL     OW20662   1.525   3.738   1.571
 6588SOL    HW120663   1.599   3.699   1.516
 6588SOL    HW220664   1.455   3.777   1.511
 6589SOL     OW20665   4.849   0.407   0.309
 6589SOL    HW120666   4.866   0.316   0.346
 6589SOL    HW220667   4.753   0.432   0.322
 6590SOL     OW20668   1.012   1.702   5.764
 6590SOL    HW120669   0.933   1.758   5.792
 6590SOL    HW220670   0.982   1.608   5.752
 6591SOL     OW20671   4.934   5.995   2.577
 6591SOL    HW120672   4.965   6.090   2.581
 6591SOL    HW220673   4.991   5.943   2.514
 6592SOL     OW20674   5.739   6.187   4.058
 6592SOL    HW120675   5.837   6.208   4.055
 6592SOL    HW220676   5.695   6.244   4.128
 6593SOL     OW20677   2.961   1.320   4.021
 6593SOL    HW120678   3.009   1.351   3.939
 6593SOL    HW220679   2.863   1.317   4.003
 6594SOL     OW20680   3.559   1.293   0.186
 6594SOL    HW120681   3.575   1.201   0.224
 6594SOL    HW220682   3.535   1.285   0.090
 6595SOL     OW20683   0.933   2.557   1.149
 6595SOL    HW120684   0.954   2.617   1.072
 6595SOL    HW220685   0.933   2.462   1.119
 6596SOL     OW20686   3.226   6.996   4.222
 6596SOL    HW120687   3.162   0.050   4.197
 6596SOL    HW220688   3.319   0.006   4.202
 6597SOL     OW20689   2.032   6.314   3.039
 6597SOL    HW120690   2.098   6.249   3.076
 6597SOL    HW220691   2.073   6.405   3.037
 6598SOL     OW20692   0.479   0.250   4.335
 6598SOL    HW120693   0.520   0.269   4.246
 6598SOL    HW220694   0.551   0.242   4.404
 6599SOL     OW20695   4.045   5.924   5.206
 6599SOL    HW120696   4.104   6.001   5.230
 6599SOL    HW220697   4.058   5.850   5.272
 6600SOL     OW20698   4.783   5.385   6.033
 6600SOL    HW120699   4.823   5.309   5.983
 6600SOL    HW220700   4.714   5.351   6.097
 6601SOL     OW20701   1.182   1.901   5.859
 6601SOL    HW120702   1.126   1.823   5.828
 6601SOL    HW220703   1.197   1.963   5.782
 6602SOL     OW20704   0.222   1.705   1.787
 6602SOL    HW120705   0.272   1.787   1.816
 6602SOL    HW220706   0.196   1.652   1.868
 6603SOL     OW20707   0.398   2.532   3.859
 6603SOL    HW120708   0.394   2.437   3.830
 6603SOL    HW220709   0.485   2.572   3.833
 6604SOL     OW20710   2.572   6.335   0.661
 6604SOL    HW120711   2.624   6.271   0.718
 6604SOL    HW220712   2.517   6.395   0.719
 6605SOL     OW20713   5.588   4.405   1.869
 6605SOL    HW120714   5.543   4.461   1.798
 6605SOL    HW220715   5.522   4.340   1.906
 6606SOL     OW20716   6.621   6.876   2.345
 6606SOL    HW120717   6.627   6.972   2.372
 6606SOL    HW220718   6.528   6.843   2.359
 6607SOL     OW20719   1.607   2.369   2.185
 6607SOL    HW120720   1.646   2.440   2.244
 6607SOL    HW220721   1.674   2.296   2.172
 6608SOL     OW20722   5.227   6.024   2.264
 6608SOL    HW120723   5.262   6.105   2.310
 6608SOL    HW220724   5.302   5.958   2.250
 6609SOL     OW20725   4.915   0.829   6.119
 6609SOL    HW120726   4.832   0.774   6.127
 6609SOL    HW220727   4.892   0.926   6.126
 6610SOL     OW20728   2.661   1.229   6.642
 6610SOL    HW120729   2.726   1.236   6.567
 6610SOL    HW220730   2.651   1.134   6.669
 6611SOL     OW20731   5.932   3.135   4.258
 6611SOL    HW120732   5.995   3.203   4.295
 6611SOL    HW220733   5.842   3.177   4.244
 6612SOL     OW20734   6.732   2.096   6.838
 6612SOL    HW120735   6.668   2.045   6.896
 6612SOL    HW220736   6.707   2.192   6.837
 6613SOL     OW20737   6.303   6.300   4.991
 6613SOL    HW120738   6.345   6.299   4.900
 6613SOL    HW220739   6.235   6.373   4.996
 6614SOL     OW20740   5.372   6.082   0.097
 6614SOL    HW120741   5.353   6.177   0.120
 6614SOL    HW220742   5.469   6.062   0.117
 6615SOL     OW20743   0.523   4.877   3.335
 6615SOL    HW120744   0.460   4.897   3.409
 6615SOL    HW220745   0.480   4.812   3.272
 6616SOL     OW20746   4.326   0.888   5.941
 6616SOL    HW120747   4.333   0.988   5.939
 6616SOL    HW220748   4.274   0.860   6.021
 6617SOL     OW20749   3.680   5.113   2.906
 6617SOL    HW120750   3.657   5.209   2.921
 6617SOL    HW220751   3.778   5.100   2.917
 6618SOL     OW20752   1.578   3.767   3.212
 6618SOL    HW120753   1.484   3.757   3.244
 6618SOL    HW220754   1.626   3.680   3.222
 6619SOL     OW20755   6.524   0.506   4.574
 6619SOL    HW120756   6.436   0.461   4.591
 6619SOL    HW220757   6.598   0.440   4.580
 6620SOL     OW20758   2.054   2.656   5.366
 6620SOL    HW120759   1.964   2.630   5.330
 6620SOL    HW220760   2.104   2.707   5.296
 6621SOL     OW20761   2.171   3.756   6.431
 6621SOL    HW120762   2.165   3.759   6.531
 6621SOL    HW220763   2.087   3.720   6.393
 6622SOL     OW20764   5.541   6.357   1.685
 6622SOL    HW120765   5.515   6.390   1.594
 6622SOL    HW220766   5.466   6.374   1.749
 6623SOL     OW20767   2.152   3.495   6.931
 6623SOL    HW120768   2.139   3.434   6.853
 6623SOL    HW220769   2.152   3.590   6.899
 6624SOL     OW20770   2.000   0.067   4.564
 6624SOL    HW120771   2.002   6.986   4.578
 6624SOL    HW220772   1.931   0.107   4.624
 6625SOL     OW20773   5.392   1.943   6.240
 6625SOL    HW120774   5.354   1.877   6.305
 6625SOL    HW220775   5.458   2.001   6.286
 6626SOL     OW20776   4.176   5.132   5.372
 6626SOL    HW120777   4.115   5.098   5.300
 6626SOL    HW220778   4.133   5.209   5.418
 6627SOL     OW20779   2.311   0.996   5.996
 6627SOL    HW120780   2.216   0.998   5.966
 6627SOL    HW220781   2.371   1.014   5.918
 6628SOL     OW20782   4.671   4.321   4.408
 6628SOL    HW120783   4.706   4.414   4.421
 6628SOL    HW220784   4.681   4.294   4.312
 6629SOL     OW20785   3.721   5.622   6.857
 6629SOL    HW120786   3.658   5.661   6.790
 6629SOL    HW220787   3.783   5.693   6.889
 6630SOL     OW20788   3.604   1.227   1.503
 6630SOL    HW120789   3.613   1.140   1.552
 6630SOL    HW220790   3.552   1.291   1.559
 6631SOL     OW20791   3.335   6.917   2.397
 6631SOL    HW120792   3.358   7.001   2.348
 6631SOL    HW220793   3.418   6.862   2.409
 6632SOL     OW20794   0.449   5.936   1.649
 6632SOL    HW120795   0.518   5.982   1.594
 6632SOL    HW220796   0.454   5.969   1.744
 6633SOL     OW20797   0.699   3.725   6.105
 6633SOL    HW120798   0.752   3.703   6.023
 6633SOL    HW220799   0.615   3.670   6.106
 6634SOL     OW20800   6.008   2.729   4.423
 6634SOL    HW120801   5.947   2.767   4.354
 6634SOL    HW220802   6.005   2.786   4.505
 6635SOL     OW20803   4.288   5.024   3.248
 6635SOL    HW120804   4.348   5.052   3.323
 6635SOL    HW220805   4.194   5.019   3.281
 6636SOL     OW20806   4.396   1.331   5.759
 6636SOL    HW120807   4.441   1.316   5.671
 6636SOL    HW220808   4.399   1.246   5.812
 6637SOL     OW20809   1.463   0.278   5.963
 6637SOL    HW120810   1.452   0.319   5.872
 6637SOL    HW220811   1.466   0.179   5.955
 6638SOL     OW20812   3.389   4.164   4.190
 6638SOL    HW120813   3.423   4.247   4.234
 6638SOL    HW220814   3.460   4.125   4.132
 6639SOL     OW20815   5.673   5.146   6.552
 6639SOL    HW120816   5.626   5.231   6.530
 6639SOL    HW220817   5.679   5.088   6.471
 6640SOL     OW20818   0.964   1.474   4.912
 6640SOL    HW120819   0.927   1.381   4.905
 6640SOL    HW220820   0.893   1.539   4.885
 6641SOL     OW20821   2.414   2.487   0.218
 6641SOL    HW120822   2.412   2.537   0.131
 6641SOL    HW220823   2.322   2.452   0.238
 6642SOL     OW20824   2.778   5.205   6.758
 6642SOL    HW120825   2.788   5.300   6.789
 6642SOL    HW220826   2.868   5.163   6.748
 6643SOL     OW20827   6.800   5.437   6.744
 6643SOL    HW120828   6.839   5.356   6.786
 6643SOL    HW220829   6.873   5.503   6.725
 6644SOL     OW20830   2.944   4.756   2.198
 6644SOL    HW120831   2.920   4.700   2.118
 6644SOL    HW220832   2.901   4.846   2.190
 6645SOL     OW20833   6.841   5.115   0.568
 6645SOL    HW120834   6.915   5.076   0.512
 6645SOL    HW220835   6.792   5.184   0.515
 6646SOL     OW20836   3.585   6.944   4.439
 6646SOL    HW120837   3.495   6.903   4.452
 6646SOL    HW220838   3.640   6.886   4.379
 6647SOL     OW20839   4.526   0.949   2.348
 6647SOL    HW120840   4.463   1.023   2.374
 6647SOL    HW220841   4.581   0.923   2.427
 6648SOL     OW20842   3.476   5.985   3.158
 6648SOL    HW120843   3.540   6.015   3.087
 6648SOL    HW220844   3.413   5.917   3.121
 6649SOL     OW20845   5.331   1.013   6.999
 6649SOL    HW120846   5.301   0.962   6.919
 6649SOL    HW220847   5.394   1.086   6.971
 6650SOL     OW20848   2.918   1.721   4.780
 6650SOL    HW120849   2.983   1.785   4.822
 6650SOL    HW220850   2.849   1.772   4.729
 6651SOL     OW20851   2.014   1.959   6.621
 6651SOL    HW120852   1.998   1.882   6.559
 6651SOL    HW220853   2.112   1.978   6.626
 6652SOL     OW20854   6.803   4.350   0.355
 6652SOL    HW120855   6.768   4.424   0.297
 6652SOL    HW220856   6.848   4.281   0.298
 6653SOL     OW20857   3.522   2.792   1.984
 6653SOL    HW120858   3.573   2.752   1.908
 6653SOL    HW220859   3.497   2.720   2.049
 6654SOL     OW20860   1.843   3.268   1.635
 6654SOL    HW120861   1.917   3.236   1.576
 6654SOL    HW220862   1.754   3.242   1.595
 6655SOL     OW20863   2.664   0.073   1.755
 6655SOL    HW120864   2.759   0.081   1.722
 6655SOL    HW220865   2.608   0.142   1.710
 6656SOL     OW20866   5.956   1.577   1.942
 6656SOL    HW120867   5.984   1.499   1.998
 6656SOL    HW220868   5.856   1.576   1.931
 6657SOL     OW20869   5.636   6.335   6.512
 6657SOL    HW120870   5.553   6.315   6.566
 6657SOL    HW220871   5.610   6.355   6.418
 6658SOL     OW20872   6.253   1.193   4.988
 6658SOL    HW120873   6.263   1.106   4.939
 6658SOL    HW220874   6.221   1.263   4.924
 6659SOL     OW20875   2.020   2.081   0.739
 6659SOL    HW120876   2.062   2.100   0.828
 6659SOL    HW220877   2.025   1.983   0.720
 6660SOL     OW20878   0.561   5.827   0.186
 6660SOL    HW120879   0.482   5.766   0.190
 6660SOL    HW220880   0.533   5.919   0.212
 6661SOL     OW20881   1.191   6.197   4.299
 6661SOL    HW120882   1.164   6.148   4.216
 6661SOL    HW220883   1.289   6.185   4.314
 6662SOL     OW20884   1.066   1.068   0.057
 6662SOL    HW120885   1.062   1.085   0.155
 6662SOL    HW220886   1.031   1.148   0.008
 6663SOL     OW20887   6.913   5.275   3.601
 6663SOL    HW120888   6.823   5.318   3.606
 6663SOL    HW220889   6.981   5.343   3.572
 6664SOL     OW20890   2.245   6.894   0.380
 6664SOL    HW120891   2.306   6.943   0.318
 6664SOL    HW220892   2.262   6.795   0.372
 6665SOL     OW20893   1.317   0.012   3.390
 6665SOL    HW120894   1.310   0.068   3.473
 6665SOL    HW220895   1.264   6.946   3.402
 6666SOL     OW20896   5.528   6.924   5.957
 6666SOL    HW120897   5.627   6.912   5.948
 6666SOL    HW220898   5.510   7.006   6.011
 6667SOL     OW20899   0.045   5.186   6.574
 6667SOL    HW120900   0.133   5.234   6.569
 6667SOL    HW220901   0.056   5.092   6.542
 6668SOL     OW20902   6.568   5.864   1.945
 6668SOL    HW120903   6.490   5.928   1.941
 6668SOL    HW220904   6.539   5.779   1.989
 6669SOL     OW20905   1.902   2.911   3.911
 6669SOL    HW120906   1.819   2.875   3.953
 6669SOL    HW220907   1.910   2.876   3.818
 6670SOL     OW20908   3.808   1.634   5.597
 6670SOL    HW120909   3.896   1.675   5.622
 6670SOL    HW220910   3.766   1.687   5.524
 6671SOL     OW20911   5.738   5.426   1.173
 6671SOL    HW120912   5.764   5.407   1.079
 6671SOL    HW220913   5.638   5.420   1.182
 6672SOL     OW20914   0.337   2.115   5.683
 6672SOL    HW120915   0.367   2.066   5.601
 6672SOL    HW220916   0.397   2.093   5.759
 6673SOL     OW20917   4.808   6.201   3.626
 6673SOL    HW120918   4.853   6.121   3.587
 6673SOL    HW220919   4.729   6.171   3.681
 6674SOL     OW20920   1.047   4.756   5.778
 6674SOL    HW120921   1.010   4.691   5.712
 6674SOL    HW220922   0.979   4.775   5.848
 6675SOL     OW20923   4.341   3.984   1.701
 6675SOL    HW120924   4.393   4.042   1.763
 6675SOL    HW220925   4.250   3.967   1.738
 6676SOL     OW20926   0.144   4.448   5.381
 6676SOL    HW120927   0.154   4.522   5.315
 6676SOL    HW220928   0.119   4.364   5.333
 6677SOL     OW20929   0.533   1.772   6.487
 6677SOL    HW120930   0.578   1.810   6.406
 6677SOL    HW220931   0.455   1.829   6.511
 6678SOL     OW20932   2.264   3.069   0.010
 6678SOL    HW120933   2.322   3.135   6.981
 6678SOL    HW220934   2.271   2.980   6.982
 6679SOL     OW20935   3.054   1.688   3.815
 6679SOL    HW120936   3.030   1.596   3.785
 6679SOL    HW220937   3.045   1.693   3.915
 6680SOL     OW20938   4.727   6.979   6.290
 6680SOL    HW120939   4.660   6.922   6.337
 6680SOL    HW220940   4.684   0.005   6.211
 6681SOL     OW20941   4.485   5.518   0.741
 6681SOL    HW120942   4.409   5.482   0.686
 6681SOL    HW220943   4.457   5.525   0.837
 6682SOL     OW20944   1.758   4.233   2.840
 6682SOL    HW120945   1.857   4.225   2.851
 6682SOL    HW220946   1.719   4.144   2.817
 6683SOL     OW20947   5.294   3.144   5.401
 6683SOL    HW120948   5.269   3.241   5.402
 6683SOL    HW220949   5.351   3.123   5.481
 6684SOL     OW20950   2.727   6.205   0.862
 6684SOL    HW120951   2.807   6.227   0.917
 6684SOL    HW220952   2.743   6.120   0.812
 6685SOL     OW20953   6.074   2.733   6.413
 6685SOL    HW120954   6.041   2.717   6.320
 6685SOL    HW220955   6.116   2.649   6.448
 6686SOL     OW20956   5.005   6.378   4.445
 6686SOL    HW120957   5.099   6.345   4.439
 6686SOL    HW220958   4.943   6.307   4.412
 6687SOL     OW20959   0.221   2.736   0.992
 6687SOL    HW120960   0.130   2.764   0.962
 6687SOL    HW220961   0.214   2.689   1.080
 6688SOL     OW20962   6.938   4.436   2.228
 6688SOL    HW120963   7.013   4.380   2.192
 6688SOL    HW220964   6.911   4.402   2.318
 6689SOL     OW20965   4.272   3.534   0.242
 6689SOL    HW120966   4.247   3.540   0.145
 6689SOL    HW220967   4.312   3.621   0.272
 6690SOL     OW20968   2.484   1.362   0.968
 6690SOL    HW120969   2.465   1.281   0.912
 6690SOL    HW220970   2.475   1.337   1.065
 6691SOL     OW20971   3.156   6.761   1.628
 6691SOL    HW120972   3.186   6.668   1.652
 6691SOL    HW220973   3.073   6.756   1.573
 6692SOL     OW20974   3.748   4.103   5.411
 6692SOL    HW120975   3.817   4.134   5.476
 6692SOL    HW220976   3.698   4.183   5.376
 6693SOL     OW20977   4.444   3.552   6.235
 6693SOL    HW120978   4.384   3.479   6.267
 6693SOL    HW220979   4.539   3.529   6.257
 6694SOL     OW20980   5.103   5.284   0.510
 6694SOL    HW120981   5.160   5.307   0.589
 6694SOL    HW220982   5.017   5.243   0.542
 6695SOL     OW20983   2.868   2.341   6.140
 6695SOL    HW120984   2.824   2.271   6.083
 6695SOL    HW220985   2.950   2.302   6.183
 6696SOL     OW20986   1.066   3.029   0.180
 6696SOL    HW120987   1.081   3.058   0.085
 6696SOL    HW220988   1.107   3.096   0.242
 6697SOL     OW20989   5.157   2.563   2.910
 6697SOL    HW120990   5.180   2.470   2.882
 6697SOL    HW220991   5.134   2.618   2.830
 6698SOL     OW20992   2.645   2.685   0.615
 6698SOL    HW120993   2.642   2.642   0.525
 6698SOL    HW220994   2.553   2.693   0.652
 6699SOL     OW20995   3.111   5.220   6.182
 6699SOL    HW120996   3.187   5.280   6.207
 6699SOL    HW220997   3.087   5.236   6.086
 6700SOL     OW20998   6.594   6.299   0.958
 6700SOL    HW120999   6.662   6.373   0.951
 6700SOL    HW221000   6.640   6.211   0.959
 6701SOL     OW21001   5.950   2.775   0.984
 6701SOL    HW121002   5.901   2.817   0.907
 6701SOL    HW221003   5.976   2.682   0.960
 6702SOL     OW21004   3.236   2.685   1.528
 6702SOL    HW121005   3.189   2.608   1.571
 6702SOL    HW221006   3.325   2.655   1.493
 6703SOL     OW21007   6.044   1.783   0.006
 6703SOL    HW121008   6.049   1.689   0.041
 6703SOL    HW221009   6.054   1.847   0.081
 6704SOL     OW21010   4.534   2.303   2.683
 6704SOL    HW121011   4.483   2.314   2.598
 6704SOL    HW221012   4.566   2.208   2.690
 6705SOL     OW21013   6.706   2.554   1.538
 6705SOL    HW121014   6.616   2.534   1.501
 6705SOL    HW221015   6.728   2.650   1.524
 6706SOL     OW21016   0.500   4.114   1.403
 6706SOL    HW121017   0.474   4.038   1.343
 6706SOL    HW221018   0.567   4.081   1.469
 6707SOL     OW21019   0.088   6.251   3.635
 6707SOL    HW121020   0.049   6.236   3.726
 6707SOL    HW221021   0.147   6.174   3.610
 6708SOL     OW21022   0.858   5.144   2.576
 6708SOL    HW121023   0.888   5.224   2.524
 6708SOL    HW221024   0.855   5.167   2.673
 6709SOL     OW21025   3.266   6.476   2.014
 6709SOL    HW121026   3.192   6.540   1.994
 6709SOL    HW221027   3.241   6.384   1.984
 6710SOL     OW21028   2.864   1.162   5.767
 6710SOL    HW121029   2.916   1.126   5.845
 6710SOL    HW221030   2.843   1.087   5.704
 6711SOL     OW21031   5.371   4.533   6.812
 6711SOL    HW121032   5.394   4.617   6.764
 6711SOL    HW221033   5.424   4.457   6.774
 6712SOL     OW21034   4.912   5.153   0.202
 6712SOL    HW121035   4.875   5.202   0.282
 6712SOL    HW221036   4.919   5.055   0.224
 6713SOL     OW21037   2.290   1.934   2.078
 6713SOL    HW121038   2.272   1.961   1.983
 6713SOL    HW221039   2.356   1.859   2.080
 6714SOL     OW21040   5.650   0.608   6.384
 6714SOL    HW121041   5.709   0.603   6.464
 6714SOL    HW221042   5.594   0.526   6.378
 6715SOL     OW21043   0.577   0.253   6.637
 6715SOL    HW121044   0.610   0.314   6.565
 6715SOL    HW221045   0.557   0.163   6.598
 6716SOL     OW21046   0.372   5.351   2.219
 6716SOL    HW121047   0.321   5.306   2.292
 6716SOL    HW221048   0.355   5.304   2.132
 6717SOL     OW21049   4.525   3.197   0.540
 6717SOL    HW121050   4.470   3.230   0.617
 6717SOL    HW221051   4.579   3.273   0.503
 6718SOL     OW21052   4.518   6.646   6.043
 6718SOL    HW121053   4.549   6.575   6.106
 6718SOL    HW221054   4.442   6.610   5.988
 6719SOL     OW21055   0.625   0.055   5.761
 6719SOL    HW121056   0.663   6.987   5.796
 6719SOL    HW221057   0.681   0.132   5.792
 6720SOL     OW21058   0.733   5.485   3.001
 6720SOL    HW121059   0.644   5.529   3.008
 6720SOL    HW221060   0.761   5.451   3.091
 6721SOL     OW21061   6.375   6.858   5.121
 6721SOL    HW121062   6.283   6.884   5.152
 6721SOL    HW221063   6.390   6.893   5.029
 6722SOL     OW21064   5.987   3.475   1.731
 6722SOL    HW121065   5.956   3.540   1.662
 6722SOL    HW221066   5.910   3.418   1.760
 6723SOL     OW21067   2.289   6.689   2.623
 6723SOL    HW121068   2.273   6.606   2.569
 6723SOL    HW221069   2.285   6.769   2.564
 6724SOL     OW21070   1.486   3.380   5.956
 6724SOL    HW121071   1.566   3.427   5.994
 6724SOL    HW221072   1.435   3.336   6.030
 6725SOL     OW21073   1.048   4.377   1.381
 6725SOL    HW121074   0.977   4.335   1.437
 6725SOL    HW221075   1.011   4.457   1.334
 6726SOL     OW21076   0.930   2.188   4.916
 6726SOL    HW121077   1.020   2.221   4.887
 6726SOL    HW221078   0.861   2.256   4.892
 6727SOL     OW21079   6.594   3.339   5.724
 6727SOL    HW121080   6.671   3.374   5.776
 6727SOL    HW221081   6.543   3.416   5.684
 6728SOL     OW21082   5.174   1.662   4.337
 6728SOL    HW121083   5.141   1.710   4.257
 6728SOL    HW221084   5.123   1.691   4.418
 6729SOL     OW21085   0.154   1.067   2.289
 6729SOL    HW121086   0.237   1.058   2.233
 6729SOL    HW221087   0.078   1.019   2.245
 6730SOL     OW21088   2.123   6.505   6.368
 6730SOL    HW121089   2.177   6.571   6.420
 6730SOL    HW221090   2.106   6.424   6.423
 6731SOL     OW21091   1.207   4.618   1.066
 6731SOL    HW121092   1.243   4.620   1.160
 6731SOL    HW221093   1.262   4.555   1.011
 6732SOL     OW21094   4.432   5.173   6.468
 6732SOL    HW121095   4.390   5.256   6.431
 6732SOL    HW221096   4.476   5.193   6.556
 6733SOL     OW21097   3.693   5.291   0.320
 6733SOL    HW121098   3.625   5.246   0.262
 6733SOL    HW221099   3.720   5.229   0.395
 6734SOL     OW21100   6.626   2.984   5.103
 6734SOL    HW121101   6.677   3.006   5.186
 6734SOL    HW221102   6.656   3.043   5.029
 6735SOL     OW21103   0.265   5.348   5.061
 6735SOL    HW121104   0.310   5.259   5.057
 6735SOL    HW221105   0.326   5.419   5.025
 6736SOL     OW21106   2.092   3.230   0.272
 6736SOL    HW121107   2.073   3.147   0.325
 6736SOL    HW221108   2.005   3.273   0.245
 6737SOL     OW21109   2.043   2.839   0.909
 6737SOL    HW121110   1.978   2.906   0.872
 6737SOL    HW221111   2.093   2.796   0.834
 6738SOL     OW21112   2.130   3.646   2.168
 6738SOL    HW121113   2.150   3.743   2.178
 6738SOL    HW221114   2.174   3.612   2.085
 6739SOL     OW21115   3.670   4.905   6.132
 6739SOL    HW121116   3.654   4.878   6.037
 6739SOL    HW221117   3.620   4.989   6.151
 6740SOL     OW21118   1.614   1.684   4.523
 6740SOL    HW121119   1.713   1.675   4.514
 6740SOL    HW221120   1.585   1.649   4.612
 6741SOL     OW21121   4.855   1.093   6.156
 6741SOL    HW121122   4.923   1.148   6.107
 6741SOL    HW221123   4.764   1.123   6.129
 6742SOL     OW21124   0.094   5.547   2.902
 6742SOL    HW121125   0.001   5.511   2.896
 6742SOL    HW221126   0.094   5.643   2.876
 6743SOL     OW21127   3.873   4.533   0.467
 6743SOL    HW121128   3.958   4.519   0.519
 6743SOL    HW221129   3.891   4.594   0.390
 6744SOL     OW21130   5.333   5.443   5.431
 6744SOL    HW121131   5.307   5.538   5.413
 6744SOL    HW221132   5.381   5.406   5.351
 6745SOL     OW21133   0.903   6.320   2.315
 6745SOL    HW121134   0.882   6.223   2.298
 6745SOL    HW221135   0.865   6.375   2.241
 6746SOL     OW21136   0.862   0.948   3.253
 6746SOL    HW121137   0.930   1.008   3.212
 6746SOL    HW221138   0.788   0.932   3.187
 6747SOL     OW21139   5.413   0.026   4.942
 6747SOL    HW121140   5.442   6.962   4.893
 6747SOL    HW221141   5.435   0.017   5.039
 6748SOL     OW21142   1.331   0.770   2.867
 6748SOL    HW121143   1.334   0.859   2.821
 6748SOL    HW221144   1.407   0.763   2.931
 6749SOL     OW21145   2.788   5.848   0.453
 6749SOL    HW121146   2.748   5.758   0.439
 6749SOL    HW221147   2.799   5.894   0.364
 6750SOL     OW21148   4.037   1.262   4.716
 6750SOL    HW121149   4.107   1.288   4.650
 6750SOL    HW221150   4.021   1.164   4.712
 6751SOL     OW21151   4.056   1.678   4.127
 6751SOL    HW121152   4.137   1.724   4.162
 6751SOL    HW221153   4.068   1.657   4.030
 6752SOL     OW21154   6.488   3.529   2.218
 6752SOL    HW121155   6.460   3.509   2.312
 6752SOL    HW221156   6.515   3.444   2.173
 6753SOL     OW21157   4.798   0.724   6.606
 6753SOL    HW121158   4.845   0.636   6.601
 6753SOL    HW221159   4.845   0.791   6.548
 6754SOL     OW21160   6.290   1.940   6.199
 6754SOL    HW121161   6.289   1.869   6.130
 6754SOL    HW221162   6.274   1.899   6.289
 6755SOL     OW21163   4.732   1.838   3.515
 6755SOL    HW121164   4.785   1.892   3.581
 6755SOL    HW221165   4.774   1.845   3.425
 6756SOL     OW21166   4.733   4.207   4.654
 6756SOL    HW121167   4.663   4.264   4.697
 6756SOL    HW221168   4.711   4.196   4.557
 6757SOL     OW21169   4.980   6.236   0.674
 6757SOL    HW121170   4.972   6.334   0.695
 6757SOL    HW221171   4.918   6.213   0.600
 6758SOL     OW21172   6.156   3.772   1.303
 6758SOL    HW121173   6.255   3.789   1.295
 6758SOL    HW221174   6.139   3.674   1.307
 6759SOL     OW21175   1.115   3.580   4.584
 6759SOL    HW121176   1.208   3.580   4.622
 6759SOL    HW221177   1.091   3.488   4.553
 6760SOL     OW21178   6.602   5.001   4.518
 6760SOL    HW121179   6.644   5.091   4.530
 6760SOL    HW221180   6.508   5.004   4.552
 6761SOL     OW21181   5.604   2.323   6.325
 6761SOL    HW121182   5.661   2.364   6.396
 6761SOL    HW221183   5.589   2.390   6.252
 6762SOL     OW21184   6.961   5.541   3.213
 6762SOL    HW121185   6.962   5.641   3.202
 6762SOL    HW221186   6.898   5.500   3.148
 6763SOL     OW21187   6.620   5.953   3.693
 6763SOL    HW121188   6.651   5.866   3.731
 6763SOL    HW221189   6.687   5.986   3.627
 6764SOL     OW21190   2.648   4.858   6.598
 6764SOL    HW121191   2.745   4.845   6.577
 6764SOL    HW221192   2.597   4.873   6.513
 6765SOL     OW21193   5.127   5.346   3.173
 6765SOL    HW121194   5.131   5.411   3.249
 6765SOL    HW221195   5.218   5.335   3.133
 6766SOL     OW21196   3.225   6.559   6.917
 6766SOL    HW121197   3.291   6.486   6.901
 6766SOL    HW221198   3.254   6.642   6.870
 6767SOL     OW21199   0.494   2.165   1.095
 6767SOL    HW121200   0.533   2.099   1.031
 6767SOL    HW221201   0.471   2.249   1.047
 6768SOL     OW21202   0.945   0.224   3.733
 6768SOL    HW121203   1.031   0.275   3.734
 6768SOL    HW221204   0.878   0.272   3.790
 6769SOL     OW21205   2.788   1.122   5.251
 6769SOL    HW121206   2.786   1.118   5.151
 6769SOL    HW221207   2.881   1.136   5.282
 6770SOL     OW21208   6.755   2.149   3.507
 6770SOL    HW121209   6.759   2.049   3.514
 6770SOL    HW221210   6.792   2.190   3.590
 6771SOL     OW21211   4.015   2.110   3.600
 6771SOL    HW121212   4.047   2.054   3.524
 6771SOL    HW221213   3.921   2.085   3.623
 6772SOL     OW21214   5.542   1.426   2.144
 6772SOL    HW121215   5.554   1.327   2.140
 6772SOL    HW221216   5.629   1.469   2.168
 6773SOL     OW21217   0.169   6.762   1.419
 6773SOL    HW121218   0.160   6.665   1.396
 6773SOL    HW221219   0.125   6.817   1.348
 6774SOL     OW21220   2.001   2.161   5.274
 6774SOL    HW121221   2.051   2.244   5.296
 6774SOL    HW221222   1.939   2.137   5.349
 6775SOL     OW21223   0.797   1.918   3.370
 6775SOL    HW121224   0.874   1.964   3.326
 6775SOL    HW221225   0.733   1.987   3.405
 6776SOL     OW21226   4.036   3.887   2.066
 6776SOL    HW121227   3.961   3.936   2.023
 6776SOL    HW221228   4.121   3.905   2.016
 6777SOL     OW21229   4.401   5.005   1.038
 6777SOL    HW121230   4.394   4.905   1.044
 6777SOL    HW221231   4.485   5.030   0.990
 6778SOL     OW21232   5.914   3.260   2.063
 6778SOL    HW121233   5.948   3.166   2.076
 6778SOL    HW221234   5.990   3.324   2.074
 6779SOL     OW21235   5.177   4.405   6.225
 6779SOL    HW121236   5.237   4.368   6.297
 6779SOL    HW221237   5.083   4.410   6.259
 6780SOL     OW21238   1.896   3.713   2.552
 6780SOL    HW121239   1.958   3.647   2.509
 6780SOL    HW221240   1.885   3.690   2.649
 6781SOL     OW21241   6.683   1.139   3.342
 6781SOL    HW121242   6.782   1.149   3.329
 6781SOL    HW221243   6.650   1.062   3.288
 6782SOL     OW21244   1.058   0.854   3.525
 6782SOL    HW121245   1.134   0.908   3.560
 6782SOL    HW221246   1.086   0.808   3.441
 6783SOL     OW21247   0.795   3.965   4.731
 6783SOL    HW121248   0.819   4.031   4.802
 6783SOL    HW221249   0.715   3.912   4.760
 6784SOL     OW21250   2.670   3.896   1.572
 6784SOL    HW121251   2.580   3.934   1.592
 6784SOL    HW221252   2.684   3.813   1.626
 6785SOL     OW21253   5.764   4.864   5.329
 6785SOL    HW121254   5.843   4.823   5.283
 6785SOL    HW221255   5.755   4.826   5.421
 6786SOL     OW21256   6.961   2.707   0.431
 6786SOL    HW121257   0.015   2.689   0.364
 6786SOL    HW221258   6.889   2.761   0.388
 6787SOL     OW21259   3.252   2.391   1.279
 6787SOL    HW121260   3.181   2.435   1.333
 6787SOL    HW221261   3.259   2.295   1.305
 6788SOL     OW21262   0.430   3.656   2.428
 6788SOL    HW121263   0.411   3.573   2.375
 6788SOL    HW221264   0.387   3.649   2.518
 6789SOL     OW21265   0.299   4.718   4.563
 6789SOL    HW121266   0.219   4.703   4.620
 6789SOL    HW221267   0.296   4.810   4.524
 6790SOL     OW21268   0.091   4.811   6.005
 6790SOL    HW121269   0.060   4.844   6.095
 6790SOL    HW221270   0.130   4.888   5.954
 6791SOL     OW21271   4.860   1.846   3.251
 6791SOL    HW121272   4.904   1.806   3.171
 6791SOL    HW221273   4.791   1.911   3.222
 6792SOL     OW21274   3.929   6.697   5.534
 6792SOL    HW121275   3.932   6.793   5.561
 6792SOL    HW221276   3.846   6.679   5.482
 6793SOL     OW21277   3.103   2.005   6.984
 6793SOL    HW121278   3.117   1.983   0.063
 6793SOL    HW221279   3.131   1.927   6.928
 6794SOL     OW21280   4.841   1.053   5.691
 6794SOL    HW121281   4.759   0.996   5.696
 6794SOL    HW221282   4.910   1.017   5.754
 6795SOL     OW21283   1.331   0.328   0.892
 6795SOL    HW121284   1.356   0.402   0.955
 6795SOL    HW221285   1.317   0.244   0.945
 6796SOL     OW21286   5.430   1.037   1.949
 6796SOL    HW121287   5.337   1.071   1.962
 6796SOL    HW221288   5.428   0.937   1.946
 6797SOL     OW21289   6.585   2.614   1.189
 6797SOL    HW121290   6.556   2.667   1.110
 6797SOL    HW221291   6.507   2.600   1.251
 6798SOL     OW21292   5.303   6.725   1.525
 6798SOL    HW121293   5.305   6.822   1.546
 6798SOL    HW221294   5.208   6.693   1.525
 6799SOL     OW21295   5.542   0.757   2.843
 6799SOL    HW121296   5.476   0.831   2.856
 6799SOL    HW221297   5.559   0.745   2.745
 6800SOL     OW21298   1.745   1.939   1.323
 6800SOL    HW121299   1.648   1.925   1.343
 6800SOL    HW221300   1.801   1.891   1.390
 6801SOL     OW21301   1.478   6.366   4.539
 6801SOL    HW121302   1.548   6.341   4.472
 6801SOL    HW221303   1.466   6.291   4.604
 6802SOL     OW21304   3.620   6.333   1.168
 6802SOL    HW121305   3.533   6.296   1.137
 6802SOL    HW221306   3.607   6.428   1.198
 6803SOL     OW21307   5.093   4.394   6.902
 6803SOL    HW121308   5.095   4.294   6.897
 6803SOL    HW221309   5.142   4.432   6.824
 6804SOL     OW21310   2.974   5.147   3.105
 6804SOL    HW121311   2.973   5.242   3.138
 6804SOL    HW221312   2.880   5.115   3.094
 6805SOL     OW21313   0.601   4.760   6.080
 6805SOL    HW121314   0.540   4.698   6.130
 6805SOL    HW221315   0.669   4.706   6.030
 6806SOL     OW21316   6.983   1.340   4.366
 6806SOL    HW121317   0.054   1.386   4.357
 6806SOL    HW221318   6.919   1.378   4.300
 6807SOL     OW21319   3.547   2.989   3.623
 6807SOL    HW121320   3.574   3.041   3.704
 6807SOL    HW221321   3.620   2.926   3.597
 6808SOL     OW21322   5.365   0.936   4.857
 6808SOL    HW121323   5.330   1.011   4.913
 6808SOL    HW221324   5.388   0.859   4.917
 6809SOL     OW21325   6.643   4.280   1.132
 6809SOL    HW121326   6.732   4.247   1.163
 6809SOL    HW221327   6.613   4.225   1.054
 6810SOL     OW21328   3.467   1.186   3.480
 6810SOL    HW121329   3.514   1.100   3.461
 6810SOL    HW221330   3.476   1.208   3.577
 6811SOL     OW21331   6.322   2.598   2.233
 6811SOL    HW121332   6.361   2.540   2.162
 6811SOL    HW221333   6.273   2.542   2.299
 6812SOL     OW21334   3.395   3.601   4.430
 6812SOL    HW121335   3.340   3.534   4.480
 6812SOL    HW221336   3.343   3.636   4.353
 6813SOL     OW21337   5.138   3.652   1.905
 6813SOL    HW121338   5.064   3.654   1.971
 6813SOL    HW221339   5.225   3.641   1.952
 6814SOL     OW21340   4.467   1.301   6.465
 6814SOL    HW121341   4.456   1.204   6.444
 6814SOL    HW221342   4.541   1.312   6.531
 6815SOL     OW21343   1.615   5.256   6.740
 6815SOL    HW121344   1.684   5.306   6.793
 6815SOL    HW221345   1.610   5.293   6.648
 6816SOL     OW21346   6.803   1.763   4.541
 6816SOL    HW121347   6.740   1.730   4.470
 6816SOL    HW221348   6.849   1.684   4.583
 6817SOL     OW21349   2.880   2.090   3.666
 6817SOL    HW121350   2.819   2.024   3.624
 6817SOL    HW221351   2.840   2.182   3.661
 6818SOL     OW21352   2.474   6.259   5.948
 6818SOL    HW121353   2.420   6.176   5.965
 6818SOL    HW221354   2.460   6.290   5.854
 6819SOL     OW21355   4.841   6.051   3.001
 6819SOL    HW121356   4.884   5.985   2.941
 6819SOL    HW221357   4.804   6.127   2.947
 6820SOL     OW21358   1.638   6.142   1.468
 6820SOL    HW121359   1.564   6.108   1.526
 6820SOL    HW221360   1.673   6.227   1.506
 6821SOL     OW21361   4.683   2.412   5.688
 6821SOL    HW121362   4.768   2.372   5.723
 6821SOL    HW221363   4.698   2.509   5.667
 6822SOL     OW21364   6.943   2.494   6.767
 6822SOL    HW121365   6.847   2.513   6.744
 6822SOL    HW221366   7.001   2.567   6.730
 6823SOL     OW21367   5.432   3.474   6.343
 6823SOL    HW121368   5.532   3.472   6.345
 6823SOL    HW221369   5.396   3.390   6.383
 6824SOL     OW21370   1.390   1.878   0.060
 6824SOL    HW121371   1.478   1.848   0.097
 6824SOL    HW221372   1.379   1.841   6.986
 6825SOL     OW21373   6.324   6.221   0.440
 6825SOL    HW121374   6.350   6.134   0.483
 6825SOL    HW221375   6.288   6.203   0.348
 6826SOL     OW21376   0.570   3.172   3.318
 6826SOL    HW121377   0.492   3.149   3.260
 6826SOL    HW221378   0.654   3.169   3.264
 6827SOL     OW21379   4.964   4.958   5.424
 6827SOL    HW121380   5.029   5.032   5.407
 6827SOL    HW221381   5.013   4.880   5.463
 6828SOL     OW21382   3.231   1.672   2.746
 6828SOL    HW121383   3.260   1.586   2.706
 6828SOL    HW221384   3.293   1.697   2.821
 6829SOL     OW21385   4.777   0.000   5.316
 6829SOL    HW121386   4.733   6.935   5.283
 6829SOL    HW221387   4.832   6.997   5.397
 6830SOL     OW21388   6.003   1.546   3.174
 6830SOL    HW121389   5.973   1.535   3.269
 6830SOL    HW221390   6.010   1.456   3.131
 6831SOL     OW21391   0.961   1.429   5.737
 6831SOL    HW121392   1.011   1.379   5.666
 6831SOL    HW221393   0.864   1.404   5.733
 6832SOL     OW21394   2.597   3.011   6.922
 6832SOL    HW121395   2.526   3.009   6.852
 6832SOL    HW221396   2.674   3.066   6.890
 6833SOL     OW21397   3.573   5.677   6.057
 6833SOL    HW121398   3.528   5.624   5.985
 6833SOL    HW221399   3.580   5.773   6.028
 6834SOL     OW21400   5.143   6.899   0.790
 6834SOL    HW121401   5.142   6.950   0.704
 6834SOL    HW221402   5.084   6.945   0.857
 6835SOL     OW21403   3.675   1.497   4.744
 6835SOL    HW121404   3.615   1.443   4.802
 6835SOL    HW221405   3.768   1.461   4.748
 6836SOL     OW21406   2.160   4.563   6.622
 6836SOL    HW121407   2.231   4.607   6.677
 6836SOL    HW221408   2.071   4.598   6.651
 6837SOL     OW21409   1.184   1.451   2.749
 6837SOL    HW121410   1.151   1.503   2.670
 6837SOL    HW221411   1.122   1.464   2.826
 6838SOL     OW21412   3.006   4.348   5.276
 6838SOL    HW121413   2.930   4.286   5.295
 6838SOL    HW221414   2.972   4.429   5.228
 6839SOL     OW21415   5.361   2.026   3.561
 6839SOL    HW121416   5.422   2.002   3.485
 6839SOL    HW221417   5.266   2.027   3.528
 6840SOL     OW21418   2.400   6.578   4.853
 6840SOL    HW121419   2.458   6.506   4.816
 6840SOL    HW221420   2.304   6.549   4.848
 6841SOL     OW21421   4.112   5.235   1.668
 6841SOL    HW121422   4.170   5.239   1.749
 6841SOL    HW221423   4.080   5.141   1.654
 6842SOL     OW21424   0.851   2.719   6.884
 6842SOL    HW121425   0.814   2.811   6.899
 6842SOL    HW221426   0.786   2.665   6.832
 6843SOL     OW21427   5.035   1.011   1.783
 6843SOL    HW121428   4.974   0.982   1.710
 6843SOL    HW221429   5.002   1.098   1.821
 6844SOL     OW21430   5.167   5.653   4.371
 6844SOL    HW121431   5.265   5.671   4.376
 6844SOL    HW221432   5.129   5.701   4.292
 6845SOL     OW21433   4.684   4.290   2.214
 6845SOL    HW121434   4.686   4.220   2.286
 6845SOL    HW221435   4.608   4.272   2.152
 6846SOL     OW21436   3.867   3.308   0.932
 6846SOL    HW121437   3.965   3.324   0.917
 6846SOL    HW221438   3.821   3.293   0.845
 6847SOL     OW21439   5.301   3.855   2.256
 6847SOL    HW121440   5.263   3.942   2.289
 6847SOL    HW221441   5.389   3.872   2.210
 6848SOL     OW21442   1.164   4.874   4.039
 6848SOL    HW121443   1.225   4.899   4.114
 6848SOL    HW221444   1.159   4.949   3.973
 6849SOL     OW21445   3.406   5.916   4.348
 6849SOL    HW121446   3.475   5.851   4.317
 6849SOL    HW221447   3.450   5.992   4.397
 6850SOL     OW21448   5.944   2.548   2.903
 6850SOL    HW121449   5.985   2.526   2.815
 6850SOL    HW221450   5.987   2.630   2.942
 6851SOL     OW21451   1.574   4.610   5.025
 6851SOL    HW121452   1.474   4.611   5.036
 6851SOL    HW221453   1.612   4.696   5.059
 6852SOL     OW21454   1.361   4.419   0.984
 6852SOL    HW121455   1.453   4.422   1.023
 6852SOL    HW221456   1.305   4.355   1.037
 6853SOL     OW21457   6.876   4.677   6.752
 6853SOL    HW121458   6.814   4.684   6.674
 6853SOL    HW221459   6.824   4.685   6.837
 6854SOL     OW21460   5.779   0.969   5.825
 6854SOL    HW121461   5.763   0.983   5.923
 6854SOL    HW221462   5.697   0.995   5.774
 6855SOL     OW21463   3.150   6.659   3.061
 6855SOL    HW121464   3.139   6.728   3.133
 6855SOL    HW221465   3.235   6.678   3.011
 6856SOL     OW21466   5.155   4.727   5.273
 6856SOL    HW121467   5.181   4.752   5.366
 6856SOL    HW221468   5.135   4.630   5.268
 6857SOL     OW21469   3.270   0.950   6.566
 6857SOL    HW121470   3.181   0.906   6.580
 6857SOL    HW221471   3.279   0.977   6.470
 6858SOL     OW21472   4.051   3.277   4.789
 6858SOL    HW121473   4.092   3.364   4.761
 6858SOL    HW221474   4.034   3.220   4.709
 6859SOL     OW21475   1.571   6.404   1.076
 6859SOL    HW121476   1.487   6.436   1.033
 6859SOL    HW221477   1.561   6.406   1.176
 6860SOL     OW21478   6.037   5.135   1.810
 6860SOL    HW121479   5.977   5.055   1.811
 6860SOL    HW221480   6.077   5.146   1.719
 6861SOL     OW21481   5.668   4.381   1.240
 6861SOL    HW121482   5.585   4.326   1.232
 6861SOL    HW221483   5.676   4.443   1.162
 6862SOL     OW21484   2.788   4.821   4.580
 6862SOL    HW121485   2.818   4.811   4.485
 6862SOL    HW221486   2.861   4.789   4.641
 6863SOL     OW21487   5.743   1.077   5.165
 6863SOL    HW121488   5.670   1.052   5.229
 6863SOL    HW221489   5.740   1.015   5.086
 6864SOL     OW21490   3.649   6.038   4.143
 6864SOL    HW121491   3.725   5.973   4.145
 6864SOL    HW221492   3.667   6.112   4.207
 6865SOL     OW21493   6.570   5.011   3.467
 6865SOL    HW121494   6.571   4.987   3.564
 6865SOL    HW221495   6.663   5.010   3.431
 6866SOL     OW21496   6.356   4.514   2.182
 6866SOL    HW121497   6.279   4.468   2.138
 6866SOL    HW221498   6.405   4.570   2.115
 6867SOL     OW21499   0.860   4.834   0.936
 6867SOL    HW121500   0.926   4.909   0.936
 6867SOL    HW221501   0.902   4.752   0.975
 6868SOL     OW21502   1.481   5.525   5.420
 6868SOL    HW121503   1.575   5.542   5.451
 6868SOL    HW221504   1.456   5.592   5.352
 6869SOL     OW21505   5.603   2.638   5.460
 6869SOL    HW121506   5.645   2.564   5.407
 6869SOL    HW221507   5.567   2.707   5.397
 6870SOL     OW21508   6.478   3.808   2.969
 6870SOL    HW121509   6.404   3.745   2.992
 6870SOL    HW221510   6.457   3.854   2.882
 6871SOL     OW21511   6.307   4.883   2.097
 6871SOL    HW121512   6.352   4.794   2.096
 6871SOL    HW221513   6.319   4.928   2.009
 6872SOL     OW21514   2.397   3.718   0.764
 6872SOL    HW121515   2.306   3.737   0.801
 6872SOL    HW221516   2.390   3.695   0.667
 6873SOL     OW21517   6.136   3.355   5.627
 6873SOL    HW121518   6.175   3.263   5.626
 6873SOL    HW221519   6.043   3.352   5.590
 6874SOL     OW21520   0.863   3.623   3.815
 6874SOL    HW121521   0.939   3.671   3.859
 6874SOL    HW221522   0.783   3.625   3.874
 6875SOL     OW21523   1.911   2.262   3.914
 6875SOL    HW121524   1.995   2.212   3.894
 6875SOL    HW221525   1.926   2.359   3.895
 6876SOL     OW21526   3.647   5.321   6.511
 6876SOL    HW121527   3.668   5.364   6.598
 6876SOL    HW221528   3.549   5.302   6.505
 6877SOL     OW21529   2.652   4.147   6.994
 6877SOL    HW121530   2.655   4.136   6.895
 6877SOL    HW221531   2.557   4.153   0.006
 6878SOL     OW21532   2.434   1.599   5.476
 6878SOL    HW121533   2.453   1.697   5.469
 6878SOL    HW221534   2.349   1.577   5.428
 6879SOL     OW21535   1.086   2.152   0.266
 6879SOL    HW121536   1.122   2.244   0.247
 6879SOL    HW221537   1.009   2.134   0.206
 6880SOL     OW21538   2.093   3.361   5.068
 6880SOL    HW121539   2.091   3.405   4.978
 6880SOL    HW221540   2.114   3.264   5.058
 6881SOL     OW21541   6.680   4.567   2.274
 6881SOL    HW121542   6.764   4.544   2.323
 6881SOL    HW221543   6.625   4.484   2.261
 6882SOL     OW21544   1.996   0.279   5.970
 6882SOL    HW121545   2.058   0.265   6.048
 6882SOL    HW221546   2.034   0.350   5.911
 6883SOL     OW21547   3.789   1.004   1.068
 6883SOL    HW121548   3.860   1.070   1.088
 6883SOL    HW221549   3.721   1.045   1.007
 6884SOL     OW21550   2.260   4.033   4.163
 6884SOL    HW121551   2.292   4.121   4.197
 6884SOL    HW221552   2.288   4.021   4.068
 6885SOL     OW21553   2.919   5.262   4.042
 6885SOL    HW121554   2.982   5.322   3.993
 6885SOL    HW221555   2.966   5.221   4.121
 6886SOL     OW21556   6.643   0.743   2.644
 6886SOL    HW121557   6.720   0.783   2.694
 6886SOL    HW221558   6.653   0.644   2.641
 6887SOL     OW21559   5.427   0.189   5.486
 6887SOL    HW121560   5.384   0.145   5.407
 6887SOL    HW221561   5.404   0.140   5.569
 6888SOL     OW21562   5.844   6.407   6.277
 6888SOL    HW121563   5.915   6.341   6.301
 6888SOL    HW221564   5.887   6.490   6.241
 6889SOL     OW21565   1.029   2.808   5.731
 6889SOL    HW121566   0.990   2.881   5.787
 6889SOL    HW221567   1.079   2.745   5.790
 6890SOL     OW21568   2.506   5.964   0.632
 6890SOL    HW121569   2.484   6.052   0.589
 6890SOL    HW221570   2.534   5.899   0.561
 6891SOL     OW21571   2.070   3.927   4.628
 6891SOL    HW121572   2.074   3.903   4.725
 6891SOL    HW221573   2.066   3.844   4.573
 6892SOL     OW21574   4.014   0.538   4.322
 6892SOL    HW121575   4.113   0.552   4.333
 6892SOL    HW221576   3.988   0.450   4.361
 6893SOL     OW21577   5.914   6.567   1.728
 6893SOL    HW121578   5.990   6.616   1.771
 6893SOL    HW221579   5.861   6.630   1.671
 6894SOL     OW21580   6.044   5.733   6.914
 6894SOL    HW121581   6.020   5.828   6.933
 6894SOL    HW221582   5.964   5.675   6.928
 6895SOL     OW21583   3.025   5.316   0.133
 6895SOL    HW121584   3.052   5.264   0.052
 6895SOL    HW221585   3.106   5.336   0.188
 6896SOL     OW21586   3.505   6.955   3.809
 6896SOL    HW121587   3.417   6.919   3.840
 6896SOL    HW221588   3.499   0.036   3.797
 6897SOL     OW21589   2.936   3.670   6.977
 6897SOL    HW121590   3.019   3.664   0.014
 6897SOL    HW221591   2.928   3.763   6.939
 6898SOL     OW21592   3.679   1.786   1.802
 6898SOL    HW121593   3.662   1.740   1.715
 6898SOL    HW221594   3.672   1.885   1.790
 6899SOL     OW21595   4.831   6.728   6.899
 6899SOL    HW121596   4.889   6.662   6.947
 6899SOL    HW221597   4.747   6.743   6.951
 6900SOL     OW21598   6.197   0.289   6.228
 6900SOL    HW121599   6.272   0.223   6.227
 6900SOL    HW221600   6.114   0.245   6.261
 6901SOL     OW21601   0.463   0.348   6.345
 6901SOL    HW121602   0.375   0.324   6.304
 6901SOL    HW221603   0.527   0.376   6.273
 6902SOL     OW21604   0.222   6.241   0.808
 6902SOL    HW121605   0.202   6.329   0.764
 6902SOL    HW221606   0.272   6.183   0.744
 6903SOL     OW21607   3.365   3.661   6.384
 6903SOL    HW121608   3.408   3.644   6.296
 6903SOL    HW221609   3.360   3.759   6.401
 6904SOL     OW21610   0.015   1.397   3.513
 6904SOL    HW121611   0.011   1.370   3.610
 6904SOL    HW221612   6.973   1.475   3.498
 6905SOL     OW21613   6.654   6.556   6.808
 6905SOL    HW121614   6.606   6.538   6.893
 6905SOL    HW221615   6.675   6.470   6.762
 6906SOL     OW21616   4.263   1.135   3.888
 6906SOL    HW121617   4.361   1.132   3.902
 6906SOL    HW221618   4.217   1.082   3.959
 6907SOL     OW21619   4.599   2.009   1.094
 6907SOL    HW121620   4.541   2.071   1.041
 6907SOL    HW221621   4.548   1.925   1.115
 6908SOL     OW21622   1.119   0.097   5.165
 6908SOL    HW121623   1.207   0.144   5.158
 6908SOL    HW221624   1.093   0.089   5.261
 6909SOL     OW21625   4.954   5.003   1.234
 6909SOL    HW121626   5.022   4.968   1.298
 6909SOL    HW221627   4.985   4.987   1.140
 6910SOL     OW21628   6.644   2.447   2.657
 6910SOL    HW121629   6.681   2.372   2.711
 6910SOL    HW221630   6.587   2.411   2.583
 6911SOL     OW21631   3.653   0.691   3.068
 6911SOL    HW121632   3.736   0.744   3.086
 6911SOL    HW221633   3.573   0.746   3.092
 6912SOL     OW21634   5.053   5.097   1.645
 6912SOL    HW121635   5.136   5.071   1.693
 6912SOL    HW221636   4.973   5.072   1.700
 6913SOL     OW21637   5.095   4.272   5.465
 6913SOL    HW121638   5.180   4.243   5.508
 6913SOL    HW221639   5.029   4.298   5.536
 6914SOL     OW21640   5.929   5.123   6.703
 6914SOL    HW121641   6.001   5.079   6.650
 6914SOL    HW221642   5.843   5.122   6.651
 6915SOL     OW21643   0.060   4.751   1.914
 6915SOL    HW121644   0.112   4.834   1.933
 6915SOL    HW221645   0.020   4.757   1.822
 6916SOL     OW21646   6.269   3.951   7.010
 6916SOL    HW121647   6.331   4.004   0.049
 6916SOL    HW221648   6.258   3.859   0.031
 6917SOL     OW21649   3.962   5.174   0.230
 6917SOL    HW121650   3.972   5.243   0.159
 6917SOL    HW221651   3.896   5.205   0.298
 6918SOL     OW21652   0.501   4.283   4.463
 6918SOL    HW121653   0.535   4.272   4.557
 6918SOL    HW221654   0.486   4.380   4.445
 6919SOL     OW21655   0.924   5.758   2.637
 6919SOL    HW121656   1.019   5.737   2.658
 6919SOL    HW221657   0.918   5.849   2.597
 6920SOL     OW21658   4.674   5.071   5.411
 6920SOL    HW121659   4.678   4.983   5.458
 6920SOL    HW221660   4.596   5.123   5.444
 6921SOL     OW21661   4.988   5.796   3.259
 6921SOL    HW121662   4.997   5.894   3.241
 6921SOL    HW221663   4.972   5.748   3.172
 6922SOL     OW21664   1.756   5.635   0.004
 6922SOL    HW121665   1.788   5.588   0.086
 6922SOL    HW221666   1.666   5.599   6.996
 6923SOL     OW21667   5.668   6.743   3.528
 6923SOL    HW121668   5.668   6.647   3.553
 6923SOL    HW221669   5.763   6.775   3.518
 6924SOL     OW21670   0.807   4.198   6.895
 6924SOL    HW121671   0.894   4.171   6.936
 6924SOL    HW221672   0.735   4.195   6.964
 6925SOL     OW21673   3.806   6.104   3.908
 6925SOL    HW121674   3.880   6.048   3.870
 6925SOL    HW221675   3.762   6.054   3.982
 6926SOL     OW21676   3.500   3.233   2.818
 6926SOL    HW121677   3.479   3.141   2.851
 6926SOL    HW221678   3.594   3.257   2.846
 6927SOL     OW21679   6.177   3.202   6.618
 6927SOL    HW121680   6.225   3.175   6.701
 6927SOL    HW221681   6.134   3.122   6.576
 6928SOL     OW21682   5.701   6.821   0.842
 6928SOL    HW121683   5.692   6.915   0.810
 6928SOL    HW221684   5.768   6.773   0.785
 6929SOL     OW21685   4.819   5.254   0.438
 6929SOL    HW121686   4.793   5.323   0.505
 6929SOL    HW221687   4.779   5.166   0.464
 6930SOL     OW21688   0.254   6.794   1.845
 6930SOL    HW121689   0.155   6.799   1.829
 6930SOL    HW221690   0.282   6.869   1.905
 6931SOL     OW21691   0.928   0.942   1.908
 6931SOL    HW121692   0.902   1.000   1.831
 6931SOL    HW221693   0.853   0.879   1.929
 6932SOL     OW21694   3.856   1.127   0.314
 6932SOL    HW121695   3.903   1.203   0.358
 6932SOL    HW221696   3.791   1.086   0.378
 6933SOL     OW21697   3.408   6.430   4.733
 6933SOL    HW121698   3.406   6.522   4.773
 6933SOL    HW221699   3.410   6.437   4.633
 6934SOL     OW21700   4.929   4.090   5.889
 6934SOL    HW121701   4.920   4.124   5.795
 6934SOL    HW221702   5.009   4.030   5.896
 6935SOL     OW21703   4.102   6.719   3.164
 6935SOL    HW121704   4.010   6.737   3.199
 6935SOL    HW221705   4.169   6.729   3.237
 6936SOL     OW21706   6.473   2.307   2.441
 6936SOL    HW121707   6.562   2.288   2.400
 6936SOL    HW221708   6.407   2.239   2.411
 6937SOL     OW21709   6.308   6.705   6.985
 6937SOL    HW121710   6.276   6.738   0.056
 6937SOL    HW221711   6.229   6.684   6.927
 6938SOL     OW21712   4.874   3.941   5.482
 6938SOL    HW121713   4.917   3.878   5.547
 6938SOL    HW221714   4.848   3.892   5.399
 6939SOL     OW21715   6.979   5.154   2.746
 6939SOL    HW121716   7.015   5.178   2.836
 6939SOL    HW221717   6.894   5.204   2.730
 6940SOL     OW21718   5.064   1.114   0.480
 6940SOL    HW121719   4.973   1.151   0.460
 6940SOL    HW221720   5.121   1.120   0.398
 6941SOL     OW21721   4.053   3.184   2.800
 6941SOL    HW121722   4.072   3.183   2.701
 6941SOL    HW221723   3.981   3.118   2.821
 6942SOL     OW21724   6.621   2.761   0.935
 6942SOL    HW121725   6.662   2.846   0.968
 6942SOL    HW221726   6.629   2.756   0.836
 6943SOL     OW21727   4.938   6.144   6.855
 6943SOL    HW121728   4.985   6.232   6.851
 6943SOL    HW221729   4.969   6.094   6.936
 6944SOL     OW21730   1.446   4.340   5.599
 6944SOL    HW121731   1.476   4.281   5.674
 6944SOL    HW221732   1.457   4.292   5.512
 6945SOL     OW21733   5.988   2.767   6.702
 6945SOL    HW121734   6.005   2.671   6.680
 6945SOL    HW221735   6.072   2.820   6.687
 6946SOL     OW21736   6.104   5.552   2.449
 6946SOL    HW121737   6.094   5.648   2.477
 6946SOL    HW221738   6.045   5.495   2.505
 6947SOL     OW21739   3.624   6.966   4.986
 6947SOL    HW121740   3.570   0.016   5.035
 6947SOL    HW221741   3.721   6.988   4.994
 6948SOL     OW21742   6.172   0.479   0.394
 6948SOL    HW121743   6.239   0.523   0.452
 6948SOL    HW221744   6.156   0.535   0.313
 6949SOL     OW21745   5.369   6.577   3.916
 6949SOL    HW121746   5.317   6.662   3.906
 6949SOL    HW221747   5.335   6.526   3.994
 6950SOL     OW21748   2.411   6.978   2.936
 6950SOL    HW121749   2.467   0.025   2.884
 6950SOL    HW221750   2.467   6.935   3.006
 6951SOL     OW21751   6.168   6.181   5.642
 6951SOL    HW121752   6.144   6.185   5.545
 6951SOL    HW221753   6.085   6.193   5.697
 6952SOL     OW21754   0.167   5.787   3.461
 6952SOL    HW121755   0.104   5.833   3.399
 6952SOL    HW221756   0.206   5.706   3.415
 6953SOL     OW21757   4.901   6.790   6.514
 6953SOL    HW121758   4.928   6.815   6.421
 6953SOL    HW221759   4.824   6.848   6.542
 6954SOL     OW21760   0.872   3.508   4.347
 6954SOL    HW121761   0.956   3.517   4.294
 6954SOL    HW221762   0.817   3.591   4.337
 6955SOL     OW21763   6.837   0.156   2.250
 6955SOL    HW121764   6.753   0.139   2.198
 6955SOL    HW221765   6.913   0.171   2.186
 6956SOL     OW21766   4.217   6.242   3.183
 6956SOL    HW121767   4.230   6.327   3.132
 6956SOL    HW221768   4.268   6.168   3.140
 6957SOL     OW21769   6.560   4.981   1.758
 6957SOL    HW121770   6.465   4.976   1.788
 6957SOL    HW221771   6.562   4.997   1.659
 6958SOL     OW21772   3.155   3.907   5.315
 6958SOL    HW121773   3.246   3.905   5.273
 6958SOL    HW221774   3.100   3.831   5.280
 6959SOL     OW21775   2.072   1.185   4.737
 6959SOL    HW121776   1.996   1.179   4.802
 6959SOL    HW221777   2.132   1.106   4.749
 6960SOL     OW21778   0.632   5.256   0.382
 6960SOL    HW121779   0.556   5.221   0.438
 6960SOL    HW221780   0.608   5.245   0.285
 6961SOL     OW21781   0.109   2.606   4.185
 6961SOL    HW121782   0.203   2.613   4.152
 6961SOL    HW221783   0.099   2.525   4.243
 6962SOL     OW21784   5.119   5.305   2.265
 6962SOL    HW121785   5.105   5.208   2.251
 6962SOL    HW221786   5.206   5.320   2.312
 6963SOL     OW21787   0.584   5.828   0.504
 6963SOL    HW121788   0.492   5.792   0.493
 6963SOL    HW221789   0.611   5.824   0.600
 6964SOL     OW21790   5.115   5.013   4.251
 6964SOL    HW121791   5.119   4.942   4.321
 6964SOL    HW221792   5.072   4.976   4.168
 6965SOL     OW21793   0.833   3.647   5.867
 6965SOL    HW121794   0.913   3.700   5.840
 6965SOL    HW221795   0.853   3.549   5.858
 6966SOL     OW21796   6.343   2.605   2.858
 6966SOL    HW121797   6.281   2.678   2.888
 6966SOL    HW221798   6.437   2.628   2.886
 6967SOL     OW21799   1.325   1.607   5.771
 6967SOL    HW121800   1.287   1.515   5.778
 6967SOL    HW221801   1.255   1.671   5.739
 6968SOL     OW21802   3.647   6.323   2.610
 6968SOL    HW121803   3.685   6.234   2.586
 6968SOL    HW221804   3.656   6.338   2.709
 6969SOL     OW21805   3.596   2.120   1.448
 6969SOL    HW121806   3.503   2.148   1.427
 6969SOL    HW221807   3.660   2.189   1.412
 6970SOL     OW21808   4.400   3.807   0.313
 6970SOL    HW121809   4.484   3.824   0.262
 6970SOL    HW221810   4.411   3.838   0.408
 6971SOL     OW21811   6.466   3.985   2.144
 6971SOL    HW121812   6.530   4.024   2.210
 6971SOL    HW221813   6.418   3.907   2.185
 6972SOL     OW21814   5.939   5.097   3.836
 6972SOL    HW121815   5.964   5.103   3.933
 6972SOL    HW221816   5.840   5.085   3.829
 6973SOL     OW21817   1.200   4.049   4.966
 6973SOL    HW121818   1.252   3.963   4.973
 6973SOL    HW221819   1.114   4.040   5.016
 6974SOL     OW21820   3.086   3.151   3.217
 6974SOL    HW121821   3.144   3.124   3.140
 6974SOL    HW221822   3.101   3.249   3.236
 6975SOL     OW21823   3.006   6.838   5.974
 6975SOL    HW121824   3.063   6.862   6.053
 6975SOL    HW221825   2.923   6.893   5.976
 6976SOL     OW21826   3.891   4.423   6.071
 6976SOL    HW121827   3.976   4.416   6.019
 6976SOL    HW221828   3.889   4.353   6.142
 6977SOL     OW21829   5.221   2.482   1.761
 6977SOL    HW121830   5.202   2.580   1.773
 6977SOL    HW221831   5.173   2.448   1.680
 6978SOL     OW21832   6.382   1.930   1.399
 6978SOL    HW121833   6.291   1.966   1.377
 6978SOL    HW221834   6.390   1.837   1.364
 6979SOL     OW21835   0.999   5.084   0.880
 6979SOL    HW121836   0.972   5.156   0.943
 6979SOL    HW221837   1.099   5.076   0.879
 6980SOL     OW21838   1.850   0.345   4.003
 6980SOL    HW121839   1.780   0.367   4.070
 6980SOL    HW221840   1.820   0.372   3.911
 6981SOL     OW21841   2.300   2.870   6.587
 6981SOL    HW121842   2.207   2.863   6.550
 6981SOL    HW221843   2.346   2.783   6.577
 6982SOL     OW21844   1.453   1.555   3.934
 6982SOL    HW121845   1.442   1.645   3.977
 6982SOL    HW221846   1.400   1.488   3.986
 6983SOL     OW21847   5.992   2.578   3.228
 6983SOL    HW121848   6.063   2.507   3.236
 6983SOL    HW221849   5.909   2.547   3.275
 6984SOL     OW21850   2.220   2.374   4.691
 6984SOL    HW121851   2.217   2.383   4.791
 6984SOL    HW221852   2.156   2.303   4.662
 6985SOL     OW21853   3.740   5.287   2.219
 6985SOL    HW121854   3.802   5.222   2.175
 6985SOL    HW221855   3.792   5.368   2.248
 6986SOL     OW21856   1.512   6.326   6.190
 6986SOL    HW121857   1.585   6.391   6.169
 6986SOL    HW221858   1.498   6.321   6.289
 6987SOL     OW21859   1.191   2.082   6.283
 6987SOL    HW121860   1.202   2.105   6.379
 6987SOL    HW221861   1.280   2.063   6.242
 6988SOL     OW21862   6.139   0.821   5.248
 6988SOL    HW121863   6.088   0.907   5.244
 6988SOL    HW221864   6.101   0.764   5.320
 6989SOL     OW21865   0.706   3.087   4.200
 6989SOL    HW121866   0.627   3.074   4.260
 6989SOL    HW221867   0.691   3.167   4.142
 6990SOL     OW21868   5.176   1.926   0.574
 6990SOL    HW121869   5.078   1.905   0.565
 6990SOL    HW221870   5.223   1.898   0.491
 6991SOL     OW21871   2.353   4.348   3.734
 6991SOL    HW121872   2.273   4.375   3.788
 6991SOL    HW221873   2.425   4.416   3.745
 6992SOL     OW21874   6.466   6.234   4.489
 6992SOL    HW121875   6.452   6.136   4.500
 6992SOL    HW221876   6.559   6.258   4.519
 6993SOL     OW21877   6.493   0.409   2.424
 6993SOL    HW121878   6.541   0.492   2.395
 6993SOL    HW221879   6.437   0.429   2.504
 6994SOL     OW21880   0.762   2.926   5.067
 6994SOL    HW121881   0.707   2.950   5.147
 6994SOL    HW221882   0.856   2.909   5.095
 6995SOL     OW21883   5.956   5.420   5.326
 6995SOL    HW121884   6.003   5.496   5.372
 6995SOL    HW221885   5.990   5.333   5.362
 6996SOL     OW21886   2.127   0.839   4.682
 6996SOL    HW121887   2.096   0.815   4.774
 6996SOL    HW221888   2.064   0.802   4.614
 6997SOL     OW21889   5.570   5.978   5.303
 6997SOL    HW121890   5.474   5.998   5.280
 6997SOL    HW221891   5.630   6.020   5.236
 6998SOL     OW21892   1.905   2.089   1.612
 6998SOL    HW121893   1.987   2.048   1.653
 6998SOL    HW221894   1.824   2.059   1.663
 6999SOL     OW21895   2.311   2.239   6.739
 6999SOL    HW121896   2.281   2.334   6.750
 6999SOL    HW221897   2.389   2.235   6.677
 7000SOL     OW21898   6.985   5.883   2.599
 7000SOL    HW121899   6.910   5.818   2.604
 7000SOL    HW221900   6.965   5.962   2.656
 7001SOL     OW21901   2.691   3.031   5.448
 7001SOL    HW121902   2.780   3.075   5.456
 7001SOL    HW221903   2.644   3.066   5.367
 7002SOL     OW21904   2.334   4.745   2.960
 7002SOL    HW121905   2.331   4.692   2.875
 7002SOL    HW221906   2.279   4.828   2.950
 7003SOL     OW21907   3.718   6.133   0.221
 7003SOL    HW121908   3.702   6.227   0.190
 7003SOL    HW221909   3.732   6.132   0.320
 7004SOL     OW21910   2.016   5.000   1.743
 7004SOL    HW121911   2.058   5.078   1.696
 7004SOL    HW221912   2.086   4.951   1.796
 7005SOL     OW21913   0.503   6.191   6.188
 7005SOL    HW121914   0.583   6.248   6.209
 7005SOL    HW221915   0.448   6.179   6.271
 7006SOL     OW21916   5.904   4.864   4.408
 7006SOL    HW121917   5.909   4.765   4.422
 7006SOL    HW221918   5.828   4.902   4.461
 7007SOL     OW21919   4.870   6.913   3.016
 7007SOL    HW121920   4.819   6.992   2.982
 7007SOL    HW221921   4.835   6.887   3.106
 7008SOL     OW21922   1.901   5.352   4.403
 7008SOL    HW121923   1.821   5.295   4.422
 7008SOL    HW221924   1.965   5.346   4.480
 7009SOL     OW21925   5.769   5.418   2.406
 7009SOL    HW121926   5.850   5.407   2.464
 7009SOL    HW221927   5.768   5.346   2.337
 7010SOL     OW21928   4.319   3.654   5.973
 7010SOL    HW121929   4.345   3.598   6.051
 7010SOL    HW221930   4.333   3.602   5.888
 7011SOL     OW21931   1.946   0.680   6.504
 7011SOL    HW121932   1.903   0.732   6.577
 7011SOL    HW221933   1.995   0.742   6.443
 7012SOL     OW21934   2.281   0.965   2.305
 7012SOL    HW121935   2.267   1.037   2.238
 7012SOL    HW221936   2.313   1.005   2.391
 7013SOL     OW21937   0.051   6.448   1.078
 7013SOL    HW121938   0.057   6.353   1.047
 7013SOL    HW221939   0.141   6.490   1.073
 7014SOL     OW21940   4.953   3.089   1.175
 7014SOL    HW121941   4.969   3.028   1.097
 7014SOL    HW221942   4.912   3.038   1.250
 7015SOL     OW21943   5.826   4.759   2.162
 7015SOL    HW121944   5.785   4.765   2.071
 7015SOL    HW221945   5.913   4.808   2.163
 7016SOL     OW21946   3.753   4.981   2.294
 7016SOL    HW121947   3.813   4.978   2.215
 7016SOL    HW221948   3.673   4.923   2.278
 7017SOL     OW21949   2.089   0.131   2.178
 7017SOL    HW121950   2.040   0.168   2.099
 7017SOL    HW221951   2.182   0.105   2.151
 7018SOL     OW21952   6.500   4.219   5.252
 7018SOL    HW121953   6.534   4.309   5.223
 7018SOL    HW221954   6.546   4.192   5.336
 7019SOL     OW21955   2.953   4.440   6.499
 7019SOL    HW121956   3.000   4.364   6.544
 7019SOL    HW221957   2.905   4.494   6.568
 7020SOL     OW21958   6.283   6.894   6.328
 7020SOL    HW121959   6.320   6.978   6.290
 7020SOL    HW221960   6.263   6.907   6.425
 7021SOL     OW21961   2.066   1.183   5.302
 7021SOL    HW121962   2.058   1.200   5.204
 7021SOL    HW221963   2.102   1.264   5.348
 7022SOL     OW21964   4.368   4.734   1.004
 7022SOL    HW121965   4.431   4.694   0.938
 7022SOL    HW221966   4.277   4.696   0.991
 7023SOL     OW21967   0.670   2.114   3.496
 7023SOL    HW121968   0.619   2.103   3.581
 7023SOL    HW221969   0.735   2.189   3.506
 7024SOL     OW21970   1.388   5.018   5.616
 7024SOL    HW121971   1.334   5.100   5.637
 7024SOL    HW221972   1.392   4.959   5.697
 7025SOL     OW21973   3.061   1.112   0.163
 7025SOL    HW121974   3.025   1.198   0.200
 7025SOL    HW221975   2.989   1.064   0.114
 7026SOL     OW21976   2.738   1.576   2.064
 7026SOL    HW121977   2.787   1.624   1.992
 7026SOL    HW221978   2.691   1.497   2.025
 7027SOL     OW21979   2.974   4.844   2.734
 7027SOL    HW121980   3.060   4.796   2.723
 7027SOL    HW221981   2.959   4.905   2.656
 7028SOL     OW21982   6.233   7.018   4.446
 7028SOL    HW121983   6.252   0.092   4.413
 7028SOL    HW221984   6.199   6.962   4.370
 7029SOL     OW21985   4.035   6.770   6.956
 7029SOL    HW121986   4.094   6.812   6.887
 7029SOL    HW221987   4.018   6.674   6.932
 7030SOL     OW21988   5.975   2.540   5.812
 7030SOL    HW121989   5.878   2.530   5.793
 7030SOL    HW221990   5.994   2.511   5.906
 7031SOL     OW21991   2.284   5.694   4.299
 7031SOL    HW121992   2.327   5.785   4.298
 7031SOL    HW221993   2.351   5.626   4.269
 7032SOL     OW21994   3.367   6.683   3.857
 7032SOL    HW121995   3.284   6.633   3.882
 7032SOL    HW221996   3.425   6.694   3.938
 7033SOL     OW21997   6.963   1.677   3.530
 7033SOL    HW121998   0.006   1.718   3.463
 7033SOL    HW221999   7.005   1.681   3.621
 7034SOL     OW22000   6.141   0.564   2.903
 7034SOL    HW122001   6.166   0.661   2.898
 7034SOL    HW222002   6.052   0.550   2.860
 7035SOL     OW22003   1.404   6.712   2.175
 7035SOL    HW122004   1.497   6.726   2.141
 7035SOL    HW222005   1.406   6.654   2.256
 7036SOL     OW22006   0.055   0.412   1.784
 7036SOL    HW122007   0.121   0.453   1.847
 7036SOL    HW222008   6.996   0.474   1.771
 7037SOL     OW22009   1.032   0.369   6.201
 7037SOL    HW122010   1.116   0.335   6.158
 7037SOL    HW222011   1.032   0.342   6.298
 7038SOL     OW22012   1.630   3.534   3.798
 7038SOL    HW122013   1.688   3.597   3.849
 7038SOL    HW222014   1.575   3.481   3.863
 7039SOL     OW22015   2.891   5.643   1.010
 7039SOL    HW122016   2.803   5.681   1.037
 7039SOL    HW222017   2.916   5.678   0.919
 7040SOL     OW22018   5.450   1.851   5.259
 7040SOL    HW122019   5.412   1.852   5.167
 7040SOL    HW222020   5.543   1.814   5.256
 7041SOL     OW22021   0.740   1.844   2.985
 7041SOL    HW122022   0.781   1.802   2.903
 7041SOL    HW222023   0.643   1.862   2.968
 7042SOL     OW22024   5.466   5.523   6.745
 7042SOL    HW122025   5.550   5.575   6.731
 7042SOL    HW222026   5.450   5.464   6.665
 7043SOL     OW22027   2.473   2.632   3.571
 7043SOL    HW122028   2.508   2.721   3.542
 7043SOL    HW222029   2.490   2.565   3.499
 7044SOL     OW22030   4.688   4.656   2.767
 7044SOL    HW122031   4.648   4.747   2.778
 7044SOL    HW222032   4.616   4.587   2.776
 7045SOL     OW22033   5.426   5.584   2.164
 7045SOL    HW122034   5.339   5.551   2.129
 7045SOL    HW222035   5.489   5.507   2.173
 7046SOL     OW22036   3.760   2.018   3.619
 7046SOL    HW122037   3.724   1.948   3.681
 7046SOL    HW222038   3.714   2.011   3.531
 7047SOL     OW22039   0.924   2.455   3.086
 7047SOL    HW122040   0.839   2.425   3.130
 7047SOL    HW222041   1.002   2.434   3.145
 7048SOL     OW22042   0.161   5.367   1.869
 7048SOL    HW122043   0.089   5.335   1.807
 7048SOL    HW222044   0.123   5.439   1.928
 7049SOL     OW22045   2.268   1.551   0.932
 7049SOL    HW122046   2.296   1.612   0.858
 7049SOL    HW222047   2.347   1.500   0.966
 7050SOL     OW22048   3.856   3.917   2.887
 7050SOL    HW122049   3.780   3.974   2.856
 7050SOL    HW222050   3.904   3.879   2.809
 7051SOL     OW22051   6.981   1.083   0.832
 7051SOL    HW122052   6.984   1.082   0.732
 7051SOL    HW222053   0.051   1.053   0.868
 7052SOL     OW22054   6.050   2.739   4.076
 7052SOL    HW122055   6.143   2.726   4.042
 7052SOL    HW222056   6.020   2.658   4.126
 7053SOL     OW22057   0.983   3.218   4.960
 7053SOL    HW122058   1.004   3.136   5.012
 7053SOL    HW222059   0.895   3.254   4.988
 7054SOL     OW22060   1.046   5.781   1.525
 7054SOL    HW122061   1.087   5.744   1.442
 7054SOL    HW222062   1.100   5.860   1.556
 7055SOL     OW22063   3.718   6.442   5.465
 7055SOL    HW122064   3.723   6.386   5.547
 7055SOL    HW222065   3.804   6.436   5.415
 7056SOL     OW22066   5.986   5.816   2.524
 7056SOL    HW122067   5.901   5.858   2.490
 7056SOL    HW222068   6.049   5.888   2.553
 7057SOL     OW22069   1.482   5.068   3.744
 7057SOL    HW122070   1.484   5.042   3.840
 7057SOL    HW222071   1.533   5.152   3.730
 7058SOL     OW22072   6.157   5.453   6.313
 7058SOL    HW122073   6.165   5.360   6.349
 7058SOL    HW222074   6.198   5.457   6.222
 7059SOL     OW22075   0.083   0.658   3.108
 7059SOL    HW122076   0.083   0.725   3.182
 7059SOL    HW222077   0.175   0.649   3.071
 7060SOL     OW22078   3.603   7.008   1.711
 7060SOL    HW122079   3.556   6.967   1.790
 7060SOL    HW222080   3.698   0.010   1.736
 7061SOL     OW22081   0.132   2.687   3.766
 7061SOL    HW122082   0.174   2.598   3.779
 7061SOL    HW222083   0.193   2.758   3.800
 7062SOL     OW22084   5.505   1.112   6.291
 7062SOL    HW122085   5.514   1.084   6.386
 7062SOL    HW222086   5.527   1.210   6.283
 7063SOL     OW22087   0.291   0.224   0.971
 7063SOL    HW122088   0.375   0.260   1.013
 7063SOL    HW222089   0.266   0.138   1.014
 7064SOL     OW22090   4.109   2.230   2.164
 7064SOL    HW122091   4.091   2.293   2.087
 7064SOL    HW222092   4.041   2.157   2.163
 7065SOL     OW22093   4.136   3.525   0.003
 7065SOL    HW122094   4.083   3.604   6.990
 7065SOL    HW222095   4.074   3.454   0.034
 7066SOL     OW22096   4.416   0.229   0.771
 7066SOL    HW122097   4.367   0.309   0.804
 7066SOL    HW222098   4.482   0.199   0.840
 7067SOL     OW22099   1.752   1.831   5.256
 7067SOL    HW122100   1.671   1.773   5.268
 7067SOL    HW222101   1.743   1.913   5.313
 7068SOL     OW22102   0.870   4.145   4.185
 7068SOL    HW122103   0.936   4.110   4.252
 7068SOL    HW222104   0.809   4.211   4.230
 7069SOL     OW22105   5.801   2.411   4.164
 7069SOL    HW122106   5.753   2.326   4.145
 7069SOL    HW222107   5.897   2.393   4.181
 7070SOL     OW22108   6.998   6.516   4.762
 7070SOL    HW122109   7.012   6.438   4.823
 7070SOL    HW222110   0.065   6.534   4.711
 7071SOL     OW22111   1.301   6.390   5.902
 7071SOL    HW122112   1.341   6.469   5.948
 7071SOL    HW222113   1.317   6.398   5.804
 7072SOL     OW22114   0.214   6.234   5.996
 7072SOL    HW122115   0.200   6.309   5.931
 7072SOL    HW222116   0.297   6.250   6.049
 7073SOL     OW22117   5.565   0.029   4.441
 7073SOL    HW122118   5.659   0.024   4.405
 7073SOL    HW222119   5.526   0.118   4.418
 7074SOL     OW22120   4.017   2.776   1.525
 7074SOL    HW122121   3.955   2.809   1.597
 7074SOL    HW222122   3.966   2.719   1.461
 7075SOL     OW22123   1.008   5.604   5.642
 7075SOL    HW122124   1.106   5.589   5.633
 7075SOL    HW222125   0.959   5.545   5.577
 7076SOL     OW22126   4.195   2.342   0.118
 7076SOL    HW122127   4.144   2.346   0.204
 7076SOL    HW222128   4.132   2.328   0.042
 7077SOL     OW22129   2.176   4.348   4.943
 7077SOL    HW122130   2.243   4.350   4.869
 7077SOL    HW222131   2.172   4.256   4.982
 7078SOL     OW22132   5.894   0.491   1.350
 7078SOL    HW122133   5.964   0.562   1.352
 7078SOL    HW222134   5.904   0.436   1.267
 7079SOL     OW22135   6.521   6.524   5.199
 7079SOL    HW122136   6.588   6.593   5.225
 7079SOL    HW222137   6.540   6.491   5.106
 7080SOL     OW22138   3.490   2.118   4.255
 7080SOL    HW122139   3.413   2.166   4.298
 7080SOL    HW222140   3.575   2.141   4.303
 7081SOL     OW22141   2.991   0.816   6.617
 7081SOL    HW122142   3.049   0.737   6.636
 7081SOL    HW222143   2.946   0.845   6.702
 7082SOL     OW22144   6.077   4.915   6.896
 7082SOL    HW122145   5.977   4.919   6.898
 7082SOL    HW222146   6.112   4.973   6.822
 7083SOL     OW22147   3.264   0.765   0.063
 7083SOL    HW122148   3.295   0.771   6.986
 7083SOL    HW222149   3.272   0.855   0.106
 7084SOL     OW22150   0.232   6.657   5.896
 7084SOL    HW122151   0.194   6.748   5.878
 7084SOL    HW222152   0.282   6.658   5.983
 7085SOL     OW22153   2.055   1.672   2.344
 7085SOL    HW122154   2.045   1.610   2.423
 7085SOL    HW222155   2.150   1.673   2.314
 7086SOL     OW22156   4.506   0.644   5.570
 7086SOL    HW122157   4.408   0.635   5.587
 7086SOL    HW222158   4.528   0.602   5.482
 7087SOL     OW22159   5.952   4.515   3.635
 7087SOL    HW122160   5.933   4.512   3.537
 7087SOL    HW222161   5.865   4.516   3.685
 7088SOL     OW22162   5.387   2.531   3.077
 7088SOL    HW122163   5.308   2.558   3.022
 7088SOL    HW222164   5.369   2.551   3.174
 7089SOL     OW22165   3.748   1.950   5.680
 7089SOL    HW122166   3.696   1.970   5.763
 7089SOL    HW222167   3.686   1.950   5.601
 7090SOL     OW22168   2.291   1.411   6.461
 7090SOL    HW122169   2.293   1.321   6.417
 7090SOL    HW222170   2.199   1.429   6.496
 7091SOL     OW22171   0.123   2.009   0.209
 7091SOL    HW122172   0.188   2.053   0.147
 7091SOL    HW222173   0.034   2.054   0.202
 7092SOL     OW22174   4.471   2.749   6.220
 7092SOL    HW122175   4.554   2.707   6.185
 7092SOL    HW222176   4.458   2.724   6.316
 7093SOL     OW22177   3.105   3.405   3.076
 7093SOL    HW122178   3.120   3.477   3.008
 7093SOL    HW222179   3.033   3.344   3.044
 7094SOL     OW22180   0.695   5.370   5.917
 7094SOL    HW122181   0.642   5.342   5.997
 7094SOL    HW222182   0.634   5.409   5.849
 7095SOL     OW22183   3.822   3.152   6.307
 7095SOL    HW122184   3.816   3.079   6.239
 7095SOL    HW222185   3.844   3.112   6.396
 7096SOL     OW22186   6.227   0.411   3.775
 7096SOL    HW122187   6.203   0.508   3.785
 7096SOL    HW222188   6.146   0.355   3.790
 7097SOL     OW22189   5.958   1.098   1.430
 7097SOL    HW122190   6.020   1.113   1.506
 7097SOL    HW222191   5.864   1.117   1.460
 7098SOL     OW22192   0.983   0.792   3.889
 7098SOL    HW122193   0.946   0.870   3.838
 7098SOL    HW222194   0.910   0.725   3.905
 7099SOL     OW22195   2.969   0.726   5.187
 7099SOL    HW122196   2.935   0.737   5.094
 7099SOL    HW222197   2.918   0.786   5.249
 7100SOL     OW22198   5.705   3.048   1.114
 7100SOL    HW122199   5.673   3.087   1.200
 7100SOL    HW222200   5.725   2.951   1.127
 7101SOL     OW22201   1.788   0.175   4.750
 7101SOL    HW122202   1.693   0.188   4.724
 7101SOL    HW222203   1.793   0.151   4.847
 7102SOL     OW22204   4.619   1.078   0.671
 7102SOL    HW122205   4.686   1.146   0.702
 7102SOL    HW222206   4.664   1.013   0.610
 7103SOL     OW22207   4.298   5.095   1.286
 7103SOL    HW122208   4.240   5.163   1.242
 7103SOL    HW222209   4.348   5.043   1.217
 7104SOL     OW22210   1.322   3.579   4.953
 7104SOL    HW122211   1.250   3.641   4.922
 7104SOL    HW222212   1.281   3.501   5.001
 7105SOL     OW22213   3.009   2.525   5.497
 7105SOL    HW122214   2.939   2.485   5.555
 7105SOL    HW222215   3.051   2.454   5.440
 7106SOL     OW22216   2.911   3.518   2.423
 7106SOL    HW122217   2.831   3.516   2.364
 7106SOL    HW222218   2.978   3.583   2.386
 7107SOL     OW22219   3.571   0.831   0.714
 7107SOL    HW122220   3.553   0.790   0.625
 7107SOL    HW222221   3.591   0.759   0.781
 7108SOL     OW22222   3.977   6.380   2.661
 7108SOL    HW122223   4.045   6.306   2.654
 7108SOL    HW222224   3.939   6.398   2.570
 7109SOL     OW22225   3.647   6.873   6.253
 7109SOL    HW122226   3.551   6.871   6.282
 7109SOL    HW222227   3.689   6.784   6.271
 7110SOL     OW22228   3.832   6.371   3.949
 7110SOL    HW122229   3.912   6.414   3.906
 7110SOL    HW222230   3.832   6.273   3.929
 7111SOL     OW22231   2.392   2.145   4.578
 7111SOL    HW122232   2.405   2.239   4.547
 7111SOL    HW222233   2.405   2.141   4.677
 7112SOL     OW22234   2.614   5.793   4.210
 7112SOL    HW122235   2.629   5.769   4.306
 7112SOL    HW222236   2.691   5.848   4.177
 7113SOL     OW22237   3.071   3.744   4.555
 7113SOL    HW122238   3.101   3.811   4.623
 7113SOL    HW222239   3.072   3.787   4.464
 7114SOL     OW22240   3.778   6.698   1.251
 7114SOL    HW122241   3.714   6.720   1.325
 7114SOL    HW222242   3.730   6.643   1.182
 7115SOL     OW22243   5.284   3.359   2.290
 7115SOL    HW122244   5.197   3.355   2.241
 7115SOL    HW222245   5.305   3.269   2.328
 7116SOL     OW22246   5.103   4.075   3.328
 7116SOL    HW122247   5.186   4.019   3.333
 7116SOL    HW222248   5.050   4.049   3.247
 7117SOL     OW22249   6.913   6.299   4.510
 7117SOL    HW122250   6.954   6.367   4.450
 7117SOL    HW222251   6.986   6.250   4.559
 7118SOL     OW22252   2.558   4.139   0.599
 7118SOL    HW122253   2.591   4.148   0.505
 7118SOL    HW222254   2.635   4.141   0.662
 7119SOL     OW22255   5.007   1.551   3.210
 7119SOL    HW122256   5.022   1.461   3.170
 7119SOL    HW222257   4.984   1.616   3.138
 7120SOL     OW22258   4.159   1.964   2.363
 7120SOL    HW122259   4.128   2.054   2.392
 7120SOL    HW222260   4.080   1.908   2.337
 7121SOL     OW22261   2.603   0.132   2.035
 7121SOL    HW122262   2.553   0.217   2.052
 7121SOL    HW222263   2.655   0.141   1.950
 7122SOL     OW22264   0.063   0.757   5.637
 7122SOL    HW122265   0.076   0.855   5.623
 7122SOL    HW222266   0.057   0.738   5.735
 7123SOL     OW22267   2.329   4.858   2.049
 7123SOL    HW122268   2.234   4.827   2.049
 7123SOL    HW222269   2.346   4.916   2.129
 7124SOL     OW22270   0.236   2.916   0.665
 7124SOL    HW122271   0.324   2.870   0.665
 7124SOL    HW222272   0.247   3.011   0.694
 7125SOL     OW22273   6.359   6.605   0.930
 7125SOL    HW122274   6.437   6.600   0.867
 7125SOL    HW222275   6.303   6.523   0.921
 7126SOL     OW22276   3.317   4.485   0.513
 7126SOL    HW122277   3.415   4.497   0.526
 7126SOL    HW222278   3.268   4.560   0.558
 7127SOL     OW22279   2.505   5.979   4.422
 7127SOL    HW122280   2.556   5.959   4.506
 7127SOL    HW222281   2.407   5.982   4.442
 7128SOL     OW22282   2.681   5.606   0.358
 7128SOL    HW122283   2.662   5.508   0.365
 7128SOL    HW222284   2.707   5.628   0.264
 7129SOL     OW22285   3.141   0.390   0.434
 7129SOL    HW122286   3.177   0.456   0.501
 7129SOL    HW222287   3.168   0.418   0.342
 7130SOL     OW22288   3.584   4.502   5.602
 7130SOL    HW122289   3.495   4.533   5.637
 7130SOL    HW222290   3.650   4.499   5.677
 7131SOL     OW22291   2.548   1.470   0.335
 7131SOL    HW122292   2.477   1.465   0.265
 7131SOL    HW222293   2.508   1.507   0.420
 7132SOL     OW22294   3.314   3.667   0.281
 7132SOL    HW122295   3.332   3.625   0.370
 7132SOL    HW222296   3.401   3.677   0.231
 7133SOL     OW22297   4.745   5.877   4.286
 7133SOL    HW122298   4.724   5.779   4.284
 7133SOL    HW222299   4.746   5.909   4.381
 7134SOL     OW22300   6.119   6.059   2.031
 7134SOL    HW122301   6.138   6.094   2.122
 7134SOL    HW222302   6.023   6.030   2.026
 7135SOL     OW22303   1.666   2.117   2.870
 7135SOL    HW122304   1.644   2.118   2.773
 7135SOL    HW222305   1.761   2.145   2.883
 7136SOL     OW22306   1.781   2.437   0.796
 7136SOL    HW122307   1.699   2.386   0.769
 7136SOL    HW222308   1.859   2.408   0.741
 7137SOL     OW22309   4.352   0.512   6.797
 7137SOL    HW122310   4.403   0.483   6.878
 7137SOL    HW222311   4.279   0.575   6.824
 7138SOL     OW22312   1.663   2.963   0.539
 7138SOL    HW122313   1.662   2.902   0.460
 7138SOL    HW222314   1.756   2.966   0.577
 7139SOL     OW22315   5.068   4.278   2.465
 7139SOL    HW122316   5.150   4.306   2.516
 7139SOL    HW222317   4.992   4.338   2.489
 7140SOL     OW22318   5.876   3.770   4.648
 7140SOL    HW122319   5.955   3.760   4.709
 7140SOL    HW222320   5.901   3.830   4.572
 7141SOL     OW22321   3.282   5.892   1.662
 7141SOL    HW122322   3.349   5.964   1.678
 7141SOL    HW222323   3.321   5.822   1.602
 7142SOL     OW22324   4.360   0.203   3.675
 7142SOL    HW122325   4.428   0.216   3.602
 7142SOL    HW222326   4.277   0.254   3.652
 7143SOL     OW22327   1.495   2.805   6.211
 7143SOL    HW122328   1.568   2.868   6.238
 7143SOL    HW222329   1.519   2.712   6.240
 7144SOL     OW22330   1.667   1.537   3.788
 7144SOL    HW122331   1.580   1.524   3.836
 7144SOL    HW222332   1.723   1.603   3.838
 7145SOL     OW22333   4.556   6.693   6.439
 7145SOL    HW122334   4.597   6.627   6.375
 7145SOL    HW222335   4.603   6.686   6.527
 7146SOL     OW22336   2.378   0.698   0.081
 7146SOL    HW122337   2.377   0.634   0.004
 7146SOL    HW222338   2.310   0.669   0.149
 7147SOL     OW22339   6.617   6.399   3.294
 7147SOL    HW122340   6.535   6.451   3.318
 7147SOL    HW222341   6.610   6.368   3.199
 7148SOL     OW22342   0.204   6.852   0.818
 7148SOL    HW122343   0.242   6.759   0.810
 7148SOL    HW222344   0.165   6.879   0.730
 7149SOL     OW22345   6.682   6.652   2.862
 7149SOL    HW122346   6.670   6.566   2.813
 7149SOL    HW222347   6.719   6.634   2.954
 7150SOL     OW22348   4.100   1.723   2.052
 7150SOL    HW122349   4.005   1.721   2.023
 7150SOL    HW222350   4.147   1.801   2.010
 7151SOL     OW22351   1.843   6.470   0.947
 7151SOL    HW122352   1.755   6.476   0.899
 7151SOL    HW222353   1.856   6.378   0.983
 7152SOL     OW22354   0.814   1.705   4.806
 7152SOL    HW122355   0.890   1.768   4.824
 7152SOL    HW222356   0.832   1.655   4.721
 7153SOL     OW22357   2.911   5.576   2.975
 7153SOL    HW122358   2.893   5.663   2.930
 7153SOL    HW222359   2.854   5.568   3.056
 7154SOL     OW22360   3.743   0.507   4.561
 7154SOL    HW122361   3.830   0.469   4.531
 7154SOL    HW222362   3.697   0.441   4.620
 7155SOL     OW22363   2.441   4.828   1.492
 7155SOL    HW122364   2.418   4.917   1.451
 7155SOL    HW222365   2.529   4.797   1.456
 7156SOL     OW22366   0.332   4.066   4.470
 7156SOL    HW122367   0.234   4.083   4.458
 7156SOL    HW222368   0.380   4.152   4.487
 7157SOL     OW22369   6.247   4.620   0.681
 7157SOL    HW122370   6.184   4.608   0.757
 7157SOL    HW222371   6.332   4.571   0.700
 7158SOL     OW22372   1.265   0.382   2.794
 7158SOL    HW122373   1.170   0.413   2.794
 7158SOL    HW222374   1.268   0.283   2.808
 7159SOL     OW22375   0.588   3.671   2.848
 7159SOL    HW122376   0.635   3.736   2.908
 7159SOL    HW222377   0.592   3.704   2.754
 7160SOL     OW22378   5.647   0.924   3.433
 7160SOL    HW122379   5.692   0.873   3.506
 7160SOL    HW222380   5.578   0.985   3.472
 7161SOL     OW22381   3.151   3.938   4.726
 7161SOL    HW122382   3.197   3.973   4.808
 7161SOL    HW222383   3.207   3.958   4.646
 7162SOL     OW22384   2.448   5.715   5.672
 7162SOL    HW122385   2.526   5.774   5.693
 7162SOL    HW222386   2.376   5.729   5.741
 7163SOL     OW22387   2.723   6.590   2.736
 7163SOL    HW122388   2.819   6.614   2.752
 7163SOL    HW222389   2.671   6.672   2.712
 7164SOL     OW22390   1.949   0.998   4.003
 7164SOL    HW122391   1.978   1.055   4.080
 7164SOL    HW222392   1.874   1.044   3.955
 7165SOL     OW22393   6.766   1.211   1.326
 7165SOL    HW122394   6.753   1.146   1.400
 7165SOL    HW222395   6.702   1.288   1.336
 7166SOL     OW22396   5.591   2.990   6.674
 7166SOL    HW122397   5.651   2.911   6.683
 7166SOL    HW222398   5.496   2.960   6.678
 7167SOL     OW22399   5.140   3.651   4.578
 7167SOL    HW122400   5.051   3.611   4.556
 7167SOL    HW222401   5.193   3.585   4.631
 7168SOL     OW22402   1.747   2.958   3.635
 7168SOL    HW122403   1.715   3.036   3.582
 7168SOL    HW222404   1.687   2.945   3.714
 7169SOL     OW22405   0.202   3.478   4.860
 7169SOL    HW122406   0.163   3.569   4.846
 7169SOL    HW222407   0.128   3.413   4.879
 7170SOL     OW22408   4.370   6.560   3.565
 7170SOL    HW122409   4.436   6.488   3.588
 7170SOL    HW222410   4.397   6.645   3.609
 7171SOL     OW22411   5.921   4.506   6.692
 7171SOL    HW122412   5.932   4.470   6.785
 7171SOL    HW222413   5.910   4.430   6.628
 7172SOL     OW22414   1.610   0.848   5.345
 7172SOL    HW122415   1.610   0.752   5.371
 7172SOL    HW222416   1.545   0.898   5.402
 7173SOL     OW22417   0.393   4.982   5.526
 7173SOL    HW122418   0.402   5.014   5.432
 7173SOL    HW222419   0.425   4.887   5.531
 7174SOL     OW22420   0.875   4.524   6.890
 7174SOL    HW122421   0.874   4.462   6.812
 7174SOL    HW222422   0.938   4.600   6.873
 7175SOL     OW22423   5.570   3.462   6.825
 7175SOL    HW122424   5.576   3.557   6.794
 7175SOL    HW222425   5.584   3.401   6.746
 7176SOL     OW22426   0.991   6.364   3.276
 7176SOL    HW122427   1.070   6.383   3.218
 7176SOL    HW222428   0.950   6.276   3.249
 7177SOL     OW22429   2.343   6.679   4.388
 7177SOL    HW122430   2.345   6.730   4.474
 7177SOL    HW222431   2.290   6.730   4.320
 7178SOL     OW22432   2.325   3.408   5.588
 7178SOL    HW122433   2.368   3.317   5.587
 7178SOL    HW222434   2.328   3.447   5.495
 7179SOL     OW22435   1.637   3.772   4.712
 7179SOL    HW122436   1.657   3.855   4.660
 7179SOL    HW222437   1.716   3.710   4.708
 7180SOL     OW22438   1.394   4.427   6.404
 7180SOL    HW122439   1.436   4.431   6.314
 7180SOL    HW222440   1.361   4.518   6.430
 7181SOL     OW22441   1.954   5.746   0.446
 7181SOL    HW122442   1.927   5.783   0.357
 7181SOL    HW222443   2.000   5.818   0.499
 7182SOL     OW22444   2.137   2.911   5.550
 7182SOL    HW122445   2.143   2.994   5.605
 7182SOL    HW222446   2.210   2.911   5.481
 7183SOL     OW22447   1.394   5.987   0.613
 7183SOL    HW122448   1.348   5.948   0.693
 7183SOL    HW222449   1.483   5.944   0.601
 7184SOL     OW22450   0.644   0.005   3.075
 7184SOL    HW122451   0.740   6.997   3.083
 7184SOL    HW222452   0.630   0.095   3.114
 7185SOL     OW22453   5.350   0.968   5.339
 7185SOL    HW122454   5.314   0.887   5.294
 7185SOL    HW222455   5.438   0.947   5.381
 7186SOL     OW22456   6.750   7.017   6.883
 7186SOL    HW122457   6.736   0.094   6.853
 7186SOL    HW222458   6.663   6.976   6.907
 7187SOL     OW22459   2.931   4.177   0.462
 7187SOL    HW122460   2.865   4.195   0.389
 7187SOL    HW222461   2.919   4.083   0.495
 7188SOL     OW22462   6.255   6.958   0.440
 7188SOL    HW122463   6.265   0.036   0.467
 7188SOL    HW222464   6.345   6.919   0.420
 7189SOL     OW22465   6.488   0.838   6.457
 7189SOL    HW122466   6.465   0.904   6.386
 7189SOL    HW222467   6.530   0.757   6.416
 7190SOL     OW22468   7.004   3.960   3.104
 7190SOL    HW122469   6.989   3.865   3.077
 7190SOL    HW222470   6.917   4.001   3.132
 7191SOL     OW22471   0.499   4.106   3.267
 7191SOL    HW122472   0.495   4.023   3.323
 7191SOL    HW222473   0.487   4.186   3.326
 7192SOL     OW22474   3.087   4.702   5.555
 7192SOL    HW122475   3.140   4.785   5.538
 7192SOL    HW222476   3.144   4.636   5.603
 7193SOL     OW22477   2.223   2.340   2.542
 7193SOL    HW122478   2.295   2.290   2.494
 7193SOL    HW222479   2.197   2.289   2.624
 7194SOL     OW22480   2.913   1.802   1.144
 7194SOL    HW122481   2.903   1.723   1.204
 7194SOL    HW222482   2.973   1.870   1.187
 7195SOL     OW22483   0.185   5.439   6.337
 7195SOL    HW122484   0.107   5.377   6.327
 7195SOL    HW222485   0.228   5.453   6.248
 7196SOL     OW22486   3.281   4.280   1.729
 7196SOL    HW122487   3.338   4.207   1.768
 7196SOL    HW222488   3.336   4.364   1.721
 7197SOL     OW22489   6.668   2.166   6.108
 7197SOL    HW122490   6.756   2.167   6.156
 7197SOL    HW222491   6.670   2.234   6.034
 7198SOL     OW22492   0.621   0.972   6.369
 7198SOL    HW122493   0.562   0.953   6.290
 7198SOL    HW222494   0.609   1.067   6.398
 7199SOL     OW22495   2.097   0.591   2.228
 7199SOL    HW122496   2.130   0.673   2.181
 7199SOL    HW222497   2.157   0.571   2.305
 7200SOL     OW22498   2.719   2.042   6.884
 7200SOL    HW122499   2.806   2.089   6.870
 7200SOL    HW222500   2.717   1.958   6.830
 7201SOL     OW22501   1.170   5.414   4.294
 7201SOL    HW122502   1.144   5.472   4.372
 7201SOL    HW222503   1.264   5.383   4.305
 7202SOL     OW22504   4.339   0.327   6.042
 7202SOL    HW122505   4.272   0.282   5.982
 7202SOL    HW222506   4.421   0.350   5.990
 7203SOL     OW22507   0.242   2.150   1.267
 7203SOL    HW122508   0.243   2.195   1.357
 7203SOL    HW222509   0.325   2.175   1.217
 7204SOL     OW22510   6.627   6.945   5.198
 7204SOL    HW122511   6.535   6.927   5.163
 7204SOL    HW222512   6.691   6.953   5.121
 7205SOL     OW22513   1.505   5.634   3.090
 7205SOL    HW122514   1.498   5.712   3.152
 7205SOL    HW222515   1.511   5.550   3.144
 7206SOL     OW22516   1.859   0.214   1.027
 7206SOL    HW122517   1.803   0.140   0.990
 7206SOL    HW222518   1.899   0.185   1.114
 7207SOL     OW22519   3.928   6.786   1.963
 7207SOL    HW122520   4.012   6.838   1.947
 7207SOL    HW222521   3.854   6.848   1.988
 7208SOL     OW22522   4.187   6.548   3.844
 7208SOL    HW122523   4.135   6.573   3.762
 7208SOL    HW222524   4.230   6.459   3.831
 7209SOL     OW22525   3.329   3.129   1.798
 7209SOL    HW122526   3.394   3.108   1.872
 7209SOL    HW222527   3.260   3.057   1.793
 7210SOL     OW22528   4.560   0.028   4.126
 7210SOL    HW122529   4.501   0.102   4.157
 7210SOL    HW222530   4.553   0.019   4.026
 7211SOL     OW22531   2.469   5.563   4.034
 7211SOL    HW122532   2.478   5.480   4.089
 7211SOL    HW222533   2.558   5.607   4.025
 7212SOL     OW22534   0.867   6.444   3.735
 7212SOL    HW122535   0.945   6.457   3.674
 7212SOL    HW222536   0.783   6.438   3.681
 7213SOL     OW22537   5.958   0.179   6.335
 7213SOL    HW122538   5.967   0.099   6.394
 7213SOL    HW222539   5.910   0.251   6.385
 7214SOL     OW22540   1.244   5.883   4.995
 7214SOL    HW122541   1.305   5.955   5.029
 7214SOL    HW222542   1.150   5.917   4.991
 7215SOL     OW22543   0.575   2.860   4.394
 7215SOL    HW122544   0.610   2.941   4.440
 7215SOL    HW222545   0.500   2.820   4.448
 7216SOL     OW22546   2.433   6.371   0.229
 7216SOL    HW122547   2.430   6.274   0.208
 7216SOL    HW222548   2.359   6.394   0.293
 7217SOL     OW22549   2.059   4.334   2.544
 7217SOL    HW122550   2.125   4.310   2.473
 7217SOL    HW222551   1.974   4.284   2.530
 7218SOL     OW22552   4.907   2.641   5.494
 7218SOL    HW122553   4.808   2.630   5.497
 7218SOL    HW222554   4.942   2.605   5.408
 7219SOL     OW22555   4.774   6.257   4.331
 7219SOL    HW122556   4.768   6.357   4.331
 7219SOL    HW222557   4.709   6.220   4.398
 7220SOL     OW22558   0.420   5.438   4.263
 7220SOL    HW122559   0.330   5.481   4.262
 7220SOL    HW222560   0.485   5.494   4.212
 7221SOL     OW22561   5.156   5.101   4.838
 7221SOL    HW122562   5.166   5.177   4.902
 7221SOL    HW222563   5.065   5.061   4.848
 7222SOL     OW22564   6.198   0.542   2.161
 7222SOL    HW122565   6.280   0.488   2.178
 7222SOL    HW222566   6.220   0.622   2.106
 7223SOL     OW22567   3.088   2.130   1.645
 7223SOL    HW122568   3.099   2.038   1.608
 7223SOL    HW222569   2.996   2.163   1.624
 7224SOL     OW22570   5.376   2.544   4.275
 7224SOL    HW122571   5.337   2.576   4.188
 7224SOL    HW222572   5.308   2.551   4.347
 7225SOL     OW22573   1.266   5.893   5.854
 7225SOL    HW122574   1.245   5.977   5.903
 7225SOL    HW222575   1.245   5.814   5.911
 7226SOL     OW22576   0.876   0.849   0.645
 7226SOL    HW122577   0.792   0.903   0.635
 7226SOL    HW222578   0.868   0.790   0.726
 7227SOL     OW22579   0.840   2.137   0.873
 7227SOL    HW122580   0.898   2.072   0.922
 7227SOL    HW222581   0.759   2.090   0.839
 7228SOL     OW22582   0.303   1.130   1.588
 7228SOL    HW122583   0.243   1.078   1.528
 7228SOL    HW222584   0.249   1.186   1.650
 7229SOL     OW22585   0.571   0.535   4.869
 7229SOL    HW122586   0.523   0.616   4.833
 7229SOL    HW222587   0.559   0.458   4.807
 7230SOL     OW22588   5.105   5.730   4.703
 7230SOL    HW122589   5.197   5.737   4.741
 7230SOL    HW222590   5.038   5.756   4.773
 7231SOL     OW22591   4.759   6.289   0.005
 7231SOL    HW122592   4.802   6.231   6.954
 7231SOL    HW222593   4.793   6.264   0.096
 7232SOL     OW22594   4.562   5.343   3.373
 7232SOL    HW122595   4.555   5.413   3.444
 7232SOL    HW222596   4.521   5.258   3.407
 7233SOL     OW22597   0.110   2.411   4.367
 7233SOL    HW122598   0.025   2.358   4.364
 7233SOL    HW222599   0.117   2.456   4.456
 7234SOL     OW22600   5.766   2.724   3.123
 7234SOL    HW122601   5.855   2.685   3.146
 7234SOL    HW222602   5.737   2.786   3.196
 7235SOL     OW22603   6.567   4.182   3.558
 7235SOL    HW122604   6.571   4.088   3.593
 7235SOL    HW222605   6.571   4.246   3.635
 7236SOL     OW22606   3.334   1.525   3.195
 7236SOL    HW122607   3.408   1.536   3.128
 7236SOL    HW222608   3.252   1.491   3.149
 7237SOL     OW22609   6.435   6.696   5.452
 7237SOL    HW122610   6.450   6.665   5.358
 7237SOL    HW222611   6.342   6.732   5.461
 7238SOL     OW22612   2.380   2.210   1.226
 7238SOL    HW122613   2.453   2.164   1.175
 7238SOL    HW222614   2.396   2.200   1.324
 7239SOL     OW22615   2.941   0.948   3.595
 7239SOL    HW122616   2.905   0.897   3.517
 7239SOL    HW222617   2.998   1.023   3.563
 7240SOL     OW22618   2.702   3.694   6.391
 7240SOL    HW122619   2.742   3.699   6.482
 7240SOL    HW222620   2.750   3.757   6.330
 7241SOL     OW22621   3.140   0.115   0.034
 7241SOL    HW122622   3.210   0.107   0.105
 7241SOL    HW222623   3.096   0.205   0.041
 7242SOL     OW22624   6.736   5.654   0.231
 7242SOL    HW122625   6.731   5.730   0.166
 7242SOL    HW222626   6.730   5.567   0.181
 7243SOL     OW22627   0.626   4.320   6.105
 7243SOL    HW122628   0.551   4.258   6.079
 7243SOL    HW222629   0.692   4.325   6.030
 7244SOL     OW22630   5.146   0.941   1.186
 7244SOL    HW122631   5.230   0.890   1.207
 7244SOL    HW222632   5.069   0.899   1.234
 7245SOL     OW22633   0.957   1.816   5.204
 7245SOL    HW122634   0.918   1.851   5.288
 7245SOL    HW222635   1.002   1.728   5.223
 7246SOL     OW22636   5.832   6.772   4.558
 7246SOL    HW122637   5.809   6.680   4.526
 7246SOL    HW222638   5.828   6.836   4.482
 7247SOL     OW22639   3.170   6.570   3.482
 7247SOL    HW122640   3.231   6.630   3.533
 7247SOL    HW222641   3.152   6.610   3.392
 7248SOL     OW22642   3.569   1.296   2.828
 7248SOL    HW122643   3.534   1.251   2.746
 7248SOL    HW222644   3.569   1.395   2.814
 7249SOL     OW22645   5.850   5.269   1.600
 7249SOL    HW122646   5.901   5.190   1.634
 7249SOL    HW222647   5.914   5.335   1.560
 7250SOL     OW22648   3.641   5.315   5.841
 7250SOL    HW122649   3.615   5.225   5.806
 7250SOL    HW222650   3.566   5.352   5.897
 7251SOL     OW22651   6.833   6.632   5.500
 7251SOL    HW122652   6.875   6.541   5.495
 7251SOL    HW222653   6.795   6.656   5.410
 7252SOL     OW22654   3.481   3.148   3.415
 7252SOL    HW122655   3.498   3.080   3.486
 7252SOL    HW222656   3.453   3.103   3.331
 7253SOL     OW22657   1.912   6.648   0.413
 7253SOL    HW122658   1.965   6.579   0.363
 7253SOL    HW222659   1.947   6.739   0.390
 7254SOL     OW22660   4.686   5.287   5.064
 7254SOL    HW122661   4.783   5.292   5.039
 7254SOL    HW222662   4.674   5.225   5.141
 7255SOL     OW22663   3.346   3.721   1.327
 7255SOL    HW122664   3.257   3.697   1.289
 7255SOL    HW222665   3.412   3.732   1.253
 7256SOL     OW22666   5.307   4.950   4.072
 7256SOL    HW122667   5.230   4.960   4.134
 7256SOL    HW222668   5.309   5.027   4.009
 7257SOL     OW22669   5.090   3.053   3.559
 7257SOL    HW122670   5.046   3.049   3.470
 7257SOL    HW222671   5.084   2.964   3.603
 7258SOL     OW22672   4.227   1.399   3.427
 7258SOL    HW122673   4.251   1.494   3.445
 7258SOL    HW222674   4.191   1.357   3.510
 7259SOL     OW22675   3.525   3.920   1.429
 7259SOL    HW122676   3.559   3.870   1.508
 7259SOL    HW222677   3.461   3.862   1.378
 7260SOL     OW22678   3.143   1.840   2.981
 7260SOL    HW122679   3.096   1.859   3.067
 7260SOL    HW222680   3.105   1.757   2.940
 7261SOL     OW22681   2.738   3.025   1.057
 7261SOL    HW122682   2.823   2.972   1.061
 7261SOL    HW222683   2.737   3.091   1.131
 7262SOL     OW22684   5.618   2.182   4.195
 7262SOL    HW122685   5.600   2.202   4.099
 7262SOL    HW222686   5.577   2.253   4.252
 7263SOL     OW22687   0.390   5.684   2.092
 7263SOL    HW122688   0.290   5.688   2.085
 7263SOL    HW222689   0.419   5.589   2.098
 7264SOL     OW22690   6.458   1.483   6.944
 7264SOL    HW122691   6.545   1.484   6.895
 7264SOL    HW222692   6.406   1.566   6.923
 7265SOL     OW22693   5.418   4.806   5.725
 7265SOL    HW122694   5.446   4.783   5.631
 7265SOL    HW222695   5.332   4.760   5.745
 7266SOL     OW22696   4.257   0.450   0.839
 7266SOL    HW122697   4.196   0.376   0.869
 7266SOL    HW222698   4.268   0.516   0.913
 7267SOL     OW22699   6.671   4.877   5.330
 7267SOL    HW122700   6.723   4.934   5.395
 7267SOL    HW222701   6.573   4.893   5.342
 7268SOL     OW22702   4.557   4.846   3.442
 7268SOL    HW122703   4.486   4.781   3.417
 7268SOL    HW222704   4.569   4.845   3.542
 7269SOL     OW22705   6.707   6.198   1.380
 7269SOL    HW122706   6.788   6.173   1.328
 7269SOL    HW222707   6.665   6.116   1.418
 7270SOL     OW22708   1.347   2.365   3.508
 7270SOL    HW122709   1.328   2.267   3.519
 7270SOL    HW222710   1.336   2.391   3.412
 7271SOL     OW22711   0.363   4.635   3.672
 7271SOL    HW122712   0.439   4.577   3.643
 7271SOL    HW222713   0.354   4.631   3.772
 7272SOL     OW22714   6.179   4.138   2.223
 7272SOL    HW122715   6.218   4.089   2.301
 7272SOL    HW222716   6.228   4.113   2.140
 7273SOL     OW22717   5.856   4.395   1.905
 7273SOL    HW122718   5.922   4.396   1.830
 7273SOL    HW222719   5.763   4.384   1.868
 7274SOL     OW22720   0.379   6.646   6.156
 7274SOL    HW122721   0.394   6.704   6.236
 7274SOL    HW222722   0.350   6.555   6.185
 7275SOL     OW22723   6.736   0.794   1.334
 7275SOL    HW122724   6.736   0.816   1.236
 7275SOL    HW222725   6.668   0.722   1.352
 7276SOL     OW22726   3.548   1.315   3.869
 7276SOL    HW122727   3.621   1.251   3.894
 7276SOL    HW222728   3.587   1.391   3.817
 7277SOL     OW22729   5.443   0.734   5.023
 7277SOL    HW122730   5.506   0.658   5.038
 7277SOL    HW222731   5.376   0.736   5.098
 7278SOL     OW22732   3.575   2.102   3.061
 7278SOL    HW122733   3.665   2.124   3.023
 7278SOL    HW222734   3.582   2.020   3.118
 7279SOL     OW22735   4.080   3.704   6.666
 7279SOL    HW122736   4.042   3.684   6.756
 7279SOL    HW222737   4.055   3.630   6.603
 7280SOL     OW22738   5.726   2.419   5.103
 7280SOL    HW122739   5.693   2.433   5.010
 7280SOL    HW222740   5.707   2.325   5.131
 7281SOL     OW22741   3.290   0.064   0.688
 7281SOL    HW122742   3.270   0.074   0.785
 7281SOL    HW222743   3.205   0.052   0.637
 7282SOL     OW22744   6.594   5.817   1.232
 7282SOL    HW122745   6.685   5.854   1.250
 7282SOL    HW222746   6.530   5.893   1.217
 7283SOL     OW22747   2.713   6.751   2.156
 7283SOL    HW122748   2.749   6.833   2.199
 7283SOL    HW222749   2.701   6.679   2.225
 7284SOL     OW22750   6.713   2.806   4.139
 7284SOL    HW122751   6.776   2.850   4.203
 7284SOL    HW222752   6.759   2.788   4.052
 7285SOL     OW22753   5.105   3.600   1.644
 7285SOL    HW122754   5.021   3.645   1.613
 7285SOL    HW222755   5.106   3.596   1.744
 7286SOL     OW22756   0.991   1.078   0.722
 7286SOL    HW122757   1.091   1.072   0.718
 7286SOL    HW222758   0.951   0.991   0.695
 7287SOL     OW22759   6.343   3.041   4.456
 7287SOL    HW122760   6.254   3.080   4.433
 7287SOL    HW222761   6.340   2.942   4.442
 7288SOL     OW22762   1.608   2.884   2.146
 7288SOL    HW122763   1.637   2.920   2.057
 7288SOL    HW222764   1.635   2.788   2.153
 7289SOL     OW22765   5.758   3.562   2.119
 7289SOL    HW122766   5.773   3.477   2.068
 7289SOL    HW222767   5.844   3.613   2.124
 7290SOL     OW22768   3.158   0.935   5.192
 7290SOL    HW122769   3.064   0.910   5.217
 7290SOL    HW222770   3.220   0.863   5.225
 7291SOL     OW22771   4.217   6.983   0.607
 7291SOL    HW122772   4.218   0.052   0.558
 7291SOL    HW222773   4.128   6.970   0.651
 7292SOL     OW22774   1.673   6.782   3.242
 7292SOL    HW122775   1.602   6.766   3.310
 7292SOL    HW222776   1.677   6.880   3.220
 7293SOL     OW22777   1.753   1.381   6.454
 7293SOL    HW122778   1.745   1.282   6.450
 7293SOL    HW222779   1.842   1.409   6.418
 7294SOL     OW22780   3.236   4.734   1.432
 7294SOL    HW122781   3.262   4.785   1.350
 7294SOL    HW222782   3.179   4.656   1.407
 7295SOL     OW22783   6.464   4.229   1.352
 7295SOL    HW122784   6.553   4.219   1.307
 7295SOL    HW222785   6.413   4.304   1.310
 7296SOL     OW22786   3.914   4.909   2.775
 7296SOL    HW122787   3.997   4.965   2.770
 7296SOL    HW222788   3.903   4.875   2.869
 7297SOL     OW22789   3.213   6.598   2.600
 7297SOL    HW122790   3.206   6.502   2.626
 7297SOL    HW222791   3.161   6.614   2.516
 7298SOL     OW22792   5.257   5.473   6.929
 7298SOL    HW122793   5.337   5.502   6.875
 7298SOL    HW222794   5.288   5.420   7.008
 7299SOL     OW22795   0.942   1.480   0.666
 7299SOL    HW122796   0.889   1.557   0.630
 7299SOL    HW222797   0.893   1.395   0.647
 7300SOL     OW22798   1.183   4.950   2.070
 7300SOL    HW122799   1.152   4.861   2.038
 7300SOL    HW222800   1.270   4.939   2.119
 7301SOL     OW22801   6.890   0.144   5.662
 7301SOL    HW122802   6.958   0.078   5.628
 7301SOL    HW222803   6.808   0.138   5.606
 7302SOL     OW22804   6.591   1.790   4.953
 7302SOL    HW122805   6.683   1.758   4.932
 7302SOL    HW222806   6.556   1.740   5.032
 7303SOL     OW22807   3.300   1.108   6.781
 7303SOL    HW122808   3.299   1.043   6.706
 7303SOL    HW222809   3.225   1.173   6.769
 7304SOL     OW22810   1.905   5.089   1.999
 7304SOL    HW122811   1.839   5.020   2.030
 7304SOL    HW222812   1.920   5.079   1.901
 7305SOL     OW22813   5.317   2.750   1.231
 7305SOL    HW122814   5.355   2.659   1.218
 7305SOL    HW222815   5.387   2.811   1.268
 7306SOL     OW22816   3.909   1.447   1.902
 7306SOL    HW122817   3.905   1.524   1.966
 7306SOL    HW222818   3.924   1.482   1.809
 7307SOL     OW22819   3.830   6.468   2.432
 7307SOL    HW122820   3.748   6.490   2.484
 7307SOL    HW222821   3.808   6.463   2.335
 7308SOL     OW22822   6.952   1.648   3.235
 7308SOL    HW122823   6.938   1.717   3.164
 7308SOL    HW222824   6.864   1.614   3.267
 7309SOL     OW22825   2.194   6.231   2.522
 7309SOL    HW122826   2.104   6.248   2.481
 7309SOL    HW222827   2.192   6.147   2.575
 7310SOL     OW22828   1.365   3.355   6.627
 7310SOL    HW122829   1.408   3.401   6.549
 7310SOL    HW222830   1.391   3.259   6.627
 7311SOL     OW22831   1.010   0.305   0.454
 7311SOL    HW122832   1.072   0.365   0.404
 7311SOL    HW222833   1.053   0.215   0.465
 7312SOL     OW22834   0.754   1.223   5.152
 7312SOL    HW122835   0.784   1.317   5.165
 7312SOL    HW222836   0.741   1.206   5.054
 7313SOL     OW22837   2.952   1.266   0.815
 7313SOL    HW122838   2.967   1.168   0.801
 7313SOL    HW222839   2.891   1.300   0.743
 7314SOL     OW22840   0.523   3.649   6.679
 7314SOL    HW122841   0.614   3.619   6.653
 7314SOL    HW222842   0.464   3.653   6.598
 7315SOL     OW22843   6.210   5.286   2.828
 7315SOL    HW122844   6.284   5.345   2.797
 7315SOL    HW222845   6.187   5.221   2.755
 7316SOL     OW22846   3.486   1.919   6.196
 7316SOL    HW122847   3.550   1.843   6.188
 7316SOL    HW222848   3.484   1.970   6.109
 7317SOL     OW22849   3.690   1.257   1.953
 7317SOL    HW122850   3.620   1.285   2.019
 7317SOL    HW222851   3.757   1.330   1.941
 7318SOL     OW22852   3.761   6.513   2.172
 7318SOL    HW122853   3.667   6.546   2.164
 7318SOL    HW222854   3.808   6.525   2.084
 7319SOL     OW22855   6.512   3.053   6.312
 7319SOL    HW122856   6.416   3.027   6.309
 7319SOL    HW222857   6.544   3.052   6.407
 7320SOL     OW22858   0.027   3.894   0.938
 7320SOL    HW122859   0.044   3.993   0.934
 7320SOL    HW222860   6.993   3.873   1.020
 7321SOL     OW22861   1.260   6.436   6.245
 7321SOL    HW122862   1.353   6.410   6.217
 7321SOL    HW222863   1.198   6.426   6.167
 7322SOL     OW22864   0.920   2.932   3.064
 7322SOL    HW122865   0.827   2.954   3.033
 7322SOL    HW222866   0.945   2.992   3.140
 7323SOL     OW22867   2.843   1.601   1.357
 7323SOL    HW122868   2.795   1.514   1.361
 7323SOL    HW222869   2.785   1.673   1.396
 7324SOL     OW22870   6.402   4.660   2.454
 7324SOL    HW122871   6.411   4.622   2.362
 7324SOL    HW222872   6.447   4.599   2.520
 7325SOL     OW22873   2.838   0.540   5.753
 7325SOL    HW122874   2.798   0.551   5.844
 7325SOL    HW222875   2.937   0.534   5.760
 7326SOL     OW22876   4.124   0.436   6.176
 7326SOL    HW122877   4.210   0.429   6.126
 7326SOL    HW222878   4.079   0.346   6.177
 7327SOL     OW22879   5.689   4.215   3.744
 7327SOL    HW122880   5.710   4.310   3.769
 7327SOL    HW222881   5.599   4.211   3.702
 7328SOL     OW22882   4.144   5.614   5.642
 7328SOL    HW122883   4.048   5.643   5.647
 7328SOL    HW222884   4.157   5.534   5.701
 7329SOL     OW22885   1.016   2.639   0.102
 7329SOL    HW122886   0.965   2.691   0.034
 7329SOL    HW222887   0.953   2.588   0.160
 7330SOL     OW22888   3.223   3.136   0.933
 7330SOL    HW122889   3.140   3.127   0.987
 7330SOL    HW222890   3.303   3.141   0.993
 7331SOL     OW22891   4.477   7.008   1.777
 7331SOL    HW122892   4.525   6.987   1.862
 7331SOL    HW222893   4.522   0.067   1.731
 7332SOL     OW22894   3.943   4.406   6.815
 7332SOL    HW122895   3.909   4.353   6.892
 7332SOL    HW222896   4.016   4.467   6.846
 7333SOL     OW22897   5.875   3.418   3.185
 7333SOL    HW122898   5.845   3.468   3.266
 7333SOL    HW222899   5.901   3.325   3.211
 7334SOL     OW22900   2.925   6.091   6.002
 7334SOL    HW122901   2.969   6.147   5.932
 7334SOL    HW222902   2.900   6.149   6.080
 7335SOL     OW22903   0.493   3.452   2.980
 7335SOL    HW122904   0.534   3.511   2.910
 7335SOL    HW222905   0.471   3.506   3.061
 7336SOL     OW22906   2.372   6.598   1.417
 7336SOL    HW122907   2.426   6.519   1.446
 7336SOL    HW222908   2.410   6.681   1.459
 7337SOL     OW22909   3.170   2.860   1.141
 7337SOL    HW122910   3.152   2.829   1.047
 7337SOL    HW222911   3.124   2.799   1.205
 7338SOL     OW22912   6.100   2.309   1.613
 7338SOL    HW122913   6.038   2.387   1.620
 7338SOL    HW222914   6.136   2.304   1.520
 7339SOL     OW22915   0.151   6.415   5.761
 7339SOL    HW122916   0.161   6.404   5.662
 7339SOL    HW222917   0.199   6.498   5.791
 7340SOL     OW22918   3.933   1.138   6.838
 7340SOL    HW122919   3.959   1.041   6.844
 7340SOL    HW222920   3.834   1.145   6.824
 7341SOL     OW22921   1.616   5.248   4.706
 7341SOL    HW122922   1.599   5.178   4.775
 7341SOL    HW222923   1.539   5.312   4.703
 7342SOL     OW22924   6.485   6.857   0.407
 7342SOL    HW122925   6.569   6.844   0.354
 7342SOL    HW222926   6.452   6.769   0.442
 7343SOL     OW22927   5.618   4.055   1.846
 7343SOL    HW122928   5.706   4.030   1.804
 7343SOL    HW222929   5.550   4.069   1.774
 7344SOL     OW22930   1.944   7.003   6.706
 7344SOL    HW122931   1.869   0.028   6.758
 7344SOL    HW222932   1.934   0.008   6.609
 7345SOL     OW22933   4.153   4.948   6.073
 7345SOL    HW122934   4.070   4.990   6.109
 7345SOL    HW222935   4.230   4.970   6.133
 7346SOL     OW22936   4.299   4.128   1.177
 7346SOL    HW122937   4.388   4.082   1.181
 7346SOL    HW222938   4.313   4.227   1.179
 7347SOL     OW22939   6.919   2.593   1.969
 7347SOL    HW122940   6.898   2.626   2.061
 7347SOL    HW222941   6.840   2.609   1.909
 7348SOL     OW22942   1.889   4.020   3.570
 7348SOL    HW122943   1.814   3.999   3.508
 7348SOL    HW222944   1.947   4.090   3.531
 7349SOL     OW22945   3.492   1.665   1.297
 7349SOL    HW122946   3.548   1.645   1.217
 7349SOL    HW222947   3.502   1.761   1.323
 7350SOL     OW22948   0.328   2.869   3.845
 7350SOL    HW122949   0.247   2.920   3.872
 7350SOL    HW222950   0.407   2.900   3.898
 7351SOL     OW22951   4.081   4.567   6.622
 7351SOL    HW122952   3.996   4.515   6.630
 7351SOL    HW222953   4.106   4.606   6.711
 7352SOL     OW22954   1.861   1.849   3.801
 7352SOL    HW122955   1.913   1.892   3.728
 7352SOL    HW222956   1.906   1.764   3.829
 7353SOL     OW22957   0.599   1.742   5.457
 7353SOL    HW122958   0.662   1.666   5.471
 7353SOL    HW222959   0.541   1.723   5.377
 7354SOL     OW22960   0.252   0.708   6.397
 7354SOL    HW122961   0.158   0.674   6.403
 7354SOL    HW222962   0.309   0.662   6.465
 7355SOL     OW22963   1.383   6.131   0.918
 7355SOL    HW122964   1.444   6.080   0.979
 7355SOL    HW222965   1.431   6.151   0.833
 7356SOL     OW22966   4.995   2.747   6.578
 7356SOL    HW122967   4.972   2.790   6.665
 7356SOL    HW222968   4.952   2.657   6.573
 7357SOL     OW22969   4.879   1.005   1.563
 7357SOL    HW122970   4.821   1.086   1.549
 7357SOL    HW222971   4.891   0.958   1.475
 7358SOL     OW22972   2.782   1.881   2.448
 7358SOL    HW122973   2.769   1.979   2.462
 7358SOL    HW222974   2.827   1.865   2.360
 7359SOL     OW22975   3.551   2.715   0.773
 7359SOL    HW122976   3.547   2.752   0.865
 7359SOL    HW222977   3.460   2.717   0.732
 7360SOL     OW22978   2.357   2.097   5.259
 7360SOL    HW122979   2.279   2.105   5.321
 7360SOL    HW222980   2.392   2.003   5.261
 7361SOL     OW22981   4.848   6.357   2.288
 7361SOL    HW122982   4.893   6.359   2.199
 7361SOL    HW222983   4.805   6.268   2.302
 7362SOL     OW22984   0.494   6.574   4.685
 7362SOL    HW122985   0.511   6.493   4.741
 7362SOL    HW222986   0.535   6.654   4.729
 7363SOL     OW22987   4.631   1.861   0.392
 7363SOL    HW122988   4.593   1.791   0.453
 7363SOL    HW222989   4.564   1.884   0.321
 7364SOL     OW22990   4.212   6.670   1.687
 7364SOL    HW122991   4.261   6.620   1.616
 7364SOL    HW222992   4.202   6.766   1.661
 7365SOL     OW22993   1.955   6.187   2.388
 7365SOL    HW122994   1.900   6.265   2.356
 7365SOL    HW222995   1.902   6.135   2.455
 7366SOL     OW22996   1.234   5.430   7.011
 7366SOL    HW122997   1.233   5.501   0.063
 7366SOL    HW222998   1.187   5.463   6.929
 7367SOL     OW22999   4.843   3.851   1.255
 7367SOL    HW123000   4.786   3.862   1.337
 7367SOL    HW223001   4.883   3.759   1.255
 7368SOL     OW23002   3.229   2.963   3.685
 7368SOL    HW123003   3.255   2.992   3.593
 7368SOL    HW223004   3.191   2.871   3.681
 7369SOL     OW23005   5.150   3.576   0.661
 7369SOL    HW123006   5.129   3.660   0.712
 7369SOL    HW223007   5.249   3.562   0.659
 7370SOL     OW23008   2.071   0.543   6.197
 7370SOL    HW123009   2.039   0.626   6.243
 7370SOL    HW223010   2.055   0.551   6.099
 7371SOL     OW23011   2.989   5.646   4.283
 7371SOL    HW123012   2.962   5.637   4.379
 7371SOL    HW223013   3.088   5.639   4.275
 7372SOL     OW23014   3.102   0.637   5.382
 7372SOL    HW123015   3.193   0.674   5.364
 7372SOL    HW223016   3.043   0.655   5.304
 7373SOL     OW23017   4.591   1.545   3.896
 7373SOL    HW123018   4.521   1.531   3.966
 7373SOL    HW223019   4.565   1.497   3.813
 7374SOL     OW23020   2.618   2.432   5.445
 7374SOL    HW123021   2.569   2.492   5.507
 7374SOL    HW223022   2.714   2.458   5.440
 7375SOL     OW23023   1.644   2.209   3.908
 7375SOL    HW123024   1.743   2.222   3.902
 7375SOL    HW223025   1.599   2.298   3.914
 7376SOL     OW23026   3.374   2.231   0.085
 7376SOL    HW123027   3.381   2.327   0.058
 7376SOL    HW223028   3.349   2.176   0.006
 7377SOL     OW23029   4.848   5.806   2.049
 7377SOL    HW123030   4.823   5.813   1.952
 7377SOL    HW223031   4.937   5.850   2.063
 7378SOL     OW23032   0.188   1.890   4.314
 7378SOL    HW123033   0.222   1.824   4.381
 7378SOL    HW223034   0.111   1.941   4.354
 7379SOL     OW23035   3.808   1.881   2.980
 7379SOL    HW123036   3.873   1.825   3.030
 7379SOL    HW223037   3.830   1.978   2.992
 7380SOL     OW23038   0.179   3.110   5.784
 7380SOL    HW123039   0.237   3.184   5.818
 7380SOL    HW223040   0.235   3.029   5.767
 7381SOL     OW23041   4.867   3.063   2.509
 7381SOL    HW123042   4.963   3.060   2.483
 7381SOL    HW223043   4.858   3.103   2.600
 7382SOL     OW23044   0.046   5.677   4.984
 7382SOL    HW123045   0.122   5.716   5.036
 7382SOL    HW223046   0.076   5.593   4.939
 7383SOL     OW23047   6.963   6.621   2.713
 7383SOL    HW123048   6.927   6.643   2.622
 7383SOL    HW223049   0.045   6.615   2.709
 7384SOL     OW23050   5.190   0.978   2.227
 7384SOL    HW123051   5.095   1.008   2.239
 7384SOL    HW223052   5.235   1.037   2.160
 7385SOL     OW23053   3.490   6.125   2.368
 7385SOL    HW123054   3.572   6.138   2.424
 7385SOL    HW223055   3.441   6.212   2.358
 7386SOL     OW23056   0.573   2.786   5.472
 7386SOL    HW123057   0.609   2.754   5.560
 7386SOL    HW223058   0.580   2.712   5.405
 7387SOL     OW23059   4.351   6.554   4.963
 7387SOL    HW123060   4.444   6.549   4.925
 7387SOL    HW223061   4.288   6.587   4.892
 7388SOL     OW23062   0.243   6.022   3.614
 7388SOL    HW123063   0.223   5.931   3.578
 7388SOL    HW223064   0.295   6.014   3.699
 7389SOL     OW23065   1.169   4.746   6.654
 7389SOL    HW123066   1.225   4.678   6.700
 7389SOL    HW223067   1.083   4.705   6.625
 7390SOL     OW23068   1.455   1.795   6.804
 7390SOL    HW123069   1.533   1.791   6.741
 7390SOL    HW223070   1.386   1.857   6.767
 7391SOL     OW23071   4.462   4.140   5.360
 7391SOL    HW123072   4.485   4.155   5.456
 7391SOL    HW223073   4.474   4.043   5.337
 7392SOL     OW23074   2.616   6.380   6.488
 7392SOL    HW123075   2.673   6.305   6.456
 7392SOL    HW223076   2.673   6.460   6.507
 7393SOL     OW23077   5.926   5.840   1.347
 7393SOL    HW123078   5.962   5.873   1.434
 7393SOL    HW223079   5.933   5.913   1.279
 7394SOL     OW23080   2.936   3.004   6.188
 7394SOL    HW123081   2.922   2.905   6.192
 7394SOL    HW223082   2.964   3.038   6.278
 7395SOL     OW23083   0.912   0.889   6.895
 7395SOL    HW123084   0.957   0.819   6.839
 7395SOL    HW223085   0.975   0.920   6.966
 7396SOL     OW23086   1.231   0.823   6.588
 7396SOL    HW123087   1.276   0.788   6.671
 7396SOL    HW223088   1.141   0.782   6.580
 7397SOL     OW23089   5.828   5.163   4.341
 7397SOL    HW123090   5.794   5.200   4.427
 7397SOL    HW223091   5.872   5.075   4.358
 7398SOL     OW23092   3.317   4.968   4.241
 7398SOL    HW123093   3.271   4.949   4.327
 7398SOL    HW223094   3.255   4.946   4.165
 7399SOL     OW23095   0.519   3.655   5.329
 7399SOL    HW123096   0.431   3.695   5.305
 7399SOL    HW223097   0.506   3.577   5.389
 7400SOL     OW23098   3.367   4.000   0.108
 7400SOL    HW123099   3.451   3.947   0.098
 7400SOL    HW223100   3.341   4.004   0.205
 7401SOL     OW23101   0.709   1.341   3.626
 7401SOL    HW123102   0.743   1.257   3.669
 7401SOL    HW223103   0.758   1.356   3.540
 7402SOL     OW23104   2.024   6.118   4.306
 7402SOL    HW123105   2.011   6.157   4.398
 7402SOL    HW223106   2.021   6.018   4.312
 7403SOL     OW23107   1.953   3.081   3.177
 7403SOL    HW123108   1.856   3.104   3.188
 7403SOL    HW223109   1.989   3.126   3.095
 7404SOL     OW23110   2.477   6.351   1.500
 7404SOL    HW123111   2.382   6.321   1.489
 7404SOL    HW223112   2.521   6.295   1.570
 7405SOL     OW23113   1.335   4.960   4.581
 7405SOL    HW123114   1.353   4.889   4.513
 7405SOL    HW223115   1.294   5.039   4.536
 7406SOL     OW23116   1.655   4.018   2.250
 7406SOL    HW123117   1.576   3.980   2.298
 7406SOL    HW223118   1.715   4.064   2.316
 7407SOL     OW23119   0.510   6.372   4.870
 7407SOL    HW123120   0.413   6.351   4.865
 7407SOL    HW223121   0.550   6.326   4.949
 7408SOL     OW23122   0.999   4.344   5.016
 7408SOL    HW123123   1.053   4.303   4.943
 7408SOL    HW223124   1.060   4.377   5.088
 7409SOL     OW23125   0.504   0.905   4.380
 7409SOL    HW123126   0.577   0.845   4.414
 7409SOL    HW223127   0.458   0.860   4.303
 7410SOL     OW23128   6.633   5.078   0.790
 7410SOL    HW123129   6.712   5.084   0.729
 7410SOL    HW223130   6.582   4.994   0.770
 7411SOL     OW23131   2.962   6.813   4.224
 7411SOL    HW123132   3.056   6.844   4.214
 7411SOL    HW223133   2.932   6.771   4.138
 7412SOL     OW23134   4.143   1.441   1.098
 7412SOL    HW123135   4.234   1.448   1.056
 7412SOL    HW223136   4.153   1.428   1.197
 7413SOL     OW23137   6.920   4.582   4.042
 7413SOL    HW123138   7.011   4.547   4.062
 7413SOL    HW223139   6.851   4.520   4.078
 7414SOL     OW23140   0.161   0.193   2.990
 7414SOL    HW123141   0.224   0.249   2.936
 7414SOL    HW223142   0.067   0.220   2.968
 7415SOL     OW23143   0.764   3.863   3.063
 7415SOL    HW123144   0.672   3.901   3.053
 7415SOL    HW223145   0.758   3.764   3.074
 7416SOL     OW23146   3.315   0.582   3.940
 7416SOL    HW123147   3.294   0.614   4.032
 7416SOL    HW223148   3.290   0.653   3.874
 7417SOL     OW23149   1.240   0.035   6.537
 7417SOL    HW123150   1.150   0.071   6.560
 7417SOL    HW223151   1.301   0.047   6.616
 7418SOL     OW23152   3.925   4.927   1.244
 7418SOL    HW123153   3.905   4.829   1.242
 7418SOL    HW223154   3.945   4.959   1.152
 7419SOL     OW23155   6.433   2.421   4.752
 7419SOL    HW123156   6.436   2.507   4.803
 7419SOL    HW223157   6.525   2.400   4.718
 7420SOL     OW23158   6.344   6.307   2.538
 7420SOL    HW123159   6.362   6.228   2.479
 7420SOL    HW223160   6.258   6.294   2.587
 7421SOL     OW23161   3.310   2.984   2.214
 7421SOL    HW123162   3.375   3.060   2.215
 7421SOL    HW223163   3.342   2.913   2.151
 7422SOL     OW23164   0.360   3.656   2.677
 7422SOL    HW123165   0.298   3.577   2.681
 7422SOL    HW223166   0.415   3.658   2.761
 7423SOL     OW23167   0.054   3.609   6.523
 7423SOL    HW123168   6.996   3.552   6.492
 7423SOL    HW223169   0.140   3.573   6.486
 7424SOL     OW23170   6.402   1.429   4.325
 7424SOL    HW123171   6.312   1.459   4.358
 7424SOL    HW223172   6.434   1.491   4.253
 7425SOL     OW23173   4.509   4.918   6.567
 7425SOL    HW123174   4.469   5.008   6.555
 7425SOL    HW223175   4.438   4.848   6.565
 7426SOL     OW23176   1.026   1.727   0.027
 7426SOL    HW123177   1.010   1.707   0.123
 7426SOL    HW223178   1.107   1.786   0.018
 7427SOL     OW23179   2.748   6.000   4.897
 7427SOL    HW123180   2.760   5.916   4.951
 7427SOL    HW223181   2.765   5.980   4.801
 7428SOL     OW23182   3.547   1.220   5.273
 7428SOL    HW123183   3.566   1.318   5.273
 7428SOL    HW223184   3.522   1.190   5.181
 7429SOL     OW23185   5.897   0.509   3.681
 7429SOL    HW123186   5.963   0.583   3.687
 7429SOL    HW223187   5.896   0.457   3.766
 7430SOL     OW23188   6.911   4.465   6.167
 7430SOL    HW123189   7.009   4.450   6.176
 7430SOL    HW223190   6.890   4.499   6.075
 7431SOL     OW23191   0.465   3.995   1.983
 7431SOL    HW123192   0.448   4.021   1.888
 7431SOL    HW223193   0.379   3.993   2.033
 7432SOL     OW23194   0.531   6.936   3.476
 7432SOL    HW123195   0.520   6.910   3.571
 7432SOL    HW223196   0.441   6.947   3.433
 7433SOL     OW23197   6.830   5.495   0.450
 7433SOL    HW123198   6.924   5.469   0.428
 7433SOL    HW223199   6.779   5.513   0.366
 7434SOL     OW23200   4.084   1.274   6.640
 7434SOL    HW123201   4.109   1.371   6.635
 7434SOL    HW223202   4.016   1.261   6.712
 7435SOL     OW23203   3.590   6.330   6.462
 7435SOL    HW123204   3.529   6.278   6.521
 7435SOL    HW223205   3.576   6.428   6.479
 7436SOL     OW23206   6.375   3.050   6.808
 7436SOL    HW123207   6.306   3.048   6.881
 7436SOL    HW223208   6.466   3.060   6.849
 7437SOL     OW23209   6.834   5.889   6.727
 7437SOL    HW123210   6.837   5.791   6.710
 7437SOL    HW223211   6.828   5.938   6.639
 7438SOL     OW23212   0.470   5.178   0.642
 7438SOL    HW123213   0.487   5.110   0.712
 7438SOL    HW223214   0.500   5.268   0.675
 7439SOL     OW23215   1.953   6.257   4.536
 7439SOL    HW123216   1.971   6.339   4.482
 7439SOL    HW223217   1.888   6.278   4.609
 7440SOL     OW23218   0.734   3.011   4.821
 7440SOL    HW123219   0.830   3.015   4.791
 7440SOL    HW223220   0.730   2.974   4.914
 7441SOL     OW23221   5.659   6.528   4.572
 7441SOL    HW123222   5.579   6.557   4.519
 7441SOL    HW223223   5.658   6.428   4.583
 7442SOL     OW23224   1.205   0.974   5.895
 7442SOL    HW123225   1.192   0.968   5.993
 7442SOL    HW223226   1.123   1.013   5.852
 7443SOL     OW23227   0.495   1.396   1.221
 7443SOL    HW123228   0.471   1.336   1.297
 7443SOL    HW223229   0.530   1.342   1.145
 7444SOL     OW23230   0.030   3.159   5.166
 7444SOL    HW123231   0.111   3.165   5.108
 7444SOL    HW223232   0.042   3.084   5.231
 7445SOL     OW23233   4.185   1.066   1.516
 7445SOL    HW123234   4.192   1.100   1.610
 7445SOL    HW223235   4.249   1.117   1.458
 7446SOL     OW23236   5.466   3.983   0.274
 7446SOL    HW123237   5.512   3.942   0.353
 7446SOL    HW223238   5.528   3.984   0.196
 7447SOL     OW23239   1.954   3.533   6.619
 7447SOL    HW123240   1.975   3.445   6.577
 7447SOL    HW223241   1.868   3.568   6.584
 7448SOL     OW23242   4.837   6.268   5.618
 7448SOL    HW123243   4.754   6.262   5.563
 7448SOL    HW223244   4.833   6.350   5.675
 7449SOL     OW23245   5.129   2.960   2.009
 7449SOL    HW123246   5.052   2.911   1.967
 7449SOL    HW223247   5.133   2.936   2.106
 7450SOL     OW23248   4.847   2.154   4.612
 7450SOL    HW123249   4.780   2.191   4.549
 7450SOL    HW223250   4.899   2.228   4.654
 7451SOL     OW23251   1.723   0.042   3.544
 7451SOL    HW123252   1.668   0.034   3.460
 7451SOL    HW223253   1.814   0.076   3.520
 7452SOL     OW23254   0.706   6.887   4.820
 7452SOL    HW123255   0.736   6.927   4.907
 7452SOL    HW223256   0.786   6.876   4.760
 7453SOL     OW23257   5.346   5.908   5.666
 7453SOL    HW123258   5.431   5.886   5.617
 7453SOL    HW223259   5.331   5.840   5.738
 7454SOL     OW23260   1.092   2.837   2.081
 7454SOL    HW123261   1.090   2.823   1.982
 7454SOL    HW223262   1.026   2.908   2.106
 7455SOL     OW23263   0.081   1.072   1.972
 7455SOL    HW123264   0.158   1.135   1.960
 7455SOL    HW223265   0.043   1.049   1.882
 7456SOL     OW23266   1.003   1.909   4.541
 7456SOL    HW123267   1.003   1.827   4.484
 7456SOL    HW223268   0.916   1.957   4.531
 7457SOL     OW23269   3.975   0.717   6.130
 7457SOL    HW123270   4.071   0.744   6.124
 7457SOL    HW223271   3.940   0.696   6.039
 7458SOL     OW23272   1.392   0.271   6.456
 7458SOL    HW123273   1.476   0.275   6.403
 7458SOL    HW223274   1.343   0.186   6.437
 7459SOL     OW23275   4.798   0.150   0.394
 7459SOL    HW123276   4.748   0.190   0.471
 7459SOL    HW223277   4.801   0.051   0.405
 7460SOL     OW23278   1.923   4.073   0.906
 7460SOL    HW123279   1.832   4.107   0.930
 7460SOL    HW223280   1.953   4.115   0.820
 7461SOL     OW23281   5.192   1.291   6.023
 7461SOL    HW123282   5.199   1.391   6.012
 7461SOL    HW223283   5.227   1.265   6.113
 7462SOL     OW23284   2.176   3.018   2.204
 7462SOL    HW123285   2.143   3.028   2.110
 7462SOL    HW223286   2.272   2.991   2.203
 7463SOL     OW23287   3.678   4.155   1.436
 7463SOL    HW123288   3.619   4.076   1.424
 7463SOL    HW223289   3.623   4.235   1.461
 7464SOL     OW23290   3.363   6.863   6.346
 7464SOL    HW123291   3.390   6.949   6.389
 7464SOL    HW223292   3.280   6.828   6.390
 7465SOL     OW23293   1.827   0.473   0.699
 7465SOL    HW123294   1.734   0.500   0.721
 7465SOL    HW223295   1.826   0.389   0.646
 7466SOL     OW23296   0.692   0.522   7.000
 7466SOL    HW123297   0.624   0.465   6.954
 7466SOL    HW223298   0.758   0.464   0.030
 7467SOL     OW23299   6.766   1.576   0.798
 7467SOL    HW123300   6.836   1.522   0.845
 7467SOL    HW223301   6.718   1.518   0.733
 7468SOL     OW23302   5.358   2.590   2.260
 7468SOL    HW123303   5.396   2.613   2.349
 7468SOL    HW223304   5.431   2.565   2.197
 7469SOL     OW23305   0.605   0.301   0.638
 7469SOL    HW123306   0.679   0.244   0.675
 7469SOL    HW223307   0.517   0.261   0.663
 7470SOL     OW23308   0.143   3.203   3.672
 7470SOL    HW123309   0.241   3.189   3.662
 7470SOL    HW223310   0.095   3.117   3.653
 7471SOL     OW23311   5.993   6.938   4.951
 7471SOL    HW123312   6.028   6.926   4.858
 7471SOL    HW223313   5.893   6.929   4.950
 7472SOL     OW23314   5.691   6.682   4.224
 7472SOL    HW123315   5.779   6.638   4.239
 7472SOL    HW223316   5.669   6.742   4.301
 7473SOL     OW23317   0.625   4.255   3.086
 7473SOL    HW123318   0.605   4.179   3.148
 7473SOL    HW223319   0.718   4.287   3.101
 7474SOL     OW23320   2.188   0.804   5.223
 7474SOL    HW123321   2.094   0.783   5.250
 7474SOL    HW223322   2.189   0.849   5.134
 7475SOL     OW23323   3.707   1.572   2.299
 7475SOL    HW123324   3.760   1.544   2.380
 7475SOL    HW223325   3.658   1.657   2.319
 7476SOL     OW23326   3.406   6.306   4.059
 7476SOL    HW123327   3.476   6.345   4.119
 7476SOL    HW223328   3.432   6.319   3.964
 7477SOL     OW23329   5.626   1.902   3.834
 7477SOL    HW123330   5.526   1.906   3.837
 7477SOL    HW223331   5.663   1.994   3.849
 7478SOL     OW23332   4.151   4.337   6.016
 7478SOL    HW123333   4.211   4.417   6.029
 7478SOL    HW223334   4.175   4.292   5.930
 7479SOL     OW23335   4.273   2.884   0.732
 7479SOL    HW123336   4.184   2.854   0.697
 7479SOL    HW223337   4.345   2.858   0.666
 7480SOL     OW23338   6.046   4.663   1.773
 7480SOL    HW123339   6.111   4.663   1.697
 7480SOL    HW223340   6.043   4.571   1.813
 7481SOL     OW23341   5.960   5.572   1.560
 7481SOL    HW123342   5.966   5.670   1.547
 7481SOL    HW223343   5.904   5.552   1.640
 7482SOL     OW23344   4.920   1.690   2.685
 7482SOL    HW123345   4.958   1.713   2.596
 7482SOL    HW223346   4.822   1.709   2.685
 7483SOL     OW23347   4.572   2.270   5.140
 7483SOL    HW123348   4.615   2.242   5.226
 7483SOL    HW223349   4.566   2.369   5.137
 7484SOL     OW23350   0.147   7.006   2.684
 7484SOL    HW123351   0.058   0.021   2.716
 7484SOL    HW223352   0.147   6.906   2.683
 7485SOL     OW23353   3.428   6.140   5.160
 7485SOL    HW123354   3.378   6.171   5.241
 7485SOL    HW223355   3.524   6.166   5.169
 7486SOL     OW23356   2.707   0.753   6.058
 7486SOL    HW123357   2.767   0.693   6.111
 7486SOL    HW223358   2.615   0.714   6.054
 7487SOL     OW23359   2.447   6.581   2.325
 7487SOL    HW123360   2.401   6.503   2.368
 7487SOL    HW223361   2.543   6.583   2.353
 7488SOL     OW23362   2.090   6.729   5.260
 7488SOL    HW123363   2.144   6.778   5.191
 7488SOL    HW223364   1.994   6.754   5.251
 7489SOL     OW23365   5.600   2.162   5.145
 7489SOL    HW123366   5.588   2.120   5.055
 7489SOL    HW223367   5.514   2.205   5.173
 7490SOL     OW23368   1.017   1.491   1.262
 7490SOL    HW123369   0.960   1.468   1.183
 7490SOL    HW223370   1.013   1.417   1.329
 7491SOL     OW23371   0.230   4.129   6.615
 7491SOL    HW123372   0.173   4.070   6.557
 7491SOL    HW223373   0.260   4.209   6.563
 7492SOL     OW23374   2.727   1.300   4.742
 7492SOL    HW123375   2.799   1.369   4.744
 7492SOL    HW223376   2.767   1.209   4.746
 7493SOL     OW23377   6.718   4.445   6.632
 7493SOL    HW123378   6.679   4.353   6.632
 7493SOL    HW223379   6.703   4.487   6.543
 7494SOL     OW23380   5.896   1.098   2.429
 7494SOL    HW123381   5.939   1.012   2.404
 7494SOL    HW223382   5.848   1.136   2.350
 7495SOL     OW23383   2.515   1.007   1.353
 7495SOL    HW123384   2.524   1.001   1.253
 7495SOL    HW223385   2.597   1.048   1.392
 7496SOL     OW23386   0.826   3.335   6.099
 7496SOL    HW123387   0.917   3.333   6.141
 7496SOL    HW223388   0.762   3.381   6.160
 7497SOL     OW23389   2.478   5.095   0.943
 7497SOL    HW123390   2.532   5.047   1.013
 7497SOL    HW223391   2.382   5.092   0.968
 7498SOL     OW23392   1.915   0.711   4.536
 7498SOL    HW123393   1.847   0.672   4.598
 7498SOL    HW223394   1.873   0.785   4.483
 7499SOL     OW23395   5.960   1.228   3.302
 7499SOL    HW123396   5.955   1.219   3.402
 7499SOL    HW223397   5.870   1.210   3.263
 7500SOL     OW23398   3.856   6.247   3.591
 7500SOL    HW123399   3.788   6.192   3.640
 7500SOL    HW223400   3.946   6.234   3.632
 7501SOL     OW23401   6.396   4.121   4.162
 7501SOL    HW123402   6.412   4.137   4.259
 7501SOL    HW223403   6.378   4.208   4.116
 7502SOL     OW23404   1.129   0.937   5.271
 7502SOL    HW123405   1.135   0.944   5.172
 7502SOL    HW223406   1.039   0.969   5.301
 7503SOL     OW23407   1.854   1.448   0.181
 7503SOL    HW123408   1.829   1.352   0.168
 7503SOL    HW223409   1.799   1.504   0.119
 7504SOL     OW23410   3.027   0.419   3.923
 7504SOL    HW123411   3.093   0.488   3.953
 7504SOL    HW223412   2.965   0.459   3.857
 7505SOL     OW23413   1.870   0.710   5.563
 7505SOL    HW123414   1.810   0.664   5.497
 7505SOL    HW223415   1.865   0.809   5.549
 7506SOL     OW23416   4.209   0.257   3.095
 7506SOL    HW123417   4.144   0.182   3.083
 7506SOL    HW223418   4.301   0.220   3.109
 7507SOL     OW23419   0.189   0.552   1.219
 7507SOL    HW123420   0.142   0.490   1.156
 7507SOL    HW223421   0.283   0.519   1.235
 7508SOL     OW23422   5.920   0.058   2.201
 7508SOL    HW123423   5.849   0.126   2.219
 7508SOL    HW223424   5.931   0.047   2.102
 7509SOL     OW23425   5.611   3.799   0.991
 7509SOL    HW123426   5.668   3.870   0.949
 7509SOL    HW223427   5.668   3.741   1.049
 7510SOL     OW23428   2.801   4.222   5.379
 7510SOL    HW123429   2.784   4.136   5.331
 7510SOL    HW223430   2.734   4.290   5.351
 7511SOL     OW23431   1.272   0.136   3.648
 7511SOL    HW123432   1.285   0.074   3.725
 7511SOL    HW223433   1.238   0.224   3.682
 7512SOL     OW23434   3.640   4.351   1.173
 7512SOL    HW123435   3.739   4.358   1.172
 7512SOL    HW223436   3.602   4.406   1.099
 7513SOL     OW23437   1.820   1.658   1.811
 7513SOL    HW123438   1.860   1.702   1.891
 7513SOL    HW223439   1.751   1.718   1.770
 7514SOL     OW23440   2.682   5.315   2.688
 7514SOL    HW123441   2.626   5.393   2.714
 7514SOL    HW223442   2.667   5.239   2.751
 7515SOL     OW23443   1.499   6.150   2.143
 7515SOL    HW123444   1.532   6.213   2.214
 7515SOL    HW223445   1.511   6.056   2.174
 7516SOL     OW23446   0.073   5.929   4.223
 7516SOL    HW123447   0.145   5.978   4.175
 7516SOL    HW223448   7.002   5.952   4.182
 7517SOL     OW23449   6.792   3.111   1.412
 7517SOL    HW123450   6.751   3.180   1.352
 7517SOL    HW223451   6.835   3.040   1.357
 7518SOL     OW23452   3.866   5.535   3.581
 7518SOL    HW123453   3.816   5.622   3.579
 7518SOL    HW223454   3.810   5.466   3.626
 7519SOL     OW23455   0.259   6.612   3.649
 7519SOL    HW123456   0.262   6.710   3.669
 7519SOL    HW223457   0.174   6.573   3.685
 7520SOL     OW23458   3.555   6.836   1.923
 7520SOL    HW123459   3.533   6.752   1.973
 7520SOL    HW223460   3.616   6.893   1.978
 7521SOL     OW23461   4.343   4.721   6.173
 7521SOL    HW123462   4.278   4.772   6.116
 7521SOL    HW223463   4.330   4.623   6.160
 7522SOL     OW23464   2.574   0.378   6.681
 7522SOL    HW123465   2.487   0.329   6.671
 7522SOL    HW223466   2.578   0.453   6.615
 7523SOL     OW23467   5.448   0.356   5.935
 7523SOL    HW123468   5.378   0.360   5.864
 7523SOL    HW223469   5.478   0.449   5.958
 7524SOL     OW23470   1.267   1.980   6.735
 7524SOL    HW123471   1.195   2.027   6.786
 7524SOL    HW223472   1.290   2.034   6.654
 7525SOL     OW23473   2.523   6.721   0.239
 7525SOL    HW123474   2.599   6.664   0.212
 7525SOL    HW223475   2.462   6.670   0.300
 7526SOL     OW23476   3.578   3.068   2.579
 7526SOL    HW123477   3.583   3.107   2.487
 7526SOL    HW223478   3.493   3.097   2.623
 7527SOL     OW23479   3.910   5.620   3.290
 7527SOL    HW123480   3.866   5.660   3.210
 7527SOL    HW223481   3.845   5.616   3.366
 7528SOL     OW23482   3.685   2.074   6.479
 7528SOL    HW123483   3.636   2.139   6.421
 7528SOL    HW223484   3.667   2.095   6.575
 7529SOL     OW23485   5.613   0.615   4.306
 7529SOL    HW123486   5.594   0.519   4.285
 7529SOL    HW223487   5.528   0.664   4.321
 7530SOL     OW23488   6.344   4.250   2.576
 7530SOL    HW123489   6.269   4.313   2.557
 7530SOL    HW223490   6.331   4.166   2.524
 7531SOL     OW23491   4.700   2.468   4.083
 7531SOL    HW123492   4.727   2.536   4.014
 7531SOL    HW223493   4.607   2.488   4.115
 7532SOL     OW23494   5.656   5.752   1.271
 7532SOL    HW123495   5.677   5.842   1.309
 7532SOL    HW223496   5.557   5.738   1.271
 7533SOL     OW23497   2.515   0.729   2.925
 7533SOL    HW123498   2.611   0.755   2.936
 7533SOL    HW223499   2.493   0.725   2.827
 7534SOL     OW23500   3.462   6.655   5.463
 7534SOL    HW123501   3.548   6.687   5.425
 7534SOL    HW223502   3.404   6.620   5.390
 7535SOL     OW23503   2.737   0.932   5.679
 7535SOL    HW123504   2.830   0.895   5.669
 7535SOL    HW223505   2.686   0.916   5.595
 7536SOL     OW23506   5.507   5.083   4.766
 7536SOL    HW123507   5.494   5.166   4.712
 7536SOL    HW223508   5.598   5.084   4.808
 7537SOL     OW23509   2.703   5.283   4.750
 7537SOL    HW123510   2.716   5.341   4.831
 7537SOL    HW223511   2.618   5.308   4.704
 7538SOL     OW23512   3.508   2.861   1.546
 7538SOL    HW123513   3.494   2.960   1.545
 7538SOL    HW223514   3.525   2.830   1.639
 7539SOL     OW23515   2.295   2.458   4.114
 7539SOL    HW123516   2.272   2.380   4.172
 7539SOL    HW223517   2.393   2.474   4.116
 7540SOL     OW23518   2.499   0.456   5.512
 7540SOL    HW123519   2.441   0.479   5.434
 7540SOL    HW223520   2.584   0.510   5.508
 7541SOL     OW23521   6.867   3.607   4.402
 7541SOL    HW123522   6.831   3.559   4.482
 7541SOL    HW223523   6.903   3.696   4.431
 7542SOL     OW23524   0.892   5.722   6.978
 7542SOL    HW123525   0.851   5.686   6.894
 7542SOL    HW223526   0.844   5.684   0.039
 7543SOL     OW23527   4.186   2.339   0.828
 7543SOL    HW123528   4.151   2.278   0.757
 7543SOL    HW223529   4.134   2.326   0.912
 7544SOL     OW23530   0.195   2.322   3.769
 7544SOL    HW123531   0.124   2.368   3.822
 7544SOL    HW223532   0.202   2.365   3.679
 7545SOL     OW23533   5.832   6.677   2.992
 7545SOL    HW123534   5.833   6.695   2.894
 7545SOL    HW223535   5.920   6.702   3.032
 7546SOL     OW23536   4.310   0.856   1.766
 7546SOL    HW123537   4.344   0.820   1.853
 7546SOL    HW223538   4.259   0.941   1.783
 7547SOL     OW23539   4.804   0.345   0.824
 7547SOL    HW123540   4.899   0.334   0.794
 7547SOL    HW223541   4.775   0.439   0.811
 7548SOL     OW23542   2.829   2.277   0.184
 7548SOL    HW123543   2.732   2.251   0.183
 7548SOL    HW223544   2.868   2.262   0.094
 7549SOL     OW23545   5.523   1.662   1.556
 7549SOL    HW123546   5.518   1.681   1.458
 7549SOL    HW223547   5.568   1.739   1.603
 7550SOL     OW23548   2.157   4.757   1.751
 7550SOL    HW123549   2.195   4.741   1.659
 7550SOL    HW223550   2.159   4.671   1.802
 7551SOL     OW23551   4.639   3.783   6.699
 7551SOL    HW123552   4.698   3.779   6.780
 7551SOL    HW223553   4.578   3.703   6.698
 7552SOL     OW23554   2.043   5.445   3.907
 7552SOL    HW123555   2.140   5.450   3.884
 7552SOL    HW223556   2.032   5.416   4.002
 7553SOL     OW23557   4.423   5.159   5.487
 7553SOL    HW123558   4.338   5.148   5.435
 7553SOL    HW223559   4.406   5.144   5.584
 7554SOL     OW23560   5.051   0.317   0.699
 7554SOL    HW123561   5.137   0.329   0.748
 7554SOL    HW223562   5.060   0.243   0.632
 7555SOL     OW23563   1.869   5.029   4.954
 7555SOL    HW123564   1.889   5.067   4.864
 7555SOL    HW223565   1.955   5.018   5.005
 7556SOL     OW23566   0.379   2.382   5.640
 7556SOL    HW123567   0.398   2.388   5.542
 7556SOL    HW223568   0.390   2.288   5.671
 7557SOL     OW23569   5.155   2.898   6.138
 7557SOL    HW123570   5.109   2.901   6.226
 7557SOL    HW223571   5.123   2.820   6.084
 7558SOL     OW23572   2.559   2.460   3.347
 7558SOL    HW123573   2.496   2.383   3.360
 7558SOL    HW223574   2.538   2.507   3.262
 7559SOL     OW23575   6.096   5.792   0.437
 7559SOL    HW123576   6.193   5.802   0.413
 7559SOL    HW223577   6.042   5.855   0.382
 7560SOL     OW23578   5.311   5.908   0.372
 7560SOL    HW123579   5.252   5.960   0.433
 7560SOL    HW223580   5.313   5.951   0.282
 7561SOL     OW23581   0.841   3.190   0.544
 7561SOL    HW123582   0.823   3.267   0.483
 7561SOL    HW223583   0.900   3.220   0.619
 7562SOL     OW23584   5.559   6.509   4.891
 7562SOL    HW123585   5.553   6.413   4.863
 7562SOL    HW223586   5.591   6.514   4.986
 7563SOL     OW23587   2.658   6.526   1.042
 7563SOL    HW123588   2.587   6.480   1.096
 7563SOL    HW223589   2.730   6.558   1.103
 7564SOL     OW23590   5.541   1.443   2.603
 7564SOL    HW123591   5.501   1.506   2.536
 7564SOL    HW223592   5.566   1.495   2.685
 7565SOL     OW23593   5.141   4.622   0.243
 7565SOL    HW123594   5.058   4.667   0.210
 7565SOL    HW223595   5.117   4.536   0.287
 7566SOL     OW23596   0.418   5.385   3.206
 7566SOL    HW123597   0.324   5.371   3.175
 7566SOL    HW223598   0.476   5.312   3.171
 7567SOL     OW23599   1.948   2.470   4.796
 7567SOL    HW123600   1.958   2.531   4.717
 7567SOL    HW223601   2.000   2.507   4.873
 7568SOL     OW23602   5.989   6.422   3.234
 7568SOL    HW123603   5.901   6.407   3.188
 7568SOL    HW223604   5.974   6.476   3.317
 7569SOL     OW23605   4.040   4.946   6.568
 7569SOL    HW123606   3.990   4.879   6.513
 7569SOL    HW223607   3.998   4.954   6.658
 7570SOL     OW23608   5.464   4.529   5.256
 7570SOL    HW123609   5.539   4.464   5.251
 7570SOL    HW223610   5.379   4.485   5.228
 7571SOL     OW23611   5.125   5.014   2.316
 7571SOL    HW123612   5.104   5.001   2.413
 7571SOL    HW223613   5.203   4.957   2.290
 7572SOL     OW23614   4.998   0.498   3.341
 7572SOL    HW123615   4.957   0.426   3.284
 7572SOL    HW223616   5.081   0.463   3.384
 7573SOL     OW23617   6.004   6.392   4.419
 7573SOL    HW123618   6.092   6.360   4.383
 7573SOL    HW223619   6.000   6.374   4.518
 7574SOL     OW23620   6.776   1.019   4.707
 7574SOL    HW123621   6.755   0.984   4.615
 7574SOL    HW223622   6.865   0.983   4.737
 7575SOL     OW23623   4.261   6.913   5.878
 7575SOL    HW123624   4.176   6.862   5.881
 7575SOL    HW223625   4.307   6.908   5.967
 7576SOL     OW23626   6.209   5.504   6.836
 7576SOL    HW123627   6.134   5.452   6.796
 7576SOL    HW223628   6.174   5.588   6.878
 7577SOL     OW23629   6.771   6.723   5.747
 7577SOL    HW123630   6.684   6.771   5.734
 7577SOL    HW223631   6.809   6.697   5.658
 7578SOL     OW23632   2.469   6.190   3.123
 7578SOL    HW123633   2.370   6.178   3.128
 7578SOL    HW223634   2.489   6.280   3.085
 7579SOL     OW23635   5.082   2.145   2.244
 7579SOL    HW123636   5.025   2.140   2.162
 7579SOL    HW223637   5.098   2.241   2.268
 7580SOL     OW23638   1.024   3.861   4.222
 7580SOL    HW123639   1.101   3.849   4.159
 7580SOL    HW223640   1.059   3.875   4.314
 7581SOL     OW23641   5.387   0.322   1.300
 7581SOL    HW123642   5.344   0.254   1.240
 7581SOL    HW223643   5.321   0.394   1.321
 7582SOL     OW23644   3.176   1.301   0.539
 7582SOL    HW123645   3.144   1.358   0.615
 7582SOL    HW223646   3.105   1.298   0.468
 7583SOL     OW23647   6.225   2.692   1.498
 7583SOL    HW123648   6.141   2.639   1.482
 7583SOL    HW223649   6.228   2.722   1.593
 7584SOL     OW23650   3.005   6.593   0.584
 7584SOL    HW123651   2.945   6.641   0.648
 7584SOL    HW223652   3.010   6.496   0.609
 7585SOL     OW23653   1.778   3.286   6.286
 7585SOL    HW123654   1.752   3.359   6.223
 7585SOL    HW223655   1.872   3.256   6.265
 7586SOL     OW23656   3.721   0.743   3.385
 7586SOL    HW123657   3.668   0.700   3.458
 7586SOL    HW223658   3.678   0.830   3.359
 7587SOL     OW23659   3.099   1.279   6.702
 7587SOL    HW123660   3.011   1.327   6.702
 7587SOL    HW223661   3.132   1.270   6.608
 7588SOL     OW23662   1.380   3.410   2.345
 7588SOL    HW123663   1.333   3.357   2.274
 7588SOL    HW223664   1.376   3.507   2.321
 7589SOL     OW23665   6.616   6.868   1.018
 7589SOL    HW123666   6.548   6.813   1.066
 7589SOL    HW223667   6.654   6.816   0.941
 7590SOL     OW23668   3.183   2.044   6.656
 7590SOL    HW123669   3.158   2.135   6.689
 7590SOL    HW223670   3.101   1.990   6.641
 7591SOL     OW23671   6.842   4.686   0.508
 7591SOL    HW123672   6.850   4.690   0.408
 7591SOL    HW223673   6.749   4.660   0.533
 7592SOL     OW23674   6.770   4.205   6.313
 7592SOL    HW123675   6.700   4.221   6.383
 7592SOL    HW223676   6.853   4.254   6.337
 7593SOL     OW23677   5.546   2.573   0.927
 7593SOL    HW123678   5.505   2.612   0.845
 7593SOL    HW223679   5.570   2.647   0.991
 7594SOL     OW23680   0.154   4.728   2.396
 7594SOL    HW123681   0.081   4.784   2.357
 7594SOL    HW223682   0.214   4.786   2.451
 7595SOL     OW23683   6.725   2.382   5.910
 7595SOL    HW123684   6.810   2.434   5.905
 7595SOL    HW223685   6.648   2.445   5.900
 7596SOL     OW23686   4.076   5.438   3.108
 7596SOL    HW123687   4.012   5.364   3.087
 7596SOL    HW223688   4.032   5.504   3.168
 7597SOL     OW23689   2.505   5.876   2.159
 7597SOL    HW123690   2.601   5.860   2.138
 7597SOL    HW223691   2.488   5.975   2.165
 7598SOL     OW23692   0.040   1.577   2.922
 7598SOL    HW123693   6.980   1.640   2.925
 7598SOL    HW223694   0.107   1.605   2.990
 7599SOL     OW23695   5.655   1.721   3.079
 7599SOL    HW123696   5.563   1.749   3.107
 7599SOL    HW223697   5.722   1.787   3.114
 7600SOL     OW23698   1.722   1.154   2.273
 7600SOL    HW123699   1.727   1.055   2.262
 7600SOL    HW223700   1.778   1.198   2.203
 7601SOL     OW23701   1.894   5.823   2.742
 7601SOL    HW123702   1.993   5.808   2.743
 7601SOL    HW223703   1.849   5.742   2.705
 7602SOL     OW23704   1.362   4.165   6.445
 7602SOL    HW123705   1.398   4.251   6.410
 7602SOL    HW223706   1.308   4.182   6.528
 7603SOL     OW23707   1.138   5.259   5.923
 7603SOL    HW123708   1.142   5.234   5.827
 7603SOL    HW223709   1.052   5.306   5.943
 7604SOL     OW23710   2.025   4.102   4.288
 7604SOL    HW123711   2.033   4.159   4.370
 7604SOL    HW223712   2.109   4.051   4.275
 7605SOL     OW23713   0.535   6.686   0.583
 7605SOL    HW123714   0.560   6.600   0.628
 7605SOL    HW223715   0.608   6.753   0.595
 7606SOL     OW23716   6.755   3.095   3.910
 7606SOL    HW123717   6.697   3.020   3.943
 7606SOL    HW223718   6.717   3.131   3.825
 7607SOL     OW23719   4.547   5.689   0.516
 7607SOL    HW123720   4.529   5.614   0.579
 7607SOL    HW223721   4.475   5.758   0.524
 7608SOL     OW23722   3.136   4.035   2.692
 7608SOL    HW123723   3.131   4.133   2.671
 7608SOL    HW223724   3.120   4.020   2.789
 7609SOL     OW23725   0.265   4.033   3.911
 7609SOL    HW123726   0.328   4.103   3.941
 7609SOL    HW223727   0.182   4.035   3.967
 7610SOL     OW23728   5.960   0.047   6.630
 7610SOL    HW123729   5.992   7.011   6.707
 7610SOL    HW223730   5.947   7.006   6.551
 7611SOL     OW23731   0.738   1.894   0.153
 7611SOL    HW123732   0.741   1.987   0.118
 7611SOL    HW223733   0.651   1.852   0.129
 7612SOL     OW23734   5.234   3.197   4.633
 7612SOL    HW123735   5.226   3.254   4.715
 7612SOL    HW223736   5.289   3.246   4.565
 7613SOL     OW23737   5.773   3.148   1.392
 7613SOL    HW123738   5.815   3.134   1.482
 7613SOL    HW223739   5.689   3.201   1.403
 7614SOL     OW23740   5.274   3.617   1.165
 7614SOL    HW123741   5.258   3.714   1.187
 7614SOL    HW223742   5.218   3.591   1.087
 7615SOL     OW23743   4.729   3.849   6.098
 7615SOL    HW123744   4.691   3.853   6.190
 7615SOL    HW223745   4.781   3.764   6.087
 7616SOL     OW23746   6.978   4.517   4.598
 7616SOL    HW123747   7.002   4.536   4.503
 7616SOL    HW223748   6.972   4.418   4.612
 7617SOL     OW23749   3.192   5.223   2.946
 7617SOL    HW123750   3.114   5.177   2.989
 7617SOL    HW223751   3.159   5.292   2.882
 7618SOL     OW23752   0.719   2.307   6.741
 7618SOL    HW123753   0.733   2.327   6.644
 7618SOL    HW223754   0.748   2.213   6.760
 7619SOL     OW23755   5.645   3.490   5.495
 7619SOL    HW123756   5.561   3.526   5.537
 7619SOL    HW223757   5.658   3.532   5.405
 7620SOL     OW23758   3.418   5.226   6.887
 7620SOL    HW123759   3.499   5.274   6.852
 7620SOL    HW223760   3.342   5.290   6.895
 7621SOL     OW23761   0.447   1.797   0.444
 7621SOL    HW123762   0.528   1.813   0.500
 7621SOL    HW223763   0.371   1.850   0.479
 7622SOL     OW23764   5.133   5.710   1.839
 7622SOL    HW123765   5.089   5.648   1.774
 7622SOL    HW223766   5.207   5.759   1.793
 7623SOL     OW23767   4.701   4.608   6.830
 7623SOL    HW123768   4.614   4.559   6.841
 7623SOL    HW223769   4.683   4.704   6.811
 7624SOL     OW23770   6.811   2.529   4.857
 7624SOL    HW123771   6.816   2.528   4.757
 7624SOL    HW223772   6.736   2.589   4.886
 7625SOL     OW23773   4.558   0.232   1.201
 7625SOL    HW123774   4.479   0.258   1.257
 7625SOL    HW223775   4.527   0.209   1.109
 7626SOL     OW23776   6.619   6.358   4.187
 7626SOL    HW123777   6.637   6.259   4.186
 7626SOL    HW223778   6.685   6.405   4.129
 7627SOL     OW23779   5.278   3.109   6.624
 7627SOL    HW123780   5.216   3.144   6.553
 7627SOL    HW223781   5.237   3.029   6.667
 7628SOL     OW23782   3.662   0.563   2.286
 7628SOL    HW123783   3.586   0.527   2.341
 7628SOL    HW223784   3.644   0.545   2.189
 7629SOL     OW23785   6.908   0.226   2.854
 7629SOL    HW123786   6.913   0.297   2.784
 7629SOL    HW223787   6.832   0.164   2.833
 7630SOL     OW23788   6.073   6.841   1.503
 7630SOL    HW123789   5.999   6.904   1.529
 7630SOL    HW223790   6.131   6.825   1.583
 7631SOL     OW23791   0.498   0.985   5.628
 7631SOL    HW123792   0.482   1.081   5.651
 7631SOL    HW223793   0.434   0.956   5.558
 7632SOL     OW23794   3.658   2.740   1.786
 7632SOL    HW123795   3.729   2.804   1.755
 7632SOL    HW223796   3.686   2.647   1.765
 7633SOL     OW23797   4.643   2.520   0.505
 7633SOL    HW123798   4.572   2.511   0.575
 7633SOL    HW223799   4.604   2.563   0.423
 7634SOL     OW23800   0.603   1.752   2.335
 7634SOL    HW123801   0.630   1.823   2.270
 7634SOL    HW223802   0.561   1.794   2.415
 7635SOL     OW23803   2.736   6.090   5.210
 7635SOL    HW123804   2.772   6.167   5.157
 7635SOL    HW223805   2.714   6.121   5.303
 7636SOL     OW23806   1.744   2.193   3.587
 7636SOL    HW123807   1.682   2.194   3.509
 7636SOL    HW223808   1.691   2.197   3.672
 7637SOL     OW23809   2.582   6.445   2.978
 7637SOL    HW123810   2.576   6.530   2.925
 7637SOL    HW223811   2.671   6.440   3.023
 7638SOL     OW23812   3.942   5.953   1.766
 7638SOL    HW123813   3.876   6.015   1.723
 7638SOL    HW223814   4.017   6.007   1.805
 7639SOL     OW23815   1.526   2.033   0.663
 7639SOL    HW123816   1.479   1.955   0.620
 7639SOL    HW223817   1.605   1.999   0.715
 7640SOL     OW23818   3.278   1.882   0.272
 7640SOL    HW123819   3.316   1.839   0.191
 7640SOL    HW223820   3.183   1.852   0.284
 7641SOL     OW23821   1.060   4.116   1.782
 7641SOL    HW123822   1.002   4.049   1.736
 7641SOL    HW223823   1.156   4.092   1.769
 7642SOL     OW23824   2.614   1.446   1.808
 7642SOL    HW123825   2.696   1.447   1.751
 7642SOL    HW223826   2.545   1.505   1.767
 7643SOL     OW23827   4.742   2.828   4.213
 7643SOL    HW123828   4.689   2.807   4.131
 7643SOL    HW223829   4.797   2.910   4.196
 7644SOL     OW23830   5.832   2.375   2.091
 7644SOL    HW123831   5.882   2.421   2.164
 7644SOL    HW223832   5.870   2.401   2.002
 7645SOL     OW23833   4.226   4.001   5.557
 7645SOL    HW123834   4.127   4.009   5.543
 7645SOL    HW223835   4.251   3.904   5.560
 7646SOL     OW23836   2.370   2.591   2.495
 7646SOL    HW123837   2.319   2.619   2.414
 7646SOL    HW223838   2.323   2.515   2.540
 7647SOL     OW23839   0.365   3.412   2.310
 7647SOL    HW123840   0.337   3.326   2.353
 7647SOL    HW223841   0.345   3.408   2.212
 7648SOL     OW23842   3.565   1.559   3.723
 7648SOL    HW123843   3.519   1.628   3.668
 7648SOL    HW223844   3.664   1.576   3.722
 7649SOL     OW23845   0.992   1.174   2.659
 7649SOL    HW123846   1.021   1.080   2.647
 7649SOL    HW223847   1.070   1.235   2.650
 7650SOL     OW23848   5.186   2.687   1.464
 7650SOL    HW123849   5.239   2.744   1.527
 7650SOL    HW223850   5.224   2.695   1.372
 7651SOL     OW23851   2.464   6.632   5.277
 7651SOL    HW123852   2.511   6.702   5.224
 7651SOL    HW223853   2.442   6.668   5.368
 7652SOL     OW23854   6.736   4.098   4.659
 7652SOL    HW123855   6.789   4.014   4.644
 7652SOL    HW223856   6.646   4.088   4.618
 7653SOL     OW23857   2.981   1.343   0.327
 7653SOL    HW123858   2.882   1.328   0.319
 7653SOL    HW223859   3.006   1.426   0.277
 7654SOL     OW23860   5.452   3.463   4.052
 7654SOL    HW123861   5.472   3.440   3.957
 7654SOL    HW223862   5.358   3.496   4.059
 7655SOL     OW23863   3.560   0.416   3.417
 7655SOL    HW123864   3.495   0.491   3.431
 7655SOL    HW223865   3.567   0.396   3.319
 7656SOL     OW23866   1.900   4.823   6.271
 7656SOL    HW123867   1.931   4.783   6.185
 7656SOL    HW223868   1.978   4.839   6.331
 7657SOL     OW23869   2.764   2.345   3.551
 7657SOL    HW123870   2.694   2.386   3.492
 7657SOL    HW223871   2.751   2.376   3.645
 7658SOL     OW23872   3.680   0.096   5.738
 7658SOL    HW123873   3.676   0.043   5.822
 7658SOL    HW223874   3.647   0.188   5.754
 7659SOL     OW23875   5.894   5.636   6.641
 7659SOL    HW123876   5.810   5.664   6.596
 7659SOL    HW223877   5.885   5.647   6.740
 7660SOL     OW23878   0.046   6.340   4.093
 7660SOL    HW123879   0.038   6.369   4.188
 7660SOL    HW223880   0.142   6.319   4.073
 7661SOL     OW23881   5.260   2.496   4.744
 7661SOL    HW123882   5.332   2.466   4.681
 7661SOL    HW223883   5.250   2.595   4.740
 7662SOL     OW23884   0.750   2.439   2.350
 7662SOL    HW123885   0.702   2.513   2.302
 7662SOL    HW223886   0.796   2.476   2.430
 7663SOL     OW23887   0.605   6.741   6.054
 7663SOL    HW123888   0.689   6.765   6.103
 7663SOL    HW223889   0.541   6.696   6.118
 7664SOL     OW23890   3.968   0.299   2.603
 7664SOL    HW123891   4.067   0.300   2.614
 7664SOL    HW223892   3.943   0.247   2.521
 7665SOL     OW23893   4.667   6.828   5.165
 7665SOL    HW123894   4.625   6.911   5.129
 7665SOL    HW223895   4.755   6.813   5.121
 7666SOL     OW23896   0.868   6.521   1.845
 7666SOL    HW123897   0.794   6.586   1.860
 7666SOL    HW223898   0.949   6.570   1.813
 7667SOL     OW23899   4.536   6.305   1.971
 7667SOL    HW123900   4.565   6.401   1.972
 7667SOL    HW223901   4.438   6.299   1.989
 7668SOL     OW23902   3.543   4.098   1.161
 7668SOL    HW123903   3.476   4.043   1.211
 7668SOL    HW223904   3.555   4.186   1.208
 7669SOL     OW23905   5.587   1.570   6.051
 7669SOL    HW123906   5.518   1.612   5.992
 7669SOL    HW223907   5.598   1.624   6.134
 7670SOL     OW23908   0.635   4.575   6.407
 7670SOL    HW123909   0.571   4.523   6.350
 7670SOL    HW223910   0.708   4.612   6.350
 7671SOL     OW23911   4.275   0.576   4.313
 7671SOL    HW123912   4.284   0.488   4.361
 7671SOL    HW223913   4.366   0.614   4.298
 7672SOL     OW23914   5.992   6.825   3.444
 7672SOL    HW123915   5.928   6.836   3.368
 7672SOL    HW223916   5.988   6.731   3.477
 7673SOL     OW23917   2.016   5.092   6.912
 7673SOL    HW123918   1.980   5.029   6.982
 7673SOL    HW223919   2.040   5.040   6.830
 7674SOL     OW23920   6.128   2.227   3.568
 7674SOL    HW123921   6.048   2.274   3.604
 7674SOL    HW223922   6.206   2.291   3.566
 7675SOL     OW23923   5.186   6.720   2.786
 7675SOL    HW123924   5.115   6.686   2.724
 7675SOL    HW223925   5.274   6.723   2.739
 7676SOL     OW23926   1.574   1.815   0.323
 7676SOL    HW123927   1.509   1.872   0.373
 7676SOL    HW223928   1.658   1.805   0.377
 7677SOL     OW23929   0.214   3.964   2.115
 7677SOL    HW123930   0.223   3.911   2.199
 7677SOL    HW223931   0.135   4.026   2.122
 7678SOL     OW23932   2.343   1.562   4.930
 7678SOL    HW123933   2.391   1.477   4.907
 7678SOL    HW223934   2.401   1.618   4.989
 7679SOL     OW23935   2.352   5.977   6.292
 7679SOL    HW123936   2.394   5.894   6.328
 7679SOL    HW223937   2.255   5.979   6.318
 7680SOL     OW23938   1.568   1.551   0.355
 7680SOL    HW123939   1.537   1.498   0.277
 7680SOL    HW223940   1.565   1.649   0.332
 7681SOL     OW23941   2.999   6.676   0.310
 7681SOL    HW123942   3.091   6.686   0.270
 7681SOL    HW223943   3.008   6.644   0.404
 7682SOL     OW23944   3.221   0.548   1.876
 7682SOL    HW123945   3.170   0.463   1.890
 7682SOL    HW223946   3.248   0.587   1.964
 7683SOL     OW23947   6.451   2.111   3.775
 7683SOL    HW123948   6.440   2.064   3.687
 7683SOL    HW223949   6.493   2.200   3.760
 7684SOL     OW23950   4.213   2.161   1.129
 7684SOL    HW123951   4.176   2.068   1.131
 7684SOL    HW223952   4.304   2.162   1.171
 7685SOL     OW23953   3.207   3.313   6.678
 7685SOL    HW123954   3.285   3.375   6.674
 7685SOL    HW223955   3.128   3.357   6.634
 7686SOL     OW23956   5.757   7.002   2.964
 7686SOL    HW123957   5.726   6.952   3.045
 7686SOL    HW223958   5.688   0.050   2.937
 7687SOL     OW23959   5.821   5.241   5.158
 7687SOL    HW123960   5.853   5.332   5.183
 7687SOL    HW223961   5.791   5.192   5.240
 7688SOL     OW23962   0.286   6.777   5.434
 7688SOL    HW123963   0.244   6.845   5.373
 7688SOL    HW223964   0.347   6.822   5.498
 7689SOL     OW23965   5.045   6.304   2.882
 7689SOL    HW123966   5.101   6.379   2.917
 7689SOL    HW223967   5.101   6.246   2.821
 7690SOL     OW23968   6.239   4.987   1.332
 7690SOL    HW123969   6.323   4.933   1.322
 7690SOL    HW223970   6.163   4.937   1.290
 7691SOL     OW23971   5.134   3.140   3.975
 7691SOL    HW123972   5.066   3.067   3.967
 7691SOL    HW223973   5.225   3.100   3.985
 7692SOL     OW23974   1.090   6.284   1.886
 7692SOL    HW123975   1.132   6.262   1.975
 7692SOL    HW223976   1.013   6.346   1.900
 7693SOL     OW23977   3.604   0.165   1.495
 7693SOL    HW123978   3.600   0.091   1.562
 7693SOL    HW223979   3.699   0.181   1.470
 7694SOL     OW23980   7.014   4.302   4.059
 7694SOL    HW123981   6.926   4.336   4.092
 7694SOL    HW223982   7.008   4.204   4.041
 7695SOL     OW23983   4.145   6.327   0.184
 7695SOL    HW123984   4.125   6.289   0.274
 7695SOL    HW223985   4.131   6.426   0.186
 7696SOL     OW23986   6.985   1.532   4.663
 7696SOL    HW123987   0.042   1.465   4.669
 7696SOL    HW223988   6.900   1.485   4.640
 7697SOL     OW23989   2.895   0.134   1.671
 7697SOL    HW123990   2.986   0.099   1.696
 7697SOL    HW223991   2.887   0.137   1.571
 7698SOL     OW23992   6.655   1.822   4.089
 7698SOL    HW123993   6.575   1.881   4.078
 7698SOL    HW223994   6.738   1.878   4.081
 7699SOL     OW23995   3.499   5.914   0.391
 7699SOL    HW123996   3.447   5.829   0.399
 7699SOL    HW223997   3.554   5.911   0.308
 7700SOL     OW23998   4.796   6.495   4.628
 7700SOL    HW123999   4.826   6.460   4.717
 7700SOL    HW224000   4.836   6.438   4.556
 7701SOL     OW24001   0.024   1.651   6.816
 7701SOL    HW124002   0.105   1.703   6.789
 7701SOL    HW224003   0.036   1.617   6.909
 7702SOL     OW24004   2.857   6.646   6.129
 7702SOL    HW124005   2.920   6.706   6.081
 7702SOL    HW224006   2.779   6.699   6.164
 7703SOL     OW24007   6.402   0.831   5.174
 7703SOL    HW124008   6.315   0.826   5.222
 7703SOL    HW224009   6.472   0.784   5.228
 7704SOL     OW24010   5.419   4.696   5.463
 7704SOL    HW124011   5.437   4.791   5.437
 7704SOL    HW224012   5.423   4.638   5.381
 7705SOL     OW24013   3.650   4.825   5.840
 7705SOL    HW124014   3.597   4.752   5.884
 7705SOL    HW224015   3.748   4.807   5.854
 7706SOL     OW24016   4.630   2.341   4.839
 7706SOL    HW124017   4.591   2.430   4.815
 7706SOL    HW224018   4.560   2.285   4.884
 7707SOL     OW24019   0.883   5.463   6.289
 7707SOL    HW124020   0.971   5.457   6.336
 7707SOL    HW224021   0.809   5.457   6.356
 7708SOL     OW24022   5.764   6.634   5.409
 7708SOL    HW124023   5.736   6.632   5.314
 7708SOL    HW224024   5.717   6.709   5.456
 7709SOL     OW24025   5.824   4.425   1.482
 7709SOL    HW124026   5.762   4.412   1.404
 7709SOL    HW224027   5.805   4.514   1.524
 7710SOL     OW24028   4.246   0.650   1.019
 7710SOL    HW124029   4.149   0.668   1.037
 7710SOL    HW224030   4.301   0.726   1.056
 7711SOL     OW24031   6.002   6.179   5.039
 7711SOL    HW124032   6.049   6.136   4.962
 7711SOL    HW224033   6.044   6.267   5.059
 7712SOL     OW24034   5.494   5.282   2.222
 7712SOL    HW124035   5.592   5.269   2.235
 7712SOL    HW224036   5.445   5.251   2.304
 7713SOL     OW24037   1.302   5.214   0.444
 7713SOL    HW124038   1.388   5.231   0.493
 7713SOL    HW224039   1.322   5.160   0.362
 7714SOL     OW24040   6.770   4.635   5.558
 7714SOL    HW124041   6.861   4.595   5.569
 7714SOL    HW224042   6.776   4.716   5.499
 7715SOL     OW24043   4.639   2.072   6.994
 7715SOL    HW124044   4.539   2.085   6.990
 7715SOL    HW224045   4.674   2.063   6.901
 7716SOL     OW24046   6.386   4.413   4.154
 7716SOL    HW124047   6.478   4.417   4.116
 7716SOL    HW224048   6.391   4.406   4.253
 7717SOL     OW24049   1.850   1.139   4.914
 7717SOL    HW124050   1.756   1.162   4.891
 7717SOL    HW224051   1.886   1.206   4.979
 7718SOL     OW24052   2.120   2.047   3.325
 7718SOL    HW124053   2.125   2.004   3.416
 7718SOL    HW224054   2.213   2.070   3.295
 7719SOL     OW24055   6.955   3.284   4.286
 7719SOL    HW124056   0.033   3.266   4.310
 7719SOL    HW224057   6.930   3.376   4.316
 7720SOL     OW24058   0.463   0.285   0.309
 7720SOL    HW124059   0.477   0.187   0.298
 7720SOL    HW224060   0.552   0.332   0.309
 7721SOL     OW24061   0.774   4.965   2.259
 7721SOL    HW124062   0.752   4.905   2.181
 7721SOL    HW224063   0.805   4.909   2.336
 7722SOL     OW24064   0.195   5.827   3.145
 7722SOL    HW124065   0.171   5.831   3.048
 7722SOL    HW224066   0.171   5.913   3.190
 7723SOL     OW24067   6.657   3.932   6.931
 7723SOL    HW124068   6.605   3.957   6.849
 7723SOL    HW224069   6.731   3.871   6.905
 7724SOL     OW24070   2.392   4.545   1.879
 7724SOL    HW124071   2.439   4.619   1.927
 7724SOL    HW224072   2.458   4.491   1.828
 7725SOL     OW24073   5.216   3.309   3.333
 7725SOL    HW124074   5.240   3.255   3.253
 7725SOL    HW224075   5.269   3.277   3.412
 7726SOL     OW24076   1.372   6.390   4.891
 7726SOL    HW124077   1.380   6.408   4.989
 7726SOL    HW224078   1.310   6.457   4.850
 7727SOL     OW24079   0.418   0.842   2.875
 7727SOL    HW124080   0.418   0.751   2.916
 7727SOL    HW224081   0.333   0.889   2.897
 7728SOL     OW24082   0.802   5.349   3.500
 7728SOL    HW124083   0.780   5.262   3.545
 7728SOL    HW224084   0.900   5.364   3.505
 7729SOL     OW24085   5.801   2.876   0.781
 7729SOL    HW124086   5.862   2.939   0.733
 7729SOL    HW224087   5.706   2.902   0.765
 7730SOL     OW24088   6.003   6.076   1.729
 7730SOL    HW124089   5.968   6.152   1.674
 7730SOL    HW224090   6.049   6.112   1.810
 7731SOL     OW24091   6.437   0.784   0.972
 7731SOL    HW124092   6.463   0.839   1.051
 7731SOL    HW224093   6.449   0.838   0.888
 7732SOL     OW24094   4.498   6.552   0.790
 7732SOL    HW124095   4.489   6.524   0.694
 7732SOL    HW224096   4.522   6.472   0.845
 7733SOL     OW24097   4.235   0.260   2.656
 7733SOL    HW124098   4.215   0.318   2.735
 7733SOL    HW224099   4.301   0.307   2.597
 7734SOL     OW24100   2.545   5.001   3.381
 7734SOL    HW124101   2.493   5.086   3.375
 7734SOL    HW224102   2.571   4.971   3.289
 7735SOL     OW24103   4.658   6.171   6.039
 7735SOL    HW124104   4.581   6.165   6.102
 7735SOL    HW224105   4.699   6.081   6.027
 7736SOL     OW24106   3.857   3.991   6.852
 7736SOL    HW124107   3.928   4.012   6.785
 7736SOL    HW224108   3.811   4.075   6.878
 7737SOL     OW24109   4.071   0.799   2.582
 7737SOL    HW124110   3.978   0.770   2.562
 7737SOL    HW224111   4.119   0.726   2.632
 7738SOL     OW24112   2.223   5.619   6.681
 7738SOL    HW124113   2.158   5.599   6.754
 7738SOL    HW224114   2.177   5.667   6.607
 7739SOL     OW24115   0.844   2.025   1.836
 7739SOL    HW124116   0.850   1.949   1.902
 7739SOL    HW224117   0.934   2.066   1.824
 7740SOL     OW24118   1.893   0.961   3.211
 7740SOL    HW124119   1.844   0.883   3.251
 7740SOL    HW224120   1.869   0.969   3.114
 7741SOL     OW24121   0.858   5.674   4.567
 7741SOL    HW124122   0.779   5.649   4.510
 7741SOL    HW224123   0.858   5.617   4.649
 7742SOL     OW24124   5.809   2.400   3.320
 7742SOL    HW124125   5.777   2.305   3.322
 7742SOL    HW224126   5.746   2.458   3.372
 7743SOL     OW24127   4.633   1.529   0.198
 7743SOL    HW124128   4.724   1.559   0.224
 7743SOL    HW224129   4.637   1.482   0.110
 7744SOL     OW24130   1.097   6.071   3.493
 7744SOL    HW124131   1.038   6.120   3.558
 7744SOL    HW224132   1.075   6.100   3.400
 7745SOL     OW24133   3.037   1.139   5.359
 7745SOL    HW124134   3.111   1.082   5.323
 7745SOL    HW224135   3.066   1.178   5.447
 7746SOL     OW24136   2.591   6.709   0.620
 7746SOL    HW124137   2.635   6.649   0.553
 7746SOL    HW224138   2.499   6.732   0.588
 7747SOL     OW24139   4.571   5.667   1.743
 7747SOL    HW124140   4.584   5.568   1.743
 7747SOL    HW224141   4.657   5.712   1.765
 7748SOL     OW24142   3.579   3.016   5.194
 7748SOL    HW124143   3.677   3.017   5.174
 7748SOL    HW224144   3.565   3.026   5.292
 7749SOL     OW24145   2.921   2.759   5.410
 7749SOL    HW124146   2.963   2.674   5.440
 7749SOL    HW224147   2.983   2.808   5.348
 7750SOL     OW24148   6.602   6.549   1.659
 7750SOL    HW124149   6.576   6.452   1.664
 7750SOL    HW224150   6.696   6.557   1.626
 7751SOL     OW24151   1.475   2.077   2.430
 7751SOL    HW124152   1.401   2.120   2.379
 7751SOL    HW224153   1.512   2.143   2.496
 7752SOL     OW24154   5.181   6.965   5.628
 7752SOL    HW124155   5.185   6.893   5.697
 7752SOL    HW224156   5.091   6.962   5.583
 7753SOL     OW24157   2.583   1.129   4.498
 7753SOL    HW124158   2.621   1.099   4.586
 7753SOL    HW224159   2.624   1.076   4.424
 7754SOL     OW24160   3.661   6.172   1.377
 7754SOL    HW124161   3.743   6.184   1.433
 7754SOL    HW224162   3.661   6.241   1.305
 7755SOL     OW24163   1.454   2.338   6.162
 7755SOL    HW124164   1.445   2.264   6.228
 7755SOL    HW224165   1.519   2.406   6.196
 7756SOL     OW24166   3.129   6.735   1.925
 7756SOL    HW124167   3.191   6.792   1.978
 7756SOL    HW224168   3.152   6.743   1.828
 7757SOL     OW24169   6.198   4.698   1.515
 7757SOL    HW124170   6.260   4.640   1.568
 7757SOL    HW224171   6.251   4.759   1.456
 7758SOL     OW24172   1.693   6.645   5.894
 7758SOL    HW124173   1.765   6.714   5.883
 7758SOL    HW224174   1.726   6.571   5.952
 7759SOL     OW24175   2.650   1.432   5.479
 7759SOL    HW124176   2.568   1.489   5.491
 7759SOL    HW224177   2.625   1.348   5.432
 7760SOL     OW24178   5.150   2.393   2.313
 7760SOL    HW124179   5.233   2.443   2.337
 7760SOL    HW224180   5.080   2.457   2.282
 7761SOL     OW24181   6.939   6.312   4.964
 7761SOL    HW124182   6.954   6.222   4.922
 7761SOL    HW224183   6.873   6.304   5.038
 7762SOL     OW24184   2.209   0.091   3.678
 7762SOL    HW124185   2.306   0.079   3.698
 7762SOL    HW224186   2.170   0.006   3.644
 7763SOL     OW24187   2.528   6.791   6.672
 7763SOL    HW124188   2.481   6.760   6.754
 7763SOL    HW224189   2.554   6.887   6.683
 7764SOL     OW24190   3.343   3.885   6.002
 7764SOL    HW124191   3.431   3.921   6.031
 7764SOL    HW224192   3.281   3.960   5.981
 7765SOL     OW24193   6.162   2.805   5.081
 7765SOL    HW124194   6.137   2.775   4.988
 7765SOL    HW224195   6.081   2.840   5.128
 7766SOL     OW24196   6.882   3.879   1.190
 7766SOL    HW124197   6.782   3.882   1.194
 7766SOL    HW224198   6.914   3.790   1.222
 7767SOL     OW24199   4.556   6.365   2.685
 7767SOL    HW124200   4.549   6.366   2.585
 7767SOL    HW224201   4.465   6.348   2.724
 7768SOL     OW24202   4.636   4.879   3.965
 7768SOL    HW124203   4.699   4.950   3.993
 7768SOL    HW224204   4.630   4.809   4.036
 7769SOL     OW24205   4.367   1.590   5.341
 7769SOL    HW124206   4.332   1.648   5.268
 7769SOL    HW224207   4.403   1.505   5.302
 7770SOL     OW24208   7.010   3.301   4.625
 7770SOL    HW124209   0.051   3.267   4.553
 7770SOL    HW224210   0.038   3.292   4.714
 7771SOL     OW24211   2.621   1.294   5.706
 7771SOL    HW124212   2.698   1.267   5.762
 7771SOL    HW224213   2.650   1.363   5.640
 7772SOL     OW24214   5.680   6.565   0.579
 7772SOL    HW124215   5.609   6.559   0.509
 7772SOL    HW224216   5.714   6.659   0.585
 7773SOL     OW24217   1.981   5.871   5.764
 7773SOL    HW124218   1.904   5.850   5.824
 7773SOL    HW224219   2.053   5.803   5.777
 7774SOL     OW24220   4.752   2.749   4.702
 7774SOL    HW124221   4.739   2.750   4.603
 7774SOL    HW224222   4.812   2.673   4.727
 7775SOL     OW24223   4.103   6.592   0.188
 7775SOL    HW124224   4.197   6.578   0.156
 7775SOL    HW224225   4.055   6.652   0.124
 7776SOL     OW24226   0.866   6.338   6.607
 7776SOL    HW124227   0.916   6.335   6.521
 7776SOL    HW224228   0.896   6.417   6.661
 7777SOL     OW24229   6.256   5.499   4.869
 7777SOL    HW124230   6.278   5.456   4.782
 7777SOL    HW224231   6.230   5.594   4.854
 7778SOL     OW24232   5.787   4.109   2.064
 7778SOL    HW124233   5.710   4.128   2.004
 7778SOL    HW224234   5.811   4.191   2.115
 7779SOL     OW24235   2.667   1.042   2.700
 7779SOL    HW124236   2.656   0.982   2.621
 7779SOL    HW224237   2.635   1.134   2.677
 7780SOL     OW24238   1.002   5.013   5.472
 7780SOL    HW124239   0.923   5.000   5.531
 7780SOL    HW224240   1.066   4.937   5.485
 7781SOL     OW24241   0.735   3.547   1.170
 7781SOL    HW124242   0.793   3.502   1.101
 7781SOL    HW224243   0.793   3.597   1.234
 7782SOL     OW24244   5.175   5.646   3.978
 7782SOL    HW124245   5.183   5.726   4.037
 7782SOL    HW224246   5.239   5.655   3.902
 7783SOL     OW24247   0.489   0.316   5.844
 7783SOL    HW124248   0.499   0.226   5.803
 7783SOL    HW224249   0.394   0.331   5.870
 7784SOL     OW24250   3.202   2.456   1.736
 7784SOL    HW124251   3.129   2.419   1.792
 7784SOL    HW224252   3.276   2.388   1.728
 7785SOL     OW24253   1.869   6.342   3.820
 7785SOL    HW124254   1.916   6.256   3.841
 7785SOL    HW224255   1.856   6.394   3.904
 7786SOL     OW24256   4.380   0.650   6.531
 7786SOL    HW124257   4.281   0.657   6.521
 7786SOL    HW224258   4.403   0.562   6.572
 7787SOL     OW24259   1.852   2.991   0.308
 7787SOL    HW124260   1.908   3.011   0.227
 7787SOL    HW224261   1.776   2.931   0.283
 7788SOL     OW24262   0.776   5.522   2.074
 7788SOL    HW124263   0.766   5.506   1.976
 7788SOL    HW224264   0.834   5.602   2.089
 7789SOL     OW24265   3.027   6.689   6.585
 7789SOL    HW124266   2.999   6.659   6.676
 7789SOL    HW224267   2.985   6.777   6.564
 7790SOL     OW24268   5.956   4.963   2.688
 7790SOL    HW124269   5.886   4.968   2.759
 7790SOL    HW224270   5.997   4.872   2.688
 7791SOL     OW24271   2.216   5.313   2.393
 7791SOL    HW124272   2.302   5.264   2.402
 7791SOL    HW224273   2.181   5.335   2.484
 7792SOL     OW24274   1.344   6.564   3.825
 7792SOL    HW124275   1.435   6.524   3.827
 7792SOL    HW224276   1.279   6.500   3.867
 7793SOL     OW24277   4.563   0.934   0.266
 7793SOL    HW124278   4.586   0.840   0.239
 7793SOL    HW224279   4.502   0.931   0.346
 7794SOL     OW24280   0.215   4.238   1.987
 7794SOL    HW124281   0.128   4.192   1.971
 7794SOL    HW224282   0.198   4.327   2.030
 7795SOL     OW24283   3.344   5.502   5.399
 7795SOL    HW124284   3.422   5.476   5.342
 7795SOL    HW224285   3.269   5.533   5.342
 7796SOL     OW24286   3.204   2.634   5.699
 7796SOL    HW124287   3.144   2.609   5.623
 7796SOL    HW224288   3.152   2.685   5.767
 7797SOL     OW24289   0.836   5.501   1.333
 7797SOL    HW124290   0.811   5.546   1.419
 7797SOL    HW224291   0.825   5.566   1.257
 7798SOL     OW24292   1.691   1.378   2.707
 7798SOL    HW124293   1.735   1.376   2.797
 7798SOL    HW224294   1.629   1.456   2.702
 7799SOL     OW24295   2.185   5.885   2.958
 7799SOL    HW124296   2.207   5.929   2.871
 7799SOL    HW224297   2.156   5.791   2.941
 7800SOL     OW24298   0.434   6.122   3.036
 7800SOL    HW124299   0.336   6.140   3.023
 7800SOL    HW224300   0.448   6.086   3.128
 7801SOL     OW24301   1.800   1.231   3.198
 7801SOL    HW124302   1.811   1.261   3.104
 7801SOL    HW224303   1.856   1.150   3.215
 7802SOL     OW24304   0.009   3.459   0.044
 7802SOL    HW124305   6.930   3.445   0.062
 7802SOL    HW224306   0.020   3.527   6.989
 7803SOL     OW24307   4.575   1.746   0.001
 7803SOL    HW124308   4.650   1.811   0.014
 7803SOL    HW224309   4.592   1.664   0.055
 7804SOL     OW24310   3.841   2.129   5.295
 7804SOL    HW124311   3.834   2.118   5.196
 7804SOL    HW224312   3.896   2.209   5.317
 7805SOL     OW24313   4.932   3.658   2.566
 7805SOL    HW124314   5.016   3.661   2.513
 7805SOL    HW224315   4.891   3.567   2.558
 7806SOL     OW24316   6.373   1.509   6.457
 7806SOL    HW124317   6.340   1.506   6.363
 7806SOL    HW224318   6.430   1.590   6.471
 7807SOL     OW24319   0.989   4.028   5.108
 7807SOL    HW124320   0.971   3.993   5.199
 7807SOL    HW224321   0.904   4.057   5.065
 7808SOL     OW24322   5.214   3.635   2.834
 7808SOL    HW124323   5.176   3.674   2.918
 7808SOL    HW224324   5.242   3.708   2.772
 7809SOL     OW24325   5.500   5.135   4.444
 7809SOL    HW124326   5.528   5.222   4.485
 7809SOL    HW224327   5.406   5.113   4.471
 7810SOL     OW24328   3.077   6.395   5.180
 7810SOL    HW124329   2.984   6.361   5.177
 7810SOL    HW224330   3.121   6.382   5.091
 7811SOL     OW24331   1.363   5.576   2.463
 7811SOL    HW124332   1.459   5.605   2.463
 7811SOL    HW224333   1.356   5.484   2.502
 7812SOL     OW24334   2.378   2.937   5.397
 7812SOL    HW124335   2.415   2.847   5.417
 7812SOL    HW224336   2.428   2.978   5.321
 7813SOL     OW24337   4.460   2.614   1.097
 7813SOL    HW124338   4.540   2.672   1.112
 7813SOL    HW224339   4.485   2.518   1.110
 7814SOL     OW24340   7.011   3.728   2.940
 7814SOL    HW124341   6.913   3.707   2.935
 7814SOL    HW224342   0.033   3.723   2.849
 7815SOL     OW24343   5.763   1.934   4.784
 7815SOL    HW124344   5.739   1.839   4.766
 7815SOL    HW224345   5.858   1.938   4.817
 7816SOL     OW24346   0.566   2.483   5.897
 7816SOL    HW124347   0.591   2.389   5.921
 7816SOL    HW224348   0.486   2.482   5.838
 7817SOL     OW24349   4.504   3.871   5.326
 7817SOL    HW124350   4.419   3.821   5.309
 7817SOL    HW224351   4.520   3.876   5.425
 7818SOL     OW24352   4.608   1.033   2.951
 7818SOL    HW124353   4.540   0.972   2.909
 7818SOL    HW224354   4.564   1.087   3.023
 7819SOL     OW24355   0.103   3.709   3.788
 7819SOL    HW124356   0.095   3.613   3.815
 7819SOL    HW224357   0.170   3.755   3.847
 7820SOL     OW24358   1.864   1.033   5.748
 7820SOL    HW124359   1.772   1.067   5.767
 7820SOL    HW224360   1.880   1.032   5.650
 7821SOL     OW24361   5.518   5.468   0.683
 7821SOL    HW124362   5.546   5.398   0.617
 7821SOL    HW224363   5.518   5.558   0.638
 7822SOL     OW24364   1.487   1.583   6.371
 7822SOL    HW124365   1.401   1.562   6.323
 7822SOL    HW224366   1.540   1.499   6.381
 7823SOL     OW24367   2.056   4.086   6.243
 7823SOL    HW124368   2.097   4.172   6.213
 7823SOL    HW224369   2.128   4.018   6.256
 7824SOL     OW24370   6.057   0.579   4.814
 7824SOL    HW124371   5.967   0.608   4.783
 7824SOL    HW224372   6.119   0.658   4.814
 7825SOL     OW24373   2.005   3.203   1.366
 7825SOL    HW124374   2.095   3.243   1.346
 7825SOL    HW224375   1.976   3.147   1.289
 7826SOL     OW24376   5.049   1.882   6.345
 7826SOL    HW124377   4.957   1.862   6.378
 7826SOL    HW224378   5.112   1.813   6.381
 7827SOL     OW24379   2.995   4.923   1.311
 7827SOL    HW124380   2.928   4.886   1.247
 7827SOL    HW224381   3.086   4.887   1.288
 7828SOL     OW24382   0.271   5.391   0.570
 7828SOL    HW124383   0.340   5.319   0.562
 7828SOL    HW224384   0.217   5.376   0.654
 7829SOL     OW24385   2.070   3.272   0.951
 7829SOL    HW124386   2.169   3.283   0.947
 7829SOL    HW224387   2.035   3.252   0.860
 7830SOL     OW24388   5.663   3.854   6.222
 7830SOL    HW124389   5.703   3.813   6.304
 7830SOL    HW224390   5.687   3.799   6.142
 7831SOL     OW24391   1.423   5.072   0.213
 7831SOL    HW124392   1.510   5.122   0.206
 7831SOL    HW224393   1.392   5.046   0.121
 7832SOL     OW24394   3.279   1.108   4.387
 7832SOL    HW124395   3.269   1.014   4.420
 7832SOL    HW224396   3.322   1.107   4.296
 7833SOL     OW24397   0.241   0.702   0.340
 7833SOL    HW124398   0.277   0.725   0.249
 7833SOL    HW224399   0.312   0.654   0.392
 7834SOL     OW24400   0.785   1.616   2.518
 7834SOL    HW124401   0.720   1.648   2.450
 7834SOL    HW224402   0.877   1.647   2.495
 7835SOL     OW24403   2.110   2.519   5.036
 7835SOL    HW124404   2.074   2.478   5.120
 7835SOL    HW224405   2.148   2.609   5.057
 7836SOL     OW24406   3.553   1.491   6.244
 7836SOL    HW124407   3.578   1.582   6.211
 7836SOL    HW224408   3.625   1.426   6.218
 7837SOL     OW24409   6.656   6.463   1.314
 7837SOL    HW124410   6.670   6.368   1.342
 7837SOL    HW224411   6.744   6.505   1.293
 7838SOL     OW24412   4.598   6.453   6.225
 7838SOL    HW124413   4.529   6.408   6.283
 7838SOL    HW224414   4.652   6.384   6.178
 7839SOL     OW24415   6.277   4.499   5.239
 7839SOL    HW124416   6.347   4.474   5.172
 7839SOL    HW224417   6.308   4.473   5.331
 7840SOL     OW24418   5.015   3.791   3.570
 7840SOL    HW124419   5.074   3.861   3.609
 7840SOL    HW224420   4.998   3.811   3.473
 7841SOL     OW24421   5.846   1.400   6.573
 7841SOL    HW124422   5.764   1.455   6.592
 7841SOL    HW224423   5.876   1.357   6.658
 7842SOL     OW24424   1.349   1.148   3.414
 7842SOL    HW124425   1.415   1.221   3.399
 7842SOL    HW224426   1.346   1.089   3.334
 7843SOL     OW24427   5.706   4.734   1.913
 7843SOL    HW124428   5.751   4.655   1.955
 7843SOL    HW224429   5.613   4.709   1.886
 7844SOL     OW24430   4.545   0.634   3.913
 7844SOL    HW124431   4.611   0.706   3.932
 7844SOL    HW224432   4.591   0.545   3.912
 7845SOL     OW24433   0.624   1.171   3.910
 7845SOL    HW124434   0.552   1.105   3.888
 7845SOL    HW224435   0.583   1.252   3.952
 7846SOL     OW24436   1.956   0.459   1.586
 7846SOL    HW124437   1.901   0.444   1.504
 7846SOL    HW224438   1.912   0.527   1.644
 7847SOL     OW24439   0.022   1.918   1.762
 7847SOL    HW124440   0.083   1.842   1.781
 7847SOL    HW224441   6.945   1.886   1.763
 7848SOL     OW24442   3.140   4.443   0.831
 7848SOL    HW124443   3.144   4.537   0.864
 7848SOL    HW224444   3.182   4.382   0.899
 7849SOL     OW24445   5.149   3.684   4.234
 7849SOL    HW124446   5.077   3.746   4.265
 7849SOL    HW224447   5.172   3.705   4.139
 7850SOL     OW24448   0.655   1.036   3.560
 7850SOL    HW124449   0.577   1.094   3.537
 7850SOL    HW224450   0.641   0.945   3.521
 7851SOL     OW24451   6.869   0.086   0.594
 7851SOL    HW124452   6.788   0.073   0.651
 7851SOL    HW224453   6.928   0.006   0.602
 7852SOL     OW24454   3.301   7.002   6.087
 7852SOL    HW124455   3.314   6.946   6.005
 7852SOL    HW224456   3.285   6.942   6.166
 7853SOL     OW24457   3.908   1.555   1.664
 7853SOL    HW124458   3.812   1.570   1.641
 7853SOL    HW224459   3.958   1.641   1.654
 7854SOL     OW24460   3.697   4.976   0.722
 7854SOL    HW124461   3.605   4.944   0.699
 7854SOL    HW224462   3.696   5.019   0.812
 7855SOL     OW24463   4.152   5.372   5.773
 7855SOL    HW124464   4.224   5.334   5.831
 7855SOL    HW224465   4.066   5.376   5.826
 7856SOL     OW24466   6.193   5.017   3.819
 7856SOL    HW124467   6.237   5.098   3.782
 7856SOL    HW224468   6.096   5.018   3.795
 7857SOL     OW24469   6.751   2.759   5.634
 7857SOL    HW124470   6.750   2.691   5.560
 7857SOL    HW224471   6.846   2.781   5.657
 7858SOL     OW24472   5.053   5.132   3.861
 7858SOL    HW124473   5.143   5.154   3.898
 7858SOL    HW224474   5.026   5.202   3.796
 7859SOL     OW24475   6.936   4.304   5.538
 7859SOL    HW124476   6.996   4.243   5.588
 7859SOL    HW224477   6.952   4.399   5.567
 7860SOL     OW24478   4.114   6.119   2.673
 7860SOL    HW124479   4.053   6.048   2.638
 7860SOL    HW224480   4.111   6.120   2.773
 7861SOL     OW24481   4.296   5.628   2.274
 7861SOL    HW124482   4.334   5.634   2.366
 7861SOL    HW224483   4.247   5.712   2.252
 7862SOL     OW24484   2.991   4.627   1.595
 7862SOL    HW124485   2.953   4.560   1.659
 7862SOL    HW224486   2.983   4.592   1.501
 7863SOL     OW24487   6.916   5.921   3.607
 7863SOL    HW124488   7.007   5.961   3.612
 7863SOL    HW224489   6.919   5.826   3.637
 7864SOL     OW24490   6.732   6.046   5.692
 7864SOL    HW124491   6.760   6.126   5.745
 7864SOL    HW224492   6.691   5.978   5.752
 7865SOL     OW24493   4.914   6.786   3.959
 7865SOL    HW124494   4.885   6.782   3.863
 7865SOL    HW224495   4.834   6.783   4.018
 7866SOL     OW24496   2.594   2.110   1.100
 7866SOL    HW124497   2.606   2.022   1.146
 7866SOL    HW224498   2.627   2.102   1.006
 7867SOL     OW24499   5.335   5.252   2.471
 7867SOL    HW124500   5.419   5.197   2.476
 7867SOL    HW224501   5.275   5.226   2.547
 7868SOL     OW24502   5.869   6.838   2.783
 7868SOL    HW124503   5.800   6.828   2.711
 7868SOL    HW224504   5.847   6.917   2.840
 7869SOL     OW24505   6.575   3.461   0.463
 7869SOL    HW124506   6.533   3.544   0.498
 7869SOL    HW224507   6.566   3.459   0.363
 7870SOL     OW24508   5.334   6.059   3.979
 7870SOL    HW124509   5.268   5.984   3.973
 7870SOL    HW224510   5.423   6.023   4.009
 7871SOL     OW24511   6.222   3.613   2.708
 7871SOL    HW124512   6.292   3.660   2.762
 7871SOL    HW224513   6.133   3.655   2.725
 7872SOL     OW24514   0.796   4.442   2.256
 7872SOL    HW124515   0.700   4.469   2.263
 7872SOL    HW224516   0.854   4.516   2.291
 7873SOL     OW24517   5.497   0.021   5.217
 7873SOL    HW124518   5.558   6.960   5.205
 7873SOL    HW224519   5.427   7.017   5.284
 7874SOL     OW24520   5.997   1.548   0.163
 7874SOL    HW124521   6.055   1.557   0.244
 7874SOL    HW224522   6.003   1.455   0.128
 7875SOL     OW24523   3.728   3.451   6.978
 7875SOL    HW124524   3.667   3.518   6.938
 7875SOL    HW224525   3.779   3.404   6.906
 7876SOL     OW24526   0.044   6.832   4.811
 7876SOL    HW124527   0.102   6.846   4.731
 7876SOL    HW224528   7.013   6.745   4.802
 7877SOL     OW24529   0.512   3.181   2.545
 7877SOL    HW124530   0.495   3.123   2.625
 7877SOL    HW224531   0.568   3.131   2.479
 7878SOL     OW24532   4.886   5.041   4.038
 7878SOL    HW124533   4.946   5.074   3.966
 7878SOL    HW224534   4.907   4.946   4.059
 7879SOL     OW24535   4.462   6.211   3.396
 7879SOL    HW124536   4.494   6.246   3.308
 7879SOL    HW224537   4.452   6.112   3.391
 7880SOL     OW24538   0.204   5.645   1.472
 7880SOL    HW124539   0.140   5.581   1.430
 7880SOL    HW224540   0.267   5.679   1.402
 7881SOL     OW24541   6.277   3.493   4.781
 7881SOL    HW124542   6.180   3.477   4.765
 7881SOL    HW224543   6.323   3.509   4.693
 7882SOL     OW24544   2.197   2.525   3.395
 7882SOL    HW124545   2.204   2.573   3.307
 7882SOL    HW224546   2.117   2.466   3.394
 7883SOL     OW24547   2.116   0.065   0.912
 7883SOL    HW124548   2.106   0.032   1.005
 7883SOL    HW224549   2.050   0.020   0.852
 7884SOL     OW24550   1.702   3.990   3.805
 7884SOL    HW124551   1.764   4.043   3.747
 7884SOL    HW224552   1.613   3.980   3.759
 7885SOL     OW24553   5.955   6.081   2.778
 7885SOL    HW124554   5.885   6.150   2.762
 7885SOL    HW224555   5.925   6.020   2.852
 7886SOL     OW24556   4.752   3.514   1.459
 7886SOL    HW124557   4.841   3.552   1.435
 7886SOL    HW224558   4.760   3.415   1.469
 7887SOL     OW24559   3.521   2.670   5.270
 7887SOL    HW124560   3.437   2.660   5.323
 7887SOL    HW224561   3.504   2.643   5.175
 7888SOL     OW24562   0.016   0.297   4.679
 7888SOL    HW124563   0.094   0.350   4.713
 7888SOL    HW224564   0.041   0.201   4.673
 7889SOL     OW24565   0.678   5.303   6.437
 7889SOL    HW124566   0.622   5.257   6.507
 7889SOL    HW224567   0.621   5.322   6.357
 7890SOL     OW24568   0.580   3.255   3.926
 7890SOL    HW124569   0.614   3.249   3.833
 7890SOL    HW224570   0.614   3.338   3.969
 7891SOL     OW24571   1.186   3.843   4.459
 7891SOL    HW124572   1.233   3.927   4.485
 7891SOL    HW224573   1.149   3.799   4.541
 7892SOL     OW24574   1.006   2.003   4.147
 7892SOL    HW124575   1.030   1.906   4.158
 7892SOL    HW224576   1.078   2.060   4.187
 7893SOL     OW24577   5.560   6.388   2.232
 7893SOL    HW124578   5.510   6.369   2.148
 7893SOL    HW224579   5.658   6.375   2.217
 7894SOL     OW24580   3.535   1.029   0.916
 7894SOL    HW124581   3.560   0.956   0.853
 7894SOL    HW224582   3.449   1.070   0.887
 7895SOL     OW24583   3.984   6.402   4.816
 7895SOL    HW124584   4.034   6.318   4.792
 7895SOL    HW224585   3.886   6.385   4.813
 7896SOL     OW24586   5.623   3.533   1.628
 7896SOL    HW124587   5.650   3.609   1.569
 7896SOL    HW224588   5.697   3.513   1.693
 7897SOL     OW24589   3.113   3.062   0.280
 7897SOL    HW124590   3.024   3.040   0.320
 7897SOL    HW224591   3.142   3.152   0.311
 7898SOL     OW24592   4.212   0.017   4.345
 7898SOL    HW124593   4.236   6.977   4.423
 7898SOL    HW224594   4.117   0.045   4.352
 7899SOL     OW24595   5.542   6.609   1.872
 7899SOL    HW124596   5.545   6.529   1.813
 7899SOL    HW224597   5.569   6.690   1.820
 7900SOL     OW24598   0.449   4.488   1.019
 7900SOL    HW124599   0.539   4.513   1.055
 7900SOL    HW224600   0.384   4.482   1.094
 7901SOL     OW24601   5.016   0.877   5.863
 7901SOL    HW124602   5.107   0.912   5.887
 7901SOL    HW224603   4.972   0.840   5.945
 7902SOL     OW24604   6.638   5.780   3.392
 7902SOL    HW124605   6.590   5.735   3.317
 7902SOL    HW224606   6.710   5.719   3.427
 7903SOL     OW24607   4.691   2.026   3.170
 7903SOL    HW124608   4.709   2.061   3.078
 7903SOL    HW224609   4.594   2.004   3.179
 7904SOL     OW24610   5.335   0.604   3.398
 7904SOL    HW124611   5.297   0.696   3.407
 7904SOL    HW224612   5.403   0.603   3.325
 7905SOL     OW24613   6.187   1.808   0.841
 7905SOL    HW124614   6.284   1.794   0.825
 7905SOL    HW224615   6.135   1.730   0.805
 7906SOL     OW24616   1.221   5.611   0.192
 7906SOL    HW124617   1.150   5.673   0.224
 7906SOL    HW224618   1.275   5.578   0.270
 7907SOL     OW24619   6.421   1.205   2.972
 7907SOL    HW124620   6.356   1.213   2.897
 7907SOL    HW224621   6.496   1.270   2.959
 7908SOL     OW24622   1.283   1.575   6.125
 7908SOL    HW124623   1.222   1.505   6.162
 7908SOL    HW224624   1.301   1.557   6.028
 7909SOL     OW24625   4.785   4.148   3.723
 7909SOL    HW124626   4.784   4.101   3.634
 7909SOL    HW224627   4.724   4.101   3.786
 7910SOL     OW24628   1.497   3.640   0.887
 7910SOL    HW124629   1.431   3.589   0.943
 7910SOL    HW224630   1.577   3.662   0.941
 7911SOL     OW24631   0.943   3.919   1.618
 7911SOL    HW124632   0.853   3.906   1.660
 7911SOL    HW224633   0.932   3.927   1.519
 7912SOL     OW24634   5.353   4.174   0.458
 7912SOL    HW124635   5.298   4.145   0.537
 7912SOL    HW224636   5.364   4.096   0.396
 7913SOL     OW24637   1.301   4.637   1.328
 7913SOL    HW124638   1.297   4.544   1.367
 7913SOL    HW224639   1.311   4.703   1.402
 7914SOL     OW24640   0.342   4.675   0.843
 7914SOL    HW124641   0.379   4.595   0.891
 7914SOL    HW224642   0.410   4.709   0.778
 7915SOL     OW24643   4.737   2.133   2.932
 7915SOL    HW124644   4.685   2.055   2.897
 7915SOL    HW224645   4.823   2.141   2.882
 7916SOL     OW24646   0.606   6.798   5.222
 7916SOL    HW124647   0.705   6.796   5.205
 7916SOL    HW224648   0.581   6.725   5.284
 7917SOL     OW24649   4.228   2.951   5.366
 7917SOL    HW124650   4.252   3.047   5.381
 7917SOL    HW224651   4.293   2.909   5.303
 7918SOL     OW24652   7.002   0.819   5.074
 7918SOL    HW124653   6.995   0.720   5.091
 7918SOL    HW224654   7.016   0.835   4.976
 7919SOL     OW24655   0.856   4.380   1.978
 7919SOL    HW124656   0.779   4.424   1.932
 7919SOL    HW224657   0.856   4.406   2.075
 7920SOL     OW24658   5.621   0.443   1.637
 7920SOL    HW124659   5.661   0.521   1.589
 7920SOL    HW224660   5.558   0.476   1.707
 7921SOL     OW24661   5.237   0.103   2.071
 7921SOL    HW124662   5.261   0.038   2.000
 7921SOL    HW224663   5.308   0.104   2.141
 7922SOL     OW24664   0.749   6.045   0.169
 7922SOL    HW124665   0.736   5.946   0.162
 7922SOL    HW224666   0.818   6.064   0.239
 7923SOL     OW24667   3.290   1.484   6.133
 7923SOL    HW124668   3.280   1.507   6.037
 7923SOL    HW224669   3.383   1.504   6.163
 7924SOL     OW24670   4.623   0.149   0.913
 7924SOL    HW124671   4.662   0.068   0.957
 7924SOL    HW224672   4.697   0.209   0.882
 7925SOL     OW24673   0.992   0.173   1.110
 7925SOL    HW124674   0.971   0.264   1.074
 7925SOL    HW224675   1.047   0.181   1.193
 7926SOL     OW24676   4.892   1.792   0.020
 7926SOL    HW124677   4.925   1.876   0.063
 7926SOL    HW224678   4.941   1.777   6.952
 7927SOL     OW24679   4.912   6.824   1.830
 7927SOL    HW124680   4.885   6.763   1.755
 7927SOL    HW224681   4.861   6.799   1.912
 7928SOL     OW24682   0.116   1.762   4.102
 7928SOL    HW124683   0.150   1.808   4.183
 7928SOL    HW224684   0.030   1.715   4.123
 7929SOL     OW24685   3.774   4.142   5.971
 7929SOL    HW124686   3.686   4.151   5.925
 7929SOL    HW224687   3.821   4.061   5.937
 7930SOL     OW24688   3.797   5.373   6.289
 7930SOL    HW124689   3.754   5.364   6.379
 7930SOL    HW224690   3.883   5.322   6.288
 7931SOL     OW24691   4.252   3.167   0.721
 7931SOL    HW124692   4.295   3.241   0.772
 7931SOL    HW224693   4.266   3.080   0.770
 7932SOL     OW24694   1.037   5.150   0.388
 7932SOL    HW124695   0.980   5.124   0.466
 7932SOL    HW224696   1.130   5.170   0.420
 7933SOL     OW24697   6.561   0.143   5.895
 7933SOL    HW124698   6.660   0.141   5.909
 7933SOL    HW224699   6.519   0.068   5.946
 7934SOL     OW24700   1.606   5.066   6.916
 7934SOL    HW124701   1.622   5.140   6.852
 7934SOL    HW224702   1.507   5.051   6.926
 7935SOL     OW24703   5.587   5.953   1.976
 7935SOL    HW124704   5.535   5.896   1.912
 7935SOL    HW224705   5.619   6.035   1.930
 7936SOL     OW24706   3.151   5.170   3.456
 7936SOL    HW124707   3.102   5.099   3.407
 7936SOL    HW224708   3.102   5.192   3.540
 7937SOL     OW24709   1.250   5.774   4.189
 7937SOL    HW124710   1.301   5.857   4.170
 7937SOL    HW224711   1.152   5.791   4.174
 7938SOL     OW24712   5.575   5.811   5.537
 7938SOL    HW124713   5.578   5.874   5.459
 7938SOL    HW224714   5.660   5.759   5.542
 7939SOL     OW24715   1.385   1.947   6.081
 7939SOL    HW124716   1.424   1.864   6.121
 7939SOL    HW224717   1.323   1.921   6.006
 7940SOL     OW24718   3.095   2.185   2.779
 7940SOL    HW124719   3.118   2.195   2.682
 7940SOL    HW224720   3.139   2.103   2.815
 7941SOL     OW24721   5.150   6.549   3.016
 7941SOL    HW124722   5.221   6.536   3.086
 7941SOL    HW224723   5.161   6.639   2.974
 7942SOL     OW24724   1.143   3.137   3.028
 7942SOL    HW124725   1.127   3.043   3.057
 7942SOL    HW224726   1.224   3.140   2.969
 7943SOL     OW24727   0.754   4.249   5.631
 7943SOL    HW124728   0.787   4.156   5.648
 7943SOL    HW224729   0.829   4.304   5.591
 7944SOL     OW24730   0.841   2.722   1.652
 7944SOL    HW124731   0.913   2.712   1.583
 7944SOL    HW224732   0.752   2.722   1.608
 7945SOL     OW24733   6.360   5.663   2.457
 7945SOL    HW124734   6.272   5.616   2.455
 7945SOL    HW224735   6.432   5.600   2.430
 7946SOL     OW24736   3.578   0.323   5.899
 7946SOL    HW124737   3.561   0.245   5.959
 7946SOL    HW224738   3.646   0.383   5.940
 7947SOL     OW24739   2.481   1.876   5.462
 7947SOL    HW124740   2.578   1.898   5.454
 7947SOL    HW224741   2.434   1.951   5.510
 7948SOL     OW24742   0.854   5.747   1.050
 7948SOL    HW124743   0.809   5.820   1.101
 7948SOL    HW224744   0.926   5.786   0.992
 7949SOL     OW24745   4.562   4.253   6.155
 7949SOL    HW124746   4.649   4.250   6.106
 7949SOL    HW224747   4.576   4.223   6.249
 7950SOL     OW24748   4.497   6.029   4.483
 7950SOL    HW124749   4.470   5.959   4.418
 7950SOL    HW224750   4.584   6.002   4.526
 7951SOL     OW24751   2.051   4.922   2.363
 7951SOL    HW124752   2.038   5.009   2.316
 7951SOL    HW224753   2.147   4.910   2.386
 7952SOL     OW24754   0.279   3.458   0.409
 7952SOL    HW124755   0.251   3.500   0.323
 7952SOL    HW224756   0.358   3.400   0.394
 7953SOL     OW24757   4.726   2.284   1.830
 7953SOL    HW124758   4.791   2.271   1.754
 7953SOL    HW224759   4.712   2.381   1.845
 7954SOL     OW24760   3.610   4.440   6.140
 7954SOL    HW124761   3.542   4.383   6.096
 7954SOL    HW224762   3.701   4.416   6.106
 7955SOL     OW24763   2.207   1.468   6.841
 7955SOL    HW124764   2.298   1.442   6.808
 7955SOL    HW224765   2.140   1.456   6.768
 7956SOL     OW24766   5.116   0.826   1.964
 7956SOL    HW124767   5.089   0.899   1.901
 7956SOL    HW224768   5.069   0.837   2.051
 7957SOL     OW24769   1.896   1.155   0.431
 7957SOL    HW124770   1.942   1.147   0.520
 7957SOL    HW224771   1.865   1.250   0.419
 7958SOL     OW24772   5.505   4.099   5.913
 7958SOL    HW124773   5.424   4.148   5.944
 7958SOL    HW224774   5.532   4.032   5.982
 7959SOL     OW24775   5.349   0.149   6.855
 7959SOL    HW124776   5.271   0.137   6.917
 7959SOL    HW224777   5.319   0.137   6.761
 7960SOL     OW24778   1.378   1.116   6.116
 7960SOL    HW124779   1.310   1.047   6.145
 7960SOL    HW224780   1.401   1.101   6.020
 7961SOL     OW24781   6.594   0.137   1.055
 7961SOL    HW124782   6.614   0.182   1.143
 7961SOL    HW224783   6.627   0.043   1.057
 7962SOL     OW24784   0.478   1.584   5.747
 7962SOL    HW124785   0.566   1.543   5.723
 7962SOL    HW224786   0.488   1.637   5.831
 7963SOL     OW24787   6.189   5.640   4.264
 7963SOL    HW124788   6.180   5.724   4.318
 7963SOL    HW224789   6.267   5.587   4.298
 7964SOL     OW24790   6.035   3.288   2.653
 7964SOL    HW124791   6.063   3.192   2.665
 7964SOL    HW224792   5.951   3.305   2.705
 7965SOL     OW24793   4.041   2.280   6.253
 7965SOL    HW124794   3.985   2.345   6.304
 7965SOL    HW224795   3.982   2.222   6.197
 7966SOL     OW24796   3.395   2.997   6.045
 7966SOL    HW124797   3.430   3.000   5.952
 7966SOL    HW224798   3.297   3.014   6.045
 7967SOL     OW24799   2.469   5.462   2.006
 7967SOL    HW124800   2.432   5.552   2.029
 7967SOL    HW224801   2.395   5.402   1.976
 7968SOL     OW24802   6.218   2.197   4.721
 7968SOL    HW124803   6.279   2.276   4.718
 7968SOL    HW224804   6.139   2.218   4.778
 7969SOL     OW24805   5.840   6.282   0.842
 7969SOL    HW124806   5.867   6.374   0.812
 7969SOL    HW224807   5.816   6.284   0.939
 7970SOL     OW24808   6.363   3.782   2.286
 7970SOL    HW124809   6.266   3.762   2.302
 7970SOL    HW224810   6.404   3.709   2.231
 7971SOL     OW24811   3.206   1.353   0.896
 7971SOL    HW124812   3.240   1.446   0.883
 7971SOL    HW224813   3.109   1.350   0.873
 7972SOL     OW24814   3.308   3.256   1.372
 7972SOL    HW124815   3.317   3.267   1.273
 7972SOL    HW224816   3.211   3.248   1.396
 7973SOL     OW24817   4.816   4.576   4.361
 7973SOL    HW124818   4.873   4.554   4.282
 7973SOL    HW224819   4.875   4.602   4.438
 7974SOL     OW24820   6.079   0.966   6.156
 7974SOL    HW124821   6.083   1.066   6.147
 7974SOL    HW224822   6.015   0.942   6.229
 7975SOL     OW24823   5.592   0.073   1.062
 7975SOL    HW124824   5.576   0.079   0.963
 7975SOL    HW224825   5.688   0.094   1.081
 7976SOL     OW24826   1.095   0.238   5.901
 7976SOL    HW124827   1.092   0.179   5.820
 7976SOL    HW224828   1.078   0.332   5.874
 7977SOL     OW24829   4.267   6.042   2.238
 7977SOL    HW124830   4.248   6.118   2.299
 7977SOL    HW224831   4.362   6.048   2.205
 7978SOL     OW24832   0.054   2.510   6.157
 7978SOL    HW124833   0.113   2.431   6.172
 7978SOL    HW224834   0.111   2.589   6.134
 7979SOL     OW24835   2.314   4.960   5.711
 7979SOL    HW124836   2.361   5.016   5.779
 7979SOL    HW224837   2.323   5.002   5.621
 7980SOL     OW24838   3.134   5.263   6.481
 7980SOL    HW124839   3.112   5.343   6.538
 7980SOL    HW224840   3.111   5.282   6.386
 7981SOL     OW24841   0.609   4.467   1.906
 7981SOL    HW124842   0.589   4.565   1.899
 7981SOL    HW224843   0.527   4.418   1.935
 7982SOL     OW24844   1.569   1.841   6.338
 7982SOL    HW124845   1.551   1.743   6.327
 7982SOL    HW224846   1.579   1.862   6.435
 7983SOL     OW24847   6.555   2.299   0.754
 7983SOL    HW124848   6.606   2.385   0.752
 7983SOL    HW224849   6.610   2.225   0.716
 7984SOL     OW24850   0.147   1.248   0.511
 7984SOL    HW124851   0.122   1.316   0.580
 7984SOL    HW224852   0.246   1.250   0.498
 7985SOL     OW24853   2.475   1.754   4.488
 7985SOL    HW124854   2.491   1.661   4.456
 7985SOL    HW224855   2.423   1.804   4.418
 7986SOL     OW24856   2.964   0.888   6.361
 7986SOL    HW124857   2.882   0.942   6.344
 7986SOL    HW224858   2.965   0.859   6.457
 7987SOL     OW24859   2.095   3.016   0.464
 7987SOL    HW124860   1.999   3.012   0.434
 7987SOL    HW224861   2.133   2.924   0.466
 7988SOL     OW24862   1.376   0.957   2.661
 7988SOL    HW124863   1.342   0.990   2.573
 7988SOL    HW224864   1.471   0.928   2.651
 7989SOL     OW24865   2.632   3.307   0.106
 7989SOL    HW124866   2.652   3.236   0.039
 7989SOL    HW224867   2.623   3.395   0.060
 7990SOL     OW24868   2.560   4.933   4.616
 7990SOL    HW124869   2.495   4.929   4.540
 7990SOL    HW224870   2.645   4.887   4.590
 7991SOL     OW24871   5.885   1.816   3.916
 7991SOL    HW124872   5.939   1.803   3.832
 7991SOL    HW224873   5.788   1.824   3.892
 7992SOL     OW24874   1.414   0.447   0.358
 7992SOL    HW124875   1.498   0.501   0.347
 7992SOL    HW224876   1.405   0.417   0.452
 7993SOL     OW24877   0.398   6.993   1.302
 7993SOL    HW124878   0.362   6.978   1.209
 7993SOL    HW224879   0.483   0.028   1.296
 7994SOL     OW24880   4.296   0.462   3.434
 7994SOL    HW124881   4.205   0.431   3.462
 7994SOL    HW224882   4.310   0.556   3.465
 7995SOL     OW24883   5.942   5.377   3.142
 7995SOL    HW124884   6.014   5.340   3.201
 7995SOL    HW224885   5.854   5.339   3.171
 7996SOL     OW24886   3.755   6.268   4.338
 7996SOL    HW124887   3.846   6.289   4.303
 7996SOL    HW224888   3.762   6.211   4.419
 7997SOL     OW24889   6.745   1.761   0.088
 7997SOL    HW124890   6.824   1.741   0.147
 7997SOL    HW224891   6.772   1.753   7.010
 7998SOL     OW24892   3.724   0.049   6.911
 7998SOL    HW124893   3.768   0.017   6.995
 7998SOL    HW224894   3.655   0.117   6.934
 7999SOL     OW24895   0.814   1.186   6.064
 7999SOL    HW124896   0.740   1.236   6.019
 7999SOL    HW224897   0.803   1.193   6.164
 8000SOL     OW24898   5.374   6.292   6.596
 8000SOL    HW124899   5.332   6.256   6.679
 8000SOL    HW224900   5.344   6.238   6.517
 8001SOL     OW24901   4.126   6.085   2.014
 8001SOL    HW124902   4.142   6.182   1.998
 8001SOL    HW224903   4.184   6.053   2.089
 8002SOL     OW24904   0.673   0.713   6.315
 8002SOL    HW124905   0.658   0.811   6.326
 8002SOL    HW224906   0.594   0.672   6.269
 8003SOL     OW24907   2.391   5.466   1.684
 8003SOL    HW124908   2.419   5.519   1.605
 8003SOL    HW224909   2.423   5.511   1.768
 8004SOL     OW24910   1.505   3.975   3.622
 8004SOL    HW124911   1.419   4.025   3.615
 8004SOL    HW224912   1.557   3.985   3.538
 8005SOL     OW24913   2.399   0.442   3.564
 8005SOL    HW124914   2.395   0.356   3.511
 8005SOL    HW224915   2.406   0.519   3.501
 8006SOL     OW24916   2.002   5.926   5.506
 8006SOL    HW124917   1.957   6.015   5.499
 8006SOL    HW224918   1.993   5.892   5.600
 8007SOL     OW24919   6.175   1.826   6.456
 8007SOL    HW124920   6.084   1.859   6.481
 8007SOL    HW224921   6.196   1.744   6.508
 8008SOL     OW24922   3.870   6.229   6.558
 8008SOL    HW124923   3.856   6.202   6.654
 8008SOL    HW224924   3.810   6.174   6.499
 8009SOL     OW24925   4.737   0.838   0.558
 8009SOL    HW124926   4.813   0.811   0.499
 8009SOL    HW224927   4.728   0.772   0.632
 8010SOL     OW24928   2.228   2.238   4.997
 8010SOL    HW124929   2.289   2.172   5.040
 8010SOL    HW224930   2.201   2.307   5.065
 8011SOL     OW24931   3.522   2.018   1.059
 8011SOL    HW124932   3.435   1.991   1.101
 8011SOL    HW224933   3.534   2.117   1.066
 8012SOL     OW24934   1.439   2.916   0.169
 8012SOL    HW124935   1.350   2.898   0.211
 8012SOL    HW224936   1.425   2.964   0.082
 8013SOL     OW24937   1.228   4.737   3.611
 8013SOL    HW124938   1.225   4.664   3.679
 8013SOL    HW224939   1.159   4.720   3.541
 8014SOL     OW24940   1.589   0.296   4.467
 8014SOL    HW124941   1.571   0.213   4.413
 8014SOL    HW224942   1.580   0.274   4.564
 8015SOL     OW24943   1.730   0.245   6.108
 8015SOL    HW124944   1.813   0.222   6.059
 8015SOL    HW224945   1.652   0.196   6.067
 8016SOL     OW24946   4.226   1.082   5.302
 8016SOL    HW124947   4.200   1.178   5.301
 8016SOL    HW224948   4.305   1.068   5.241
 8017SOL     OW24949   6.338   0.182   6.704
 8017SOL    HW124950   6.380   0.242   6.772
 8017SOL    HW224951   6.244   0.212   6.687
 8018SOL     OW24952   3.254   2.583   0.449
 8018SOL    HW124953   3.231   2.666   0.398
 8018SOL    HW224954   3.353   2.579   0.463
 8019SOL     OW24955   1.955   4.439   1.198
 8019SOL    HW124956   1.980   4.500   1.122
 8019SOL    HW224957   2.001   4.351   1.188
 8020SOL     OW24958   6.490   6.820   6.604
 8020SOL    HW124959   6.561   6.846   6.538
 8020SOL    HW224960   6.416   6.887   6.600
 8021SOL     OW24961   1.648   3.232   1.861
 8021SOL    HW124962   1.704   3.276   1.791
 8021SOL    HW224963   1.595   3.302   1.909
 8022SOL     OW24964   6.143   0.615   1.871
 8022SOL    HW124965   6.049   0.600   1.901
 8022SOL    HW224966   6.144   0.679   1.794
 8023SOL     OW24967   5.851   4.539   2.323
 8023SOL    HW124968   5.892   4.615   2.272
 8023SOL    HW224969   5.817   4.573   2.411
 8024SOL     OW24970   1.177   5.336   6.549
 8024SOL    HW124971   1.163   5.355   6.646
 8024SOL    HW224972   1.099   5.284   6.514
 8025SOL     OW24973   1.943   5.924   0.805
 8025SOL    HW124974   1.944   5.998   0.872
 8025SOL    HW224975   1.852   5.884   0.800
 8026SOL     OW24976   6.903   4.180   1.203
 8026SOL    HW124977   6.874   4.092   1.240
 8026SOL    HW224978   6.971   4.166   1.132
 8027SOL     OW24979   3.261   0.065   5.654
 8027SOL    HW124980   3.355   0.059   5.690
 8027SOL    HW224981   3.264   0.062   5.554
 8028SOL     OW24982   3.740   5.052   5.028
 8028SOL    HW124983   3.646   5.021   5.020
 8028SOL    HW224984   3.747   5.119   5.102
 8029SOL     OW24985   5.445   2.799   1.935
 8029SOL    HW124986   5.352   2.762   1.931
 8029SOL    HW224987   5.472   2.808   2.031
 8030SOL     OW24988   5.726   5.765   0.433
 8030SOL    HW124989   5.767   5.829   0.368
 8030SOL    HW224990   5.790   5.690   0.451
 8031SOL     OW24991   0.010   6.464   3.091
 8031SOL    HW124992   0.074   6.387   3.093
 8031SOL    HW224993   0.018   6.512   3.004
 8032SOL     OW24994   5.377   4.049   1.697
 8032SOL    HW124995   5.390   4.133   1.645
 8032SOL    HW224996   5.376   3.971   1.635
 8033SOL     OW24997   4.452   2.796   6.792
 8033SOL    HW124998   4.486   2.850   6.869
 8033SOL    HW224999   4.462   2.699   6.812
 8034SOL     OW25000   4.863   6.863   6.047
 8034SOL    HW125001   4.841   6.861   6.145
 8034SOL    HW225002   4.891   6.956   6.022
 8035SOL     OW25003   4.988   1.886   1.963
 8035SOL    HW125004   4.970   1.982   1.947
 8035SOL    HW225005   4.908   1.843   2.006
 8036SOL     OW25006   6.455   3.567   3.811
 8036SOL    HW125007   6.455   3.531   3.905
 8036SOL    HW225008   6.467   3.666   3.813
 8037SOL     OW25009   1.932   3.312   0.000
 8037SOL    HW125010   1.851   3.366   6.994
 8037SOL    HW225011   2.014   3.366   7.004
 8038SOL     OW25012   4.446   6.821   3.000
 8038SOL    HW125013   4.488   6.803   2.911
 8038SOL    HW225014   4.487   6.763   3.069
 8039SOL     OW25015   6.876   1.735   4.880
 8039SOL    HW125016   6.906   1.829   4.864
 8039SOL    HW225017   6.883   1.683   4.794
 8040SOL     OW25018   1.484   5.767   6.624
 8040SOL    HW125019   1.412   5.700   6.642
 8040SOL    HW225020   1.549   5.729   6.558
 8041SOL     OW25021   2.934   0.908   2.679
 8041SOL    HW125022   2.950   0.911   2.580
 8041SOL    HW225023   2.837   0.924   2.697
 8042SOL     OW25024   3.949   3.861   5.555
 8042SOL    HW125025   3.965   3.763   5.554
 8042SOL    HW225026   3.944   3.896   5.461
 8043SOL     OW25027   3.292   5.135   0.732
 8043SOL    HW125028   3.343   5.213   0.766
 8043SOL    HW225029   3.223   5.166   0.667
 8044SOL     OW25030   3.888   3.872   0.692
 8044SOL    HW125031   3.965   3.845   0.635
 8044SOL    HW225032   3.848   3.957   0.658
 8045SOL     OW25033   6.133   2.236   2.298
 8045SOL    HW125034   6.182   2.153   2.327
 8045SOL    HW225035   6.147   2.251   2.201
 8046SOL     OW25036   0.732   3.951   2.415
 8046SOL    HW125037   0.699   3.903   2.334
 8046SOL    HW225038   0.769   4.040   2.389
 8047SOL     OW25039   3.280   6.215   6.220
 8047SOL    HW125040   3.244   6.129   6.254
 8047SOL    HW225041   3.211   6.286   6.228
 8048SOL     OW25042   3.365   2.146   0.354
 8048SOL    HW125043   3.345   2.049   0.341
 8048SOL    HW225044   3.380   2.189   0.264
 8049SOL     OW25045   1.107   0.041   0.349
 8049SOL    HW125046   1.033   0.005   0.405
 8049SOL    HW225047   1.075   0.052   0.254
 8050SOL     OW25048   1.743   3.162   3.974
 8050SOL    HW125049   1.792   3.078   3.948
 8050SOL    HW225050   1.752   3.229   3.901
 8051SOL     OW25051   4.852   6.227   4.922
 8051SOL    HW125052   4.890   6.318   4.904
 8051SOL    HW225053   4.895   6.160   4.861
 8052SOL     OW25054   3.016   1.855   1.570
 8052SOL    HW125055   3.103   1.807   1.569
 8052SOL    HW225056   3.004   1.905   1.485
 8053SOL     OW25057   3.666   2.876   4.835
 8053SOL    HW125058   3.600   2.848   4.904
 8053SOL    HW225059   3.688   2.798   4.776
 8054SOL     OW25060   6.830   4.102   5.056
 8054SOL    HW125061   6.792   4.168   4.991
 8054SOL    HW225062   6.842   4.014   5.011
 8055SOL     OW25063   6.610   0.489   5.684
 8055SOL    HW125064   6.584   0.446   5.771
 8055SOL    HW225065   6.583   0.429   5.608
 8056SOL     OW25066   2.909   0.787   4.915
 8056SOL    HW125067   2.884   0.707   4.861
 8056SOL    HW225068   2.864   0.868   4.876
 8057SOL     OW25069   2.674   2.406   2.948
 8057SOL    HW125070   2.613   2.408   3.027
 8057SOL    HW225071   2.752   2.346   2.968
 8058SOL     OW25072   3.159   7.001   3.012
 8058SOL    HW125073   3.258   7.003   3.001
 8058SOL    HW225074   3.128   0.067   3.056
 8059SOL     OW25075   2.247   1.206   5.030
 8059SOL    HW125076   2.332   1.238   4.987
 8059SOL    HW225077   2.265   1.187   5.127
 8060SOL     OW25078   0.173   2.279   6.213
 8060SOL    HW125079   0.157   2.319   6.303
 8060SOL    HW225080   0.265   2.241   6.210
 8061SOL     OW25081   0.460   0.241   2.347
 8061SOL    HW125082   0.552   0.203   2.335
 8061SOL    HW225083   0.415   0.195   2.425
 8062SOL     OW25084   3.977   5.300   3.904
 8062SOL    HW125085   4.069   5.312   3.867
 8062SOL    HW225086   3.983   5.265   3.998
 8063SOL     OW25087   2.527   1.310   3.280
 8063SOL    HW125088   2.444   1.359   3.256
 8063SOL    HW225089   2.504   1.235   3.342
 8064SOL     OW25090   5.897   2.202   0.445
 8064SOL    HW125091   5.852   2.229   0.360
 8064SOL    HW225092   5.903   2.281   0.506
 8065SOL     OW25093   2.805   6.408   4.240
 8065SOL    HW125094   2.798   6.444   4.147
 8065SOL    HW225095   2.759   6.319   4.244
 8066SOL     OW25096   6.676   0.009   5.460
 8066SOL    HW125097   6.605   0.056   5.514
 8066SOL    HW225098   6.648   0.004   5.365
 8067SOL     OW25099   5.187   2.816   2.666
 8067SOL    HW125100   5.286   2.830   2.671
 8067SOL    HW225101   5.147   2.879   2.599
 8068SOL     OW25102   0.094   4.543   1.405
 8068SOL    HW125103   7.018   4.576   1.397
 8068SOL    HW225104   0.117   4.487   1.325
 8069SOL     OW25105   1.760   4.890   1.114
 8069SOL    HW125106   1.795   4.799   1.089
 8069SOL    HW225107   1.668   4.901   1.078
 8070SOL     OW25108   4.155   3.116   0.489
 8070SOL    HW125109   4.214   3.160   0.422
 8070SOL    HW225110   4.198   3.119   0.579
 8071SOL     OW25111   2.771   6.932   5.380
 8071SOL    HW125112   2.720   6.854   5.417
 8071SOL    HW225113   2.869   6.914   5.386
 8072SOL     OW25114   3.295   1.710   1.010
 8072SOL    HW125115   3.384   1.664   1.016
 8072SOL    HW225116   3.240   1.666   0.940
 8073SOL     OW25117   3.801   6.204   5.245
 8073SOL    HW125118   3.781   6.221   5.148
 8073SOL    HW225119   3.870   6.270   5.276
 8074SOL     OW25120   2.868   2.048   0.353
 8074SOL    HW125121   2.778   2.034   0.394
 8074SOL    HW225122   2.861   2.120   0.284
 8075SOL     OW25123   6.444   6.889   0.749
 8075SOL    HW125124   6.532   6.919   0.712
 8075SOL    HW225125   6.459   6.830   0.828
 8076SOL     OW25126   6.130   6.951   5.187
 8076SOL    HW125127   6.105   0.027   5.208
 8076SOL    HW225128   6.083   6.923   5.103
 8077SOL     OW25129   3.359   5.634   2.709
 8077SOL    HW125130   3.352   5.537   2.733
 8077SOL    HW225131   3.305   5.688   2.773
 8078SOL     OW25132   0.673   1.806   1.256
 8078SOL    HW125133   0.584   1.842   1.284
 8078SOL    HW225134   0.660   1.731   1.191
 8079SOL     OW25135   6.542   1.672   3.190
 8079SOL    HW125136   6.539   1.628   3.101
 8079SOL    HW225137   6.448   1.691   3.221
 8080SOL     OW25138   1.226   1.833   2.686
 8080SOL    HW125139   1.252   1.793   2.774
 8080SOL    HW225140   1.155   1.901   2.701
 8081SOL     OW25141   6.259   5.469   6.026
 8081SOL    HW125142   6.358   5.473   6.016
 8081SOL    HW225143   6.221   5.404   5.960
 8082SOL     OW25144   3.498   0.894   2.757
 8082SOL    HW125145   3.470   0.979   2.712
 8082SOL    HW225146   3.584   0.862   2.716
 8083SOL     OW25147   5.083   2.788   3.686
 8083SOL    HW125148   5.014   2.726   3.649
 8083SOL    HW225149   5.072   2.795   3.785
 8084SOL     OW25150   3.326   6.954   6.703
 8084SOL    HW125151   3.286   6.866   6.729
 8084SOL    HW225152   3.425   6.946   6.697
 8085SOL     OW25153   5.804   5.655   2.209
 8085SOL    HW125154   5.821   5.749   2.239
 8085SOL    HW225155   5.746   5.609   2.276
 8086SOL     OW25156   6.881   0.785   2.059
 8086SOL    HW125157   6.845   0.836   2.137
 8086SOL    HW225158   6.981   0.791   2.057
 8087SOL     OW25159   1.784   6.958   0.140
 8087SOL    HW125160   1.719   6.882   0.133
 8087SOL    HW225161   1.746   0.010   0.200
 8088SOL     OW25162   5.773   0.710   0.885
 8088SOL    HW125163   5.872   0.722   0.883
 8088SOL    HW225164   5.741   0.707   0.980
 8089SOL     OW25165   5.185   2.683   0.118
 8089SOL    HW125166   5.217   2.771   0.153
 8089SOL    HW225167   5.144   2.697   0.028
 8090SOL     OW25168   3.989   1.017   5.931
 8090SOL    HW125169   3.901   0.996   5.974
 8090SOL    HW225170   3.982   1.005   5.832
 8091SOL     OW25171   1.714   3.822   4.994
 8091SOL    HW125172   1.664   3.794   5.076
 8091SOL    HW225173   1.658   3.802   4.914
 8092SOL     OW25174   5.156   2.012   5.137
 8092SOL    HW125175   5.075   2.051   5.095
 8092SOL    HW225176   5.195   1.942   5.076
 8093SOL     OW25177   2.678   5.334   3.540
 8093SOL    HW125178   2.690   5.428   3.571
 8093SOL    HW225179   2.697   5.272   3.616
 8094SOL     OW25180   0.120   3.016   4.761
 8094SOL    HW125181   0.031   2.978   4.784
 8094SOL    HW225182   0.163   2.959   4.691
 8095SOL     OW25183   0.621   4.536   5.022
 8095SOL    HW125184   0.620   4.439   5.048
 8095SOL    HW225185   0.640   4.592   5.103
 8096SOL     OW25186   2.286   0.548   2.444
 8096SOL    HW125187   2.247   0.458   2.424
 8096SOL    HW225188   2.252   0.581   2.532
 8097SOL     OW25189   4.470   0.014   5.230
 8097SOL    HW125190   4.508   0.107   5.234
 8097SOL    HW225191   4.458   6.996   5.322
 8098SOL     OW25192   2.042   6.455   3.398
 8098SOL    HW125193   1.992   6.384   3.348
 8098SOL    HW225194   1.992   6.478   3.481
 8099SOL     OW25195   4.342   6.733   3.986
 8099SOL    HW125196   4.286   6.789   4.048
 8099SOL    HW225197   4.283   6.667   3.938
 8100SOL     OW25198   6.906   0.644   0.025
 8100SOL    HW125199   6.960   0.584   0.084
 8100SOL    HW225200   6.878   0.725   0.076
 8101SOL     OW25201   1.598   5.799   1.284
 8101SOL    HW125202   1.549   5.791   1.371
 8101SOL    HW225203   1.645   5.713   1.265
 8102SOL     OW25204   0.583   3.297   3.646
 8102SOL    HW125205   0.488   3.281   3.621
 8102SOL    HW225206   0.622   3.366   3.585
 8103SOL     OW25207   3.003   0.051   1.365
 8103SOL    HW125208   2.925   0.000   1.327
 8103SOL    HW225209   3.080   7.007   1.378
 8104SOL     OW25210   1.681   0.669   6.244
 8104SOL    HW125211   1.655   0.604   6.174
 8104SOL    HW225212   1.604   0.684   6.307
 8105SOL     OW25213   0.035   3.381   2.982
 8105SOL    HW125214   0.068   3.461   3.033
 8105SOL    HW225215   6.964   3.402   2.941
 8106SOL     OW25216   3.118   5.555   3.673
 8106SOL    HW125217   3.196   5.577   3.614
 8106SOL    HW225218   3.040   5.527   3.616
 8107SOL     OW25219   0.844   5.480   3.765
 8107SOL    HW125220   0.747   5.494   3.784
 8107SOL    HW225221   0.860   5.485   3.666
 8108SOL     OW25222   6.695   2.581   6.704
 8108SOL    HW125223   6.672   2.606   6.610
 8108SOL    HW225224   6.735   2.659   6.751
 8109SOL     OW25225   6.936   3.749   6.155
 8109SOL    HW125226   6.856   3.807   6.169
 8109SOL    HW225227   6.934   3.673   6.220
 8110SOL     OW25228   3.907   5.470   2.311
 8110SOL    HW125229   3.999   5.457   2.275
 8110SOL    HW225230   3.901   5.429   2.402
 8111SOL     OW25231   5.121   1.223   4.577
 8111SOL    HW125232   5.188   1.221   4.503
 8111SOL    HW225233   5.131   1.142   4.635
 8112SOL     OW25234   2.223   2.944   4.499
 8112SOL    HW125235   2.157   2.945   4.424
 8112SOL    HW225236   2.316   2.946   4.461
 8113SOL     OW25237   1.078   4.000   1.244
 8113SOL    HW125238   1.096   4.014   1.146
 8113SOL    HW225239   0.997   3.943   1.254
 8114SOL     OW25240   1.608   3.651   2.419
 8114SOL    HW125241   1.523   3.701   2.407
 8114SOL    HW225242   1.677   3.710   2.461
 8115SOL     OW25243   3.718   6.606   6.534
 8115SOL    HW125244   3.625   6.583   6.563
 8115SOL    HW225245   3.755   6.676   6.595
 8116SOL     OW25246   4.125   4.835   0.558
 8116SOL    HW125247   4.190   4.866   0.627
 8116SOL    HW225248   4.039   4.808   0.602
 8117SOL     OW25249   1.530   7.012   3.720
 8117SOL    HW125250   1.443   0.042   3.707
 8117SOL    HW225251   1.598   0.030   3.657
 8118SOL     OW25252   4.824   4.263   6.095
 8118SOL    HW125253   4.869   4.259   6.184
 8118SOL    HW225254   4.844   4.181   6.043
 8119SOL     OW25255   5.284   5.689   6.378
 8119SOL    HW125256   5.251   5.596   6.390
 8119SOL    HW225257   5.300   5.731   6.468
 8120SOL     OW25258   3.442   4.522   1.034
 8120SOL    HW125259   3.419   4.432   0.997
 8120SOL    HW225260   3.364   4.583   1.023
 8121SOL     OW25261   0.536   4.736   1.614
 8121SOL    HW125262   0.552   4.831   1.642
 8121SOL    HW225263   0.443   4.709   1.640
 8122SOL     OW25264   0.193   4.384   3.339
 8122SOL    HW125265   0.223   4.327   3.263
 8122SOL    HW225266   0.175   4.477   3.307
 8123SOL     OW25267   6.762   1.953   6.430
 8123SOL    HW125268   6.816   2.026   6.472
 8123SOL    HW225269   6.671   1.987   6.409
 8124SOL     OW25270   5.097   5.935   2.002
 8124SOL    HW125271   5.125   5.968   2.092
 8124SOL    HW225272   5.152   5.856   1.977
 8125SOL     OW25273   1.864   1.801   3.464
 8125SOL    HW125274   1.875   1.722   3.523
 8125SOL    HW225275   1.921   1.876   3.497
 8126SOL     OW25276   5.325   4.687   3.184
 8126SOL    HW125277   5.396   4.717   3.120
 8126SOL    HW225278   5.303   4.591   3.167
 8127SOL     OW25279   2.756   3.401   6.067
 8127SOL    HW125280   2.852   3.414   6.092
 8127SOL    HW225281   2.723   3.315   6.106
 8128SOL     OW25282   2.979   2.169   2.294
 8128SOL    HW125283   2.952   2.230   2.219
 8128SOL    HW225284   2.910   2.174   2.367
 8129SOL     OW25285   3.756   1.449   5.898
 8129SOL    HW125286   3.742   1.384   5.972
 8129SOL    HW225287   3.802   1.531   5.933
 8130SOL     OW25288   0.431   4.235   6.900
 8130SOL    HW125289   0.493   4.236   6.978
 8130SOL    HW225290   0.351   4.292   6.921
 8131SOL     OW25291   2.344   2.115   1.504
 8131SOL    HW125292   2.287   2.034   1.493
 8131SOL    HW225293   2.287   2.196   1.515
 8132SOL     OW25294   5.120   6.653   5.208
 8132SOL    HW125295   5.195   6.591   5.185
 8132SOL    HW225296   5.152   6.748   5.202
 8133SOL     OW25297   3.266   5.119   2.580
 8133SOL    HW125298   3.246   5.021   2.572
 8133SOL    HW225299   3.206   5.170   2.518
 8134SOL     OW25300   6.943   2.098   6.242
 8134SOL    HW125301   7.014   2.162   6.214
 8134SOL    HW225302   6.881   2.143   6.306
 8135SOL     OW25303   2.781   6.918   1.345
 8135SOL    HW125304   2.740   7.003   1.379
 8135SOL    HW225305   2.723   6.880   1.273
 8136SOL     OW25306   4.691   5.641   3.187
 8136SOL    HW125307   4.637   5.572   3.139
 8136SOL    HW225308   4.781   5.649   3.144
 8137SOL     OW25309   3.351   1.630   5.324
 8137SOL    HW125310   3.333   1.540   5.363
 8137SOL    HW225311   3.442   1.630   5.281
 8138SOL     OW25312   5.260   1.174   0.665
 8138SOL    HW125313   5.189   1.166   0.595
 8138SOL    HW225314   5.227   1.233   0.739
 8139SOL     OW25315   0.279   0.687   1.795
 8139SOL    HW125316   0.280   0.693   1.695
 8139SOL    HW225317   0.359   0.636   1.826
 8140SOL     OW25318   5.735   0.578   6.102
 8140SOL    HW125319   5.696   0.619   6.184
 8140SOL    HW225320   5.684   0.609   6.021
 8141SOL     OW25321   4.364   5.233   4.656
 8141SOL    HW125322   4.265   5.228   4.667
 8141SOL    HW225323   4.387   5.236   4.559
 8142SOL     OW25324   0.131   5.076   6.936
 8142SOL    HW125325   0.110   4.992   6.886
 8142SOL    HW225326   0.167   5.053   0.008
 8143SOL     OW25327   5.943   3.829   0.552
 8143SOL    HW125328   5.877   3.754   0.556
 8143SOL    HW225329   5.906   3.908   0.602
 8144SOL     OW25330   6.056   6.126   6.281
 8144SOL    HW125331   5.978   6.067   6.261
 8144SOL    HW225332   6.109   6.087   6.356
 8145SOL     OW25333   5.662   5.907   0.886
 8145SOL    HW125334   5.610   5.895   0.802
 8145SOL    HW225335   5.754   5.939   0.864
 8146SOL     OW25336   3.593   1.048   4.677
 8146SOL    HW125337   3.685   1.073   4.705
 8146SOL    HW225338   3.597   0.979   4.604
 8147SOL     OW25339   6.112   1.966   1.583
 8147SOL    HW125340   6.190   1.968   1.645
 8147SOL    HW225341   6.100   1.873   1.547
 8148SOL     OW25342   5.235   4.457   1.175
 8148SOL    HW125343   5.265   4.362   1.181
 8148SOL    HW225344   5.207   4.489   1.266
 8149SOL     OW25345   2.426   6.034   1.841
 8149SOL    HW125346   2.394   5.955   1.893
 8149SOL    HW225347   2.354   6.104   1.837
 8150SOL     OW25348   0.516   4.796   0.360
 8150SOL    HW125349   0.446   4.729   0.386
 8150SOL    HW225350   0.606   4.755   0.368
 8151SOL     OW25351   6.521   2.000   1.599
 8151SOL    HW125352   6.611   2.036   1.578
 8151SOL    HW225353   6.484   1.954   1.518
 8152SOL     OW25354   0.412   1.648   2.715
 8152SOL    HW125355   0.391   1.612   2.806
 8152SOL    HW225356   0.506   1.623   2.690
 8153SOL     OW25357   3.294   0.268   3.052
 8153SOL    HW125358   3.243   0.259   3.138
 8153SOL    HW225359   3.370   0.331   3.065
 8154SOL     OW25360   2.874   5.581   3.552
 8154SOL    HW125361   2.840   5.524   3.627
 8154SOL    HW225362   2.804   5.647   3.525
 8155SOL     OW25363   2.359   3.953   1.643
 8155SOL    HW125364   2.314   3.934   1.556
 8155SOL    HW225365   2.321   4.036   1.684
 8156SOL     OW25366   5.097   6.601   6.548
 8156SOL    HW125367   5.027   6.673   6.554
 8156SOL    HW225368   5.052   6.513   6.531
 8157SOL     OW25369   6.126   4.992   6.550
 8157SOL    HW125370   6.222   4.966   6.554
 8157SOL    HW225371   6.074   4.921   6.501
 8158SOL     OW25372   6.810   5.117   1.842
 8158SOL    HW125373   6.724   5.098   1.795
 8158SOL    HW225374   6.819   5.057   1.922
 8159SOL     OW25375   3.043   6.186   2.918
 8159SOL    HW125376   2.990   6.229   2.991
 8159SOL    HW225377   3.101   6.115   2.956
 8160SOL     OW25378   4.817   1.239   2.403
 8160SOL    HW125379   4.770   1.282   2.327
 8160SOL    HW225380   4.780   1.273   2.489
 8161SOL     OW25381   4.938   1.488   6.837
 8161SOL    HW125382   4.995   1.563   6.803
 8161SOL    HW225383   4.989   1.435   6.904
 8162SOL     OW25384   6.246   6.474   5.668
 8162SOL    HW125385   6.229   6.384   5.708
 8162SOL    HW225386   6.302   6.464   5.585
 8163SOL     OW25387   2.780   3.599   5.439
 8163SOL    HW125388   2.786   3.532   5.364
 8163SOL    HW225389   2.872   3.629   5.463
 8164SOL     OW25390   5.855   3.123   0.672
 8164SOL    HW125391   5.768   3.172   0.660
 8164SOL    HW225392   5.926   3.189   0.700
 8165SOL     OW25393   1.181   5.040   6.651
 8165SOL    HW125394   1.089   5.072   6.672
 8165SOL    HW225395   1.181   4.940   6.643
 8166SOL     OW25396   2.392   0.727   2.285
 8166SOL    HW125397   2.345   0.815   2.293
 8166SOL    HW225398   2.352   0.662   2.349
 8167SOL     OW25399   6.091   0.933   4.142
 8167SOL    HW125400   6.190   0.948   4.134
 8167SOL    HW225401   6.049   0.944   4.053
 8168SOL     OW25402   3.283   1.756   3.715
 8168SOL    HW125403   3.345   1.681   3.738
 8168SOL    HW225404   3.191   1.736   3.750
 8169SOL     OW25405   5.177   3.295   1.199
 8169SOL    HW125406   5.099   3.234   1.184
 8169SOL    HW225407   5.205   3.335   1.112
 8170SOL     OW25408   1.310   6.269   2.800
 8170SOL    HW125409   1.292   6.242   2.705
 8170SOL    HW225410   1.402   6.308   2.806
 8171SOL     OW25411   1.198   1.471   0.311
 8171SOL    HW125412   1.106   1.454   0.276
 8171SOL    HW225413   1.219   1.407   0.384
 8172SOL     OW25414   0.896   1.172   1.741
 8172SOL    HW125415   0.989   1.194   1.768
 8172SOL    HW225416   0.832   1.218   1.802
 8173SOL     OW25417   3.789   1.797   0.699
 8173SOL    HW125418   3.867   1.859   0.704
 8173SOL    HW225419   3.711   1.838   0.748
 8174SOL     OW25420   5.318   2.131   0.669
 8174SOL    HW125421   5.291   2.051   0.615
 8174SOL    HW225422   5.239   2.190   0.682
 8175SOL     OW25423   0.009   2.727   5.678
 8175SOL    HW125424   0.108   2.714   5.685
 8175SOL    HW225425   6.980   2.659   5.735
 8176SOL     OW25426   2.481   5.232   2.484
 8176SOL    HW125427   2.546   5.171   2.531
 8176SOL    HW225428   2.505   5.237   2.387
 8177SOL     OW25429   2.217   6.325   4.280
 8177SOL    HW125430   2.167   6.238   4.280
 8177SOL    HW225431   2.188   6.380   4.359
 8178SOL     OW25432   2.125   6.569   6.755
 8178SOL    HW125433   2.056   6.634   6.787
 8178SOL    HW225434   2.084   6.478   6.747
 8179SOL     OW25435   3.799   2.627   6.778
 8179SOL    HW125436   3.814   2.545   6.723
 8179SOL    HW225437   3.706   2.661   6.763
 8180SOL     OW25438   6.603   0.132   4.418
 8180SOL    HW125439   6.556   0.194   4.356
 8180SOL    HW225440   6.619   0.045   4.371
 8181SOL     OW25441   2.307   1.669   2.244
 8181SOL    HW125442   2.358   1.640   2.163
 8181SOL    HW225443   2.322   1.603   2.318
 8182SOL     OW25444   3.823   1.329   0.067
 8182SOL    HW125445   3.797   1.426   0.065
 8182SOL    HW225446   3.741   1.273   0.065
 8183SOL     OW25447   0.662   2.379   4.847
 8183SOL    HW125448   0.676   2.468   4.891
 8183SOL    HW225449   0.578   2.382   4.793
 8184SOL     OW25450   5.174   1.529   5.964
 8184SOL    HW125451   5.207   1.620   5.990
 8184SOL    HW225452   5.129   1.534   5.875
 8185SOL     OW25453   3.500   0.279   0.332
 8185SOL    HW125454   3.418   0.322   0.294
 8185SOL    HW225455   3.473   0.200   0.387
 8186SOL     OW25456   3.139   5.964   6.245
 8186SOL    HW125457   3.061   6.024   6.262
 8186SOL    HW225458   3.125   5.876   6.290
 8187SOL     OW25459   1.453   2.294   5.315
 8187SOL    HW125460   1.502   2.307   5.229
 8187SOL    HW225461   1.361   2.333   5.308
 8188SOL     OW25462   5.488   1.730   2.626
 8188SOL    HW125463   5.544   1.737   2.709
 8188SOL    HW225464   5.529   1.786   2.554
 8189SOL     OW25465   5.104   4.366   2.012
 8189SOL    HW125466   5.191   4.317   2.008
 8189SOL    HW225467   5.113   4.444   2.074
 8190SOL     OW25468   4.909   5.698   4.493
 8190SOL    HW125469   4.907   5.600   4.472
 8190SOL    HW225470   5.001   5.723   4.524
 8191SOL     OW25471   2.650   5.194   3.998
 8191SOL    HW125472   2.575   5.234   4.051
 8191SOL    HW225473   2.734   5.200   4.051
 8192SOL     OW25474   3.180   5.885   0.029
 8192SOL    HW125475   3.215   5.929   0.112
 8192SOL    HW225476   3.128   5.803   0.054
 8193SOL     OW25477   6.784   6.850   3.807
 8193SOL    HW125478   6.735   6.764   3.789
 8193SOL    HW225479   6.850   6.867   3.734
 8194SOL     OW25480   6.080   2.526   0.403
 8194SOL    HW125481   5.981   2.537   0.391
 8194SOL    HW225482   6.099   2.475   0.487
 8195SOL     OW25483   0.621   0.482   0.884
 8195SOL    HW125484   0.588   0.576   0.899
 8195SOL    HW225485   0.595   0.453   0.791
 8196SOL     OW25486   3.438   0.293   5.581
 8196SOL    HW125487   3.404   0.329   5.668
 8196SOL    HW225488   3.377   0.322   5.507
 8197SOL     OW25489   4.682   1.457   6.111
 8197SOL    HW125490   4.583   1.463   6.099
 8197SOL    HW225491   4.708   1.506   6.194
 8198SOL     OW25492   2.768   0.030   2.564
 8198SOL    HW125493   2.789   0.126   2.579
 8198SOL    HW225494   2.815   6.993   2.634
 8199SOL     OW25495   6.847   4.117   0.768
 8199SOL    HW125496   6.807   4.048   0.829
 8199SOL    HW225497   6.866   4.075   0.679
 8200SOL     OW25498   4.611   4.186   1.300
 8200SOL    HW125499   4.538   4.203   1.367
 8200SOL    HW225500   4.697   4.173   1.347
 8201SOL     OW25501   5.442   0.835   4.423
 8201SOL    HW125502   5.478   0.923   4.457
 8201SOL    HW225503   5.394   0.788   4.497
 8202SOL     OW25504   1.029   5.674   3.849
 8202SOL    HW125505   1.115   5.655   3.802
 8202SOL    HW225506   0.970   5.594   3.844
 8203SOL     OW25507   4.695   3.403   0.445
 8203SOL    HW125508   4.750   3.481   0.414
 8203SOL    HW225509   4.720   3.322   0.391
 8204SOL     OW25510   3.494   5.458   1.211
 8204SOL    HW125511   3.586   5.442   1.176
 8204SOL    HW225512   3.494   5.538   1.272
 8205SOL     OW25513   6.352   4.924   2.458
 8205SOL    HW125514   6.313   4.937   2.367
 8205SOL    HW225515   6.377   4.828   2.471
 8206SOL     OW25516   3.020   2.087   5.530
 8206SOL    HW125517   3.039   2.141   5.612
 8206SOL    HW225518   2.998   2.148   5.454
 8207SOL     OW25519   3.489   4.606   5.368
 8207SOL    HW125520   3.550   4.678   5.401
 8207SOL    HW225521   3.502   4.523   5.423
 8208SOL     OW25522   2.854   6.480   1.416
 8208SOL    HW125523   2.817   6.538   1.489
 8208SOL    HW225524   2.820   6.387   1.429
 8209SOL     OW25525   0.823   1.480   5.206
 8209SOL    HW125526   0.791   1.564   5.162
 8209SOL    HW225527   0.922   1.486   5.221
 8210SOL     OW25528   3.288   0.402   0.217
 8210SOL    HW125529   3.206   0.411   0.161
 8210SOL    HW225530   3.368   0.431   0.165
 8211SOL     OW25531   3.607   4.112   4.030
 8211SOL    HW125532   3.674   4.043   4.058
 8211SOL    HW225533   3.647   4.170   3.959
 8212SOL     OW25534   3.415   0.590   0.831
 8212SOL    HW125535   3.386   0.611   0.924
 8212SOL    HW225536   3.512   0.613   0.820
 8213SOL     OW25537   4.821   5.141   3.460
 8213SOL    HW125538   4.772   5.091   3.531
 8213SOL    HW225539   4.811   5.239   3.475
 8214SOL     OW25540   2.042   6.127   3.869
 8214SOL    HW125541   1.991   6.069   3.806
 8214SOL    HW225542   2.139   6.102   3.867
 8215SOL     OW25543   4.130   5.162   0.801
 8215SOL    HW125544   4.079   5.202   0.725
 8215SOL    HW225545   4.144   5.230   0.873
 8216SOL     OW25546   5.184   6.906   3.009
 8216SOL    HW125547   5.112   6.975   3.012
 8216SOL    HW225548   5.174   6.851   2.925
 8217SOL     OW25549   2.201   4.387   2.055
 8217SOL    HW125550   2.240   4.299   2.078
 8217SOL    HW225551   2.268   4.441   2.003
 8218SOL     OW25552   1.544   0.266   4.730
 8218SOL    HW125553   1.448   0.244   4.744
 8218SOL    HW225554   1.564   0.355   4.771
 8219SOL     OW25555   2.679   4.521   1.224
 8219SOL    HW125556   2.609   4.502   1.292
 8219SOL    HW225557   2.664   4.464   1.143
 8220SOL     OW25558   3.433   4.146   5.294
 8220SOL    HW125559   3.358   4.211   5.302
 8220SOL    HW225560   3.503   4.183   5.233
 8221SOL     OW25561   6.323   4.163   3.402
 8221SOL    HW125562   6.405   4.177   3.457
 8221SOL    HW225563   6.293   4.068   3.409
 8222SOL     OW25564   5.560   2.204   0.564
 8222SOL    HW125565   5.464   2.193   0.590
 8222SOL    HW225566   5.619   2.185   0.644
 8223SOL     OW25567   0.401   5.270   5.909
 8223SOL    HW125568   0.376   5.328   5.831
 8223SOL    HW225569   0.388   5.174   5.885
 8224SOL     OW25570   4.643   2.112   1.488
 8224SOL    HW125571   4.667   2.184   1.554
 8224SOL    HW225572   4.570   2.145   1.428
 8225SOL     OW25573   4.152   0.238   0.984
 8225SOL    HW125574   4.161   0.138   0.977
 8225SOL    HW225575   4.092   0.261   1.060
 8226SOL     OW25576   3.579   0.412   0.571
 8226SOL    HW125577   3.538   0.399   0.480
 8226SOL    HW225578   3.541   0.345   0.634
 8227SOL     OW25579   6.350   1.467   2.508
 8227SOL    HW125580   6.416   1.392   2.502
 8227SOL    HW225581   6.371   1.536   2.439
 8228SOL     OW25582   0.232   1.137   5.736
 8228SOL    HW125583   0.177   1.191   5.799
 8228SOL    HW225584   0.298   1.196   5.689
 8229SOL     OW25585   4.669   4.507   1.154
 8229SOL    HW125586   4.712   4.424   1.119
 8229SOL    HW225587   4.646   4.496   1.250
 8230SOL     OW25588   3.669   6.821   5.889
 8230SOL    HW125589   3.576   6.854   5.902
 8230SOL    HW225590   3.669   6.743   5.827
 8231SOL     OW25591   3.314   1.848   2.270
 8231SOL    HW125592   3.229   1.796   2.276
 8231SOL    HW225593   3.302   1.923   2.204
 8232SOL     OW25594   5.438   1.572   2.385
 8232SOL    HW125595   5.456   1.559   2.288
 8232SOL    HW225596   5.444   1.669   2.408
 8233SOL     OW25597   0.821   0.528   5.631
 8233SOL    HW125598   0.795   0.599   5.565
 8233SOL    HW225599   0.901   0.559   5.683
 8234SOL     OW25600   3.213   2.817   0.300
 8234SOL    HW125601   3.237   2.776   0.212
 8234SOL    HW225602   3.180   2.910   0.286
 8235SOL     OW25603   0.398   4.453   0.227
 8235SOL    HW125604   0.385   4.535   0.283
 8235SOL    HW225605   0.313   4.401   0.223
 8236SOL     OW25606   0.233   5.960   5.960
 8236SOL    HW125607   0.204   5.919   5.873
 8236SOL    HW225608   0.204   6.055   5.963
 8237SOL     OW25609   4.287   5.231   5.992
 8237SOL    HW125610   4.280   5.133   5.969
 8237SOL    HW225611   4.276   5.243   6.091
 8238SOL     OW25612   0.953   5.597   6.697
 8238SOL    HW125613   1.048   5.627   6.708
 8238SOL    HW225614   0.943   5.504   6.732
 8239SOL     OW25615   0.175   1.190   4.824
 8239SOL    HW125616   0.089   1.213   4.779
 8239SOL    HW225617   0.157   1.163   4.919
 8240SOL     OW25618   2.889   3.515   2.742
 8240SOL    HW125619   2.903   3.434   2.685
 8240SOL    HW225620   2.858   3.591   2.685
 8241SOL     OW25621   1.364   3.516   6.901
 8241SOL    HW125622   1.403   3.474   6.983
 8241SOL    HW225623   1.355   3.447   6.829
 8242SOL     OW25624   1.371   3.585   4.668
 8242SOL    HW125625   1.373   3.573   4.768
 8242SOL    HW225626   1.465   3.582   4.634
 8243SOL     OW25627   0.545   4.253   6.633
 8243SOL    HW125628   0.497   4.209   6.708
 8243SOL    HW225629   0.644   4.246   6.648
 8244SOL     OW25630   1.169   0.369   3.736
 8244SOL    HW125631   1.209   0.358   3.827
 8244SOL    HW225632   1.163   0.466   3.713
 8245SOL     OW25633   4.326   2.079   3.511
 8245SOL    HW125634   4.299   2.135   3.589
 8245SOL    HW225635   4.379   2.000   3.543
 8246SOL     OW25636   1.129   4.456   6.177
 8246SOL    HW125637   1.134   4.537   6.235
 8246SOL    HW225638   1.146   4.482   6.082
 8247SOL     OW25639   3.009   5.152   3.672
 8247SOL    HW125640   2.917   5.170   3.706
 8247SOL    HW225641   3.056   5.089   3.734
 8248SOL     OW25642   1.009   5.780   4.110
 8248SOL    HW125643   1.038   5.727   4.030
 8248SOL    HW225644   0.918   5.750   4.139
 8249SOL     OW25645   2.502   1.663   5.118
 8249SOL    HW125646   2.527   1.569   5.141
 8249SOL    HW225647   2.584   1.721   5.123
 8250SOL     OW25648   3.016   1.805   0.678
 8250SOL    HW125649   2.942   1.839   0.735
 8250SOL    HW225650   3.054   1.881   0.624
 8251SOL     OW25651   6.124   1.957   4.327
 8251SOL    HW125652   6.187   1.879   4.327
 8251SOL    HW225653   6.032   1.925   4.303
 8252SOL     OW25654   2.819   2.245   6.635
 8252SOL    HW125655   2.882   2.255   6.712
 8252SOL    HW225656   2.849   2.303   6.560
 8253SOL     OW25657   3.921   5.803   6.576
 8253SOL    HW125658   3.979   5.733   6.533
 8253SOL    HW225659   3.836   5.811   6.524
 8254SOL     OW25660   5.780   4.833   5.934
 8254SOL    HW125661   5.782   4.741   5.897
 8254SOL    HW225662   5.689   4.853   5.970
 8255SOL     OW25663   0.705   6.808   5.801
 8255SOL    HW125664   0.773   6.788   5.872
 8255SOL    HW225665   0.617   6.766   5.827
 8256SOL     OW25666   0.033   0.024   3.208
 8256SOL    HW125667   6.963   6.996   3.191
 8256SOL    HW225668   0.073   0.052   3.121
 8257SOL     OW25669   5.656   4.142   4.132
 8257SOL    HW125670   5.622   4.128   4.225
 8257SOL    HW225671   5.747   4.100   4.124
 8258SOL     OW25672   5.730   2.502   1.180
 8258SOL    HW125673   5.796   2.442   1.134
 8258SOL    HW225674   5.762   2.596   1.176
 8259SOL     OW25675   4.064   1.866   5.084
 8259SOL    HW125676   4.001   1.799   5.044
 8259SOL    HW225677   4.012   1.935   5.134
 8260SOL     OW25678   2.123   6.483   0.846
 8260SOL    HW125679   2.046   6.540   0.872
 8260SOL    HW225680   2.168   6.447   0.928
 8261SOL     OW25681   5.499   6.714   3.267
 8261SOL    HW125682   5.522   6.793   3.210
 8261SOL    HW225683   5.556   6.714   3.349
 8262SOL     OW25684   0.373   5.042   0.423
 8262SOL    HW125685   0.428   4.960   0.406
 8262SOL    HW225686   0.404   5.086   0.507
 8263SOL     OW25687   6.840   2.815   6.770
 8263SOL    HW125688   6.868   2.813   6.866
 8263SOL    HW225689   6.894   2.884   6.722
 8264SOL     OW25690   1.308   6.703   1.340
 8264SOL    HW125691   1.254   6.698   1.255
 8264SOL    HW225692   1.381   6.634   1.336
 8265SOL     OW25693   4.239   0.184   1.592
 8265SOL    HW125694   4.150   0.230   1.596
 8265SOL    HW225695   4.306   0.246   1.550
 8266SOL     OW25696   2.633   0.228   4.675
 8266SOL    HW125697   2.639   0.184   4.765
 8266SOL    HW225698   2.692   0.179   4.611
 8267SOL     OW25699   1.456   5.154   2.220
 8267SOL    HW125700   1.423   5.060   2.228
 8267SOL    HW225701   1.441   5.202   2.306
 8268SOL     OW25702   2.253   3.731   6.816
 8268SOL    HW125703   2.166   3.761   6.775
 8268SOL    HW225704   2.279   3.796   6.887
 8269SOL     OW25705   4.784   2.911   2.925
 8269SOL    HW125706   4.748   2.882   2.837
 8269SOL    HW225707   4.857   2.977   2.911
 8270SOL     OW25708   2.361   6.465   5.686
 8270SOL    HW125709   2.432   6.442   5.619
 8270SOL    HW225710   2.303   6.537   5.649
 8271SOL     OW25711   6.112   6.834   4.265
 8271SOL    HW125712   6.037   6.771   4.286
 8271SOL    HW225713   6.184   6.786   4.215
 8272SOL     OW25714   0.693   0.434   2.295
 8272SOL    HW125715   0.761   0.506   2.285
 8272SOL    HW225716   0.606   0.474   2.325
 8273SOL     OW25717   3.300   0.013   0.248
 8273SOL    HW125718   3.364   0.039   0.321
 8273SOL    HW225719   3.274   6.935   0.259
 8274SOL     OW25720   3.782   4.537   6.597
 8274SOL    HW125721   3.691   4.526   6.558
 8274SOL    HW225722   3.781   4.513   6.694
 8275SOL     OW25723   5.878   0.360   4.567
 8275SOL    HW125724   5.969   0.374   4.608
 8275SOL    HW225725   5.808   0.379   4.636
 8276SOL     OW25726   6.680   2.742   5.887
 8276SOL    HW125727   6.685   2.755   5.788
 8276SOL    HW225728   6.599   2.689   5.910
 8277SOL     OW25729   2.342   5.570   5.205
 8277SOL    HW125730   2.441   5.577   5.189
 8277SOL    HW225731   2.316   5.635   5.277
 8278SOL     OW25732   3.209   1.351   6.429
 8278SOL    HW125733   3.120   1.359   6.382
 8278SOL    HW225734   3.280   1.392   6.372
 8279SOL     OW25735   5.276   5.208   6.800
 8279SOL    HW125736   5.248   5.203   6.896
 8279SOL    HW225737   5.334   5.129   6.779
 8280SOL     OW25738   4.408   2.509   6.829
 8280SOL    HW125739   4.439   2.421   6.794
 8280SOL    HW225740   4.376   2.497   6.923
 8281SOL     OW25741   1.999   4.201   0.672
 8281SOL    HW125742   1.930   4.199   0.600
 8281SOL    HW225743   2.089   4.212   0.631
 8282SOL     OW25744   2.917   2.280   1.280
 8282SOL    HW125745   2.968   2.363   1.301
 8282SOL    HW225746   2.823   2.304   1.255
 8283SOL     OW25747   0.056   5.488   3.482
 8283SOL    HW125748   0.118   5.416   3.514
 8283SOL    HW225749   0.019   5.463   3.393
 8284SOL     OW25750   1.701   2.791   2.470
 8284SOL    HW125751   1.700   2.888   2.493
 8284SOL    HW225752   1.771   2.774   2.401
 8285SOL     OW25753   3.475   3.694   5.895
 8285SOL    HW125754   3.561   3.737   5.868
 8285SOL    HW225755   3.414   3.763   5.933
 8286SOL     OW25756   5.548   1.171   4.745
 8286SOL    HW125757   5.524   1.084   4.788
 8286SOL    HW225758   5.488   1.243   4.780
 8287SOL     OW25759   1.589   6.945   4.563
 8287SOL    HW125760   1.511   7.007   4.576
 8287SOL    HW225761   1.573   6.889   4.481
 8288SOL     OW25762   1.848   2.476   2.282
 8288SOL    HW125763   1.887   2.523   2.361
 8288SOL    HW225764   1.910   2.403   2.252
 8289SOL     OW25765   6.234   0.733   6.239
 8289SOL    HW125766   6.309   0.697   6.183
 8289SOL    HW225767   6.204   0.821   6.201
 8290SOL     OW25768   4.021   3.371   1.708
 8290SOL    HW125769   3.994   3.304   1.639
 8290SOL    HW225770   3.943   3.430   1.729
 8291SOL     OW25771   5.779   6.652   6.420
 8291SOL    HW125772   5.773   6.580   6.351
 8291SOL    HW225773   5.859   6.709   6.400
 8292SOL     OW25774   2.310   5.357   5.970
 8292SOL    HW125775   2.234   5.294   5.956
 8292SOL    HW225776   2.311   5.387   6.066
 8293SOL     OW25777   1.964   4.823   1.539
 8293SOL    HW125778   1.995   4.890   1.606
 8293SOL    HW225779   2.037   4.759   1.519
 8294SOL     OW25780   6.472   3.549   5.616
 8294SOL    HW125781   6.524   3.634   5.628
 8294SOL    HW225782   6.399   3.564   5.549
 8295SOL     OW25783   4.798   4.054   2.799
 8295SOL    HW125784   4.735   4.051   2.722
 8295SOL    HW225785   4.812   3.961   2.834
 8296SOL     OW25786   3.933   5.898   6.851
 8296SOL    HW125787   3.900   5.869   6.761
 8296SOL    HW225788   4.021   5.854   6.870
 8297SOL     OW25789   6.193   4.027   1.898
 8297SOL    HW125790   6.104   3.991   1.871
 8297SOL    HW225791   6.265   3.963   1.869
 8298SOL     OW25792   0.901   0.913   6.430
 8298SOL    HW125793   0.916   0.971   6.511
 8298SOL    HW225794   0.805   0.918   6.404
 8299SOL     OW25795   6.970   3.644   1.307
 8299SOL    HW125796   6.912   3.636   1.388
 8299SOL    HW225797   0.047   3.626   1.332
 8300SOL     OW25798   6.379   6.380   4.736
 8300SOL    HW125799   6.406   6.464   4.690
 8300SOL    HW225800   6.412   6.301   4.684
 8301SOL     OW25801   4.145   0.072   6.528
 8301SOL    HW125802   4.142   0.168   6.498
 8301SOL    HW225803   4.102   0.014   6.459
 8302SOL     OW25804   3.291   7.014   5.156
 8302SOL    HW125805   3.218   0.011   5.089
 8302SOL    HW225806   3.363   0.063   5.143
 8303SOL     OW25807   6.969   0.413   2.687
 8303SOL    HW125808   6.970   0.484   2.758
 8303SOL    HW225809   6.904   0.440   2.616
 8304SOL     OW25810   6.011   4.119   2.865
 8304SOL    HW125811   6.107   4.137   2.845
 8304SOL    HW225812   5.981   4.175   2.942
 8305SOL     OW25813   4.552   5.348   4.044
 8305SOL    HW125814   4.467   5.301   4.023
 8305SOL    HW225815   4.580   5.326   4.138
 8306SOL     OW25816   6.514   1.095   2.299
 8306SOL    HW125817   6.586   1.158   2.329
 8306SOL    HW225818   6.556   1.012   2.260
 8307SOL     OW25819   1.477   5.282   0.967
 8307SOL    HW125820   1.463   5.380   0.951
 8307SOL    HW225821   1.497   5.266   1.064
 8308SOL     OW25822   1.373   4.307   0.022
 8308SOL    HW125823   1.316   4.328   0.102
 8308SOL    HW225824   1.330   4.345   6.958
 8309SOL     OW25825   6.360   5.023   4.601
 8309SOL    HW125826   6.294   5.027   4.527
 8309SOL    HW225827   6.312   5.018   4.689
 8310SOL     OW25828   0.782   6.341   0.994
 8310SOL    HW125829   0.820   6.314   1.082
 8310SOL    HW225830   0.686   6.313   0.988
 8311SOL     OW25831   5.109   0.214   4.256
 8311SOL    HW125832   5.102   0.152   4.178
 8311SOL    HW225833   5.127   0.161   4.339
 8312SOL     OW25834   5.545   0.140   0.815
 8312SOL    HW125835   5.530   0.222   0.870
 8312SOL    HW225836   5.576   0.167   0.724
 8313SOL     OW25837   3.821   0.012   5.228
 8313SOL    HW125838   3.828   0.108   5.203
 8313SOL    HW225839   3.760   0.003   5.308
 8314SOL     OW25840   5.867   6.426   6.606
 8314SOL    HW125841   5.946   6.412   6.547
 8314SOL    HW225842   5.784   6.400   6.556
 8315SOL     OW25843   3.744   3.545   3.682
 8315SOL    HW125844   3.794   3.604   3.618
 8315SOL    HW225845   3.776   3.451   3.672
 8316SOL     OW25846   0.959   3.238   6.525
 8316SOL    HW125847   0.988   3.256   6.430
 8316SOL    HW225848   1.022   3.283   6.588
 8317SOL     OW25849   2.133   1.927   4.652
 8317SOL    HW125850   2.154   1.959   4.560
 8317SOL    HW225851   2.212   1.877   4.689
 8318SOL     OW25852   4.592   1.164   6.141
 8318SOL    HW125853   4.568   1.261   6.134
 8318SOL    HW225854   4.536   1.121   6.211
 8319SOL     OW25855   1.141   0.531   5.813
 8319SOL    HW125856   1.111   0.610   5.759
 8319SOL    HW225857   1.178   0.563   5.900
 8320SOL     OW25858   3.489   3.918   3.839
 8320SOL    HW125859   3.405   3.867   3.825
 8320SOL    HW225860   3.470   4.001   3.891
 8321SOL     OW25861   0.232   0.241   6.254
 8321SOL    HW125862   0.166   0.310   6.222
 8321SOL    HW225863   0.248   0.174   6.181
 8322SOL     OW25864   6.983   1.027   0.534
 8322SOL    HW125865   0.050   1.078   0.539
 8322SOL    HW225866   7.003   0.930   0.516
 8323SOL     OW25867   4.777   4.768   1.160
 8323SOL    HW125868   4.725   4.685   1.137
 8323SOL    HW225869   4.782   4.827   1.080
 8324SOL     OW25870   5.700   0.255   0.240
 8324SOL    HW125871   5.633   0.321   0.206
 8324SOL    HW225872   5.690   0.244   0.338
 8325SOL     OW25873   1.426   4.788   5.223
 8325SOL    HW125874   1.358   4.805   5.294
 8325SOL    HW225875   1.510   4.837   5.244
 8326SOL     OW25876   3.631   3.907   0.041
 8326SOL    HW125877   3.718   3.942   0.076
 8326SOL    HW225878   3.615   3.943   6.967
 8327SOL     OW25879   0.338   0.980   5.408
 8327SOL    HW125880   0.401   0.979   5.329
 8327SOL    HW225881   0.297   0.889   5.418
 8328SOL     OW25882   1.161   6.781   5.536
 8328SOL    HW125883   1.107   6.707   5.496
 8328SOL    HW225884   1.180   6.760   5.632
 8329SOL     OW25885   0.706   2.999   5.346
 8329SOL    HW125886   0.654   2.950   5.417
 8329SOL    HW225887   0.798   3.017   5.380
 8330SOL     OW25888   3.981   0.926   6.390
 8330SOL    HW125889   4.066   0.977   6.407
 8330SOL    HW225890   4.004   0.831   6.368
 8331SOL     OW25891   2.550   2.252   0.176
 8331SOL    HW125892   2.544   2.200   0.091
 8331SOL    HW225893   2.517   2.345   0.162
 8332SOL     OW25894   5.514   5.632   1.878
 8332SOL    HW125895   5.476   5.646   1.969
 8332SOL    HW225896   5.561   5.543   1.876
 8333SOL     OW25897   1.798   5.299   0.701
 8333SOL    HW125898   1.846   5.221   0.661
 8333SOL    HW225899   1.841   5.384   0.670
 8334SOL     OW25900   2.935   1.580   6.412
 8334SOL    HW125901   2.995   1.655   6.442
 8334SOL    HW225902   2.880   1.609   6.334
 8335SOL     OW25903   4.182   2.555   6.604
 8335SOL    HW125904   4.114   2.483   6.620
 8335SOL    HW225905   4.259   2.544   6.668
 8336SOL     OW25906   1.404   3.771   2.639
 8336SOL    HW125907   1.393   3.853   2.695
 8336SOL    HW225908   1.315   3.743   2.603
 8337SOL     OW25909   0.847   0.660   4.903
 8337SOL    HW125910   0.790   0.723   4.957
 8337SOL    HW225911   0.790   0.588   4.864
 8338SOL     OW25912   3.987   4.825   2.372
 8338SOL    HW125913   3.905   4.864   2.330
 8338SOL    HW225914   4.052   4.799   2.301
 8339SOL     OW25915   6.675   0.636   0.587
 8339SOL    HW125916   6.627   0.720   0.616
 8339SOL    HW225917   6.705   0.646   0.492
 8340SOL     OW25918   4.858   3.582   0.330
 8340SOL    HW125919   4.814   3.653   0.275
 8340SOL    HW225920   4.954   3.575   0.304
 8341SOL     OW25921   3.249   0.516   6.252
 8341SOL    HW125922   3.241   0.530   6.350
 8341SOL    HW225923   3.254   0.418   6.233
 8342SOL     OW25924   3.532   6.108   0.606
 8342SOL    HW125925   3.582   6.064   0.681
 8342SOL    HW225926   3.497   6.037   0.545
 8343SOL     OW25927   6.549   5.357   4.264
 8343SOL    HW125928   6.643   5.342   4.233
 8343SOL    HW225929   6.486   5.326   4.193
 8344SOL     OW25930   0.278   4.637   4.185
 8344SOL    HW125931   0.258   4.734   4.195
 8344SOL    HW225932   0.340   4.624   4.107
 8345SOL     OW25933   5.153   1.527   3.458
 8345SOL    HW125934   5.191   1.607   3.506
 8345SOL    HW225935   5.101   1.558   3.379
 8346SOL     OW25936   4.007   2.920   6.189
 8346SOL    HW125937   3.918   2.950   6.156
 8346SOL    HW225938   4.076   2.989   6.167
 8347SOL     OW25939   2.474   6.540   6.310
 8347SOL    HW125940   2.527   6.508   6.232
 8347SOL    HW225941   2.508   6.498   6.394
 8348SOL     OW25942   2.906   6.796   1.537
 8348SOL    HW125943   2.858   6.841   1.462
 8348SOL    HW225944   2.848   6.726   1.577
 8349SOL     OW25945   0.730   6.457   1.614
 8349SOL    HW125946   0.811   6.469   1.671
 8349SOL    HW225947   0.731   6.523   1.540
 8350SOL     OW25948   2.482   0.030   6.412
 8350SOL    HW125949   2.466   6.964   6.360
 8350SOL    HW225950   2.394   0.074   6.432
 8351SOL     OW25951   5.680   5.749   3.552
 8351SOL    HW125952   5.654   5.808   3.629
 8351SOL    HW225953   5.773   5.715   3.567
 8352SOL     OW25954   2.712   5.990   2.693
 8352SOL    HW125955   2.775   6.039   2.633
 8352SOL    HW225956   2.689   6.049   2.771
 8353SOL     OW25957   1.803   4.114   1.469
 8353SOL    HW125958   1.833   4.024   1.439
 8353SOL    HW225959   1.707   4.127   1.447
 8354SOL     OW25960   3.509   6.705   4.082
 8354SOL    HW125961   3.574   6.774   4.116
 8354SOL    HW225962   3.522   6.619   4.132
 8355SOL     OW25963   1.877   0.886   6.194
 8355SOL    HW125964   1.819   0.805   6.205
 8355SOL    HW225965   1.955   0.881   6.255
 8356SOL     OW25966   1.165   5.099   1.827
 8356SOL    HW125967   1.173   5.057   1.917
 8356SOL    HW225968   1.254   5.095   1.781
 8357SOL     OW25969   3.400   5.522   5.890
 8357SOL    HW125970   3.334   5.588   5.927
 8357SOL    HW225971   3.431   5.552   5.800
 8358SOL     OW25972   1.274   3.092   5.930
 8358SOL    HW125973   1.334   3.015   5.910
 8358SOL    HW225974   1.180   3.060   5.942
 8359SOL     OW25975   1.871   1.655   4.574
 8359SOL    HW125976   1.963   1.624   4.551
 8359SOL    HW225977   1.858   1.651   4.673
 8360SOL     OW25978   5.005   6.697   0.643
 8360SOL    HW125979   4.973   6.614   0.687
 8360SOL    HW225980   5.060   6.751   0.707
 8361SOL     OW25981   2.736   6.672   6.550
 8361SOL    HW125982   2.803   6.668   6.624
 8361SOL    HW225983   2.656   6.723   6.581
 8362SOL     OW25984   6.430   1.921   0.641
 8362SOL    HW125985   6.482   1.963   0.567
 8362SOL    HW225986   6.452   1.966   0.728
 8363SOL     OW25987   4.631   1.824   0.750
 8363SOL    HW125988   4.696   1.750   0.736
 8363SOL    HW225989   4.547   1.787   0.790
 8364SOL     OW25990   0.917   3.030   3.922
 8364SOL    HW125991   0.962   3.054   4.008
 8364SOL    HW225992   0.972   3.061   3.845
 8365SOL     OW25993   1.871   2.146   3.122
 8365SOL    HW125994   1.777   2.143   3.158
 8365SOL    HW225995   1.919   2.063   3.149
 8366SOL     OW25996   3.866   5.211   1.209
 8366SOL    HW125997   3.903   5.270   1.281
 8366SOL    HW225998   3.898   5.117   1.222
 8367SOL     OW25999   3.079   5.058   5.095
 8367SOL    HW126000   3.156   5.053   5.159
 8367SOL    HW226001   3.033   4.970   5.092
 8368SOL     OW26002   1.122   6.199   6.894
 8368SOL    HW126003   1.152   6.133   6.825
 8368SOL    HW226004   1.024   6.189   6.910
 8369SOL     OW26005   0.793   1.058   0.906
 8369SOL    HW126006   0.724   1.025   0.842
 8369SOL    HW226007   0.862   1.111   0.857
 8370SOL     OW26008   2.666   1.598   6.543
 8370SOL    HW126009   2.595   1.629   6.479
 8370SOL    HW226010   2.694   1.505   6.519
 8371SOL     OW26011   1.720   3.463   6.084
 8371SOL    HW126012   1.800   3.476   6.026
 8371SOL    HW226013   1.690   3.552   6.119
 8372SOL     OW26014   2.187   6.163   1.915
 8372SOL    HW126015   2.187   6.223   1.995
 8372SOL    HW226016   2.155   6.214   1.835
 8373SOL     OW26017   1.542   1.581   4.764
 8373SOL    HW126018   1.448   1.561   4.737
 8373SOL    HW226019   1.543   1.616   4.857
 8374SOL     OW26020   0.860   0.791   4.329
 8374SOL    HW126021   0.894   0.699   4.313
 8374SOL    HW226022   0.825   0.798   4.422
 8375SOL     OW26023   3.321   0.407   5.781
 8375SOL    HW126024   3.254   0.352   5.831
 8375SOL    HW226025   3.409   0.403   5.828
 8376SOL     OW26026   2.037   1.128   4.244
 8376SOL    HW126027   2.017   1.081   4.330
 8376SOL    HW226028   2.007   1.223   4.250
 8377SOL     OW26029   5.553   5.275   0.499
 8377SOL    HW126030   5.538   5.264   0.400
 8377SOL    HW226031   5.573   5.185   0.539
 8378SOL     OW26032   5.290   5.076   2.993
 8378SOL    HW126033   5.212   5.058   3.053
 8378SOL    HW226034   5.350   5.145   3.035
 8379SOL     OW26035   5.088   2.428   1.510
 8379SOL    HW126036   5.081   2.521   1.473
 8379SOL    HW226037   5.138   2.370   1.447
 8380SOL     OW26038   0.188   6.699   6.590
 8380SOL    HW126039   0.198   6.765   6.664
 8380SOL    HW226040   0.277   6.682   6.548
 8381SOL     OW26041   7.001   2.578   3.474
 8381SOL    HW126042   6.923   2.580   3.411
 8381SOL    HW226043   6.975   2.620   3.561
 8382SOL     OW26044   2.669   0.454   1.108
 8382SOL    HW126045   2.592   0.426   1.051
 8382SOL    HW226046   2.659   0.414   1.199
 8383SOL     OW26047   2.348   0.537   5.258
 8383SOL    HW126048   2.261   0.563   5.298
 8383SOL    HW226049   2.399   0.619   5.233
 8384SOL     OW26050   6.656   1.410   0.617
 8384SOL    HW126051   6.692   1.333   0.565
 8384SOL    HW226052   6.600   1.467   0.558
 8385SOL     OW26053   4.773   2.876   0.264
 8385SOL    HW126054   4.812   2.953   0.314
 8385SOL    HW226055   4.728   2.814   0.328
 8386SOL     OW26056   1.930   5.459   1.337
 8386SOL    HW126057   1.866   5.526   1.297
 8386SOL    HW226058   1.889   5.420   1.419
 8387SOL     OW26059   1.593   1.366   1.840
 8387SOL    HW126060   1.550   1.308   1.771
 8387SOL    HW226061   1.587   1.461   1.812
 8388SOL     OW26062   1.650   0.220   0.755
 8388SOL    HW126063   1.654   0.125   0.786
 8388SOL    HW226064   1.590   0.273   0.816
 8389SOL     OW26065   0.924   3.025   4.324
 8389SOL    HW126066   0.909   3.028   4.423
 8389SOL    HW226067   0.836   3.019   4.277
 8390SOL     OW26068   3.611   6.906   6.706
 8390SOL    HW126069   3.665   6.891   6.623
 8390SOL    HW226070   3.660   6.967   6.768
 8391SOL     OW26071   5.299   5.063   0.739
 8391SOL    HW126072   5.245   5.024   0.665
 8391SOL    HW226073   5.283   5.012   0.823
 8392SOL     OW26074   6.658   5.653   5.435
 8392SOL    HW126075   6.623   5.739   5.396
 8392SOL    HW226076   6.663   5.663   5.535
 8393SOL     OW26077   0.016   0.576   3.896
 8393SOL    HW126078   6.957   0.536   3.847
 8393SOL    HW226079   0.056   0.650   3.841
 8394SOL     OW26080   0.666   2.257   1.910
 8394SOL    HW126081   0.753   2.268   1.959
 8394SOL    HW226082   0.673   2.180   1.847
 8395SOL     OW26083   1.374   6.686   4.091
 8395SOL    HW126084   1.282   6.716   4.114
 8395SOL    HW226085   1.392   6.706   3.994
 8396SOL     OW26086   4.536   4.453   2.395
 8396SOL    HW126087   4.472   4.510   2.343
 8396SOL    HW226088   4.613   4.428   2.336
 8397SOL     OW26089   2.186   0.124   2.995
 8397SOL    HW126090   2.173   0.172   2.909
 8397SOL    HW226091   2.265   0.063   2.987
 8398SOL     OW26092   3.413   1.678   0.098
 8398SOL    HW126093   3.464   1.622   0.033
 8398SOL    HW226094   3.407   1.630   0.186
 8399SOL     OW26095   6.728   6.681   0.055
 8399SOL    HW126096   6.641   6.667   0.102
 8399SOL    HW226097   6.714   6.674   6.974
 8400SOL     OW26098   1.198   0.770   3.311
 8400SOL    HW126099   1.251   0.844   3.271
 8400SOL    HW226100   1.173   0.704   3.240
 8401SOL     OW26101   3.836   2.852   5.882
 8401SOL    HW126102   3.765   2.813   5.940
 8401SOL    HW226103   3.797   2.926   5.827
 8402SOL     OW26104   3.035   1.603   5.778
 8402SOL    HW126105   2.965   1.608   5.708
 8402SOL    HW226106   3.088   1.689   5.779
 8403SOL     OW26107   0.563   1.588   3.346
 8403SOL    HW126108   0.536   1.616   3.438
 8403SOL    HW226109   0.636   1.521   3.352
 8404SOL     OW26110   5.975   6.075   6.713
 8404SOL    HW126111   6.032   6.001   6.678
 8404SOL    HW226112   5.884   6.069   6.673
 8405SOL     OW26113   1.798   1.414   6.873
 8405SOL    HW126114   1.754   1.484   6.930
 8405SOL    HW226115   1.783   1.324   6.914
 8406SOL     OW26116   3.765   0.842   1.289
 8406SOL    HW126117   3.822   0.903   1.345
 8406SOL    HW226118   3.768   0.872   1.194
 8407SOL     OW26119   5.325   6.014   4.319
 8407SOL    HW126120   5.410   6.064   4.304
 8407SOL    HW226121   5.266   6.067   4.379
 8408SOL     OW26122   4.572   1.594   3.447
 8408SOL    HW126123   4.649   1.533   3.430
 8408SOL    HW226124   4.604   1.689   3.446
 8409SOL     OW26125   6.335   2.435   3.823
 8409SOL    HW126126   6.342   2.452   3.725
 8409SOL    HW226127   6.239   2.420   3.847
 8410SOL     OW26128   4.616   0.577   1.795
 8410SOL    HW126129   4.558   0.631   1.856
 8410SOL    HW226130   4.712   0.599   1.813
 8411SOL     OW26131   1.678   5.269   3.987
 8411SOL    HW126132   1.712   5.175   3.985
 8411SOL    HW226133   1.735   5.324   4.048
 8412SOL     OW26134   4.103   1.890   1.217
 8412SOL    HW126135   4.055   1.894   1.305
 8412SOL    HW226136   4.044   1.846   1.149
 8413SOL     OW26137   4.750   4.396   0.310
 8413SOL    HW126138   4.659   4.410   0.349
 8413SOL    HW226139   4.754   4.440   0.220
 8414SOL     OW26140   3.984   6.971   2.456
 8414SOL    HW126141   3.971   6.917   2.539
 8414SOL    HW226142   4.080   6.998   2.449
 8415SOL     OW26143   0.171   5.151   4.283
 8415SOL    HW126144   0.103   5.190   4.346
 8415SOL    HW226145   0.255   5.205   4.287
 8416SOL     OW26146   4.899   4.929   3.296
 8416SOL    HW126147   4.871   4.842   3.336
 8416SOL    HW226148   4.871   5.004   3.357
 8417SOL     OW26149   1.279   5.546   5.609
 8417SOL    HW126150   1.273   5.493   5.524
 8417SOL    HW226151   1.371   5.585   5.618
 8418SOL     OW26152   6.069   5.548   1.269
 8418SOL    HW126153   6.133   5.617   1.302
 8418SOL    HW226154   6.118   5.478   1.217
 8419SOL     OW26155   4.627   1.092   2.116
 8419SOL    HW126156   4.596   1.014   2.169
 8419SOL    HW226157   4.629   1.174   2.173
 8420SOL     OW26158   3.561   6.613   1.084
 8420SOL    HW126159   3.590   6.702   1.049
 8420SOL    HW226160   3.518   6.561   1.011
 8421SOL     OW26161   2.892   6.487   0.821
 8421SOL    HW126162   2.958   6.478   0.896
 8421SOL    HW226163   2.800   6.494   0.858
 8422SOL     OW26164   4.859   6.363   1.639
 8422SOL    HW126165   4.803   6.433   1.594
 8422SOL    HW226166   4.933   6.407   1.689
 8423SOL     OW26167   4.058   3.674   6.054
 8423SOL    HW126168   4.139   3.673   5.995
 8423SOL    HW226169   4.082   3.713   6.142
 8424SOL     OW26170   2.335   2.509   2.855
 8424SOL    HW126171   2.267   2.558   2.801
 8424SOL    HW226172   2.395   2.456   2.794
 8425SOL     OW26173   6.338   5.517   0.821
 8425SOL    HW126174   6.263   5.566   0.776
 8425SOL    HW226175   6.350   5.428   0.778
 8426SOL     OW26176   3.770   2.964   4.346
 8426SOL    HW126177   3.771   2.999   4.440
 8426SOL    HW226178   3.841   3.010   4.292
 8427SOL     OW26179   1.633   4.084   6.105
 8427SOL    HW126180   1.541   4.086   6.066
 8427SOL    HW226181   1.627   4.090   6.205
 8428SOL     OW26182   6.510   4.713   2.058
 8428SOL    HW126183   6.552   4.776   2.124
 8428SOL    HW226184   6.562   4.715   1.972
 8429SOL     OW26185   2.042   4.504   4.154
 8429SOL    HW126186   2.029   4.406   4.142
 8429SOL    HW226187   2.025   4.529   4.250
 8430SOL     OW26188   4.312   5.532   3.224
 8430SOL    HW126189   4.397   5.482   3.240
 8430SOL    HW226190   4.246   5.473   3.177
 8431SOL     OW26191   1.970   5.063   1.182
 8431SOL    HW126192   1.947   5.155   1.150
 8431SOL    HW226193   1.907   4.997   1.140
 8432SOL     OW26194   4.443   5.950   5.517
 8432SOL    HW126195   4.453   5.926   5.421
 8432SOL    HW226196   4.444   5.866   5.572
 8433SOL     OW26197   6.673   2.650   6.430
 8433SOL    HW126198   6.646   2.704   6.350
 8433SOL    HW226199   6.608   2.574   6.442
 8434SOL     OW26200   2.764   0.421   4.922
 8434SOL    HW126201   2.716   0.333   4.909
 8434SOL    HW226202   2.754   0.450   5.017
 8435SOL     OW26203   4.767   1.316   0.864
 8435SOL    HW126204   4.835   1.268   0.808
 8435SOL    HW226205   4.734   1.255   0.936
 8436SOL     OW26206   3.172   6.432   4.227
 8436SOL    HW126207   3.247   6.374   4.194
 8436SOL    HW226208   3.094   6.375   4.253
 8437SOL     OW26209   2.003   0.504   2.512
 8437SOL    HW126210   1.996   0.592   2.558
 8437SOL    HW226211   1.921   0.487   2.457
 8438SOL     OW26212   3.215   4.877   2.179
 8438SOL    HW126213   3.149   4.947   2.151
 8438SOL    HW226214   3.167   4.800   2.221
 8439SOL     OW26215   6.409   5.841   0.788
 8439SOL    HW126216   6.443   5.868   0.878
 8439SOL    HW226217   6.370   5.749   0.793
 8440SOL     OW26218   0.393   1.256   3.231
 8440SOL    HW126219   0.337   1.280   3.152
 8440SOL    HW226220   0.350   1.291   3.314
 8441SOL     OW26221   6.689   6.237   0.338
 8441SOL    HW126222   6.700   6.234   0.438
 8441SOL    HW226223   6.776   6.261   0.296
 8442SOL     OW26224   3.488   3.286   6.177
 8442SOL    HW126225   3.490   3.214   6.107
 8442SOL    HW226226   3.545   3.362   6.148
 8443SOL     OW26227   1.294   0.128   2.878
 8443SOL    HW126228   1.295   0.121   2.978
 8443SOL    HW226229   1.256   0.044   2.839
 8444SOL     OW26230   3.009   5.815   3.723
 8444SOL    HW126231   3.031   5.823   3.820
 8444SOL    HW226232   3.056   5.736   3.684
 8445SOL     OW26233   3.556   5.325   2.030
 8445SOL    HW126234   3.583   5.316   2.125
 8445SOL    HW226235   3.499   5.407   2.019
 8446SOL     OW26236   5.387   5.517   0.954
 8446SOL    HW126237   5.442   5.520   0.871
 8446SOL    HW226238   5.444   5.489   1.031
 8447SOL     OW26239   5.696   2.116   2.009
 8447SOL    HW126240   5.630   2.150   1.942
 8447SOL    HW226241   5.747   2.193   2.047
 8448SOL     OW26242   6.365   3.458   5.229
 8448SOL    HW126243   6.362   3.359   5.234
 8448SOL    HW226244   6.357   3.496   5.322
 8449SOL     OW26245   6.981   2.729   4.418
 8449SOL    HW126246   0.019   2.687   4.348
 8449SOL    HW226247   6.952   2.820   4.388
 8450SOL     OW26248   1.826   5.925   1.875
 8450SOL    HW126249   1.738   5.918   1.830
 8450SOL    HW226250   1.899   5.897   1.812
 8451SOL     OW26251   4.650   3.057   6.845
 8451SOL    HW126252   4.597   3.139   6.869
 8451SOL    HW226253   4.635   2.986   6.913
 8452SOL     OW26254   6.993   0.145   1.423
 8452SOL    HW126255   6.977   0.088   1.503
 8452SOL    HW226256   6.991   0.241   1.448
 8453SOL     OW26257   6.511   4.639   6.182
 8453SOL    HW126258   6.570   4.561   6.202
 8453SOL    HW226259   6.423   4.628   6.229
 8454SOL     OW26260   1.234   5.601   1.411
 8454SOL    HW126261   1.281   5.582   1.497
 8454SOL    HW226262   1.237   5.520   1.353
 8455SOL     OW26263   4.792   2.597   0.962
 8455SOL    HW126264   4.802   2.523   0.896
 8455SOL    HW226265   4.841   2.573   1.046
 8456SOL     OW26266   5.212   4.943   3.257
 8456SOL    HW126267   5.115   4.940   3.281
 8456SOL    HW226268   5.241   4.853   3.223
 8457SOL     OW26269   6.294   6.428   5.350
 8457SOL    HW126270   6.210   6.464   5.310
 8457SOL    HW226271   6.371   6.449   5.290
 8458SOL     OW26272   2.319   1.086   6.795
 8458SOL    HW126273   2.356   1.178   6.785
 8458SOL    HW226274   2.284   1.074   6.888
 8459SOL     OW26275   3.217   6.877   1.385
 8459SOL    HW126276   3.196   6.851   1.479
 8459SOL    HW226277   3.315   6.897   1.377
 8460SOL     OW26278   4.261   2.256   5.821
 8460SOL    HW126279   4.288   2.191   5.893
 8460SOL    HW226280   4.319   2.337   5.825
 8461SOL     OW26281   1.043   3.990   2.073
 8461SOL    HW126282   1.035   4.034   1.984
 8461SOL    HW226283   0.965   3.928   2.087
 8462SOL     OW26284   2.847   2.769   0.258
 8462SOL    HW126285   2.781   2.729   0.321
 8462SOL    HW226286   2.836   2.868   0.257
 8463SOL     OW26287   6.793   1.210   0.478
 8463SOL    HW126288   6.865   1.142   0.490
 8463SOL    HW226289   6.799   1.249   0.386
 8464SOL     OW26290   0.314   4.408   4.989
 8464SOL    HW126291   0.229   4.371   4.953
 8464SOL    HW226292   0.360   4.462   4.919
 8465SOL     OW26293   3.050   2.053   0.543
 8465SOL    HW126294   3.053   2.145   0.581
 8465SOL    HW226295   3.014   2.055   0.450
 8466SOL     OW26296   5.822   6.625   4.848
 8466SOL    HW126297   5.746   6.571   4.811
 8466SOL    HW226298   5.833   6.708   4.794
 8467SOL     OW26299   4.151   0.907   1.240
 8467SOL    HW126300   4.111   0.960   1.314
 8467SOL    HW226301   4.174   0.815   1.273
 8468SOL     OW26302   5.111   3.307   6.984
 8468SOL    HW126303   5.091   3.228   0.024
 8468SOL    HW226304   5.198   3.293   6.937
 8469SOL     OW26305   2.738   1.830   5.740
 8469SOL    HW126306   2.746   1.904   5.672
 8469SOL    HW226307   2.748   1.742   5.694
 8470SOL     OW26308   1.089   4.819   0.122
 8470SOL    HW126309   1.058   4.779   0.036
 8470SOL    HW226310   1.137   4.904   0.105
 8471SOL     OW26311   3.865   0.605   5.912
 8471SOL    HW126312   3.959   0.607   5.879
 8471SOL    HW226313   3.803   0.634   5.839
 8472SOL     OW26314   5.878   0.474   5.156
 8472SOL    HW126315   5.856   0.391   5.104
 8472SOL    HW226316   5.928   0.450   5.239
 8473SOL     OW26317   6.078   5.174   0.583
 8473SOL    HW126318   6.095   5.176   0.682
 8473SOL    HW226319   6.129   5.099   0.541
 8474SOL     OW26320   3.563   3.613   1.821
 8474SOL    HW126321   3.593   3.636   1.914
 8474SOL    HW226322   3.476   3.657   1.802
 8475SOL     OW26323   0.000   2.846   2.915
 8475SOL    HW126324   6.952   2.841   2.990
 8475SOL    HW226325   6.977   2.809   2.832
 8476SOL     OW26326   0.017   1.710   1.274
 8476SOL    HW126327   6.971   1.746   1.206
 8476SOL    HW226328   0.106   1.696   1.232
 8477SOL     OW26329   4.192   6.500   3.018
 8477SOL    HW126330   4.147   6.557   3.086
 8477SOL    HW226331   4.289   6.523   3.013
 8478SOL     OW26332   1.014   1.097   5.769
 8478SOL    HW126333   0.919   1.106   5.797
 8478SOL    HW226334   1.019   1.045   5.684
 8479SOL     OW26335   1.256   3.872   0.968
 8479SOL    HW126336   1.321   3.927   1.020
 8479SOL    HW226337   1.224   3.925   0.889
 8480SOL     OW26338   5.365   3.222   6.866
 8480SOL    HW126339   5.336   3.176   6.782
 8480SOL    HW226340   5.424   3.299   6.844
 8481SOL     OW26341   4.853   2.447   4.962
 8481SOL    HW126342   4.910   2.478   4.887
 8481SOL    HW226343   4.780   2.388   4.927
 8482SOL     OW26344   4.931   0.415   2.298
 8482SOL    HW126345   4.973   0.472   2.369
 8482SOL    HW226346   4.844   0.381   2.331
 8483SOL     OW26347   3.022   5.646   3.307
 8483SOL    HW126348   2.999   5.725   3.251
 8483SOL    HW226349   2.942   5.618   3.360
 8484SOL     OW26350   6.588   6.088   4.111
 8484SOL    HW126351   6.676   6.040   4.116
 8484SOL    HW226352   6.519   6.034   4.159
 8485SOL     OW26353   4.035   2.900   0.374
 8485SOL    HW126354   4.111   2.836   0.376
 8485SOL    HW226355   4.064   2.988   0.409
 8486SOL     OW26356   2.076   1.305   2.880
 8486SOL    HW126357   2.122   1.287   2.793
 8486SOL    HW226358   2.143   1.302   2.954
 8487SOL     OW26359   5.660   2.110   6.167
 8487SOL    HW126360   5.649   2.187   6.230
 8487SOL    HW226361   5.592   2.116   6.094
 8488SOL     OW26362   5.339   6.282   2.355
 8488SOL    HW126363   5.432   6.294   2.320
 8488SOL    HW226364   5.334   6.317   2.448
 8489SOL     OW26365   6.136   1.152   1.636
 8489SOL    HW126366   6.144   1.074   1.697
 8489SOL    HW226367   6.227   1.192   1.621
 8490SOL     OW26368   3.015   6.901   5.503
 8490SOL    HW126369   3.002   6.834   5.576
 8490SOL    HW226370   3.112   6.913   5.486
 8491SOL     OW26371   1.569   6.145   2.666
 8491SOL    HW126372   1.663   6.134   2.635
 8491SOL    HW226373   1.568   6.195   2.752
 8492SOL     OW26374   5.554   4.648   4.383
 8492SOL    HW126375   5.614   4.621   4.308
 8492SOL    HW226376   5.608   4.658   4.467
 8493SOL     OW26377   1.805   2.368   6.729
 8493SOL    HW126378   1.753   2.294   6.772
 8493SOL    HW226379   1.883   2.330   6.679
 8494SOL     OW26380   4.536   5.357   1.997
 8494SOL    HW126381   4.534   5.447   2.040
 8494SOL    HW226382   4.620   5.348   1.943
 8495SOL     OW26383   0.108   4.905   1.324
 8495SOL    HW126384   0.106   4.971   1.248
 8495SOL    HW226385   0.043   4.831   1.306
 8496SOL     OW26386   0.122   1.133   2.592
 8496SOL    HW126387   0.209   1.168   2.624
 8496SOL    HW226388   0.118   1.139   2.492
 8497SOL     OW26389   0.165   1.519   3.164
 8497SOL    HW126390   0.087   1.564   3.208
 8497SOL    HW226391   0.241   1.583   3.156
 8498SOL     OW26392   6.784   0.062   3.125
 8498SOL    HW126393   6.704   0.079   3.067
 8498SOL    HW226394   6.811   0.147   3.170
 8499SOL     OW26395   0.953   3.924   6.985
 8499SOL    HW126396   0.949   3.881   6.894
 8499SOL    HW226397   1.049   3.937   7.011
 8500SOL     OW26398   1.767   6.463   6.102
 8500SOL    HW126399   1.774   6.490   6.199
 8500SOL    HW226400   1.840   6.398   6.081
 8501SOL     OW26401   0.245   2.713   6.148
 8501SOL    HW126402   0.318   2.686   6.212
 8501SOL    HW226403   0.255   2.810   6.126
 8502SOL     OW26404   0.384   2.844   1.718
 8502SOL    HW126405   0.294   2.872   1.685
 8502SOL    HW226406   0.454   2.898   1.673
 8503SOL     OW26407   0.189   5.808   5.193
 8503SOL    HW126408   0.275   5.805   5.243
 8503SOL    HW226409   0.120   5.755   5.242
 8504SOL     OW26410   1.962   5.400   2.090
 8504SOL    HW126411   2.044   5.457   2.084
 8504SOL    HW226412   1.881   5.459   2.084
 8505SOL     OW26413   6.170   3.432   2.915
 8505SOL    HW126414   6.200   3.483   2.834
 8505SOL    HW226415   6.087   3.381   2.893
 8506SOL     OW26416   1.259   1.050   6.770
 8506SOL    HW126417   1.254   0.967   6.713
 8506SOL    HW226418   1.213   1.125   6.723
 8507SOL     OW26419   3.480   6.752   5.101
 8507SOL    HW126420   3.520   6.674   5.150
 8507SOL    HW226421   3.553   6.809   5.064
 8508SOL     OW26422   4.436   1.988   5.595
 8508SOL    HW126423   4.337   2.005   5.595
 8508SOL    HW226424   4.455   1.905   5.542
 8509SOL     OW26425   5.465   0.654   3.154
 8509SOL    HW126426   5.447   0.751   3.173
 8509SOL    HW226427   5.541   0.646   3.089
 8510SOL     OW26428   5.771   4.086   2.499
 8510SOL    HW126429   5.837   4.154   2.467
 8510SOL    HW226430   5.742   4.029   2.421
 8511SOL     OW26431   6.060   3.437   2.445
 8511SOL    HW126432   5.967   3.460   2.416
 8511SOL    HW226433   6.055   3.378   2.526
 8512SOL     OW26434   3.248   0.664   2.609
 8512SOL    HW126435   3.203   0.704   2.689
 8512SOL    HW226436   3.319   0.600   2.640
 8513SOL     OW26437   0.088   5.353   0.953
 8513SOL    HW126438   0.144   5.436   0.957
 8513SOL    HW226439   0.104   5.305   0.867
 8514SOL     OW26440   2.369   0.420   3.867
 8514SOL    HW126441   2.411   0.509   3.886
 8514SOL    HW226442   2.346   0.415   3.770
 8515SOL     OW26443   4.959   2.468   1.187
 8515SOL    HW126444   5.033   2.400   1.191
 8515SOL    HW226445   4.895   2.451   1.261
 8516SOL     OW26446   0.080   1.870   2.318
 8516SOL    HW126447   0.058   1.915   2.231
 8516SOL    HW226448   0.167   1.822   2.309
 8517SOL     OW26449   0.629   3.003   5.752
 8517SOL    HW126450   0.700   3.045   5.696
 8517SOL    HW226451   0.664   2.919   5.794
 8518SOL     OW26452   4.301   4.126   6.670
 8518SOL    HW126453   4.291   4.214   6.716
 8518SOL    HW226454   4.349   4.062   6.730
 8519SOL     OW26455   1.942   5.158   2.265
 8519SOL    HW126456   1.937   5.183   2.168
 8519SOL    HW226457   2.008   5.217   2.311
 8520SOL     OW26458   4.023   1.032   0.649
 8520SOL    HW126459   3.988   1.097   0.582
 8520SOL    HW226460   4.006   1.066   0.741
 8521SOL     OW26461   1.823   5.509   5.829
 8521SOL    HW126462   1.790   5.489   5.921
 8521SOL    HW226463   1.923   5.500   5.826
 8522SOL     OW26464   1.187   5.635   2.269
 8522SOL    HW126465   1.131   5.553   2.257
 8522SOL    HW226466   1.260   5.616   2.334
 8523SOL     OW26467   2.989   6.385   6.575
 8523SOL    HW126468   2.979   6.359   6.480
 8523SOL    HW226469   2.998   6.484   6.582
 8524SOL     OW26470   1.358   2.905   4.617
 8524SOL    HW126471   1.436   2.960   4.588
 8524SOL    HW226472   1.374   2.809   4.591
 8525SOL     OW26473   6.105   4.126   3.675
 8525SOL    HW126474   6.075   4.191   3.604
 8525SOL    HW226475   6.029   4.066   3.698
 8526SOL     OW26476   2.696   3.851   1.081
 8526SOL    HW126477   2.638   3.855   1.163
 8526SOL    HW226478   2.670   3.926   1.019
 8527SOL     OW26479   3.485   0.189   5.099
 8527SOL    HW126480   3.490   0.274   5.152
 8527SOL    HW226481   3.537   0.199   5.014
 8528SOL     OW26482   5.441   3.193   6.023
 8528SOL    HW126483   5.360   3.166   6.074
 8528SOL    HW226484   5.441   3.292   6.011
 8529SOL     OW26485   1.237   7.002   6.850
 8529SOL    HW126486   1.186   6.922   6.820
 8529SOL    HW226487   1.173   0.052   6.886
 8530SOL     OW26488   1.118   5.096   6.141
 8530SOL    HW126489   1.139   5.149   6.059
 8530SOL    HW226490   1.173   5.129   6.217
 8531SOL     OW26491   5.651   4.306   2.648
 8531SOL    HW126492   5.693   4.216   2.648
 8531SOL    HW226493   5.565   4.303   2.699
 8532SOL     OW26494   4.443   4.692   4.943
 8532SOL    HW126495   4.356   4.714   4.900
 8532SOL    HW226496   4.435   4.605   4.992
 8533SOL     OW26497   1.922   0.780   5.271
 8533SOL    HW126498   1.853   0.709   5.285
 8533SOL    HW226499   1.891   0.865   5.314
 8534SOL     OW26500   0.167   3.858   3.379
 8534SOL    HW126501   0.171   3.939   3.439
 8534SOL    HW226502   0.202   3.779   3.429
 8535SOL     OW26503   0.801   2.062   5.165
 8535SOL    HW126504   0.820   2.108   5.078
 8535SOL    HW226505   0.857   1.980   5.173
 8536SOL     OW26506   5.987   1.986   4.931
 8536SOL    HW126507   5.983   2.069   4.875
 8536SOL    HW226508   5.962   2.008   5.025
 8537SOL     OW26509   6.489   1.606   0.992
 8537SOL    HW126510   6.471   1.643   0.902
 8537SOL    HW226511   6.543   1.672   1.045
 8538SOL     OW26512   0.409   0.703   5.045
 8538SOL    HW126513   0.414   0.802   5.027
 8538SOL    HW226514   0.400   0.688   5.143
 8539SOL     OW26515   6.178   1.941   2.193
 8539SOL    HW126516   6.107   1.990   2.143
 8539SOL    HW226517   6.230   1.883   2.131
 8540SOL     OW26518   3.824   1.562   0.559
 8540SOL    HW126519   3.850   1.505   0.637
 8540SOL    HW226520   3.814   1.657   0.589
 8541SOL     OW26521   2.463   2.065   4.889
 8541SOL    HW126522   2.456   2.069   4.988
 8541SOL    HW226523   2.439   1.973   4.857
 8542SOL     OW26524   2.883   4.375   6.860
 8542SOL    HW126525   2.849   4.464   6.829
 8542SOL    HW226526   2.884   4.373   6.960
 8543SOL     OW26527   3.045   1.508   5.442
 8543SOL    HW126528   3.123   1.450   5.466
 8543SOL    HW226529   3.020   1.492   5.347
 8544SOL     OW26530   5.371   3.019   5.036
 8544SOL    HW126531   5.418   3.004   4.949
 8544SOL    HW226532   5.303   2.947   5.050
 8545SOL     OW26533   3.114   6.611   4.554
 8545SOL    HW126534   3.075   6.533   4.603
 8545SOL    HW226535   3.040   6.668   4.518
 8546SOL     OW26536   5.869   0.002   1.555
 8546SOL    HW126537   5.898   0.097   1.565
 8546SOL    HW226538   5.781   7.016   1.507
 8547SOL     OW26539   6.949   0.357   5.370
 8547SOL    HW126540   6.958   0.376   5.272
 8547SOL    HW226541   6.901   0.433   5.414
 8548SOL     OW26542   0.367   2.900   5.301
 8548SOL    HW126543   0.403   2.914   5.209
 8548SOL    HW226544   0.440   2.869   5.361
 8549SOL     OW26545   0.682   2.567   4.011
 8549SOL    HW126546   0.657   2.632   3.939
 8549SOL    HW226547   0.774   2.587   4.043
 8550SOL     OW26548   1.079   3.306   6.262
 8550SOL    HW126549   1.151   3.291   6.194
 8550SOL    HW226550   1.085   3.400   6.296
 8551SOL     OW26551   2.724   2.765   6.811
 8551SOL    HW126552   2.755   2.796   6.721
 8551SOL    HW226553   2.685   2.842   6.861
 8552SOL     OW26554   3.089   0.301   1.979
 8552SOL    HW126555   3.075   0.356   2.061
 8552SOL    HW226556   3.095   0.204   2.005
 8553SOL     OW26557   4.083   4.323   0.258
 8553SOL    HW126558   4.000   4.273   0.237
 8553SOL    HW226559   4.130   4.280   0.335
 8554SOL     OW26560   0.900   5.919   1.852
 8554SOL    HW126561   0.820   5.871   1.888
 8554SOL    HW226562   0.875   5.969   1.769
 8555SOL     OW26563   4.197   1.766   3.242
 8555SOL    HW126564   4.221   1.704   3.317
 8555SOL    HW226565   4.246   1.853   3.253
 8556SOL     OW26566   1.703   6.252   5.811
 8556SOL    HW126567   1.626   6.212   5.861
 8556SOL    HW226568   1.789   6.222   5.851
 8557SOL     OW26569   6.390   1.140   0.997
 8557SOL    HW126570   6.400   1.211   0.929
 8557SOL    HW226571   6.480   1.105   1.023
 8558SOL     OW26572   2.167   5.311   2.944
 8558SOL    HW126573   2.089   5.297   3.006
 8558SOL    HW226574   2.248   5.334   2.998
 8559SOL     OW26575   1.810   6.477   2.810
 8559SOL    HW126576   1.824   6.555   2.872
 8559SOL    HW226577   1.895   6.460   2.760
 8560SOL     OW26578   1.247   5.769   2.031
 8560SOL    HW126579   1.246   5.710   1.951
 8560SOL    HW226580   1.230   5.714   2.113
 8561SOL     OW26581   3.960   6.842   3.544
 8561SOL    HW126582   3.904   6.815   3.623
 8561SOL    HW226583   3.917   6.810   3.460
 8562SOL     OW26584   4.256   0.118   0.093
 8562SOL    HW126585   4.189   0.095   0.023
 8562SOL    HW226586   4.209   0.144   0.177
 8563SOL     OW26587   0.735   4.836   2.045
 8563SOL    HW126588   0.813   4.850   1.984
 8563SOL    HW226589   0.683   4.756   2.014
 8564SOL     OW26590   3.389   6.404   5.748
 8564SOL    HW126591   3.319   6.356   5.694
 8564SOL    HW226592   3.476   6.400   5.700
 8565SOL     OW26593   3.793   5.348   1.820
 8565SOL    HW126594   3.753   5.279   1.880
 8565SOL    HW226595   3.799   5.312   1.727
 8566SOL     OW26596   2.078   0.828   2.079
 8566SOL    HW126597   2.136   0.889   2.134
 8566SOL    HW226598   1.982   0.840   2.106
 8567SOL     OW26599   1.661   2.118   1.940
 8567SOL    HW126600   1.590   2.048   1.931
 8567SOL    HW226601   1.707   2.108   2.028
 8568SOL     OW26602   6.051   1.222   0.627
 8568SOL    HW126603   6.006   1.223   0.716
 8568SOL    HW226604   5.982   1.210   0.555
 8569SOL     OW26605   5.100   1.873   5.937
 8569SOL    HW126606   5.094   1.890   5.839
 8569SOL    HW226607   5.019   1.910   5.983
 8570SOL     OW26608   1.441   1.946   4.313
 8570SOL    HW126609   1.529   1.940   4.361
 8570SOL    HW226610   1.368   1.957   4.379
 8571SOL     OW26611   0.649   0.257   4.545
 8571SOL    HW126612   0.736   0.212   4.562
 8571SOL    HW226613   0.664   0.355   4.529
 8572SOL     OW26614   1.989   3.886   5.380
 8572SOL    HW126615   1.891   3.883   5.399
 8572SOL    HW226616   2.034   3.945   5.448
 8573SOL     OW26617   2.973   5.768   6.422
 8573SOL    HW126618   3.015   5.816   6.499
 8573SOL    HW226619   2.896   5.714   6.454
 8574SOL     OW26620   6.029   6.480   5.929
 8574SOL    HW126621   6.057   6.388   5.955
 8574SOL    HW226622   6.109   6.539   5.921
 8575SOL     OW26623   3.143   1.193   2.975
 8575SOL    HW126624   3.123   1.287   3.001
 8575SOL    HW226625   3.239   1.173   2.995
 8576SOL     OW26626   1.889   4.820   4.088
 8576SOL    HW126627   1.840   4.825   4.175
 8576SOL    HW226628   1.880   4.728   4.050
 8577SOL     OW26629   1.179   0.643   6.064
 8577SOL    HW126630   1.092   0.692   6.080
 8577SOL    HW226631   1.214   0.608   6.151
 8578SOL     OW26632   6.671   5.418   5.734
 8578SOL    HW126633   6.758   5.388   5.774
 8578SOL    HW226634   6.659   5.375   5.644
 8579SOL     OW26635   1.225   6.237   2.129
 8579SOL    HW126636   1.325   6.232   2.119
 8579SOL    HW226637   1.184   6.152   2.095
 8580SOL     OW26638   2.055   6.062   1.285
 8580SOL    HW126639   2.109   6.024   1.360
 8580SOL    HW226640   1.959   6.036   1.297
 8581SOL     OW26641   4.040   4.706   1.812
 8581SOL    HW126642   4.107   4.634   1.796
 8581SOL    HW226643   3.957   4.687   1.760
 8582SOL     OW26644   4.911   4.589   5.453
 8582SOL    HW126645   4.828   4.627   5.412
 8582SOL    HW226646   4.984   4.588   5.385
 8583SOL     OW26647   3.034   6.847   2.851
 8583SOL    HW126648   2.970   6.772   2.871
 8583SOL    HW226649   3.072   6.881   2.937
 8584SOL     OW26650   0.468   0.420   5.104
 8584SOL    HW126651   0.522   0.344   5.069
 8584SOL    HW226652   0.459   0.491   5.034
 8585SOL     OW26653   6.230   1.458   0.981
 8585SOL    HW126654   6.204   1.422   0.891
 8585SOL    HW226655   6.305   1.524   0.970
 8586SOL     OW26656   4.320   6.693   1.934
 8586SOL    HW126657   4.296   6.680   1.838
 8586SOL    HW226658   4.236   6.699   1.989
 8587SOL     OW26659   1.240   1.360   4.865
 8587SOL    HW126660   1.284   1.350   4.954
 8587SOL    HW226661   1.154   1.411   4.876
 8588SOL     OW26662   4.807   0.957   0.053
 8588SOL    HW126663   4.782   0.907   6.988
 8588SOL    HW226664   4.783   0.901   0.134
 8589SOL     OW26665   6.586   2.705   5.328
 8589SOL    HW126666   6.609   2.624   5.382
 8589SOL    HW226667   6.601   2.687   5.231
 8590SOL     OW26668   0.620   0.696   2.585
 8590SOL    HW126669   0.575   0.621   2.537
 8590SOL    HW226670   0.566   0.779   2.574
 8591SOL     OW26671   0.069   4.271   0.580
 8591SOL    HW126672   0.037   4.189   0.533
 8591SOL    HW226673   0.140   4.246   0.646
 8592SOL     OW26674   0.233   2.730   0.011
 8592SOL    HW126675   0.155   2.780   0.048
 8592SOL    HW226676   0.317   2.779   0.033
 8593SOL     OW26677   3.407   0.863   6.839
 8593SOL    HW126678   3.377   0.958   6.836
 8593SOL    HW226679   3.465   0.844   6.760
 8594SOL     OW26680   6.008   2.344   6.310
 8594SOL    HW126681   5.994   2.286   6.230
 8594SOL    HW226682   5.999   2.288   6.393
 8595SOL     OW26683   6.382   1.303   3.531
 8595SOL    HW126684   6.354   1.294   3.627
 8595SOL    HW226685   6.342   1.386   3.493
 8596SOL     OW26686   1.359   4.406   2.986
 8596SOL    HW126687   1.382   4.326   3.042
 8596SOL    HW226688   1.443   4.452   2.958
 8597SOL     OW26689   5.715   1.695   1.330
 8597SOL    HW126690   5.726   1.715   1.233
 8597SOL    HW226691   5.755   1.769   1.384
 8598SOL     OW26692   5.396   0.091   5.753
 8598SOL    HW126693   5.307   0.052   5.731
 8598SOL    HW226694   5.421   0.066   5.847
 8599SOL     OW26695   1.183   2.429   4.209
 8599SOL    HW126696   1.238   2.478   4.276
 8599SOL    HW226697   1.226   2.435   4.119
 8600SOL     OW26698   5.127   3.605   0.241
 8600SOL    HW126699   5.190   3.574   0.170
 8600SOL    HW226700   5.177   3.654   0.311
 8601SOL     OW26701   0.071   1.958   3.672
 8601SOL    HW126702   0.142   1.994   3.732
 8601SOL    HW226703   6.999   1.978   3.710
 8602SOL     OW26704   2.429   6.352   2.436
 8602SOL    HW126705   2.498   6.343   2.508
 8602SOL    HW226706   2.344   6.307   2.467
 8603SOL     OW26707   5.451   6.919   6.913
 8603SOL    HW126708   5.375   6.864   6.947
 8603SOL    HW226709   5.419   7.012   6.894
 8604SOL     OW26710   0.904   2.805   6.348
 8604SOL    HW126711   0.999   2.809   6.316
 8604SOL    HW226712   0.892   2.870   6.423
 8605SOL     OW26713   1.044   4.997   3.808
 8605SOL    HW126714   1.112   4.986   3.735
 8605SOL    HW226715   0.974   4.927   3.798
 8606SOL     OW26716   2.471   2.141   6.954
 8606SOL    HW126717   2.551   2.104   6.907
 8606SOL    HW226718   2.418   2.197   6.889
 8607SOL     OW26719   2.277   4.144   6.502
 8607SOL    HW126720   2.260   4.087   6.422
 8607SOL    HW226721   2.316   4.088   6.575
 8608SOL     OW26722   1.828   4.834   2.233
 8608SOL    HW126723   1.743   4.859   2.280
 8608SOL    HW226724   1.906   4.861   2.289
 8609SOL     OW26725   5.212   0.490   3.915
 8609SOL    HW126726   5.189   0.399   3.881
 8609SOL    HW226727   5.191   0.558   3.846
 8610SOL     OW26728   6.644   0.606   3.101
 8610SOL    HW126729   6.558   0.573   3.063
 8610SOL    HW226730   6.721   0.562   3.055
 8611SOL     OW26731   3.005   1.133   4.578
 8611SOL    HW126732   3.070   1.197   4.619
 8611SOL    HW226733   2.985   1.161   4.484
 8612SOL     OW26734   2.734   3.612   1.685
 8612SOL    HW126735   2.831   3.615   1.709
 8612SOL    HW226736   2.707   3.517   1.667
 8613SOL     OW26737   3.298   2.173   1.470
 8613SOL    HW126738   3.244   2.181   1.554
 8613SOL    HW226739   3.288   2.081   1.432
 8614SOL     OW26740   1.845   2.522   3.493
 8614SOL    HW126741   1.852   2.431   3.533
 8614SOL    HW226742   1.935   2.567   3.495
 8615SOL     OW26743   4.751   2.165   5.310
 8615SOL    HW126744   4.696   2.144   5.391
 8615SOL    HW226745   4.830   2.220   5.337
 8616SOL     OW26746   2.784   4.861   1.969
 8616SOL    HW126747   2.754   4.849   1.874
 8616SOL    HW226748   2.862   4.802   1.987
 8617SOL     OW26749   6.019   1.433   3.664
 8617SOL    HW126750   6.087   1.421   3.736
 8617SOL    HW226751   5.927   1.427   3.704
 8618SOL     OW26752   6.105   4.644   1.137
 8618SOL    HW126753   6.053   4.727   1.159
 8618SOL    HW226754   6.098   4.580   1.214
 8619SOL     OW26755   3.661   4.897   3.408
 8619SOL    HW126756   3.641   4.965   3.337
 8619SOL    HW226757   3.752   4.913   3.446
 8620SOL     OW26758   2.142   6.492   4.464
 8620SOL    HW126759   2.133   6.499   4.563
 8620SOL    HW226760   2.212   6.556   4.432
 8621SOL     OW26761   4.877   3.146   2.204
 8621SOL    HW126762   4.897   3.085   2.281
 8621SOL    HW226763   4.820   3.098   2.137
 8622SOL     OW26764   5.290   4.796   1.578
 8622SOL    HW126765   5.355   4.798   1.503
 8622SOL    HW226766   5.333   4.830   1.661
 8623SOL     OW26767   0.726   4.045   4.973
 8623SOL    HW126768   0.680   3.957   4.981
 8623SOL    HW226769   0.669   4.117   5.013
 8624SOL     OW26770   3.366   3.747   5.549
 8624SOL    HW126771   3.411   3.817   5.605
 8624SOL    HW226772   3.268   3.746   5.569
 8625SOL     OW26773   4.403   0.329   5.701
 8625SOL    HW126774   4.455   0.385   5.766
 8625SOL    HW226775   4.333   0.277   5.751
 8626SOL     OW26776   3.751   3.086   6.958
 8626SOL    HW126777   3.674   3.118   6.901
 8626SOL    HW226778   3.791   3.005   6.917
 8627SOL     OW26779   2.538   2.068   2.173
 8627SOL    HW126780   2.536   2.012   2.256
 8627SOL    HW226781   2.445   2.078   2.138
 8628SOL     OW26782   6.311   6.599   6.594
 8628SOL    HW126783   6.383   6.667   6.607
 8628SOL    HW226784   6.342   6.530   6.528
 8629SOL     OW26785   1.545   6.754   5.239
 8629SOL    HW126786   1.473   6.752   5.170
 8629SOL    HW226787   1.510   6.794   5.324
 8630SOL     OW26788   4.896   3.820   4.110
 8630SOL    HW126789   4.921   3.895   4.048
 8630SOL    HW226790   4.828   3.762   4.065
 8631SOL     OW26791   1.297   6.042   6.339
 8631SOL    HW126792   1.202   6.067   6.320
 8631SOL    HW226793   1.334   6.102   6.410
 8632SOL     OW26794   4.027   4.146   5.144
 8632SOL    HW126795   3.960   4.206   5.186
 8632SOL    HW226796   4.114   4.195   5.135
 8633SOL     OW26797   5.746   2.849   5.885
 8633SOL    HW126798   5.694   2.931   5.859
 8633SOL    HW226799   5.781   2.860   5.978
 8634SOL     OW26800   4.798   3.807   6.916
 8634SOL    HW126801   4.821   3.904   6.912
 8634SOL    HW226802   4.874   3.755   6.954
 8635SOL     OW26803   5.338   2.843   6.674
 8635SOL    HW126804   5.289   2.788   6.743
 8635SOL    HW226805   5.400   2.784   6.623
 8636SOL     OW26806   4.898   6.015   1.193
 8636SOL    HW126807   4.825   6.077   1.222
 8636SOL    HW226808   4.913   6.026   1.094
 8637SOL     OW26809   1.731   1.622   6.650
 8637SOL    HW126810   1.757   1.559   6.577
 8637SOL    HW226811   1.702   1.570   6.730
 8638SOL     OW26812   3.979   2.382   5.346
 8638SOL    HW126813   4.032   2.448   5.293
 8638SOL    HW226814   4.013   2.380   5.440
 8639SOL     OW26815   4.313   3.383   6.834
 8639SOL    HW126816   4.263   3.433   6.905
 8639SOL    HW226817   4.249   3.342   6.770
 8640SOL     OW26818   4.390   3.827   0.859
 8640SOL    HW126819   4.455   3.862   0.926
 8640SOL    HW226820   4.313   3.890   0.849
 8641SOL     OW26821   3.872   4.892   4.382
 8641SOL    HW126822   3.783   4.928   4.352
 8641SOL    HW226823   3.935   4.889   4.305
 8642SOL     OW26824   0.985   0.013   3.545
 8642SOL    HW126825   1.024   6.943   3.569
 8642SOL    HW226826   1.029   0.085   3.599
 8643SOL     OW26827   1.888   0.325   6.865
 8643SOL    HW126828   1.838   0.268   6.801
 8643SOL    HW226829   1.853   0.310   6.958
 8644SOL     OW26830   5.597   2.713   6.296
 8644SOL    HW126831   5.673   2.652   6.273
 8644SOL    HW226832   5.594   2.789   6.231
 8645SOL     OW26833   4.271   4.865   1.417
 8645SOL    HW126834   4.256   4.950   1.367
 8645SOL    HW226835   4.348   4.815   1.375
 8646SOL     OW26836   0.624   1.821   6.769
 8646SOL    HW126837   0.623   1.763   6.687
 8646SOL    HW226838   0.562   1.783   6.837
 8647SOL     OW26839   2.133   5.179   0.132
 8647SOL    HW126840   2.208   5.236   0.098
 8647SOL    HW226841   2.082   5.141   0.054
 8648SOL     OW26842   6.172   6.856   0.681
 8648SOL    HW126843   6.169   6.908   0.595
 8648SOL    HW226844   6.261   6.868   0.723
 8649SOL     OW26845   5.777   6.112   0.556
 8649SOL    HW126846   5.744   6.188   0.500
 8649SOL    HW226847   5.723   6.107   0.640
 8650SOL     OW26848   1.608   6.587   5.032
 8650SOL    HW126849   1.583   6.682   5.053
 8650SOL    HW226850   1.614   6.575   4.933
 8651SOL     OW26851   4.024   1.562   0.888
 8651SOL    HW126852   3.954   1.509   0.842
 8651SOL    HW226853   4.067   1.506   0.959
 8652SOL     OW26854   0.809   4.868   3.363
 8652SOL    HW126855   0.863   4.946   3.394
 8652SOL    HW226856   0.714   4.897   3.348
 8653SOL     OW26857   6.623   1.105   5.931
 8653SOL    HW126858   6.644   1.178   5.996
 8653SOL    HW226859   6.622   1.142   5.838
 8654SOL     OW26860   0.335   4.748   1.262
 8654SOL    HW126861   0.426   4.778   1.289
 8654SOL    HW226862   0.268   4.819   1.283
 8655SOL     OW26863   5.236   0.615   4.139
 8655SOL    HW126864   5.216   0.579   4.048
 8655SOL    HW226865   5.280   0.544   4.194
 8656SOL     OW26866   5.875   1.286   2.182
 8656SOL    HW126867   5.868   1.370   2.235
 8656SOL    HW226868   5.783   1.250   2.164
 8657SOL     OW26869   5.639   5.947   6.964
 8657SOL    HW126870   5.737   5.929   6.964
 8657SOL    HW226871   5.589   5.863   6.988
 8658SOL     OW26872   6.256   5.635   0.133
 8658SOL    HW126873   6.178   5.663   0.077
 8658SOL    HW226874   6.240   5.542   0.168
 8659SOL     OW26875   4.949   2.162   2.772
 8659SOL    HW126876   5.030   2.115   2.736
 8659SOL    HW226877   4.940   2.252   2.729
 8660SOL     OW26878   0.248   3.234   2.519
 8660SOL    HW126879   0.346   3.213   2.528
 8660SOL    HW226880   0.201   3.156   2.478
 8661SOL     OW26881   6.283   4.079   1.476
 8661SOL    HW126882   6.312   4.020   1.552
 8661SOL    HW226883   6.362   4.132   1.444
 8662SOL     OW26884   4.106   5.794   2.233
 8662SOL    HW126885   4.062   5.804   2.143
 8662SOL    HW226886   4.138   5.884   2.264
 8663SOL     OW26887   2.738   5.375   2.423
 8663SOL    HW126888   2.648   5.342   2.395
 8663SOL    HW226889   2.748   5.367   2.522
 8664SOL     OW26890   2.510   5.217   2.217
 8664SOL    HW126891   2.440   5.227   2.146
 8664SOL    HW226892   2.601   5.222   2.176
 8665SOL     OW26893   6.144   5.834   4.453
 8665SOL    HW126894   6.225   5.820   4.510
 8665SOL    HW226895   6.083   5.899   4.498
 8666SOL     OW26896   5.069   0.697   4.378
 8666SOL    HW126897   5.013   0.614   4.376
 8666SOL    HW226898   5.159   0.678   4.339
 8667SOL     OW26899   5.196   2.005   4.189
 8667SOL    HW126900   5.164   2.086   4.140
 8667SOL    HW226901   5.170   1.923   4.137
 8668SOL     OW26902   5.403   3.586   4.792
 8668SOL    HW126903   5.494   3.546   4.785
 8668SOL    HW226904   5.340   3.518   4.830
 8669SOL     OW26905   0.369   6.195   6.451
 8669SOL    HW126906   0.300   6.125   6.469
 8669SOL    HW226907   0.424   6.209   6.533
 8670SOL     OW26908   4.603   5.145   5.984
 8670SOL    HW126909   4.605   5.205   6.065
 8670SOL    HW226910   4.630   5.053   6.010
 8671SOL     OW26911   0.289   1.715   2.263
 8671SOL    HW126912   0.365   1.742   2.204
 8671SOL    HW226913   0.322   1.651   2.333
 8672SOL     OW26914   0.760   0.076   3.410
 8672SOL    HW126915   0.848   0.053   3.452
 8672SOL    HW226916   0.688   0.020   3.451
 8673SOL     OW26917   6.592   1.735   0.307
 8673SOL    HW126918   6.648   1.758   0.227
 8673SOL    HW226919   6.644   1.755   0.390
 8674SOL     OW26920   6.698   5.010   2.699
 8674SOL    HW126921   6.762   5.006   2.623
 8674SOL    HW226922   6.711   4.930   2.758
 8675SOL     OW26923   4.442   0.970   5.457
 8675SOL    HW126924   4.422   1.066   5.475
 8675SOL    HW226925   4.464   0.924   5.543
 8676SOL     OW26926   4.937   0.064   1.683
 8676SOL    HW126927   4.942   0.051   1.584
 8676SOL    HW226928   4.952   6.995   1.730
 8677SOL     OW26929   1.597   5.862   5.867
 8677SOL    HW126930   1.604   5.948   5.918
 8677SOL    HW226931   1.503   5.828   5.870
 8678SOL     OW26932   0.873   0.392   0.960
 8678SOL    HW126933   0.920   0.385   0.872
 8678SOL    HW226934   0.775   0.401   0.945
 8679SOL     OW26935   1.878   1.221   3.509
 8679SOL    HW126936   1.895   1.295   3.444
 8679SOL    HW226937   1.920   1.243   3.597
 8680SOL     OW26938   6.275   2.740   6.693
 8680SOL    HW126939   6.318   2.757   6.782
 8680SOL    HW226940   6.333   2.777   6.620
 8681SOL     OW26941   4.731   5.167   1.193
 8681SOL    HW126942   4.801   5.098   1.211
 8681SOL    HW226943   4.762   5.256   1.228
 8682SOL     OW26944   6.961   0.743   1.490
 8682SOL    HW126945   6.938   0.673   1.558
 8682SOL    HW226946   6.883   0.758   1.429
 8683SOL     OW26947   1.826   2.771   5.041
 8683SOL    HW126948   1.798   2.761   4.946
 8683SOL    HW226949   1.776   2.847   5.083
 8684SOL     OW26950   6.692   2.795   4.557
 8684SOL    HW126951   6.745   2.711   4.563
 8684SOL    HW226952   6.717   2.855   4.633
 8685SOL     OW26953   5.900   3.255   6.549
 8685SOL    HW126954   5.922   3.161   6.525
 8685SOL    HW226955   5.943   3.279   6.636
 8686SOL     OW26956   6.199   0.298   2.055
 8686SOL    HW126957   6.154   0.386   2.068
 8686SOL    HW226958   6.241   0.269   2.140
 8687SOL     OW26959   5.890   5.052   3.101
 8687SOL    HW126960   5.829   5.124   3.135
 8687SOL    HW226961   5.976   5.054   3.151
 8688SOL     OW26962   1.203   3.881   6.576
 8688SOL    HW126963   1.236   3.956   6.518
 8688SOL    HW226964   1.276   3.813   6.587
 8689SOL     OW26965   4.191   3.094   0.004
 8689SOL    HW126966   4.110   3.151   0.019
 8689SOL    HW226967   4.182   3.046   6.934
 8690SOL     OW26968   0.935   3.318   2.924
 8690SOL    HW126969   0.975   3.384   2.860
 8690SOL    HW226970   0.995   3.238   2.931
 8691SOL     OW26971   3.206   1.968   5.358
 8691SOL    HW126972   3.273   1.971   5.432
 8691SOL    HW226973   3.120   2.009   5.389
 8692SOL     OW26974   3.410   1.014   4.878
 8692SOL    HW126975   3.463   0.991   4.797
 8692SOL    HW226976   3.418   1.112   4.896
 8693SOL     OW26977   6.207   0.808   6.505
 8693SOL    HW126978   6.302   0.832   6.524
 8693SOL    HW226979   6.197   0.787   6.407
 8694SOL     OW26980   6.065   1.737   4.624
 8694SOL    HW126981   6.148   1.767   4.577
 8694SOL    HW226982   6.088   1.705   4.716
 8695SOL     OW26983   3.721   2.980   6.108
 8695SOL    HW126984   3.657   2.909   6.079
 8695SOL    HW226985   3.690   3.069   6.072
 8696SOL     OW26986   2.871   5.853   5.221
 8696SOL    HW126987   2.798   5.795   5.258
 8696SOL    HW226988   2.840   5.948   5.219
 8697SOL     OW26989   0.401   4.078   6.212
 8697SOL    HW126990   0.405   4.045   6.118
 8697SOL    HW226991   0.310   4.114   6.231
 8698SOL     OW26992   4.628   6.557   5.239
 8698SOL    HW126993   4.650   6.646   5.198
 8698SOL    HW226994   4.663   6.484   5.181
 8699SOL     OW26995   1.759   2.958   5.777
 8699SOL    HW126996   1.812   2.951   5.692
 8699SOL    HW226997   1.703   2.876   5.787
 8700SOL     OW26998   1.123   0.965   4.997
 8700SOL    HW126999   1.089   0.881   4.954
 8700SOL    HW227000   1.221   0.958   5.013
 8701SOL     OW27001   1.692   0.985   0.349
 8701SOL    HW127002   1.762   1.051   0.373
 8701SOL    HW227003   1.708   0.899   0.397
 8702SOL     OW27004   5.448   4.984   1.804
 8702SOL    HW127005   5.442   4.896   1.850
 8702SOL    HW227006   5.402   5.054   1.858
 8703SOL     OW27007   3.014   4.712   6.910
 8703SOL    HW127008   3.055   4.714   6.819
 8703SOL    HW227009   2.914   4.704   6.901
 8704SOL     OW27010   6.424   3.836   3.463
 8704SOL    HW127011   6.459   3.743   3.461
 8704SOL    HW227012   6.324   3.835   3.453
 8705SOL     OW27013   4.143   1.847   6.370
 8705SOL    HW127014   4.179   1.809   6.456
 8705SOL    HW227015   4.047   1.871   6.382
 8706SOL     OW27016   5.022   1.973   0.200
 8706SOL    HW127017   5.096   1.922   0.243
 8706SOL    HW227018   4.940   1.969   0.258
 8707SOL     OW27019   1.164   2.782   4.137
 8707SOL    HW127020   1.106   2.704   4.157
 8707SOL    HW227021   1.259   2.760   4.162
 8708SOL     OW27022   4.095   1.578   3.884
 8708SOL    HW127023   4.085   1.591   3.786
 8708SOL    HW227024   4.164   1.507   3.901
 8709SOL     OW27025   6.647   6.543   6.494
 8709SOL    HW127026   6.703   6.620   6.464
 8709SOL    HW227027   6.618   6.556   6.588
 8710SOL     OW27028   2.438   2.569   3.122
 8710SOL    HW127029   2.437   2.554   3.023
 8710SOL    HW227030   2.354   2.616   3.149
 8711SOL     OW27031   1.683   6.864   2.696
 8711SOL    HW127032   1.613   6.870   2.767
 8711SOL    HW227033   1.768   6.906   2.728
 8712SOL     OW27034   3.408   1.737   4.420
 8712SOL    HW127035   3.314   1.734   4.453
 8712SOL    HW227036   3.460   1.663   4.464
 8713SOL     OW27037   6.613   4.511   1.551
 8713SOL    HW127038   6.632   4.609   1.557
 8713SOL    HW227039   6.695   4.459   1.577
 8714SOL     OW27040   0.847   0.002   6.024
 8714SOL    HW127041   0.856   6.941   6.085
 8714SOL    HW227042   0.847   0.086   6.079
 8715SOL     OW27043   3.919   1.474   0.313
 8715SOL    HW127044   3.889   1.505   0.222
 8715SOL    HW227045   3.880   1.534   0.383
 8716SOL     OW27046   0.343   6.499   1.099
 8716SOL    HW127047   0.339   6.472   1.195
 8716SOL    HW227048   0.422   6.558   1.084
 8717SOL     OW27049   2.630   3.554   5.748
 8717SOL    HW127050   2.690   3.614   5.695
 8717SOL    HW227051   2.665   3.546   5.842
 8718SOL     OW27052   2.221   2.809   5.847
 8718SOL    HW127053   2.271   2.885   5.805
 8718SOL    HW227054   2.190   2.746   5.776
 8719SOL     OW27055   3.913   0.466   0.261
 8719SOL    HW127056   3.977   0.433   0.191
 8719SOL    HW227057   3.957   0.461   0.351
 8720SOL     OW27058   0.303   6.444   6.336
 8720SOL    HW127059   0.347   6.483   6.416
 8720SOL    HW227060   0.311   6.344   6.338
 8721SOL     OW27061   6.438   0.513   0.233
 8721SOL    HW127062   6.486   0.429   0.257
 8721SOL    HW227063   6.417   0.514   0.135
 8722SOL     OW27064   3.585   1.032   0.207
 8722SOL    HW127065   3.616   0.972   0.134
 8722SOL    HW227066   3.605   0.991   0.296
 8723SOL     OW27067   5.546   0.014   2.534
 8723SOL    HW127068   5.528   7.004   2.440
 8723SOL    HW227069   5.467   0.063   2.570
 8724SOL     OW27070   5.772   0.416   3.961
 8724SOL    HW127071   5.859   0.459   3.983
 8724SOL    HW227072   5.708   0.485   3.927
 8725SOL     OW27073   0.849   6.195   5.413
 8725SOL    HW127074   0.916   6.210   5.340
 8725SOL    HW227075   0.870   6.255   5.490
 8726SOL     OW27076   6.670   0.533   0.840
 8726SOL    HW127077   6.623   0.616   0.870
 8726SOL    HW227078   6.700   0.544   0.745
 8727SOL     OW27079   5.802   6.717   6.959
 8727SOL    HW127080   5.824   6.731   6.863
 8727SOL    HW227081   5.774   6.804   7.000
 8728SOL     OW27082   5.296   1.444   2.061
 8728SOL    HW127083   5.391   1.445   2.091
 8728SOL    HW227084   5.250   1.528   2.090
 8729SOL     OW27085   2.740   4.978   5.436
 8729SOL    HW127086   2.838   4.987   5.450
 8729SOL    HW227087   2.695   5.066   5.454
 8730SOL     OW27088   4.875   4.414   3.383
 8730SOL    HW127089   4.961   4.408   3.434
 8730SOL    HW227090   4.891   4.387   3.288
 8731SOL     OW27091   0.922   3.074   3.303
 8731SOL    HW127092   0.881   3.074   3.395
 8731SOL    HW227093   0.881   3.147   3.249
 8732SOL     OW27094   5.697   4.399   2.142
 8732SOL    HW127095   5.746   4.441   2.218
 8732SOL    HW227096   5.747   4.415   2.057
 8733SOL     OW27097   1.289   6.007   0.036
 8733SOL    HW127098   1.264   5.918   7.017
 8733SOL    HW227099   1.234   6.078   7.011
 8734SOL     OW27100   6.575   3.228   2.917
 8734SOL    HW127101   6.574   3.327   2.935
 8734SOL    HW227102   6.639   3.208   2.843
 8735SOL     OW27103   1.078   3.241   5.302
 8735SOL    HW127104   1.112   3.261   5.394
 8735SOL    HW227105   0.993   3.291   5.286
 8736SOL     OW27106   0.149   5.187   2.383
 8736SOL    HW127107   0.196   5.261   2.432
 8736SOL    HW227108   0.196   5.101   2.400
 8737SOL     OW27109   2.792   6.238   0.061
 8737SOL    HW127110   2.722   6.220   7.009
 8737SOL    HW227111   2.748   6.249   0.150
 8738SOL     OW27112   2.121   5.595   3.608
 8738SOL    HW127113   2.171   5.602   3.694
 8738SOL    HW227114   2.168   5.648   3.537
 8739SOL     OW27115   5.363   4.472   5.825
 8739SOL    HW127116   5.427   4.427   5.763
 8739SOL    HW227117   5.413   4.537   5.883
 8740SOL     OW27118   3.575   2.078   2.665
 8740SOL    HW127119   3.563   2.174   2.637
 8740SOL    HW227120   3.486   2.041   2.692
 8741SOL     OW27121   2.317   0.504   2.906
 8741SOL    HW127122   2.374   0.557   2.968
 8741SOL    HW227123   2.368   0.484   2.823
 8742SOL     OW27124   4.289   0.194   1.851
 8742SOL    HW127125   4.374   0.146   1.871
 8742SOL    HW227126   4.266   0.182   1.755
 8743SOL     OW27127   2.223   0.920   1.351
 8743SOL    HW127128   2.318   0.953   1.344
 8743SOL    HW227129   2.216   0.829   1.311
 8744SOL     OW27130   4.625   2.944   0.553
 8744SOL    HW127131   4.555   3.010   0.527
 8744SOL    HW227132   4.594   2.891   0.633
 8745SOL     OW27133   6.574   2.389   6.501
 8745SOL    HW127134   6.645   2.323   6.478
 8745SOL    HW227135   6.552   2.381   6.599
 8746SOL     OW27136   4.771   5.949   4.556
 8746SOL    HW127137   4.825   5.998   4.624
 8746SOL    HW227138   4.809   5.857   4.543
 8747SOL     OW27139   0.618   1.084   2.546
 8747SOL    HW127140   0.583   1.172   2.515
 8747SOL    HW227141   0.544   1.018   2.549
 8748SOL     OW27142   0.779   2.075   4.539
 8748SOL    HW127143   0.770   2.102   4.443
 8748SOL    HW227144   0.688   2.054   4.576
 8749SOL     OW27145   1.711   1.191   5.463
 8749SOL    HW127146   1.716   1.291   5.460
 8749SOL    HW227147   1.618   1.162   5.438
 8750SOL     OW27148   3.788   3.712   5.858
 8750SOL    HW127149   3.790   3.618   5.824
 8750SOL    HW227150   3.766   3.774   5.783
 8751SOL     OW27151   0.125   0.982   1.419
 8751SOL    HW127152   0.082   0.994   1.329
 8751SOL    HW227153   0.142   0.885   1.435
 8752SOL     OW27154   3.961   2.816   6.618
 8752SOL    HW127155   3.910   2.765   6.687
 8752SOL    HW227156   3.967   2.761   6.534
 8753SOL     OW27157   2.423   3.058   6.728
 8753SOL    HW127158   2.328   3.087   6.744
 8753SOL    HW227159   2.424   2.987   6.658
 8754SOL     OW27160   2.970   4.246   5.586
 8754SOL    HW127161   2.923   4.256   5.498
 8754SOL    HW227162   2.902   4.237   5.659
 8755SOL     OW27163   2.624   1.018   1.681
 8755SOL    HW127164   2.643   0.950   1.610
 8755SOL    HW227165   2.699   1.083   1.687
 8756SOL     OW27166   1.579   2.759   3.163
 8756SOL    HW127167   1.488   2.745   3.124
 8756SOL    HW227168   1.579   2.727   3.258
 8757SOL     OW27169   5.038   5.823   6.340
 8757SOL    HW127170   5.120   5.783   6.380
 8757SOL    HW227171   5.039   5.809   6.241
 8758SOL     OW27172   4.692   6.515   3.453
 8758SOL    HW127173   4.644   6.451   3.514
 8758SOL    HW227174   4.734   6.463   3.378
 8759SOL     OW27175   6.217   2.410   6.896
 8759SOL    HW127176   6.259   2.500   6.897
 8759SOL    HW227177   6.149   2.404   6.969
 8760SOL     OW27178   2.721   1.598   4.438
 8760SOL    HW127179   2.654   1.524   4.441
 8760SOL    HW227180   2.779   1.593   4.520
 8761SOL     OW27181   6.079   1.414   1.705
 8761SOL    HW127182   6.172   1.437   1.734
 8761SOL    HW227183   6.079   1.323   1.663
 8762SOL     OW27184   1.328   5.530   4.097
 8762SOL    HW127185   1.320   5.630   4.097
 8762SOL    HW227186   1.243   5.490   4.132
 8763SOL     OW27187   5.495   0.446   5.415
 8763SOL    HW127188   5.475   0.353   5.446
 8763SOL    HW227189   5.415   0.482   5.366
 8764SOL     OW27190   4.223   6.123   5.795
 8764SOL    HW127191   4.296   6.184   5.763
 8764SOL    HW227192   4.264   6.043   5.838
 8765SOL     OW27193   5.591   1.659   4.508
 8765SOL    HW127194   5.691   1.668   4.498
 8765SOL    HW227195   5.563   1.567   4.482
 8766SOL     OW27196   4.170   4.267   5.420
 8766SOL    HW127197   4.213   4.288   5.332
 8766SOL    HW227198   4.212   4.186   5.460
 8767SOL     OW27199   4.218   6.826   3.427
 8767SOL    HW127200   4.131   6.827   3.476
 8767SOL    HW227201   4.294   6.822   3.493
 8768SOL     OW27202   1.492   2.145   1.223
 8768SOL    HW127203   1.402   2.174   1.189
 8768SOL    HW227204   1.486   2.051   1.257
 8769SOL     OW27205   0.258   1.293   1.849
 8769SOL    HW127206   0.168   1.328   1.822
 8769SOL    HW227207   0.329   1.339   1.796
 8770SOL     OW27208   5.353   4.590   2.220
 8770SOL    HW127209   5.416   4.596   2.298
 8770SOL    HW227210   5.370   4.505   2.171
 8771SOL     OW27211   0.365   2.622   6.575
 8771SOL    HW127212   0.306   2.696   6.541
 8771SOL    HW227213   0.428   2.594   6.503
 8772SOL     OW27214   4.985   0.450   5.823
 8772SOL    HW127215   4.968   0.378   5.891
 8772SOL    HW227216   5.084   0.462   5.811
 8773SOL     OW27217   5.460   2.812   2.747
 8773SOL    HW127218   5.488   2.789   2.654
 8773SOL    HW227219   5.491   2.741   2.810
 8774SOL     OW27220   0.639   0.637   0.398
 8774SOL    HW127221   0.547   0.610   0.426
 8774SOL    HW227222   0.698   0.557   0.395
 8775SOL     OW27223   4.952   1.034   5.441
 8775SOL    HW127224   4.904   1.014   5.527
 8775SOL    HW227225   5.017   1.108   5.456
 8776SOL     OW27226   4.774   3.259   1.494
 8776SOL    HW127227   4.716   3.205   1.433
 8776SOL    HW227228   4.803   3.202   1.571
 8777SOL     OW27229   0.047   3.432   3.864
 8777SOL    HW127230   0.007   3.364   3.926
 8777SOL    HW227231   0.137   3.402   3.835
 8778SOL     OW27232   5.226   3.676   5.468
 8778SOL    HW127233   5.276   3.623   5.536
 8778SOL    HW227234   5.129   3.678   5.491
 8779SOL     OW27235   2.464   5.476   2.604
 8779SOL    HW127236   2.375   5.519   2.592
 8779SOL    HW227237   2.465   5.388   2.555
 8780SOL     OW27238   0.524   6.558   3.638
 8780SOL    HW127239   0.551   6.625   3.708
 8780SOL    HW227240   0.425   6.551   3.635
 8781SOL     OW27241   4.761   0.244   3.549
 8781SOL    HW127242   4.689   0.311   3.529
 8781SOL    HW227243   4.762   0.174   3.478
 8782SOL     OW27244   5.816   1.472   1.679
 8782SOL    HW127245   5.758   1.514   1.749
 8782SOL    HW227246   5.910   1.467   1.713
 8783SOL     OW27247   6.757   3.762   4.643
 8783SOL    HW127248   6.766   3.663   4.631
 8783SOL    HW227249   6.704   3.801   4.568
 8784SOL     OW27250   6.352   6.264   6.977
 8784SOL    HW127251   6.299   6.322   6.914
 8784SOL    HW227252   6.420   6.320   0.006
 8785SOL     OW27253   6.521   5.452   6.130
 8785SOL    HW127254   6.497   5.457   6.227
 8785SOL    HW227255   6.558   5.540   6.100
 8786SOL     OW27256   3.244   1.122   1.727
 8786SOL    HW127257   3.181   1.186   1.770
 8786SOL    HW227258   3.240   1.133   1.627
 8787SOL     OW27259   3.034   0.771   2.386
 8787SOL    HW127260   2.951   0.714   2.381
 8787SOL    HW227261   3.102   0.725   2.442
 8788SOL     OW27262   6.585   1.028   5.154
 8788SOL    HW127263   6.531   0.944   5.161
 8788SOL    HW227264   6.533   1.097   5.104
 8789SOL     OW27265   6.786   4.420   5.334
 8789SOL    HW127266   6.827   4.348   5.391
 8789SOL    HW227267   6.704   4.455   5.378
 8790SOL     OW27268   6.504   1.124   6.691
 8790SOL    HW127269   6.531   1.135   6.786
 8790SOL    HW227270   6.585   1.124   6.632
 8791SOL     OW27271   4.628   6.558   4.893
 8791SOL    HW127272   4.699   6.610   4.941
 8791SOL    HW227273   4.624   6.587   4.798
 8792SOL     OW27274   3.236   4.844   2.621
 8792SOL    HW127275   3.150   4.848   2.569
 8792SOL    HW227276   3.312   4.830   2.559
 8793SOL     OW27277   0.622   4.928   3.726
 8793SOL    HW127278   0.532   4.907   3.763
 8793SOL    HW227279   0.660   4.847   3.681
 8794SOL     OW27280   5.912   1.159   3.556
 8794SOL    HW127281   5.829   1.132   3.605
 8794SOL    HW227282   5.966   1.222   3.612
 8795SOL     OW27283   1.211   5.160   4.779
 8795SOL    HW127284   1.126   5.198   4.742
 8795SOL    HW227285   1.203   5.061   4.785
 8796SOL     OW27286   5.992   3.122   2.930
 8796SOL    HW127287   5.991   3.110   3.030
 8796SOL    HW227288   6.082   3.094   2.895
 8797SOL     OW27289   6.840   0.068   4.528
 8797SOL    HW127290   6.831   6.997   4.572
 8797SOL    HW227291   6.753   0.094   4.488
 8798SOL     OW27292   3.931   5.735   6.074
 8798SOL    HW127293   3.992   5.681   6.017
 8798SOL    HW227294   3.879   5.674   6.134
 8799SOL     OW27295   3.016   4.853   2.451
 8799SOL    HW127296   2.974   4.943   2.450
 8799SOL    HW227297   3.007   4.810   2.361
 8800SOL     OW27298   5.998   5.125   5.424
 8800SOL    HW127299   6.048   5.176   5.493
 8800SOL    HW227300   5.905   5.107   5.457
 8801SOL     OW27301   6.344   1.585   4.802
 8801SOL    HW127302   6.396   1.625   4.726
 8801SOL    HW227303   6.290   1.655   4.848
 8802SOL     OW27304   1.598   5.339   5.842
 8802SOL    HW127305   1.516   5.391   5.866
 8802SOL    HW227306   1.669   5.402   5.812
 8803SOL     OW27307   6.878   0.302   0.116
 8803SOL    HW127308   6.923   0.371   0.172
 8803SOL    HW227309   6.778   0.313   0.125
 8804SOL     OW27310   2.051   6.342   1.269
 8804SOL    HW127311   2.125   6.344   1.202
 8804SOL    HW227312   2.045   6.251   1.309
 8805SOL     OW27313   3.723   5.340   3.755
 8805SOL    HW127314   3.792   5.268   3.765
 8805SOL    HW227315   3.644   5.304   3.706
 8806SOL     OW27316   1.946   4.679   1.003
 8806SOL    HW127317   1.868   4.622   0.980
 8806SOL    HW227318   2.004   4.690   0.923
 8807SOL     OW27319   4.314   1.247   6.797
 8807SOL    HW127320   4.373   1.167   6.788
 8807SOL    HW227321   4.220   1.222   6.771
 8808SOL     OW27322   0.277   2.125   6.568
 8808SOL    HW127323   0.217   2.195   6.528
 8808SOL    HW227324   0.328   2.164   6.644
 8809SOL     OW27325   2.301   4.121   3.281
 8809SOL    HW127326   2.336   4.091   3.369
 8809SOL    HW227327   2.362   4.090   3.208
 8810SOL     OW27328   5.632   1.298   5.402
 8810SOL    HW127329   5.660   1.367   5.469
 8810SOL    HW227330   5.562   1.336   5.342
 8811SOL     OW27331   3.754   0.812   2.704
 8811SOL    HW127332   3.763   0.726   2.653
 8811SOL    HW227333   3.845   0.849   2.723
 8812SOL     OW27334   3.237   0.589   0.613
 8812SOL    HW127335   3.242   0.688   0.599
 8812SOL    HW227336   3.274   0.566   0.702
 8813SOL     OW27337   1.943   5.129   2.998
 8813SOL    HW127338   1.851   5.091   2.989
 8813SOL    HW227339   2.004   5.082   2.935
 8814SOL     OW27340   5.875   6.677   0.337
 8814SOL    HW127341   5.909   6.730   0.415
 8814SOL    HW227342   5.906   6.582   0.346
 8815SOL     OW27343   5.599   6.936   1.453
 8815SOL    HW127344   5.589   0.017   1.442
 8815SOL    HW227345   5.603   6.893   1.363
 8816SOL     OW27346   0.814   0.192   6.759
 8816SOL    HW127347   0.865   0.140   6.690
 8816SOL    HW227348   0.720   0.206   6.727
 8817SOL     OW27349   0.033   3.799   4.111
 8817SOL    HW127350   7.001   3.734   4.053
 8817SOL    HW227351   0.121   3.759   4.137
 8818SOL     OW27352   1.348   6.288   3.575
 8818SOL    HW127353   1.384   6.315   3.665
 8818SOL    HW227354   1.326   6.190   3.576
 8819SOL     OW27355   5.947   4.513   5.533
 8819SOL    HW127356   5.990   4.453   5.601
 8819SOL    HW227357   5.962   4.608   5.559
 8820SOL     OW27358   2.956   1.690   4.330
 8820SOL    HW127359   2.862   1.687   4.363
 8820SOL    HW227360   2.992   1.597   4.322
 8821SOL     OW27361   0.818   6.059   0.712
 8821SOL    HW127362   0.781   6.080   0.622
 8821SOL    HW227363   0.879   6.132   0.741
 8822SOL     OW27364   0.715   0.346   3.519
 8822SOL    HW127365   0.736   0.252   3.492
 8822SOL    HW227366   0.786   0.407   3.482
 8823SOL     OW27367   2.239   0.809   2.617
 8823SOL    HW127368   2.256   0.852   2.706
 8823SOL    HW227369   2.176   0.865   2.564
 8824SOL     OW27370   1.362   0.744   0.885
 8824SOL    HW127371   1.347   0.837   0.919
 8824SOL    HW227372   1.441   0.744   0.823
 8825SOL     OW27373   0.622   0.907   1.666
 8825SOL    HW127374   0.576   0.965   1.734
 8825SOL    HW227375   0.680   0.964   1.608
 8826SOL     OW27376   1.224   3.398   0.887
 8826SOL    HW127377   1.190   3.491   0.905
 8826SOL    HW227378   1.194   3.337   0.961
 8827SOL     OW27379   4.021   0.025   3.039
 8827SOL    HW127380   4.039   0.022   3.138
 8827SOL    HW227381   4.080   6.977   2.993
 8828SOL     OW27382   3.851   5.086   6.850
 8828SOL    HW127383   3.825   4.990   6.856
 8828SOL    HW227384   3.943   5.099   6.888
 8829SOL     OW27385   6.046   1.680   1.561
 8829SOL    HW127386   6.076   1.709   1.651
 8829SOL    HW227387   6.036   1.581   1.559
 8830SOL     OW27388   2.173   1.601   3.050
 8830SOL    HW127389   2.214   1.671   3.108
 8830SOL    HW227390   2.199   1.510   3.084
 8831SOL     OW27391   5.816   2.828   2.630
 8831SOL    HW127392   5.775   2.819   2.720
 8831SOL    HW227393   5.903   2.877   2.637
 8832SOL     OW27394   0.539   6.504   4.416
 8832SOL    HW127395   0.452   6.514   4.366
 8832SOL    HW227396   0.540   6.568   4.493
 8833SOL     OW27397   3.913   3.598   0.157
 8833SOL    HW127398   3.948   3.552   0.238
 8833SOL    HW227399   3.823   3.560   0.133
 8834SOL     OW27400   5.846   4.069   4.781
 8834SOL    HW127401   5.788   3.990   4.759
 8834SOL    HW227402   5.900   4.048   4.862
 8835SOL     OW27403   5.391   1.338   6.603
 8835SOL    HW127404   5.374   1.414   6.665
 8835SOL    HW227405   5.339   1.350   6.519
 8836SOL     OW27406   5.040   2.481   0.428
 8836SOL    HW127407   4.968   2.511   0.365
 8836SOL    HW227408   5.096   2.559   0.454
 8837SOL     OW27409   0.151   0.139   1.806
 8837SOL    HW127410   0.207   0.092   1.738
 8837SOL    HW227411   0.145   0.236   1.782
 8838SOL     OW27412   1.210   4.885   2.476
 8838SOL    HW127413   1.194   4.977   2.511
 8838SOL    HW227414   1.155   4.819   2.527
 8839SOL     OW27415   3.725   6.076   2.547
 8839SOL    HW127416   3.732   6.012   2.471
 8839SOL    HW227417   3.756   6.031   2.631
 8840SOL     OW27418   6.412   0.251   1.909
 8840SOL    HW127419   6.387   0.193   1.832
 8840SOL    HW227420   6.332   0.269   1.966
 8841SOL     OW27421   5.877   1.715   2.311
 8841SOL    HW127422   5.812   1.641   2.326
 8841SOL    HW227423   5.969   1.677   2.300
 8842SOL     OW27424   3.413   3.919   3.525
 8842SOL    HW127425   3.495   3.878   3.565
 8842SOL    HW227426   3.412   4.017   3.543
 8843SOL     OW27427   1.483   3.449   4.018
 8843SOL    HW127428   1.503   3.436   4.115
 8843SOL    HW227429   1.416   3.381   3.988
 8844SOL     OW27430   0.103   1.796   4.648
 8844SOL    HW127431   0.042   1.719   4.630
 8844SOL    HW227432   0.195   1.762   4.669
 8845SOL     OW27433   2.259   4.396   0.349
 8845SOL    HW127434   2.300   4.396   0.440
 8845SOL    HW227435   2.193   4.320   0.343
 8846SOL     OW27436   5.273   4.558   4.228
 8846SOL    HW127437   5.271   4.619   4.307
 8846SOL    HW227438   5.332   4.597   4.157
 8847SOL     OW27439   2.156   1.594   3.404
 8847SOL    HW127440   2.184   1.591   3.500
 8847SOL    HW227441   2.190   1.678   3.361
 8848SOL     OW27442   3.077   1.706   2.202
 8848SOL    HW127443   2.991   1.743   2.238
 8848SOL    HW227444   3.094   1.745   2.112
 8849SOL     OW27445   2.917   4.833   3.577
 8849SOL    HW127446   2.964   4.870   3.496
 8849SOL    HW227447   2.827   4.875   3.585
 8850SOL     OW27448   3.189   1.602   0.778
 8850SOL    HW127449   3.116   1.658   0.739
 8850SOL    HW227450   3.277   1.628   0.738
 8851SOL     OW27451   1.016   4.618   2.478
 8851SOL    HW127452   1.079   4.605   2.555
 8851SOL    HW227453   0.992   4.714   2.471
 8852SOL     OW27454   4.642   3.051   5.934
 8852SOL    HW127455   4.551   3.091   5.923
 8852SOL    HW227456   4.634   2.965   5.984
 8853SOL     OW27457   2.795   0.525   4.333
 8853SOL    HW127458   2.786   0.546   4.235
 8853SOL    HW227459   2.873   0.575   4.370
 8854SOL     OW27460   2.687   0.611   6.529
 8854SOL    HW127461   2.779   0.618   6.568
 8854SOL    HW227462   2.688   0.547   6.452
 8855SOL     OW27463   0.202   6.297   0.335
 8855SOL    HW127464   0.138   6.338   0.399
 8855SOL    HW227465   0.183   6.330   0.243
 8856SOL     OW27466   5.698   0.253   5.793
 8856SOL    HW127467   5.602   0.239   5.817
 8856SOL    HW227468   5.717   0.212   5.704
 8857SOL     OW27469   6.389   2.358   3.540
 8857SOL    HW127470   6.449   2.437   3.527
 8857SOL    HW227471   6.417   2.285   3.478
 8858SOL     OW27472   2.197   3.139   5.666
 8858SOL    HW127473   2.284   3.170   5.627
 8858SOL    HW227474   2.125   3.202   5.637
 8859SOL     OW27475   0.248   6.783   5.015
 8859SOL    HW127476   0.296   6.870   5.025
 8859SOL    HW227477   0.170   6.794   4.955
 8860SOL     OW27478   2.155   4.450   2.941
 8860SOL    HW127479   2.090   4.518   2.975
 8860SOL    HW227480   2.232   4.443   3.005
 8861SOL     OW27481   3.489   2.121   6.013
 8861SOL    HW127482   3.559   2.186   5.985
 8861SOL    HW227483   3.413   2.125   5.949
 8862SOL     OW27484   6.277   1.636   3.271
 8862SOL    HW127485   6.214   1.640   3.193
 8862SOL    HW227486   6.233   1.588   3.347
 8863SOL     OW27487   1.578   5.792   4.570
 8863SOL    HW127488   1.647   5.732   4.529
 8863SOL    HW227489   1.611   5.886   4.570
 8864SOL     OW27490   2.657   3.149   6.146
 8864SOL    HW127491   2.726   3.110   6.207
 8864SOL    HW227492   2.574   3.169   6.198
 8865SOL     OW27493   3.170   1.761   5.187
 8865SOL    HW127494   3.227   1.691   5.230
 8865SOL    HW227495   3.155   1.837   5.251
 8866SOL     OW27496   5.111   6.684   4.106
 8866SOL    HW127497   5.173   6.763   4.104
 8866SOL    HW227498   5.033   6.701   4.045
 8867SOL     OW27499   5.391   3.184   2.677
 8867SOL    HW127500   5.324   3.242   2.723
 8867SOL    HW227501   5.474   3.176   2.733
 8868SOL     OW27502   6.027   3.308   0.810
 8868SOL    HW127503   5.960   3.363   0.859
 8868SOL    HW227504   6.100   3.366   0.776
 8869SOL     OW27505   4.437   5.954   3.445
 8869SOL    HW127506   4.382   5.876   3.474
 8869SOL    HW227507   4.534   5.931   3.453
 8870SOL     OW27508   4.353   6.867   0.100
 8870SOL    HW127509   4.314   6.957   0.114
 8870SOL    HW227510   4.450   6.876   0.078
 8871SOL     OW27511   3.214   0.794   3.792
 8871SOL    HW127512   3.244   0.858   3.863
 8871SOL    HW227513   3.114   0.800   3.782
 8872SOL     OW27514   1.650   4.217   4.631
 8872SOL    HW127515   1.669   4.140   4.571
 8872SOL    HW227516   1.616   4.184   4.719
 8873SOL     OW27517   6.726   5.812   1.713
 8873SOL    HW127518   6.686   5.795   1.803
 8873SOL    HW227519   6.691   5.898   1.676
 8874SOL     OW27520   2.257   6.358   1.076
 8874SOL    HW127521   2.286   6.448   1.108
 8874SOL    HW227522   2.336   6.296   1.076
 8875SOL     OW27523   0.430   3.212   5.336
 8875SOL    HW127524   0.430   3.250   5.243
 8875SOL    HW227525   0.491   3.133   5.340
 8876SOL     OW27526   0.955   6.959   4.701
 8876SOL    HW127527   0.973   6.890   4.631
 8876SOL    HW227528   1.038   6.979   4.752
 8877SOL     OW27529   2.804   1.028   4.711
 8877SOL    HW127530   2.783   0.939   4.672
 8877SOL    HW227531   2.880   1.069   4.662
 8878SOL     OW27532   0.349   5.669   0.551
 8878SOL    HW127533   0.268   5.689   0.606
 8878SOL    HW227534   0.366   5.571   0.550
 8879SOL     OW27535   5.398   5.253   1.442
 8879SOL    HW127536   5.458   5.188   1.489
 8879SOL    HW227537   5.397   5.340   1.493
 8880SOL     OW27538   6.933   5.639   4.274
 8880SOL    HW127539   6.879   5.594   4.203
 8880SOL    HW227540   6.939   5.737   4.254
 8881SOL     OW27541   5.946   0.126   4.029
 8881SOL    HW127542   6.012   0.051   4.031
 8881SOL    HW227543   5.859   0.094   3.992
 8882SOL     OW27544   5.254   1.767   0.787
 8882SOL    HW127545   5.219   1.814   0.706
 8882SOL    HW227546   5.288   1.834   0.852
 8883SOL     OW27547   0.929   0.920   5.579
 8883SOL    HW127548   0.839   0.888   5.608
 8883SOL    HW227549   0.923   0.955   5.485
 8884SOL     OW27550   5.487   5.351   6.502
 8884SOL    HW127551   5.388   5.364   6.501
 8884SOL    HW227552   5.531   5.426   6.452
 8885SOL     OW27553   6.615   3.240   1.191
 8885SOL    HW127554   6.541   3.253   1.257
 8885SOL    HW227555   6.659   3.328   1.173
 8886SOL     OW27556   3.296   6.905   5.425
 8886SOL    HW127557   3.315   6.933   5.331
 8886SOL    HW227558   3.349   6.823   5.447
 8887SOL     OW27559   3.227   1.237   1.147
 8887SOL    HW127560   3.236   1.278   1.056
 8887SOL    HW227561   3.309   1.258   1.201
 8888SOL     OW27562   1.297   1.617   0.873
 8888SOL    HW127563   1.357   1.695   0.891
 8888SOL    HW227564   1.286   1.564   0.957
 8889SOL     OW27565   5.444   6.389   5.401
 8889SOL    HW127566   5.410   6.464   5.458
 8889SOL    HW227567   5.495   6.325   5.457
 8890SOL     OW27568   6.444   5.600   3.862
 8890SOL    HW127569   6.349   5.614   3.887
 8890SOL    HW227570   6.484   5.530   3.922
 8891SOL     OW27571   6.083   3.423   6.025
 8891SOL    HW127572   6.070   3.331   5.988
 8891SOL    HW227573   6.019   3.438   6.101
 8892SOL     OW27574   3.330   5.870   3.565
 8892SOL    HW127575   3.286   5.951   3.528
 8892SOL    HW227576   3.300   5.789   3.515
 8893SOL     OW27577   1.202   0.837   1.969
 8893SOL    HW127578   1.203   0.844   2.069
 8893SOL    HW227579   1.110   0.858   1.936
 8894SOL     OW27580   4.198   2.860   5.636
 8894SOL    HW127581   4.217   2.901   5.547
 8894SOL    HW227582   4.247   2.773   5.643
 8895SOL     OW27583   6.575   1.050   1.171
 8895SOL    HW127584   6.521   1.016   1.248
 8895SOL    HW227585   6.590   1.149   1.182
 8896SOL     OW27586   1.695   3.323   4.845
 8896SOL    HW127587   1.765   3.361   4.905
 8896SOL    HW227588   1.627   3.274   4.900
 8897SOL     OW27589   2.385   2.134   2.862
 8897SOL    HW127590   2.426   2.204   2.804
 8897SOL    HW227591   2.299   2.169   2.900
 8898SOL     OW27592   6.185   3.782   4.730
 8898SOL    HW127593   6.131   3.719   4.786
 8898SOL    HW227594   6.272   3.801   4.776
 8899SOL     OW27595   1.568   5.220   0.578
 8899SOL    HW127596   1.636   5.282   0.617
 8899SOL    HW227597   1.539   5.154   0.647
 8900SOL     OW27598   5.621   3.609   2.714
 8900SOL    HW127599   5.623   3.663   2.798
 8900SOL    HW227600   5.601   3.669   2.636
 8901SOL     OW27601   2.677   0.967   4.268
 8901SOL    HW127602   2.706   1.062   4.256
 8901SOL    HW227603   2.744   0.919   4.324
 8902SOL     OW27604   3.409   6.350   0.082
 8902SOL    HW127605   3.503   6.344   0.116
 8902SOL    HW227606   3.345   6.341   0.158
 8903SOL     OW27607   1.427   1.156   4.594
 8903SOL    HW127608   1.499   1.089   4.573
 8903SOL    HW227609   1.338   1.119   4.565
 8904SOL     OW27610   6.441   5.610   3.599
 8904SOL    HW127611   6.453   5.706   3.573
 8904SOL    HW227612   6.440   5.602   3.699
 8905SOL     OW27613   2.282   4.136   4.722
 8905SOL    HW127614   2.203   4.101   4.672
 8905SOL    HW227615   2.313   4.068   4.788
 8906SOL     OW27616   0.229   6.921   6.756
 8906SOL    HW127617   0.255   6.912   6.852
 8906SOL    HW227618   0.156   6.989   6.747
 8907SOL     OW27619   3.196   2.101   4.819
 8907SOL    HW127620   3.173   2.014   4.864
 8907SOL    HW227621   3.165   2.177   4.876
 8908SOL     OW27622   1.448   3.041   6.933
 8908SOL    HW127623   1.499   3.125   6.916
 8908SOL    HW227624   1.490   2.966   6.883
 8909SOL     OW27625   1.408   0.738   4.793
 8909SOL    HW127626   1.459   0.765   4.875
 8909SOL    HW227627   1.330   0.682   4.819
 8910SOL     OW27628   1.871   2.973   6.026
 8910SOL    HW127629   1.818   2.983   5.942
 8910SOL    HW227630   1.962   2.936   6.005
 8911SOL     OW27631   4.294   2.359   4.823
 8911SOL    HW127632   4.266   2.413   4.902
 8911SOL    HW227633   4.215   2.306   4.790
 8912SOL     OW27634   4.451   1.585   0.561
 8912SOL    HW127635   4.398   1.553   0.482
 8912SOL    HW227636   4.390   1.604   0.637
 8913SOL     OW27637   4.410   5.089   0.532
 8913SOL    HW127638   4.369   5.037   0.607
 8913SOL    HW227639   4.509   5.086   0.540
 8914SOL     OW27640   4.209   0.761   4.597
 8914SOL    HW127641   4.176   0.773   4.691
 8914SOL    HW227642   4.288   0.820   4.581
 8915SOL     OW27643   1.038   2.821   3.777
 8915SOL    HW127644   0.977   2.869   3.840
 8915SOL    HW227645   1.020   2.723   3.782
 8916SOL     OW27646   0.633   2.976   1.595
 8916SOL    HW127647   0.668   3.069   1.604
 8916SOL    HW227648   0.672   2.934   1.513
 8917SOL     OW27649   6.209   4.397   6.187
 8917SOL    HW127650   6.240   4.336   6.260
 8917SOL    HW227651   6.151   4.468   6.226
 8918SOL     OW27652   7.005   5.026   1.549
 8918SOL    HW127653   6.993   5.123   1.531
 8918SOL    HW227654   0.049   4.987   1.481
 8919SOL     OW27655   4.397   4.156   0.522
 8919SOL    HW127656   4.307   4.152   0.565
 8919SOL    HW227657   4.387   4.149   0.423
 8920SOL     OW27658   0.726   0.034   6.377
 8920SOL    HW127659   0.686   6.971   6.421
 8920SOL    HW227660   0.697   0.038   6.282
 8921SOL     OW27661   1.956   1.920   2.813
 8921SOL    HW127662   1.906   1.834   2.808
 8921SOL    HW227663   1.961   1.952   2.907
 8922SOL     OW27664   3.052   5.074   2.091
 8922SOL    HW127665   3.082   5.169   2.080
 8922SOL    HW227666   3.034   5.033   2.002
 8923SOL     OW27667   1.167   3.967   5.586
 8923SOL    HW127668   1.112   3.995   5.507
 8923SOL    HW227669   1.257   3.936   5.554
 8924SOL     OW27670   3.409   5.844   5.559
 8924SOL    HW127671   3.387   5.849   5.461
 8924SOL    HW227672   3.445   5.754   5.581
 8925SOL     OW27673   1.098   0.649   2.471
 8925SOL    HW127674   1.197   0.635   2.480
 8925SOL    HW227675   1.057   0.566   2.433
 8926SOL     OW27676   6.099   3.344   6.991
 8926SOL    HW127677   6.016   3.356   6.937
 8926SOL    HW227678   6.124   3.248   6.994
 8927SOL     OW27679   1.707   2.138   4.728
 8927SOL    HW127680   1.630   2.089   4.768
 8927SOL    HW227681   1.710   2.231   4.764
 8928SOL     OW27682   6.848   0.631   5.404
 8928SOL    HW127683   6.864   0.729   5.399
 8928SOL    HW227684   6.817   0.597   5.316
 8929SOL     OW27685   0.332   3.223   4.079
 8929SOL    HW127686   0.340   3.266   4.169
 8929SOL    HW227687   0.420   3.224   4.034
 8930SOL     OW27688   2.446   4.628   4.479
 8930SOL    HW127689   2.511   4.603   4.550
 8930SOL    HW227690   2.352   4.618   4.513
 8931SOL     OW27691   3.524   2.568   0.545
 8931SOL    HW127692   3.570   2.479   0.543
 8931SOL    HW227693   3.542   2.613   0.633
 8932SOL     OW27694   5.199   0.308   0.197
 8932SOL    HW127695   5.161   0.398   0.221
 8932SOL    HW227696   5.138   0.263   0.132
 8933SOL     OW27697   1.162   2.162   5.634
 8933SOL    HW127698   1.127   2.225   5.704
 8933SOL    HW227699   1.247   2.197   5.597
 8934SOL     OW27700   2.778   5.461   3.782
 8934SOL    HW127701   2.711   5.520   3.828
 8934SOL    HW227702   2.787   5.375   3.832
 8935SOL     OW27703   5.323   4.524   1.774
 8935SOL    HW127704   5.250   4.564   1.719
 8935SOL    HW227705   5.299   4.431   1.800
 8936SOL     OW27706   0.875   3.474   0.957
 8936SOL    HW127707   0.959   3.519   0.926
 8936SOL    HW227708   0.826   3.436   0.879
 8937SOL     OW27709   0.467   0.478   4.108
 8937SOL    HW127710   0.445   0.575   4.117
 8937SOL    HW227711   0.393   0.432   4.059
 8938SOL     OW27712   0.127   1.249   0.230
 8938SOL    HW127713   0.123   1.275   0.326
 8938SOL    HW227714   0.102   1.328   0.173
 8939SOL     OW27715   6.128   3.245   4.473
 8939SOL    HW127716   6.059   3.238   4.545
 8939SOL    HW227717   6.188   3.323   4.491
 8940SOL     OW27718   5.464   1.811   1.009
 8940SOL    HW127719   5.406   1.885   0.974
 8940SOL    HW227720   5.549   1.849   1.044
 8941SOL     OW27721   5.177   2.304   1.971
 8941SOL    HW127722   5.241   2.330   2.044
 8941SOL    HW227723   5.171   2.379   1.905
 8942SOL     OW27724   0.979   5.294   4.648
 8942SOL    HW127725   0.919   5.306   4.569
 8942SOL    HW227726   1.013   5.384   4.677
 8943SOL     OW27727   4.282   4.928   0.775
 8943SOL    HW127728   4.319   4.875   0.851
 8943SOL    HW227729   4.239   5.011   0.810
 8944SOL     OW27730   5.172   5.302   4.373
 8944SOL    HW127731   5.160   5.368   4.446
 8944SOL    HW227732   5.183   5.210   4.412
 8945SOL     OW27733   6.619   2.179   4.621
 8945SOL    HW127734   6.527   2.142   4.610
 8945SOL    HW227735   6.630   2.214   4.714
 8946SOL     OW27736   3.394   0.728   4.287
 8946SOL    HW127737   3.318   0.681   4.241
 8946SOL    HW227738   3.454   0.661   4.330
 8947SOL     OW27739   2.225   3.912   5.999
 8947SOL    HW127740   2.203   4.002   5.962
 8947SOL    HW227741   2.220   3.915   6.099
 8948SOL     OW27742   5.904   5.865   2.964
 8948SOL    HW127743   5.875   5.815   2.882
 8948SOL    HW227744   5.942   5.801   3.031
 8949SOL     OW27745   3.984   5.837   0.391
 8949SOL    HW127746   3.985   5.737   0.382
 8949SOL    HW227747   3.963   5.878   0.303
 8950SOL     OW27748   4.392   3.406   1.342
 8950SOL    HW127749   4.387   3.385   1.440
 8950SOL    HW227750   4.485   3.434   1.318
 8951SOL     OW27751   1.951   1.060   4.507
 8951SOL    HW127752   1.995   1.124   4.572
 8951SOL    HW227753   2.003   0.975   4.504
 8952SOL     OW27754   1.255   5.338   3.095
 8952SOL    HW127755   1.182   5.366   3.033
 8952SOL    HW227756   1.288   5.417   3.147
 8953SOL     OW27757   1.646   4.619   0.943
 8953SOL    HW127758   1.653   4.617   1.043
 8953SOL    HW227759   1.608   4.707   0.914
 8954SOL     OW27760   0.118   6.865   3.718
 8954SOL    HW127761   0.081   6.786   3.767
 8954SOL    HW227762   0.049   6.900   3.655
 8955SOL     OW27763   0.210   3.409   2.723
 8955SOL    HW127764   0.171   3.377   2.809
 8955SOL    HW227765   0.234   3.330   2.666
 8956SOL     OW27766   0.684   0.664   5.909
 8956SOL    HW127767   0.624   0.605   5.854
 8956SOL    HW227768   0.743   0.607   5.966
 8957SOL     OW27769   2.165   4.901   1.289
 8957SOL    HW127770   2.116   4.970   1.237
 8957SOL    HW227771   2.101   4.835   1.327
 8958SOL     OW27772   1.401   2.641   5.178
 8958SOL    HW127773   1.418   2.546   5.153
 8958SOL    HW227774   1.398   2.650   5.277
 8959SOL     OW27775   1.600   3.369   2.501
 8959SOL    HW127776   1.617   3.467   2.513
 8959SOL    HW227777   1.513   3.357   2.453
 8960SOL     OW27778   6.251   5.581   3.147
 8960SOL    HW127779   6.199   5.548   3.068
 8960SOL    HW227780   6.215   5.668   3.177
 8961SOL     OW27781   4.441   1.855   3.888
 8961SOL    HW127782   4.455   1.882   3.983
 8961SOL    HW227783   4.344   1.860   3.865
 8962SOL     OW27784   0.112   6.171   1.550
 8962SOL    HW127785   0.070   6.257   1.581
 8962SOL    HW227786   0.057   6.094   1.581
 8963SOL     OW27787   3.180   6.744   5.090
 8963SOL    HW127788   3.238   6.814   5.049
 8963SOL    HW227789   3.116   6.710   5.022
 8964SOL     OW27790   5.281   3.826   2.652
 8964SOL    HW127791   5.378   3.826   2.627
 8964SOL    HW227792   5.225   3.806   2.572
 8965SOL     OW27793   3.794   5.144   0.516
 8965SOL    HW127794   3.774   5.077   0.588
 8965SOL    HW227795   3.842   5.222   0.556
 8966SOL     OW27796   6.724   4.763   6.499
 8966SOL    HW127797   6.736   4.841   6.560
 8966SOL    HW227798   6.724   4.795   6.404
 8967SOL     OW27799   4.483   1.545   3.190
 8967SOL    HW127800   4.558   1.585   3.137
 8967SOL    HW227801   4.499   1.561   3.288
 8968SOL     OW27802   3.067   5.437   2.321
 8968SOL    HW127803   2.973   5.470   2.331
 8968SOL    HW227804   3.102   5.409   2.411
 8969SOL     OW27805   0.123   0.806   3.806
 8969SOL    HW127806   0.173   0.756   3.735
 8969SOL    HW227807   0.068   0.878   3.763
 8970SOL     OW27808   1.350   2.395   0.571
 8970SOL    HW127809   1.295   2.320   0.534
 8970SOL    HW227810   1.331   2.478   0.519
 8971SOL     OW27811   5.200   6.895   1.880
 8971SOL    HW127812   5.227   6.904   1.784
 8971SOL    HW227813   5.101   6.882   1.886
 8972SOL     OW27814   5.237   4.033   0.145
 8972SOL    HW127815   5.173   4.059   0.218
 8972SOL    HW227816   5.318   3.990   0.185
 8973SOL     OW27817   0.434   2.541   2.500
 8973SOL    HW127818   0.385   2.514   2.583
 8973SOL    HW227819   0.487   2.624   2.517
 8974SOL     OW27820   1.793   3.825   3.969
 8974SOL    HW127821   1.860   3.772   3.916
 8974SOL    HW227822   1.755   3.897   3.912
 8975SOL     OW27823   0.716   0.170   0.000
 8975SOL    HW127824   0.645   0.237   6.996
 8975SOL    HW227825   0.783   0.166   6.943
 8976SOL     OW27826   6.989   6.326   0.647
 8976SOL    HW127827   0.024   6.242   0.635
 8976SOL    HW227828   6.893   6.303   0.664
 8977SOL     OW27829   6.914   4.038   6.585
 8977SOL    HW127830   6.969   4.121   6.573
 8977SOL    HW227831   6.973   3.957   6.581
 8978SOL     OW27832   4.979   6.454   4.843
 8978SOL    HW127833   5.071   6.451   4.883
 8978SOL    HW227834   4.935   6.541   4.868
 8979SOL     OW27835   0.955   5.426   6.039
 8979SOL    HW127836   0.936   5.445   6.135
 8979SOL    HW227837   0.871   5.399   5.993
 8980SOL     OW27838   5.455   2.184   5.980
 8980SOL    HW127839   5.494   2.138   5.900
 8980SOL    HW227840   5.356   2.172   5.981
 8981SOL     OW27841   4.901   2.116   5.616
 8981SOL    HW127842   4.859   2.162   5.695
 8981SOL    HW227843   4.912   2.182   5.542
 8982SOL     OW27844   6.720   2.161   1.505
 8982SOL    HW127845   6.709   2.237   1.441
 8982SOL    HW227846   6.768   2.194   1.587
 8983SOL     OW27847   1.206   5.365   1.242
 8983SOL    HW127848   1.168   5.295   1.303
 8983SOL    HW227849   1.167   5.355   1.151
 8984SOL     OW27850   6.146   0.373   4.646
 8984SOL    HW127851   6.137   0.435   4.724
 8984SOL    HW227852   6.241   0.344   4.637
 8985SOL     OW27853   3.549   2.308   1.059
 8985SOL    HW127854   3.488   2.387   1.062
 8985SOL    HW227855   3.642   2.337   1.079
 8986SOL     OW27856   5.467   4.615   2.539
 8986SOL    HW127857   5.520   4.530   2.548
 8986SOL    HW227858   5.485   4.673   2.619
 8987SOL     OW27859   3.340   0.629   1.084
 8987SOL    HW127860   3.285   0.558   1.127
 8987SOL    HW227861   3.323   0.716   1.130
 8988SOL     OW27862   1.788   5.461   0.245
 8988SOL    HW127863   1.876   5.415   0.250
 8988SOL    HW227864   1.752   5.474   0.337
 8989SOL     OW27865   4.954   3.266   2.696
 8989SOL    HW127866   5.023   3.338   2.706
 8989SOL    HW227867   4.950   3.211   2.779
 8990SOL     OW27868   2.213   6.262   1.543
 8990SOL    HW127869   2.152   6.306   1.609
 8990SOL    HW227870   2.198   6.164   1.545
 8991SOL     OW27871   2.618   2.069   1.438
 8991SOL    HW127872   2.521   2.069   1.461
 8991SOL    HW227873   2.633   2.009   1.360
 8992SOL     OW27874   0.427   3.111   0.784
 8992SOL    HW127875   0.450   3.200   0.745
 8992SOL    HW227876   0.489   3.041   0.747
 8993SOL     OW27877   5.417   2.628   2.521
 8993SOL    HW127878   5.345   2.640   2.591
 8993SOL    HW227879   5.487   2.566   2.557
 8994SOL     OW27880   1.765   5.006   3.942
 8994SOL    HW127881   1.832   5.051   3.884
 8994SOL    HW227882   1.812   4.942   4.004
 8995SOL     OW27883   1.394   2.385   5.022
 8995SOL    HW127884   1.295   2.381   5.011
 8995SOL    HW227885   1.438   2.386   4.933
 8996SOL     OW27886   0.816   3.777   2.037
 8996SOL    HW127887   0.859   3.694   2.000
 8996SOL    HW227888   0.755   3.752   2.112
 8997SOL     OW27889   5.195   0.697   6.512
 8997SOL    HW127890   5.132   0.722   6.585
 8997SOL    HW227891   5.230   0.605   6.528
 8998SOL     OW27892   0.334   1.706   4.768
 8998SOL    HW127893   0.335   1.654   4.854
 8998SOL    HW227894   0.418   1.688   4.717
 8999SOL     OW27895   4.914   0.484   6.579
 8999SOL    HW127896   4.991   0.448   6.527
 8999SOL    HW227897   4.866   0.409   6.624
 9000SOL     OW27898   2.537   3.919   6.440
 9000SOL    HW127899   2.587   3.948   6.359
 9000SOL    HW227900   2.564   3.826   6.465
 9001SOL     OW27901   1.077   5.086   2.849
 9001SOL    HW127902   1.006   5.107   2.916
 9001SOL    HW227903   1.100   4.989   2.854
 9002SOL     OW27904   0.595   5.486   5.684
 9002SOL    HW127905   0.607   5.580   5.650
 9002SOL    HW227906   0.499   5.461   5.679
 9003SOL     OW27907   6.201   2.158   1.003
 9003SOL    HW127908   6.235   2.248   0.977
 9003SOL    HW227909   6.136   2.125   0.934
 9004SOL     OW27910   4.990   6.351   2.048
 9004SOL    HW127911   5.089   6.338   2.036
 9004SOL    HW227912   4.953   6.399   1.968
 9005SOL     OW27913   5.164   2.215   3.308
 9005SOL    HW127914   5.107   2.270   3.247
 9005SOL    HW227915   5.259   2.218   3.276
 9006SOL     OW27916   1.010   5.958   0.925
 9006SOL    HW127917   0.966   6.038   0.884
 9006SOL    HW227918   1.031   5.977   1.021
 9007SOL     OW27919   3.317   5.418   3.906
 9007SOL    HW127920   3.225   5.418   3.947
 9007SOL    HW227921   3.328   5.498   3.848
 9008SOL     OW27922   6.408   5.030   2.706
 9008SOL    HW127923   6.507   5.032   2.716
 9008SOL    HW227924   6.384   4.994   2.616
 9009SOL     OW27925   3.468   6.813   0.873
 9009SOL    HW127926   3.420   6.727   0.892
 9009SOL    HW227927   3.403   6.882   0.844
 9010SOL     OW27928   0.643   6.609   4.974
 9010SOL    HW127929   0.567   6.551   4.944
 9010SOL    HW227930   0.611   6.673   5.044
 9011SOL     OW27931   3.821   2.424   1.167
 9011SOL    HW127932   3.791   2.466   1.081
 9011SOL    HW227933   3.916   2.394   1.158
 9012SOL     OW27934   2.200   5.325   0.543
 9012SOL    HW127935   2.197   5.415   0.586
 9012SOL    HW227936   2.294   5.291   0.540
 9013SOL     OW27937   6.367   6.007   4.916
 9013SOL    HW127938   6.409   6.077   4.974
 9013SOL    HW227939   6.282   6.043   4.877
 9014SOL     OW27940   1.483   1.432   0.606
 9014SOL    HW127941   1.385   1.433   0.625
 9014SOL    HW227942   1.499   1.430   0.508
 9015SOL     OW27943   6.198   1.067   7.002
 9015SOL    HW127944   6.184   1.100   6.909
 9015SOL    HW227945   6.118   1.016   0.014
 9016SOL     OW27946   6.349   5.966   5.995
 9016SOL    HW127947   6.355   6.060   6.029
 9016SOL    HW227948   6.298   5.910   6.060
 9017SOL     OW27949   5.681   2.140   3.151
 9017SOL    HW127950   5.768   2.107   3.116
 9017SOL    HW227951   5.610   2.129   3.082
 9018SOL     OW27952   3.825   1.406   5.427
 9018SOL    HW127953   3.827   1.443   5.520
 9018SOL    HW227954   3.843   1.308   5.430
 9019SOL     OW27955   1.501   6.563   0.697
 9019SOL    HW127956   1.464   6.641   0.748
 9019SOL    HW227957   1.426   6.505   0.665
 9020SOL     OW27958   1.889   3.858   2.150
 9020SOL    HW127959   1.861   3.762   2.148
 9020SOL    HW227960   1.808   3.916   2.161
 9021SOL     OW27961   6.652   0.135   3.709
 9021SOL    HW127962   6.626   0.047   3.669
 9021SOL    HW227963   6.592   0.207   3.673
 9022SOL     OW27964   2.880   0.384   0.616
 9022SOL    HW127965   2.953   0.323   0.585
 9022SOL    HW227966   2.919   0.473   0.639
 9023SOL     OW27967   3.948   3.208   3.428
 9023SOL    HW127968   3.959   3.185   3.332
 9023SOL    HW227969   3.868   3.267   3.440
 9024SOL     OW27970   1.886   5.825   6.037
 9024SOL    HW127971   1.948   5.762   6.085
 9024SOL    HW227972   1.801   5.777   6.015
 9025SOL     OW27973   6.114   6.022   1.169
 9025SOL    HW127974   6.150   6.114   1.156
 9025SOL    HW227975   6.015   6.023   1.156
 9026SOL     OW27976   3.930   3.304   3.690
 9026SOL    HW127977   3.972   3.271   3.606
 9026SOL    HW227978   3.882   3.229   3.736
 9027SOL     OW27979   2.722   1.856   3.843
 9027SOL    HW127980   2.771   1.834   3.759
 9027SOL    HW227981   2.785   1.854   3.920
 9028SOL     OW27982   2.299   4.698   6.334
 9028SOL    HW127983   2.312   4.619   6.393
 9028SOL    HW227984   2.335   4.678   6.243
 9029SOL     OW27985   3.841   5.278   4.607
 9029SOL    HW127986   3.810   5.315   4.695
 9029SOL    HW227987   3.783   5.200   4.582
 9030SOL     OW27988   1.788   1.105   2.680
 9030SOL    HW127989   1.755   1.198   2.697
 9030SOL    HW227990   1.879   1.108   2.641
 9031SOL     OW27991   3.233   5.203   5.530
 9031SOL    HW127992   3.332   5.202   5.547
 9031SOL    HW227993   3.192   5.280   5.578
 9032SOL     OW27994   3.759   2.779   0.619
 9032SOL    HW127995   3.686   2.761   0.686
 9032SOL    HW227996   3.734   2.858   0.564
 9033SOL     OW27997   1.324   3.248   3.919
 9033SOL    HW127998   1.226   3.262   3.938
 9033SOL    HW227999   1.348   3.153   3.940
 9034SOL     OW28000   2.595   6.439   5.144
 9034SOL    HW128001   2.537   6.512   5.181
 9034SOL    HW228002   2.538   6.359   5.123
 9035SOL     OW28003   0.281   6.593   5.200
 9035SOL    HW128004   0.262   6.621   5.294
 9035SOL    HW228005   0.302   6.674   5.145
 9036SOL     OW28006   1.868   2.160   5.047
 9036SOL    HW128007   1.914   2.170   4.959
 9036SOL    HW228008   1.936   2.167   5.121
 9037SOL     OW28009   1.696   3.513   6.933
 9037SOL    HW128010   1.620   3.555   6.884
 9037SOL    HW228011   1.778   3.570   6.924
 9038SOL     OW28012   5.430   0.598   5.672
 9038SOL    HW128013   5.464   0.533   5.604
 9038SOL    HW228014   5.377   0.669   5.627
 9039SOL     OW28015   1.785   4.568   4.819
 9039SOL    HW128016   1.708   4.561   4.882
 9039SOL    HW228017   1.754   4.550   4.726
 9040SOL     OW28018   3.125   1.135   3.556
 9040SOL    HW128019   3.217   1.117   3.590
 9040SOL    HW228020   3.108   1.233   3.555
 9041SOL     OW28021   0.961   1.853   2.042
 9041SOL    HW128022   1.007   1.773   2.004
 9041SOL    HW228023   1.010   1.884   2.124
 9042SOL     OW28024   2.596   6.241   3.530
 9042SOL    HW128025   2.508   6.279   3.502
 9042SOL    HW228026   2.652   6.312   3.573
 9043SOL     OW28027   2.425   1.561   5.770
 9043SOL    HW128028   2.438   1.575   5.672
 9043SOL    HW228029   2.514   1.558   5.816
 9044SOL     OW28030   6.078   1.350   1.399
 9044SOL    HW128031   6.010   1.276   1.395
 9044SOL    HW228032   6.064   1.412   1.322
 9045SOL     OW28033   3.377   1.409   1.911
 9045SOL    HW128034   3.434   1.476   1.958
 9045SOL    HW228035   3.362   1.330   1.971
 9046SOL     OW28036   3.511   4.217   4.898
 9046SOL    HW128037   3.581   4.181   4.835
 9046SOL    HW228038   3.490   4.312   4.874
 9047SOL     OW28039   1.817   4.155   5.568
 9047SOL    HW128040   1.769   4.243   5.567
 9047SOL    HW228041   1.754   4.083   5.537
 9048SOL     OW28042   0.305   3.389   6.158
 9048SOL    HW128043   0.220   3.338   6.154
 9048SOL    HW228044   0.370   3.342   6.219
 9049SOL     OW28045   4.961   6.348   6.572
 9049SOL    HW128046   4.930   6.350   6.477
 9049SOL    HW228047   4.971   6.253   6.601
 9050SOL     OW28048   1.217   5.461   6.308
 9050SOL    HW128049   1.197   5.419   6.396
 9050SOL    HW228050   1.261   5.393   6.249
 9051SOL     OW28051   4.521   6.389   1.081
 9051SOL    HW128052   4.481   6.479   1.097
 9051SOL    HW228053   4.618   6.390   1.103
 9052SOL     OW28054   2.330   4.276   4.303
 9052SOL    HW128055   2.370   4.346   4.243
 9052SOL    HW228056   2.327   4.310   4.397
 9053SOL     OW28057   2.621   1.554   3.769
 9053SOL    HW128058   2.607   1.591   3.677
 9053SOL    HW228059   2.618   1.628   3.836
 9054SOL     OW28060   1.563   0.754   1.891
 9054SOL    HW128061   1.551   0.722   1.797
 9054SOL    HW228062   1.489   0.719   1.948
 9055SOL     OW28063   0.200   4.043   3.566
 9055SOL    HW128064   0.297   4.060   3.547
 9055SOL    HW228065   0.191   3.997   3.654
 9056SOL     OW28066   4.861   0.156   1.926
 9056SOL    HW128067   4.886   0.130   1.832
 9056SOL    HW228068   4.905   0.243   1.949
 9057SOL     OW28069   6.787   4.807   5.914
 9057SOL    HW128070   6.867   4.867   5.913
 9057SOL    HW228071   6.733   4.822   5.831
 9058SOL     OW28072   2.661   1.347   3.970
 9058SOL    HW128073   2.574   1.362   4.016
 9058SOL    HW228074   2.682   1.426   3.912
 9059SOL     OW28075   0.263   0.484   3.316
 9059SOL    HW128076   0.289   0.401   3.267
 9059SOL    HW228077   0.233   0.461   3.408
 9060SOL     OW28078   6.624   4.026   2.660
 9060SOL    HW128079   6.666   4.067   2.741
 9060SOL    HW228080   6.658   3.933   2.649
 9061SOL     OW28081   4.364   5.724   2.889
 9061SOL    HW128082   4.453   5.681   2.905
 9061SOL    HW228083   4.378   5.816   2.854
 9062SOL     OW28084   0.571   4.600   2.625
 9062SOL    HW128085   0.521   4.574   2.708
 9062SOL    HW228086   0.657   4.549   2.620
 9063SOL     OW28087   2.996   0.453   2.192
 9063SOL    HW128088   3.053   0.471   2.272
 9063SOL    HW228089   2.921   0.520   2.188
 9064SOL     OW28090   6.191   4.403   3.984
 9064SOL    HW128091   6.253   4.413   4.062
 9064SOL    HW228092   6.136   4.486   3.975
 9065SOL     OW28093   2.625   6.084   6.291
 9065SOL    HW128094   2.543   6.028   6.304
 9065SOL    HW228095   2.610   6.147   6.215
 9066SOL     OW28096   5.933   0.122   6.054
 9066SOL    HW128097   5.890   0.209   6.033
 9066SOL    HW228098   5.951   0.116   6.152
 9067SOL     OW28099   5.924   6.020   4.513
 9067SOL    HW128100   5.909   6.101   4.569
 9067SOL    HW228101   5.949   6.048   4.420
 9068SOL     OW28102   3.262   0.411   5.399
 9068SOL    HW128103   3.230   0.383   5.309
 9068SOL    HW228104   3.217   0.497   5.425
 9069SOL     OW28105   4.178   2.285   2.426
 9069SOL    HW128106   4.178   2.285   2.326
 9069SOL    HW228107   4.085   2.298   2.460
 9070SOL     OW28108   1.338   2.879   6.474
 9070SOL    HW128109   1.306   2.888   6.380
 9070SOL    HW228110   1.259   2.864   6.535
 9071SOL     OW28111   4.932   6.949   6.798
 9071SOL    HW128112   4.857   6.979   6.740
 9071SOL    HW228113   4.908   6.863   6.842
 9072SOL     OW28114   5.265   6.974   1.604
 9072SOL    HW128115   5.323   0.036   1.623
 9072SOL    HW228116   5.186   7.003   1.549
 9073SOL     OW28117   3.638   6.766   1.468
 9073SOL    HW128118   3.561   6.830   1.462
 9073SOL    HW228119   3.654   6.743   1.564
 9074SOL     OW28120   1.784   0.746   1.558
 9074SOL    HW128121   1.818   0.831   1.517
 9074SOL    HW228122   1.806   0.745   1.656
 9075SOL     OW28123   0.513   0.398   1.608
 9075SOL    HW128124   0.536   0.307   1.641
 9075SOL    HW228125   0.595   0.455   1.605
 9076SOL     OW28126   4.898   1.890   4.348
 9076SOL    HW128127   4.865   1.970   4.299
 9076SOL    HW228128   4.863   1.807   4.304
 9077SOL     OW28129   4.765   1.576   6.615
 9077SOL    HW128130   4.792   1.504   6.679
 9077SOL    HW228131   4.751   1.662   6.665
 9078SOL     OW28132   4.844   4.103   6.906
 9078SOL    HW128133   4.800   4.171   6.848
 9078SOL    HW228134   4.935   4.137   6.933
 9079SOL     OW28135   1.337   6.813   5.090
 9079SOL    HW128136   1.241   6.784   5.092
 9079SOL    HW228137   1.354   6.865   5.006
 9080SOL     OW28138   6.120   2.864   0.392
 9080SOL    HW128139   6.059   2.928   0.438
 9080SOL    HW228140   6.175   2.815   0.460
 9081SOL     OW28141   3.263   0.958   1.952
 9081SOL    HW128142   3.263   1.011   1.868
 9081SOL    HW228143   3.176   0.909   1.961
 9082SOL     OW28144   1.854   6.144   5.486
 9082SOL    HW128145   1.764   6.121   5.524
 9082SOL    HW228146   1.865   6.244   5.484
 9083SOL     OW28147   3.826   4.070   6.243
 9083SOL    HW128148   3.815   4.097   6.147
 9083SOL    HW228149   3.915   4.102   6.276
 9084SOL     OW28150   1.370   2.377   6.635
 9084SOL    HW128151   1.393   2.466   6.596
 9084SOL    HW228152   1.343   2.389   6.731
 9085SOL     OW28153   2.204   5.815   1.244
 9085SOL    HW128154   2.151   5.738   1.210
 9085SOL    HW228155   2.152   5.899   1.235
 9086SOL     OW28156   6.035   4.060   1.360
 9086SOL    HW128157   6.130   4.088   1.375
 9086SOL    HW228158   6.031   3.960   1.356
 9087SOL     OW28159   5.050   3.205   1.922
 9087SOL    HW128160   5.080   3.116   1.958
 9087SOL    HW228161   5.047   3.272   1.996
 9088SOL     OW28162   6.612   6.643   0.797
 9088SOL    HW128163   6.619   6.668   0.701
 9088SOL    HW228164   6.696   6.598   0.826
 9089SOL     OW28165   3.834   5.979   5.603
 9089SOL    HW128166   3.738   6.003   5.620
 9089SOL    HW228167   3.893   6.047   5.645
 9090SOL     OW28168   5.101   0.033   3.370
 9090SOL    HW128169   5.190   0.057   3.411
 9090SOL    HW228170   5.099   0.065   3.276
 9091SOL     OW28171   2.456   3.603   0.471
 9091SOL    HW128172   2.474   3.699   0.492
 9091SOL    HW228173   2.524   3.570   0.405
 9092SOL     OW28174   0.609   1.669   0.064
 9092SOL    HW128175   0.538   1.658   7.013
 9092SOL    HW228176   0.693   1.626   0.032
 9093SOL     OW28177   1.477   6.003   6.745
 9093SOL    HW128178   1.385   6.037   6.724
 9093SOL    HW228179   1.493   5.919   6.693
 9094SOL     OW28180   0.713   5.297   2.785
 9094SOL    HW128181   0.658   5.317   2.704
 9094SOL    HW228182   0.702   5.372   2.852
 9095SOL     OW28183   4.060   3.773   6.336
 9095SOL    HW128184   4.074   3.710   6.412
 9095SOL    HW228185   3.966   3.806   6.337
 9096SOL     OW28186   5.867   3.743   2.383
 9096SOL    HW128187   5.812   3.662   2.406
 9096SOL    HW228188   5.806   3.815   2.351
 9097SOL     OW28189   0.420   3.060   6.576
 9097SOL    HW128190   0.452   3.145   6.619
 9097SOL    HW228191   0.350   3.018   6.633
 9098SOL     OW28192   3.535   2.682   6.887
 9098SOL    HW128193   3.441   2.655   6.866
 9098SOL    HW228194   3.537   2.726   6.977
 9099SOL     OW28195   3.813   4.123   0.563
 9099SOL    HW128196   3.756   4.151   0.640
 9099SOL    HW228197   3.766   4.143   0.477
 9100SOL     OW28198   1.179   3.568   3.040
 9100SOL    HW128199   1.174   3.565   2.940
 9100SOL    HW228200   1.141   3.484   3.078
 9101SOL     OW28201   2.203   2.697   3.191
 9101SOL    HW128202   2.213   2.789   3.229
 9101SOL    HW228203   2.157   2.702   3.102
 9102SOL     OW28204   3.501   6.613   2.067
 9102SOL    HW128205   3.476   6.659   2.153
 9102SOL    HW228206   3.434   6.541   2.048
 9103SOL     OW28207   6.731   3.963   0.226
 9103SOL    HW128208   6.717   3.911   0.142
 9103SOL    HW228209   6.770   3.904   0.297
 9104SOL     OW28210   4.459   6.529   3.098
 9104SOL    HW128211   4.462   6.433   3.126
 9104SOL    HW228212   4.532   6.546   3.032
 9105SOL     OW28213   1.842   1.048   0.746
 9105SOL    HW128214   1.782   1.109   0.695
 9105SOL    HW228215   1.894   1.100   0.813
 9106SOL     OW28216   6.669   4.294   6.950
 9106SOL    HW128217   6.720   4.354   7.013
 9106SOL    HW228218   6.730   4.223   6.916
 9107SOL     OW28219   3.118   0.304   5.939
 9107SOL    HW128220   3.092   0.400   5.943
 9107SOL    HW228221   3.142   0.272   6.031
 9108SOL     OW28222   5.179   3.858   5.887
 9108SOL    HW128223   5.251   3.893   5.828
 9108SOL    HW228224   5.213   3.852   5.981
 9109SOL     OW28225   1.156   2.826   2.996
 9109SOL    HW128226   1.180   2.760   3.067
 9109SOL    HW228227   1.059   2.850   3.003
 9110SOL     OW28228   1.974   4.237   4.048
 9110SOL    HW128229   2.036   4.202   3.977
 9110SOL    HW228230   1.995   4.192   4.135
 9111SOL     OW28231   4.469   2.968   0.255
 9111SOL    HW128232   4.436   3.062   0.240
 9111SOL    HW228233   4.532   2.943   0.181
 9112SOL     OW28234   0.785   4.932   5.008
 9112SOL    HW128235   0.805   4.960   4.914
 9112SOL    HW228236   0.818   5.002   5.071
 9113SOL     OW28237   4.520   6.773   1.656
 9113SOL    HW128238   4.426   6.780   1.621
 9113SOL    HW228239   4.540   6.854   1.711
 9114SOL     OW28240   1.164   4.685   1.665
 9114SOL    HW128241   1.102   4.614   1.698
 9114SOL    HW228242   1.259   4.657   1.682
 9115SOL     OW28243   1.235   4.845   5.430
 9115SOL    HW128244   1.261   4.927   5.481
 9115SOL    HW228245   1.263   4.764   5.480
 9116SOL     OW28246   6.388   1.255   0.072
 9116SOL    HW128247   6.308   1.207   0.035
 9116SOL    HW228248   6.397   1.344   0.028
 9117SOL     OW28249   5.765   2.764   0.436
 9117SOL    HW128250   5.840   2.831   0.436
 9117SOL    HW228251   5.677   2.812   0.433
 9118SOL     OW28252   6.413   5.247   0.170
 9118SOL    HW128253   6.473   5.181   0.124
 9118SOL    HW228254   6.451   5.339   0.160
 9119SOL     OW28255   4.901   0.625   1.583
 9119SOL    HW128256   4.844   0.698   1.545
 9119SOL    HW228257   4.904   0.548   1.519
 9120SOL     OW28258   6.006   2.074   5.891
 9120SOL    HW128259   6.068   2.004   5.857
 9120SOL    HW228260   6.005   2.073   5.991
 9121SOL     OW28261   2.356   2.285   5.810
 9121SOL    HW128262   2.330   2.226   5.733
 9121SOL    HW228263   2.438   2.249   5.853
 9122SOL     OW28264   1.866   4.507   2.316
 9122SOL    HW128265   1.856   4.417   2.357
 9122SOL    HW228266   1.780   4.558   2.326
 9123SOL     OW28267   3.295   0.357   4.436
 9123SOL    HW128268   3.389   0.392   4.443
 9123SOL    HW228269   3.271   0.346   4.340
 9124SOL     OW28270   5.300   6.555   6.710
 9124SOL    HW128271   5.340   6.470   6.676
 9124SOL    HW228272   5.224   6.583   6.650
 9125SOL     OW28273   5.077   4.508   1.561
 9125SOL    HW128274   5.098   4.412   1.544
 9125SOL    HW228275   5.045   4.551   1.476
 9126SOL     OW28276   5.973   2.583   1.418
 9126SOL    HW128277   5.884   2.537   1.419
 9126SOL    HW228278   6.019   2.564   1.332
 9127SOL     OW28279   6.579   1.314   6.111
 9127SOL    HW128280   6.563   1.409   6.086
 9127SOL    HW228281   6.613   1.310   6.205
 9128SOL     OW28282   5.189   1.574   5.358
 9128SOL    HW128283   5.160   1.669   5.367
 9128SOL    HW228284   5.255   1.567   5.283
 9129SOL     OW28285   0.168   2.427   0.851
 9129SOL    HW128286   0.186   2.521   0.880
 9129SOL    HW228287   0.254   2.385   0.822
 9130SOL     OW28288   0.089   3.367   0.984
 9130SOL    HW128289   0.178   3.343   0.945
 9130SOL    HW228290   0.079   3.327   1.075
 9131SOL     OW28291   6.214   2.892   5.341
 9131SOL    HW128292   6.286   2.953   5.374
 9131SOL    HW228293   6.244   2.848   5.256
 9132SOL     OW28294   0.834   5.243   4.388
 9132SOL    HW128295   0.832   5.254   4.289
 9132SOL    HW228296   0.804   5.150   4.412
 9133SOL     OW28297   3.792   5.930   2.297
 9133SOL    HW128298   3.815   5.918   2.201
 9133SOL    HW228299   3.761   5.844   2.336
 9134SOL     OW28300   4.909   5.555   0.340
 9134SOL    HW128301   4.875   5.643   0.373
 9134SOL    HW228302   4.839   5.512   0.282
 9135SOL     OW28303   6.613   6.893   1.504
 9135SOL    HW128304   6.705   6.927   1.525
 9135SOL    HW228305   6.577   6.845   1.584
 9136SOL     OW28306   5.372   5.407   5.888
 9136SOL    HW128307   5.305   5.475   5.858
 9136SOL    HW228308   5.422   5.371   5.809
 9137SOL     OW28309   4.896   1.737   1.337
 9137SOL    HW128310   4.904   1.732   1.237
 9137SOL    HW228311   4.978   1.699   1.378
 9138SOL     OW28312   0.429   5.685   6.021
 9138SOL    HW128313   0.511   5.713   6.071
 9138SOL    HW228314   0.352   5.743   6.048
 9139SOL     OW28315   2.482   1.302   4.929
 9139SOL    HW128316   2.541   1.304   4.849
 9139SOL    HW228317   2.527   1.349   5.005
 9140SOL     OW28318   6.254   3.676   3.026
 9140SOL    HW128319   6.241   3.688   3.124
 9140SOL    HW228320   6.190   3.607   2.992
 9141SOL     OW28321   5.887   0.192   0.006
 9141SOL    HW128322   5.831   0.170   6.944
 9141SOL    HW228323   5.830   0.192   0.088
 9142SOL     OW28324   0.274   2.527   1.202
 9142SOL    HW128325   0.178   2.520   1.228
 9142SOL    HW228326   0.331   2.493   1.277
 9143SOL     OW28327   6.546   3.177   0.463
 9143SOL    HW128328   6.568   3.275   0.457
 9143SOL    HW228329   6.630   3.124   0.449
 9144SOL     OW28330   2.507   5.303   5.328
 9144SOL    HW128331   2.518   5.311   5.427
 9144SOL    HW228332   2.448   5.377   5.295
 9145SOL     OW28333   0.181   5.385   0.103
 9145SOL    HW128334   0.168   5.387   0.004
 9145SOL    HW228335   0.208   5.476   0.135
 9146SOL     OW28336   5.623   3.144   2.855
 9146SOL    HW128337   5.658   3.050   2.850
 9146SOL    HW228338   5.606   3.169   2.950
 9147SOL     OW28339   6.189   0.830   4.498
 9147SOL    HW128340   6.282   0.794   4.487
 9147SOL    HW228341   6.162   0.824   4.594
 9148SOL     OW28342   4.712   5.691   0.798
 9148SOL    HW128343   4.718   5.782   0.758
 9148SOL    HW228344   4.642   5.638   0.750
 9149SOL     OW28345   5.898   3.870   3.468
 9149SOL    HW128346   5.898   3.792   3.406
 9149SOL    HW228347   5.854   3.845   3.554
 9150SOL     OW28348   3.158   5.252   1.657
 9150SOL    HW128349   3.081   5.199   1.694
 9150SOL    HW228350   3.173   5.227   1.561
 9151SOL     OW28351   1.799   4.381   3.454
 9151SOL    HW128352   1.874   4.314   3.449
 9151SOL    HW228353   1.837   4.471   3.474
 9152SOL     OW28354   1.986   4.373   4.757
 9152SOL    HW128355   1.921   4.432   4.805
 9152SOL    HW228356   2.051   4.336   4.823
 9153SOL     OW28357   1.514   3.437   0.138
 9153SOL    HW128358   1.591   3.494   0.108
 9153SOL    HW228359   1.548   3.352   0.178
 9154SOL     OW28360   4.181   4.429   6.408
 9154SOL    HW128361   4.168   4.448   6.505
 9154SOL    HW228362   4.105   4.373   6.375
 9155SOL     OW28363   1.566   4.278   2.077
 9155SOL    HW128364   1.627   4.212   2.121
 9155SOL    HW228365   1.494   4.230   2.028
 9156SOL     OW28366   1.542   2.320   0.744
 9156SOL    HW128367   1.518   2.223   0.738
 9156SOL    HW228368   1.476   2.374   0.691
 9157SOL     OW28369   0.082   4.379   5.894
 9157SOL    HW128370   0.028   4.462   5.882
 9157SOL    HW228371   0.023   4.299   5.886
 9158SOL     OW28372   5.615   3.241   4.480
 9158SOL    HW128373   5.569   3.330   4.479
 9158SOL    HW228374   5.661   3.228   4.567
 9159SOL     OW28375   1.734   0.840   2.166
 9159SOL    HW128376   1.734   0.752   2.119
 9159SOL    HW228377   1.720   0.825   2.264
 9160SOL     OW28378   5.696   6.643   5.129
 9160SOL    HW128379   5.706   6.733   5.171
 9160SOL    HW228380   5.748   6.641   5.043
 9161SOL     OW28381   4.998   4.119   4.625
 9161SOL    HW128382   5.036   4.167   4.546
 9161SOL    HW228383   4.908   4.156   4.647
 9162SOL     OW28384   4.407   1.369   4.075
 9162SOL    HW128385   4.359   1.375   3.988
 9162SOL    HW228386   4.361   1.304   4.135
 9163SOL     OW28387   1.547   2.617   4.555
 9163SOL    HW128388   1.589   2.649   4.640
 9163SOL    HW228389   1.619   2.590   4.491
 9164SOL     OW28390   2.134   0.202   6.926
 9164SOL    HW128391   2.163   0.171   7.017
 9164SOL    HW228392   2.035   0.212   6.924
 9165SOL     OW28393   6.148   1.771   5.993
 9165SOL    HW128394   6.128   1.677   5.964
 9165SOL    HW228395   6.165   1.828   5.913
 9166SOL     OW28396   3.906   5.907   2.031
 9166SOL    HW128397   3.862   5.892   1.942
 9166SOL    HW228398   3.992   5.956   2.018
 9167SOL     OW28399   1.991   2.522   6.297
 9167SOL    HW128400   2.033   2.548   6.210
 9167SOL    HW228401   2.059   2.477   6.354
 9168SOL     OW28402   6.797   6.751   6.424
 9168SOL    HW128403   6.827   6.763   6.330
 9168SOL    HW228404   6.838   6.821   6.482
 9169SOL     OW28405   5.753   6.890   5.192
 9169SOL    HW128406   5.735   6.916   5.097
 9169SOL    HW228407   5.808   6.961   5.236
 9170SOL     OW28408   1.628   6.070   6.965
 9170SOL    HW128409   1.582   6.029   6.886
 9170SOL    HW228410   1.561   6.086   0.019
 9171SOL     OW28411   3.962   5.015   0.991
 9171SOL    HW128412   3.882   5.074   0.998
 9171SOL    HW228413   4.005   5.028   0.901
 9172SOL     OW28414   4.147   0.996   2.400
 9172SOL    HW128415   4.109   0.912   2.438
 9172SOL    HW228416   4.074   1.052   2.361
 9173SOL     OW28417   6.551   3.568   6.202
 9173SOL    HW128418   6.491   3.489   6.190
 9173SOL    HW228419   6.525   3.640   6.138
 9174SOL     OW28420   5.930   4.213   1.153
 9174SOL    HW128421   5.849   4.264   1.183
 9174SOL    HW228422   5.957   4.149   1.225
 9175SOL     OW28423   0.353   7.000   5.619
 9175SOL    HW128424   0.439   7.015   5.667
 9175SOL    HW228425   0.283   6.969   5.684
 9176SOL     OW28426   2.374   1.152   3.908
 9176SOL    HW128427   2.320   1.142   3.991
 9176SOL    HW228428   2.454   1.092   3.914
 9177SOL     OW28429   0.609   4.858   4.637
 9177SOL    HW128430   0.572   4.870   4.729
 9177SOL    HW228431   0.677   4.784   4.638
 9178SOL     OW28432   1.619   5.594   0.503
 9178SOL    HW128433   1.534   5.557   0.541
 9178SOL    HW228434   1.694   5.578   0.566
 9179SOL     OW28435   2.302   4.102   3.569
 9179SOL    HW128436   2.258   4.017   3.598
 9179SOL    HW228437   2.322   4.158   3.650
 9180SOL     OW28438   6.774   2.578   3.318
 9180SOL    HW128439   6.715   2.541   3.389
 9180SOL    HW228440   6.793   2.507   3.250
 9181SOL     OW28441   5.163   2.648   5.169
 9181SOL    HW128442   5.146   2.733   5.218
 9181SOL    HW228443   5.078   2.594   5.165
 9182SOL     OW28444   2.950   6.661   2.380
 9182SOL    HW128445   2.941   6.760   2.386
 9182SOL    HW228446   3.037   6.638   2.336
 9183SOL     OW28447   4.928   4.864   0.372
 9183SOL    HW128448   4.913   4.815   0.286
 9183SOL    HW228449   4.914   4.802   0.448
 9184SOL     OW28450   4.832   2.023   0.407
 9184SOL    HW128451   4.750   1.968   0.396
 9184SOL    HW228452   4.807   2.115   0.438
 9185SOL     OW28453   5.148   6.891   5.015
 9185SOL    HW128454   5.114   6.981   4.989
 9185SOL    HW228455   5.222   6.864   4.952
 9186SOL     OW28456   5.683   6.263   4.615
 9186SOL    HW128457   5.643   6.230   4.529
 9186SOL    HW228458   5.632   6.225   4.692
 9187SOL     OW28459   2.581   2.088   0.385
 9187SOL    HW128460   2.573   2.159   0.315
 9187SOL    HW228461   2.499   2.030   0.384
 9188SOL     OW28462   1.449   6.795   0.828
 9188SOL    HW128463   1.408   6.824   0.915
 9188SOL    HW228464   1.442   6.869   0.761
 9189SOL     OW28465   2.704   6.045   1.795
 9189SOL    HW128466   2.729   6.129   1.747
 9189SOL    HW228467   2.607   6.047   1.819
 9190SOL     OW28468   2.029   4.746   5.463
 9190SOL    HW128469   2.032   4.673   5.395
 9190SOL    HW228470   2.066   4.830   5.424
 9191SOL     OW28471   6.532   1.711   6.530
 9191SOL    HW128472   6.482   1.790   6.565
 9191SOL    HW228473   6.559   1.728   6.435
 9192SOL     OW28474   1.209   2.554   6.173
 9192SOL    HW128475   1.189   2.553   6.271
 9192SOL    HW228476   1.191   2.464   6.134
 9193SOL     OW28477   3.460   4.190   6.079
 9193SOL    HW128478   3.510   4.115   6.122
 9193SOL    HW228479   3.368   4.197   6.119
 9194SOL     OW28480   3.491   0.896   3.593
 9194SOL    HW128481   3.542   0.813   3.615
 9194SOL    HW228482   3.396   0.871   3.570
 9195SOL     OW28483   0.814   2.099   2.958
 9195SOL    HW128484   0.760   2.016   2.972
 9195SOL    HW228485   0.771   2.175   3.007
 9196SOL     OW28486   5.948   0.184   3.115
 9196SOL    HW128487   5.955   0.203   3.213
 9196SOL    HW228488   5.857   0.151   3.094
 9197SOL     OW28489   1.825   5.025   1.438
 9197SOL    HW128490   1.865   5.063   1.354
 9197SOL    HW228491   1.875   4.943   1.465
 9198SOL     OW28492   6.341   4.839   6.911
 9198SOL    HW128493   6.361   4.746   6.940
 9198SOL    HW228494   6.243   4.856   6.918
 9199SOL     OW28495   0.831   3.633   4.970
 9199SOL    HW128496   0.784   3.563   5.025
 9199SOL    HW228497   0.908   3.592   4.922
 9200SOL     OW28498   3.247   6.117   6.911
 9200SOL    HW128499   3.242   6.190   6.979
 9200SOL    HW228500   3.235   6.029   6.956
 9201SOL     OW28501   7.008   3.458   0.637
 9201SOL    HW128502   6.961   3.442   0.550
 9201SOL    HW228503   0.071   3.515   0.621
 9202SOL     OW28504   1.105   6.708   2.448
 9202SOL    HW128505   1.132   6.626   2.398
 9202SOL    HW228506   1.074   6.683   2.540
 9203SOL     OW28507   0.301   3.526   5.648
 9203SOL    HW128508   0.249   3.611   5.656
 9203SOL    HW228509   0.309   3.483   5.738
 9204SOL     OW28510   4.638   2.944   5.488
 9204SOL    HW128511   4.730   2.906   5.482
 9204SOL    HW228512   4.644   3.042   5.510
 9205SOL     OW28513   5.202   6.151   3.443
 9205SOL    HW128514   5.109   6.178   3.421
 9205SOL    HW228515   5.259   6.159   3.361
 9206SOL     OW28516   3.208   4.905   3.720
 9206SOL    HW128517   3.139   4.846   3.677
 9206SOL    HW228518   3.296   4.891   3.674
 9207SOL     OW28519   5.086   4.835   5.898
 9207SOL    HW128520   5.083   4.745   5.853
 9207SOL    HW228521   5.041   4.902   5.840
 9208SOL     OW28522   6.052   4.765   3.780
 9208SOL    HW128523   6.107   4.837   3.738
 9208SOL    HW228524   6.042   4.688   3.716
 9209SOL     OW28525   4.262   0.655   0.237
 9209SOL    HW128526   4.197   0.689   0.305
 9209SOL    HW228527   4.282   0.726   0.171
 9210SOL     OW28528   0.310   1.417   2.117
 9210SOL    HW128529   0.393   1.473   2.116
 9210SOL    HW228530   0.295   1.379   2.025
 9211SOL     OW28531   6.588   2.789   6.218
 9211SOL    HW128532   6.590   2.887   6.238
 9211SOL    HW228533   6.675   2.763   6.176
 9212SOL     OW28534   4.292   5.547   4.080
 9212SOL    HW128535   4.280   5.513   4.173
 9212SOL    HW228536   4.284   5.471   4.015
 9213SOL     OW28537   5.437   3.829   5.197
 9213SOL    HW128538   5.343   3.795   5.207
 9213SOL    HW228539   5.445   3.918   5.241
 9214SOL     OW28540   6.952   4.084   5.851
 9214SOL    HW128541   7.003   4.044   5.774
 9214SOL    HW228542   6.979   4.039   5.936
 9215SOL     OW28543   1.712   2.967   1.928
 9215SOL    HW128544   1.709   3.063   1.902
 9215SOL    HW228545   1.755   2.914   1.854
 9216SOL     OW28546   3.816   0.147   2.370
 9216SOL    HW128547   3.871   0.068   2.397
 9216SOL    HW228548   3.870   0.206   2.310
 9217SOL     OW28549   6.985   3.048   6.688
 9217SOL    HW128550   6.970   3.105   6.769
 9217SOL    HW228551   6.952   3.095   6.607
 9218SOL     OW28552   2.217   1.033   0.040
 9218SOL    HW128553   2.124   0.999   0.052
 9218SOL    HW228554   2.218   1.133   0.049
 9219SOL     OW28555   6.064   3.495   0.469
 9219SOL    HW128556   6.117   3.505   0.385
 9219SOL    HW228557   6.107   3.426   0.528
 9220SOL     OW28558   1.204   6.311   1.644
 9220SOL    HW128559   1.162   6.305   1.735
 9220SOL    HW228560   1.163   6.386   1.593
 9221SOL     OW28561   2.582   0.866   3.358
 9221SOL    HW128562   2.658   0.873   3.293
 9221SOL    HW228563   2.540   0.776   3.350
 9222SOL     OW28564   2.606   6.417   6.092
 9222SOL    HW128565   2.695   6.379   6.117
 9222SOL    HW228566   2.558   6.354   6.032
 9223SOL     OW28567   0.836   2.273   3.857
 9223SOL    HW128568   0.910   2.206   3.856
 9223SOL    HW228569   0.766   2.244   3.922
 9224SOL     OW28570   0.923   5.385   4.157
 9224SOL    HW128571   0.951   5.359   4.065
 9224SOL    HW228572   1.003   5.409   4.211
 9225SOL     OW28573   2.727   5.986   6.574
 9225SOL    HW128574   2.687   5.989   6.483
 9225SOL    HW228575   2.732   6.078   6.611
 9226SOL     OW28576   6.345   6.725   1.974
 9226SOL    HW128577   6.443   6.734   1.994
 9226SOL    HW228578   6.292   6.756   2.052
 9227SOL     OW28579   1.861   5.547   0.615
 9227SOL    HW128580   1.899   5.594   0.535
 9227SOL    HW228581   1.902   5.584   0.698
 9228SOL     OW28582   1.883   1.725   5.879
 9228SOL    HW128583   1.804   1.663   5.879
 9228SOL    HW228584   1.967   1.671   5.885
 9229SOL     OW28585   0.992   5.990   5.055
 9229SOL    HW128586   0.913   5.972   5.115
 9229SOL    HW228587   0.990   6.086   5.025
 9230SOL     OW28588   5.603   2.628   2.901
 9230SOL    HW128589   5.530   2.598   2.961
 9230SOL    HW228590   5.683   2.653   2.955
 9231SOL     OW28591   0.449   3.070   4.750
 9231SOL    HW128592   0.390   2.996   4.718
 9231SOL    HW228593   0.515   3.033   4.816
 9232SOL     OW28594   3.930   5.334   0.669
 9232SOL    HW128595   3.904   5.406   0.606
 9232SOL    HW228596   3.918   5.366   0.763
 9233SOL     OW28597   5.832   5.541   1.792
 9233SOL    HW128598   5.767   5.466   1.808
 9233SOL    HW228599   5.890   5.552   1.872
 9234SOL     OW28600   3.523   5.743   6.702
 9234SOL    HW128601   3.449   5.681   6.678
 9234SOL    HW228602   3.534   5.812   6.630
 9235SOL     OW28603   1.568   3.164   2.808
 9235SOL    HW128604   1.472   3.188   2.800
 9235SOL    HW228605   1.577   3.077   2.858
 9236SOL     OW28606   2.113   4.484   5.875
 9236SOL    HW128607   2.122   4.568   5.821
 9236SOL    HW228608   2.081   4.507   5.967
 9237SOL     OW28609   1.094   6.026   4.069
 9237SOL    HW128610   1.125   6.019   3.974
 9237SOL    HW228611   1.054   5.939   4.097
 9238SOL     OW28612   2.652   1.772   0.037
 9238SOL    HW128613   2.632   1.867   0.060
 9238SOL    HW228614   2.750   1.761   0.018
 9239SOL     OW28615   6.879   4.095   6.918
 9239SOL    HW128616   6.959   4.035   6.915
 9239SOL    HW228617   6.796   4.039   6.923
 9240SOL     OW28618   4.694   1.638   1.766
 9240SOL    HW128619   4.755   1.559   1.763
 9240SOL    HW228620   4.625   1.623   1.837
 9241SOL     OW28621   0.882   5.278   5.714
 9241SOL    HW128622   0.819   5.308   5.786
 9241SOL    HW228623   0.860   5.184   5.688
 9242SOL     OW28624   0.928   4.817   6.884
 9242SOL    HW128625   0.862   4.854   6.950
 9242SOL    HW228626   0.886   4.811   6.794
 9243SOL     OW28627   6.900   6.577   1.527
 9243SOL    HW128628   6.906   6.478   1.545
 9243SOL    HW228629   6.891   6.592   1.429
 9244SOL     OW28630   4.107   5.690   6.343
 9244SOL    HW128631   4.061   5.719   6.259
 9244SOL    HW228632   4.187   5.747   6.359
 9245SOL     OW28633   1.713   4.620   2.675
 9245SOL    HW128634   1.704   4.555   2.751
 9245SOL    HW228635   1.809   4.649   2.668
 9246SOL     OW28636   6.957   5.565   2.418
 9246SOL    HW128637   6.876   5.519   2.380
 9246SOL    HW228638   6.955   5.558   2.518
 9247SOL     OW28639   0.989   0.175   2.743
 9247SOL    HW128640   0.981   0.266   2.783
 9247SOL    HW228641   0.926   0.112   2.789
 9248SOL     OW28642   2.337   1.783   4.718
 9248SOL    HW128643   2.408   1.782   4.649
 9248SOL    HW228644   2.329   1.692   4.760
 9249SOL     OW28645   3.564   3.680   0.190
 9249SOL    HW128646   3.585   3.752   0.124
 9249SOL    HW228647   3.594   3.709   0.281
 9250SOL     OW28648   5.359   3.155   3.519
 9250SOL    HW128649   5.265   3.121   3.526
 9250SOL    HW228650   5.417   3.103   3.582
 9251SOL     OW28651   3.613   1.818   2.810
 9251SOL    HW128652   3.690   1.824   2.873
 9251SOL    HW228653   3.602   1.905   2.762
 9252SOL     OW28654   5.171   0.246   3.796
 9252SOL    HW128655   5.268   0.269   3.794
 9252SOL    HW228656   5.159   0.149   3.774
 9253SOL     OW28657   5.588   6.322   5.160
 9253SOL    HW128658   5.687   6.332   5.173
 9253SOL    HW228659   5.542   6.335   5.248
 9254SOL     OW28660   6.837   4.550   3.123
 9254SOL    HW128661   6.794   4.633   3.158
 9254SOL    HW228662   6.820   4.544   3.024
 9255SOL     OW28663   4.542   3.820   0.039
 9255SOL    HW128664   4.615   3.878   0.073
 9255SOL    HW228665   4.580   3.731   0.012
 9256SOL     OW28666   3.608   0.051   2.508
 9256SOL    HW128667   3.633   6.992   2.567
 9256SOL    HW228668   3.686   0.075   2.450
 9257SOL     OW28669   0.109   3.663   3.196
 9257SOL    HW128670   0.053   3.683   3.115
 9257SOL    HW228671   0.105   3.740   3.259
 9258SOL     OW28672   3.183   3.097   2.914
 9258SOL    HW128673   3.175   3.036   2.835
 9258SOL    HW228674   3.100   3.153   2.921
 9259SOL     OW28675   1.095   2.536   0.821
 9259SOL    HW128676   1.186   2.513   0.856
 9259SOL    HW228677   1.058   2.612   0.874
 9260SOL     OW28678   5.409   1.713   4.730
 9260SOL    HW128679   5.340   1.641   4.726
 9260SOL    HW228680   5.456   1.719   4.643
 9261SOL     OW28681   3.673   0.626   0.287
 9261SOL    HW128682   3.622   0.624   0.373
 9261SOL    HW228683   3.754   0.568   0.295
 9262SOL     OW28684   0.134   4.128   5.649
 9262SOL    HW128685   0.208   4.193   5.631
 9262SOL    HW228686   0.126   4.064   5.572
 9263SOL     OW28687   5.147   6.569   0.905
 9263SOL    HW128688   5.205   6.604   0.979
 9263SOL    HW228689   5.204   6.527   0.835
 9264SOL     OW28690   4.680   4.949   0.093
 9264SOL    HW128691   4.776   4.967   0.115
 9264SOL    HW228692   4.657   4.855   0.117
 9265SOL     OW28693   4.044   1.986   0.348
 9265SOL    HW128694   3.964   1.935   0.379
 9265SOL    HW228695   4.017   2.048   0.274
 9266SOL     OW28696   2.210   6.915   1.467
 9266SOL    HW128697   2.208   6.963   1.555
 9266SOL    HW228698   2.138   6.846   1.466
 9267SOL     OW28699   6.439   2.794   4.666
 9267SOL    HW128700   6.505   2.780   4.593
 9267SOL    HW228701   6.425   2.892   4.681
 9268SOL     OW28702   1.082   5.383   2.230
 9268SOL    HW128703   1.057   5.288   2.247
 9268SOL    HW228704   1.168   5.387   2.179
 9269SOL     OW28705   3.197   1.194   6.081
 9269SOL    HW128706   3.114   1.190   6.025
 9269SOL    HW228707   3.199   1.279   6.132
 9270SOL     OW28708   4.077   6.291   5.997
 9270SOL    HW128709   4.132   6.241   5.930
 9270SOL    HW228710   4.030   6.226   6.057
 9271SOL     OW28711   6.427   0.127   0.053
 9271SOL    HW128712   6.339   0.119   0.099
 9271SOL    HW228713   6.428   0.068   6.990
 9272SOL     OW28714   1.133   5.566   4.524
 9272SOL    HW128715   1.043   5.610   4.524
 9272SOL    HW228716   1.203   5.634   4.505
 9273SOL     OW28717   6.076   6.308   3.549
 9273SOL    HW128718   6.172   6.291   3.572
 9273SOL    HW228719   6.027   6.221   3.546
 9274SOL     OW28720   6.750   2.378   6.927
 9274SOL    HW128721   6.828   2.405   6.872
 9274SOL    HW228722   6.701   2.460   6.958
 9275SOL     OW28723   0.006   1.232   6.865
 9275SOL    HW128724   7.011   1.143   6.822
 9275SOL    HW228725   6.998   1.304   6.801
 9276SOL     OW28726   2.068   3.906   1.970
 9276SOL    HW128727   2.054   3.829   1.908
 9276SOL    HW228728   2.009   3.896   2.050
 9277SOL     OW28729   4.740   3.430   6.754
 9277SOL    HW128730   4.659   3.486   6.771
 9277SOL    HW228731   4.812   3.487   6.716
 9278SOL     OW28732   1.504   0.528   6.020
 9278SOL    HW128733   1.507   0.428   6.016
 9278SOL    HW228734   1.416   0.557   6.057
 9279SOL     OW28735   4.451   0.466   1.587
 9279SOL    HW128736   4.359   0.501   1.608
 9279SOL    HW228737   4.513   0.491   1.660
 9280SOL     OW28738   2.268   2.017   3.578
 9280SOL    HW128739   2.316   2.090   3.627
 9280SOL    HW228740   2.334   1.951   3.542
 9281SOL     OW28741   2.757   4.570   0.510
 9281SOL    HW128742   2.814   4.526   0.579
 9281SOL    HW228743   2.670   4.597   0.551
 9282SOL     OW28744   4.649   1.221   4.135
 9282SOL    HW128745   4.557   1.255   4.115
 9282SOL    HW228746   4.716   1.292   4.116
 9283SOL     OW28747   5.603   0.606   3.861
 9283SOL    HW128748   5.606   0.690   3.915
 9283SOL    HW228749   5.519   0.605   3.806
 9284SOL     OW28750   3.684   3.452   5.750
 9284SOL    HW128751   3.591   3.485   5.733
 9284SOL    HW228752   3.724   3.419   5.664
 9285SOL     OW28753   5.033   2.945   0.960
 9285SOL    HW128754   5.009   2.854   0.993
 9285SOL    HW228755   4.999   2.957   0.867
 9286SOL     OW28756   5.147   5.619   0.540
 9286SOL    HW128757   5.073   5.684   0.525
 9286SOL    HW228758   5.186   5.632   0.631
 9287SOL     OW28759   3.284   4.883   6.539
 9287SOL    HW128760   3.309   4.953   6.606
 9287SOL    HW228761   3.356   4.813   6.536
 9288SOL     OW28762   4.802   1.225   3.777
 9288SOL    HW128763   4.712   1.195   3.746
 9288SOL    HW228764   4.843   1.284   3.708
 9289SOL     OW28765   3.898   1.152   2.307
 9289SOL    HW128766   3.840   1.178   2.384
 9289SOL    HW228767   3.851   1.082   2.252
 9290SOL     OW28768   5.115   1.347   3.083
 9290SOL    HW128769   5.025   1.331   3.042
 9290SOL    HW228770   5.168   1.409   3.025
 9291SOL     OW28771   1.681   6.289   4.374
 9291SOL    HW128772   1.774   6.324   4.362
 9291SOL    HW228773   1.664   6.215   4.309
 9292SOL     OW28774   1.030   3.448   0.109
 9292SOL    HW128775   1.114   3.394   0.095
 9292SOL    HW228776   1.048   3.520   0.176
 9293SOL     OW28777   5.137   3.727   6.790
 9293SOL    HW128778   5.056   3.683   6.752
 9293SOL    HW228779   5.114   3.768   6.878
 9294SOL     OW28780   4.265   0.462   5.502
 9294SOL    HW128781   4.305   0.436   5.414
 9294SOL    HW228782   4.316   0.417   5.576
 9295SOL     OW28783   5.574   2.404   4.384
 9295SOL    HW128784   5.521   2.467   4.327
 9295SOL    HW228785   5.669   2.433   4.386
 9296SOL     OW28786   0.721   6.591   6.966
 9296SOL    HW128787   0.796   6.600   0.013
 9296SOL    HW228788   0.640   6.556   7.013
 9297SOL     OW28789   6.489   0.347   0.935
 9297SOL    HW128790   6.533   0.270   0.981
 9297SOL    HW228791   6.559   0.409   0.899
 9298SOL     OW28792   0.630   0.149   5.355
 9298SOL    HW128793   0.572   0.121   5.278
 9298SOL    HW228794   0.660   0.244   5.341
 9299SOL     OW28795   0.588   2.589   5.268
 9299SOL    HW128796   0.587   2.614   5.171
 9299SOL    HW228797   0.513   2.525   5.286
 9300SOL     OW28798   0.696   4.662   5.776
 9300SOL    HW128799   0.717   4.736   5.840
 9300SOL    HW228800   0.763   4.661   5.702
 9301SOL     OW28801   4.916   4.794   3.655
 9301SOL    HW128802   4.859   4.869   3.690
 9301SOL    HW228803   4.880   4.764   3.567
 9302SOL     OW28804   2.157   3.000   3.969
 9302SOL    HW128805   2.072   2.958   3.938
 9302SOL    HW228806   2.140   3.097   3.987
 9303SOL     OW28807   2.563   4.637   0.682
 9303SOL    HW128808   2.505   4.710   0.719
 9303SOL    HW228809   2.598   4.581   0.757
 9304SOL     OW28810   4.129   5.059   1.958
 9304SOL    HW128811   4.210   5.113   1.931
 9304SOL    HW228812   4.084   5.023   1.877
 9305SOL     OW28813   3.616   1.291   0.828
 9305SOL    HW128814   3.586   1.265   0.737
 9305SOL    HW228815   3.591   1.220   0.893
 9306SOL     OW28816   0.214   5.089   4.669
 9306SOL    HW128817   0.146   5.135   4.612
 9306SOL    HW228818   0.291   5.060   4.613
 9307SOL     OW28819   2.041   3.659   1.838
 9307SOL    HW128820   2.014   3.617   1.752
 9307SOL    HW228821   2.106   3.599   1.885
 9308SOL     OW28822   1.969   3.513   0.433
 9308SOL    HW128823   2.063   3.516   0.399
 9308SOL    HW228824   1.928   3.425   0.411
 9309SOL     OW28825   3.074   4.550   6.024
 9309SOL    HW128826   3.147   4.490   5.994
 9309SOL    HW228827   3.012   4.500   6.084
 9310SOL     OW28828   4.579   5.259   6.667
 9310SOL    HW128829   4.613   5.201   6.741
 9310SOL    HW228830   4.651   5.273   6.599
 9311SOL     OW28831   4.213   5.160   2.226
 9311SOL    HW128832   4.193   5.121   2.137
 9311SOL    HW228833   4.312   5.166   2.239
 9312SOL     OW28834   1.349   3.870   1.423
 9312SOL    HW128835   1.297   3.951   1.452
 9312SOL    HW228836   1.299   3.822   1.351
 9313SOL     OW28837   0.521   0.981   1.274
 9313SOL    HW128838   0.607   0.930   1.268
 9313SOL    HW228839   0.454   0.941   1.211
 9314SOL     OW28840   4.766   5.317   6.476
 9314SOL    HW128841   4.819   5.401   6.465
 9314SOL    HW228842   4.827   5.238   6.466
 9315SOL     OW28843   5.894   0.757   5.127
 9315SOL    HW128844   5.893   0.657   5.125
 9315SOL    HW228845   5.988   0.789   5.130
 9316SOL     OW28846   4.592   5.657   5.288
 9316SOL    HW128847   4.504   5.627   5.324
 9316SOL    HW228848   4.599   5.756   5.296
 9317SOL     OW28849   5.398   5.274   3.123
 9317SOL    HW128850   5.389   5.272   3.222
 9317SOL    HW228851   5.466   5.343   3.097
 9318SOL     OW28852   5.948   0.765   5.784
 9318SOL    HW128853   5.877   0.831   5.810
 9318SOL    HW228854   6.035   0.792   5.827
 9319SOL     OW28855   2.024   2.963   0.103
 9319SOL    HW128856   1.969   2.953   0.020
 9319SOL    HW228857   2.105   3.018   0.082
 9320SOL     OW28858   3.819   0.251   5.115
 9320SOL    HW128859   3.815   0.321   5.187
 9320SOL    HW228860   3.771   0.285   5.034
 9321SOL     OW28861   6.840   0.516   3.602
 9321SOL    HW128862   6.810   0.479   3.514
 9321SOL    HW228863   6.891   0.600   3.587
 9322SOL     OW28864   0.365   3.900   6.981
 9322SOL    HW128865   0.389   3.920   6.886
 9322SOL    HW228866   0.447   3.908   0.020
 9323SOL     OW28867   1.076   0.698   5.604
 9323SOL    HW128868   1.036   0.790   5.594
 9323SOL    HW228869   1.106   0.665   5.515
 9324SOL     OW28870   0.915   4.450   0.789
 9324SOL    HW128871   0.830   4.442   0.738
 9324SOL    HW228872   0.974   4.517   0.745
 9325SOL     OW28873   5.615   0.223   0.560
 9325SOL    HW128874   5.664   0.293   0.612
 9325SOL    HW228875   5.518   0.247   0.557
 9326SOL     OW28876   2.000   5.321   0.339
 9326SOL    HW128877   2.039   5.262   0.268
 9326SOL    HW228878   2.069   5.341   0.408
 9327SOL     OW28879   5.050   0.840   2.944
 9327SOL    HW128880   5.140   0.882   2.933
 9327SOL    HW228881   5.045   0.794   3.033
 9328SOL     OW28882   2.380   1.031   5.278
 9328SOL    HW128883   2.419   0.986   5.197
 9328SOL    HW228884   2.311   0.972   5.319
 9329SOL     OW28885   5.973   3.764   1.044
 9329SOL    HW128886   5.902   3.830   1.021
 9329SOL    HW228887   6.043   3.809   1.099
 9330SOL     OW28888   6.418   0.109   6.208
 9330SOL    HW128889   6.509   0.121   6.247
 9330SOL    HW228890   6.424   0.104   6.109
 9331SOL     OW28891   2.722   1.282   0.393
 9331SOL    HW128892   2.709   1.201   0.334
 9331SOL    HW228893   2.651   1.349   0.372
 9332SOL     OW28894   4.134   4.034   1.374
 9332SOL    HW128895   4.144   3.936   1.392
 9332SOL    HW228896   4.170   4.055   1.283
 9333SOL     OW28897   4.115   4.000   0.034
 9333SOL    HW128898   4.033   3.990   6.995
 9333SOL    HW228899   4.098   3.962   0.124
 9334SOL     OW28900   5.851   6.141   3.437
 9334SOL    HW128901   5.839   6.094   3.349
 9334SOL    HW228902   5.762   6.171   3.471
 9335SOL     OW28903   0.966   1.275   6.894
 9335SOL    HW128904   0.896   1.346   6.887
 9335SOL    HW228905   1.057   1.316   6.883
 9336SOL     OW28906   3.069   5.744   5.695
 9336SOL    HW128907   2.979   5.708   5.671
 9336SOL    HW228908   3.084   5.830   5.648
 9337SOL     OW28909   4.239   1.937   4.881
 9337SOL    HW128910   4.287   2.017   4.917
 9337SOL    HW228911   4.184   1.895   4.953
 9338SOL     OW28912   5.155   0.392   2.010
 9338SOL    HW128913   5.063   0.428   2.023
 9338SOL    HW228914   5.162   0.301   2.050
 9339SOL     OW28915   5.989   6.809   1.858
 9339SOL    HW128916   5.929   6.887   1.871
 9339SOL    HW228917   6.069   6.837   1.805
 9340SOL     OW28918   5.326   4.335   4.359
 9340SOL    HW128919   5.244   4.279   4.354
 9340SOL    HW228920   5.306   4.426   4.322
 9341SOL     OW28921   0.503   5.999   0.986
 9341SOL    HW128922   0.545   5.949   0.910
 9341SOL    HW228923   0.493   6.095   0.961
 9342SOL     OW28924   2.311   6.051   3.843
 9342SOL    HW128925   2.379   6.046   3.770
 9342SOL    HW228926   2.341   5.996   3.921
 9343SOL     OW28927   5.412   4.359   2.104
 9343SOL    HW128928   5.510   4.380   2.109
 9343SOL    HW228929   5.400   4.260   2.092
 9344SOL     OW28930   4.961   6.668   2.603
 9344SOL    HW128931   4.915   6.579   2.608
 9344SOL    HW228932   4.913   6.726   2.538
 9345SOL     OW28933   6.284   5.848   1.713
 9345SOL    HW128934   6.298   5.751   1.729
 9345SOL    HW228935   6.284   5.898   1.800
 9346SOL     OW28936   5.807   1.666   1.060
 9346SOL    HW128937   5.744   1.691   0.987
 9346SOL    HW228938   5.859   1.585   1.033
 9347SOL     OW28939   3.131   3.783   0.118
 9347SOL    HW128940   3.201   3.750   0.181
 9347SOL    HW228941   3.115   3.880   0.133
 9348SOL     OW28942   3.193   6.541   2.278
 9348SOL    HW128943   3.239   6.524   2.191
 9348SOL    HW228944   3.136   6.462   2.301
 9349SOL     OW28945   6.850   5.850   3.204
 9349SOL    HW128946   6.837   5.879   3.110
 9349SOL    HW228947   6.777   5.889   3.261
 9350SOL     OW28948   0.095   2.857   5.254
 9350SOL    HW128949   0.041   2.858   5.339
 9350SOL    HW228950   0.180   2.908   5.268
 9351SOL     OW28951   2.747   0.098   6.928
 9351SOL    HW128952   2.660   0.054   6.948
 9351SOL    HW228953   2.817   0.028   6.912
 9352SOL     OW28954   3.492   1.409   6.512
 9352SOL    HW128955   3.400   1.371   6.524
 9352SOL    HW228956   3.488   1.484   6.445
 9353SOL     OW28957   0.621   4.689   0.754
 9353SOL    HW128958   0.637   4.596   0.722
 9353SOL    HW228959   0.685   4.711   0.827
 9354SOL     OW28960   0.274   1.870   6.483
 9354SOL    HW128961   0.226   1.836   6.402
 9354SOL    HW228962   0.270   1.970   6.484
 9355SOL     OW28963   0.473   1.849   4.454
 9355SOL    HW128964   0.533   1.863   4.376
 9355SOL    HW228965   0.443   1.938   4.490
 9356SOL     OW28966   4.614   0.112   2.011
 9356SOL    HW128967   4.606   0.141   2.106
 9356SOL    HW228968   4.705   0.136   1.976
 9357SOL     OW28969   1.938   3.390   5.920
 9357SOL    HW128970   1.964   3.294   5.931
 9357SOL    HW228971   1.958   3.419   5.826
 9358SOL     OW28972   6.852   3.103   1.675
 9358SOL    HW128973   6.862   3.009   1.708
 9358SOL    HW228974   6.848   3.103   1.575
 9359SOL     OW28975   1.779   4.408   5.777
 9359SOL    HW128976   1.877   4.409   5.800
 9359SOL    HW228977   1.765   4.458   5.692
 9360SOL     OW28978   0.497   4.539   6.658
 9360SOL    HW128979   0.523   4.592   6.577
 9360SOL    HW228980   0.529   4.445   6.648
 9361SOL     OW28981   1.800   5.507   2.871
 9361SOL    HW128982   1.720   5.566   2.866
 9361SOL    HW228983   1.817   5.481   2.966
 9362SOL     OW28984   1.918   1.643   2.809
 9362SOL    HW128985   1.995   1.612   2.865
 9362SOL    HW228986   1.833   1.635   2.862
 9363SOL     OW28987   3.039   5.521   1.797
 9363SOL    HW128988   3.023   5.485   1.706
 9363SOL    HW228989   3.096   5.603   1.791
 9364SOL     OW28990   2.704   2.555   6.472
 9364SOL    HW128991   2.775   2.489   6.446
 9364SOL    HW228992   2.745   2.645   6.484
 9365SOL     OW28993   3.039   2.039   3.876
 9365SOL    HW128994   3.110   1.975   3.849
 9365SOL    HW228995   2.975   2.053   3.800
 9366SOL     OW28996   3.581   5.327   6.123
 9366SOL    HW128997   3.659   5.360   6.176
 9366SOL    HW228998   3.593   5.230   6.102
 9367SOL     OW28999   6.655   6.400   2.303
 9367SOL    HW129000   6.671   6.310   2.261
 9367SOL    HW229001   6.743   6.441   2.328
 9368SOL     OW29002   3.435   0.839   3.024
 9368SOL    HW129003   3.443   0.864   2.927
 9368SOL    HW229004   3.340   0.848   3.053
 9369SOL     OW29005   6.675   6.594   3.732
 9369SOL    HW129006   6.660   6.501   3.764
 9369SOL    HW229007   6.725   6.592   3.645
 9370SOL     OW29008   5.472   0.386   4.540
 9370SOL    HW129009   5.430   0.315   4.596
 9370SOL    HW229010   5.514   0.455   4.599
 9371SOL     OW29011   2.445   5.228   0.528
 9371SOL    HW129012   2.508   5.165   0.574
 9371SOL    HW229013   2.491   5.269   0.450
 9372SOL     OW29014   5.263   6.418   1.171
 9372SOL    HW129015   5.241   6.321   1.164
 9372SOL    HW229016   5.238   6.451   1.262
 9373SOL     OW29017   4.535   2.649   1.679
 9373SOL    HW129018   4.548   2.746   1.657
 9373SOL    HW229019   4.453   2.615   1.634
 9374SOL     OW29020   0.515   2.845   0.001
 9374SOL    HW129021   0.541   2.867   6.925
 9374SOL    HW229022   0.594   2.854   0.061
 9375SOL     OW29023   0.889   2.268   1.133
 9375SOL    HW129024   0.836   2.208   1.194
 9375SOL    HW229025   0.885   2.233   1.040
 9376SOL     OW29026   2.432   3.932   1.287
 9376SOL    HW129027   2.407   3.954   1.193
 9376SOL    HW229028   2.474   3.841   1.290
 9377SOL     OW29029   1.824   4.992   3.228
 9377SOL    HW129030   1.899   5.017   3.167
 9377SOL    HW229031   1.842   4.903   3.270
 9378SOL     OW29032   2.970   1.528   3.296
 9378SOL    HW129033   2.991   1.623   3.273
 9378SOL    HW229034   2.877   1.522   3.333
 9379SOL     OW29035   4.624   0.232   5.292
 9379SOL    HW129036   4.674   0.146   5.278
 9379SOL    HW229037   4.675   0.289   5.356
 9380SOL     OW29038   3.925   5.207   5.179
 9380SOL    HW129039   3.946   5.305   5.177
 9380SOL    HW229040   3.948   5.166   5.091
 9381SOL     OW29041   5.633   3.093   5.842
 9381SOL    HW129042   5.559   3.121   5.903
 9381SOL    HW229043   5.703   3.165   5.839
 9382SOL     OW29044   4.030   0.338   3.901
 9382SOL    HW129045   3.977   0.422   3.914
 9382SOL    HW229046   4.077   0.315   3.986
 9383SOL     OW29047   5.709   4.785   3.792
 9383SOL    HW129048   5.628   4.842   3.806
 9383SOL    HW229049   5.771   4.796   3.870
 9384SOL     OW29050   4.361   6.987   2.600
 9384SOL    HW129051   4.307   0.048   2.630
 9384SOL    HW229052   4.320   6.948   2.517
 9385SOL     OW29053   4.791   1.665   4.223
 9385SOL    HW129054   4.827   1.573   4.207
 9385SOL    HW229055   4.691   1.662   4.223
 9386SOL     OW29056   3.075   5.904   5.455
 9386SOL    HW129057   3.013   5.873   5.382
 9386SOL    HW229058   3.160   5.937   5.415
 9387SOL     OW29059   2.772   2.248   0.634
 9387SOL    HW129060   2.819   2.318   0.581
 9387SOL    HW229061   2.712   2.195   0.574
 9388SOL     OW29062   2.497   5.975   3.618
 9388SOL    HW129063   2.552   6.056   3.595
 9388SOL    HW229064   2.430   5.959   3.545
 9389SOL     OW29065   2.599   0.333   2.996
 9389SOL    HW129066   2.581   0.390   2.916
 9389SOL    HW229067   2.654   0.384   3.063
 9390SOL     OW29068   5.491   5.026   5.873
 9390SOL    HW129069   5.429   4.959   5.833
 9390SOL    HW229070   5.440   5.083   5.938
 9391SOL     OW29071   0.793   0.223   6.155
 9391SOL    HW129072   0.864   0.291   6.169
 9391SOL    HW229073   0.703   0.264   6.170
 9392SOL     OW29074   5.416   5.185   5.064
 9392SOL    HW129075   5.461   5.138   4.988
 9392SOL    HW229076   5.370   5.118   5.122
 9393SOL     OW29077   2.658   0.251   5.796
 9393SOL    HW129078   2.734   0.313   5.777
 9393SOL    HW229079   2.674   0.164   5.750
 9394SOL     OW29080   6.132   0.672   1.314
 9394SOL    HW129081   6.132   0.772   1.319
 9394SOL    HW229082   6.153   0.643   1.220
 9395SOL     OW29083   2.665   1.178   0.656
 9395SOL    HW129084   2.689   1.221   0.569
 9395SOL    HW229085   2.721   1.096   0.669
 9396SOL     OW29086   1.726   4.911   4.581
 9396SOL    HW129087   1.801   4.960   4.625
 9396SOL    HW229088   1.662   4.879   4.650
 9397SOL     OW29089   2.857   6.292   6.201
 9397SOL    HW129090   2.937   6.347   6.226
 9397SOL    HW229091   2.857   6.207   6.254
 9398SOL     OW29092   5.928   0.929   6.371
 9398SOL    HW129093   5.968   0.910   6.461
 9398SOL    HW229094   5.903   1.026   6.366
 9399SOL     OW29095   1.273   3.168   4.909
 9399SOL    HW129096   1.178   3.160   4.879
 9399SOL    HW229097   1.282   3.243   4.974
 9400SOL     OW29098   5.008   0.538   1.153
 9400SOL    HW129099   5.044   0.514   1.243
 9400SOL    HW229100   5.083   0.559   1.091
 9401SOL     OW29101   6.889   1.916   2.807
 9401SOL    HW129102   6.908   1.846   2.738
 9401SOL    HW229103   6.791   1.916   2.827
 9402SOL     OW29104   1.102   4.078   3.178
 9402SOL    HW129105   1.201   4.087   3.172
 9402SOL    HW229106   1.079   4.006   3.243
 9403SOL     OW29107   6.376   1.499   1.729
 9403SOL    HW129108   6.384   1.598   1.714
 9403SOL    HW229109   6.377   1.452   1.641
 9404SOL     OW29110   0.650   2.218   1.328
 9404SOL    HW129111   0.595   2.294   1.362
 9404SOL    HW229112   0.605   2.175   1.250
 9405SOL     OW29113   2.127   4.125   3.843
 9405SOL    HW129114   2.100   4.212   3.802
 9405SOL    HW229115   2.115   4.052   3.777
 9406SOL     OW29116   0.595   2.889   6.740
 9406SOL    HW129117   0.536   2.912   6.663
 9406SOL    HW229118   0.625   2.794   6.732
 9407SOL     OW29119   2.485   5.271   4.390
 9407SOL    HW129120   2.576   5.257   4.429
 9407SOL    HW229121   2.447   5.357   4.422
 9408SOL     OW29122   6.898   2.798   6.069
 9408SOL    HW129123   6.832   2.804   5.994
 9408SOL    HW229124   6.909   2.888   6.111
 9409SOL     OW29125   6.376   6.382   1.316
 9409SOL    HW129126   6.474   6.385   1.297
 9409SOL    HW229127   6.352   6.454   1.380
 9410SOL     OW29128   3.473   0.835   2.121
 9410SOL    HW129129   3.429   0.754   2.161
 9410SOL    HW229130   3.412   0.877   2.054
 9411SOL     OW29131   4.049   3.227   3.072
 9411SOL    HW129132   4.046   3.327   3.071
 9411SOL    HW229133   4.079   3.194   2.982
 9412SOL     OW29134   1.592   0.889   2.411
 9412SOL    HW129135   1.569   0.980   2.445
 9412SOL    HW229136   1.628   0.834   2.486
 9413SOL     OW29137   4.711   5.026   3.687
 9413SOL    HW129138   4.643   4.957   3.714
 9413SOL    HW229139   4.692   5.111   3.735
 9414SOL     OW29140   3.336   1.169   3.776
 9414SOL    HW129141   3.415   1.224   3.801
 9414SOL    HW229142   3.287   1.141   3.859
 9415SOL     OW29143   2.192   0.023   1.729
 9415SOL    HW129144   2.175   0.117   1.757
 9415SOL    HW229145   2.282   7.013   1.761
 9416SOL     OW29146   6.902   0.800   5.971
 9416SOL    HW129147   6.873   0.766   5.882
 9416SOL    HW229148   6.826   0.793   6.036
 9417SOL     OW29149   3.653   0.105   0.877
 9417SOL    HW129150   3.588   0.179   0.860
 9417SOL    HW229151   3.717   0.099   0.800
 9418SOL     OW29152   2.100   1.471   2.137
 9418SOL    HW129153   2.187   1.463   2.184
 9418SOL    HW229154   2.048   1.548   2.174
 9419SOL     OW29155   1.623   3.702   6.178
 9419SOL    HW129156   1.687   3.778   6.191
 9419SOL    HW229157   1.565   3.721   6.099
 9420SOL     OW29158   5.724   4.067   0.118
 9420SOL    HW129159   5.814   4.100   0.090
 9420SOL    HW229160   5.667   4.053   0.038
 9421SOL     OW29161   3.094   5.655   4.936
 9421SOL    HW129162   3.069   5.560   4.922
 9421SOL    HW229163   3.180   5.660   4.986
 9422SOL     OW29164   2.971   5.859   3.156
 9422SOL    HW129165   2.883   5.904   3.142
 9422SOL    HW229166   3.041   5.906   3.101
 9423SOL     OW29167   3.953   6.476   3.285
 9423SOL    HW129168   4.042   6.482   3.330
 9423SOL    HW229169   3.892   6.416   3.338
 9424SOL     OW29170   5.405   2.288   4.566
 9424SOL    HW129171   5.453   2.341   4.497
 9424SOL    HW229172   5.436   2.193   4.563
 9425SOL     OW29173   5.481   4.992   0.970
 9425SOL    HW129174   5.485   5.081   0.925
 9425SOL    HW229175   5.443   5.003   1.062
 9426SOL     OW29176   2.909   1.126   6.045
 9426SOL    HW129177   2.894   1.220   6.077
 9426SOL    HW229178   2.868   1.062   6.110
 9427SOL     OW29179   2.534   5.594   3.042
 9427SOL    HW129180   2.528   5.641   2.954
 9427SOL    HW229181   2.619   5.619   3.088
 9428SOL     OW29182   0.259   0.263   0.479
 9428SOL    HW129183   0.328   0.280   0.408
 9428SOL    HW229184   0.299   0.206   0.551
 9429SOL     OW29185   2.349   2.844   3.776
 9429SOL    HW129186   2.299   2.918   3.821
 9429SOL    HW229187   2.397   2.789   3.844
 9430SOL     OW29188   0.587   2.087   4.897
 9430SOL    HW129189   0.579   2.018   4.825
 9430SOL    HW229190   0.628   2.170   4.860
 9431SOL     OW29191   6.402   4.775   1.298
 9431SOL    HW129192   6.378   4.752   1.204
 9431SOL    HW229193   6.482   4.721   1.325
 9432SOL     OW29194   6.346   1.038   4.616
 9432SOL    HW129195   6.348   1.014   4.713
 9432SOL    HW229196   6.283   0.978   4.567
 9433SOL     OW29197   3.394   6.660   2.936
 9433SOL    HW129198   3.479   6.687   2.979
 9433SOL    HW229199   3.365   6.730   2.871
 9434SOL     OW29200   5.483   5.965   2.896
 9434SOL    HW129201   5.496   5.891   2.829
 9434SOL    HW229202   5.385   5.975   2.916
 9435SOL     OW29203   0.385   2.045   3.144
 9435SOL    HW129204   0.432   1.957   3.150
 9435SOL    HW229205   0.290   2.034   3.173
 9436SOL     OW29206   1.491   1.584   2.666
 9436SOL    HW129207   1.524   1.676   2.689
 9436SOL    HW229208   1.427   1.554   2.737
 9437SOL     OW29209   0.353   5.641   3.291
 9437SOL    HW129210   0.313   5.697   3.219
 9437SOL    HW229211   0.386   5.555   3.252
 9438SOL     OW29212   1.372   6.943   2.022
 9438SOL    HW129213   1.321   7.012   2.073
 9438SOL    HW229214   1.371   6.857   2.072
 9439SOL     OW29215   1.096   2.679   1.435
 9439SOL    HW129216   1.063   2.762   1.389
 9439SOL    HW229217   1.103   2.605   1.368
 9440SOL     OW29218   3.907   4.954   3.535
 9440SOL    HW129219   3.851   4.959   3.618
 9440SOL    HW229220   3.976   4.882   3.545
 9441SOL     OW29221   6.455   5.571   5.798
 9441SOL    HW129222   6.547   5.533   5.790
 9441SOL    HW229223   6.456   5.668   5.774
 9442SOL     OW29224   4.851   3.529   1.873
 9442SOL    HW129225   4.861   3.524   1.973
 9442SOL    HW229226   4.813   3.443   1.839
 9443SOL     OW29227   2.205   5.608   0.418
 9443SOL    HW129228   2.244   5.564   0.337
 9443SOL    HW229229   2.109   5.631   0.401
 9444SOL     OW29230   1.807   4.266   0.470
 9444SOL    HW129231   1.748   4.250   0.549
 9444SOL    HW229232   1.769   4.222   0.389
 9445SOL     OW29233   6.672   3.483   3.334
 9445SOL    HW129234   6.748   3.538   3.367
 9445SOL    HW229235   6.598   3.486   3.401
 9446SOL     OW29236   0.016   5.626   4.549
 9446SOL    HW129237   6.999   5.629   4.456
 9446SOL    HW229238   6.986   5.555   4.600
 9447SOL     OW29239   5.349   5.257   3.711
 9447SOL    HW129240   5.298   5.343   3.710
 9447SOL    HW229241   5.377   5.234   3.618
 9448SOL     OW29242   6.661   6.775   6.145
 9448SOL    HW129243   6.674   6.708   6.072
 9448SOL    HW229244   6.584   6.834   6.123
 9449SOL     OW29245   6.022   6.920   6.852
 9449SOL    HW129246   6.063   6.835   6.818
 9449SOL    HW229247   5.985   6.905   6.944
 9450SOL     OW29248   2.406   5.608   3.287
 9450SOL    HW129249   2.451   5.599   3.198
 9450SOL    HW229250   2.309   5.587   3.277
 9451SOL     OW29251   3.508   5.603   5.584
 9451SOL    HW129252   3.601   5.569   5.586
 9451SOL    HW229253   3.450   5.540   5.532
 9452SOL     OW29254   0.811   4.429   0.124
 9452SOL    HW129255   0.778   4.495   0.191
 9452SOL    HW229256   0.819   4.474   0.035
 9453SOL     OW29257   2.605   5.147   2.879
 9453SOL    HW129258   2.517   5.118   2.916
 9453SOL    HW229259   2.673   5.148   2.952
 9454SOL     OW29260   3.569   3.206   6.752
 9454SOL    HW129261   3.473   3.227   6.773
 9454SOL    HW229262   3.596   3.257   6.670
 9455SOL     OW29263   2.644   1.909   3.188
 9455SOL    HW129264   2.637   1.859   3.102
 9455SOL    HW229265   2.741   1.923   3.210
 9456SOL     OW29266   6.449   3.651   0.620
 9456SOL    HW129267   6.389   3.724   0.589
 9456SOL    HW229268   6.504   3.684   0.697
 9457SOL     OW29269   0.440   5.038   4.521
 9457SOL    HW129270   0.471   5.089   4.441
 9457SOL    HW229271   0.516   4.985   4.559
 9458SOL     OW29272   0.535   3.892   0.214
 9458SOL    HW129273   0.516   3.797   0.191
 9458SOL    HW229274   0.524   3.905   0.313
 9459SOL     OW29275   5.497   4.985   3.830
 9459SOL    HW129276   5.558   5.041   3.887
 9459SOL    HW229277   5.419   5.041   3.801
 9460SOL     OW29278   2.149   3.437   4.810
 9460SOL    HW129279   2.199   3.487   4.740
 9460SOL    HW229280   2.120   3.348   4.773
 9461SOL     OW29281   0.379   1.932   1.849
 9461SOL    HW129282   0.462   1.939   1.794
 9461SOL    HW229283   0.403   1.929   1.946
 9462SOL     OW29284   2.013   2.306   3.391
 9462SOL    HW129285   2.034   2.210   3.378
 9462SOL    HW229286   1.919   2.325   3.361
 9463SOL     OW29287   5.372   6.781   1.153
 9463SOL    HW129288   5.409   6.755   1.243
 9463SOL    HW229289   5.431   6.744   1.081
 9464SOL     OW29290   5.900   0.086   0.563
 9464SOL    HW129291   5.950   0.147   0.502
 9464SOL    HW229292   5.803   0.109   0.563
 9465SOL     OW29293   0.147   3.380   1.850
 9465SOL    HW129294   0.090   3.309   1.892
 9465SOL    HW229295   0.100   3.469   1.857
 9466SOL     OW29296   3.175   4.077   5.806
 9466SOL    HW129297   3.124   4.141   5.862
 9466SOL    HW229298   3.184   4.114   5.713
 9467SOL     OW29299   0.680   2.988   1.215
 9467SOL    HW129300   0.673   2.963   1.118
 9467SOL    HW229301   0.687   3.087   1.223
 9468SOL     OW29302   6.150   3.817   6.698
 9468SOL    HW129303   6.213   3.818   6.620
 9468SOL    HW229304   6.201   3.832   6.783
 9469SOL     OW29305   6.851   5.853   1.259
 9469SOL    HW129306   6.940   5.874   1.299
 9469SOL    HW229307   6.864   5.815   1.167
 9470SOL     OW29308   4.653   3.567   0.042
 9470SOL    HW129309   4.651   3.521   0.131
 9470SOL    HW229310   4.741   3.550   7.016
 9471SOL     OW29311   6.414   1.937   4.800
 9471SOL    HW129312   6.322   1.971   4.820
 9471SOL    HW229313   6.454   1.897   4.883
 9472SOL     OW29314   0.389   3.912   5.514
 9472SOL    HW129315   0.479   3.919   5.558
 9472SOL    HW229316   0.318   3.912   5.584
 9473SOL     OW29317   3.402   4.668   6.665
 9473SOL    HW129318   3.443   4.688   6.753
 9473SOL    HW229319   3.343   4.588   6.672
 9474SOL     OW29320   6.169   3.724   1.809
 9474SOL    HW129321   6.123   3.636   1.818
 9474SOL    HW229322   6.234   3.736   1.884
 9475SOL     OW29323   4.428   3.340   0.857
 9475SOL    HW129324   4.473   3.408   0.800
 9475SOL    HW229325   4.433   3.368   0.953
 9476SOL     OW29326   4.082   3.737   4.543
 9476SOL    HW129327   4.007   3.783   4.589
 9476SOL    HW229328   4.054   3.714   4.449
 9477SOL     OW29329   0.470   2.411   1.025
 9477SOL    HW129330   0.401   2.471   1.065
 9477SOL    HW229331   0.558   2.458   1.020
 9478SOL     OW29332   5.520   3.422   0.940
 9478SOL    HW129333   5.588   3.400   0.870
 9478SOL    HW229334   5.548   3.504   0.989
 9479SOL     OW29335   4.440   6.896   1.121
 9479SOL    HW129336   4.385   6.944   1.053
 9479SOL    HW229337   4.405   6.918   1.212
 9480SOL     OW29338   6.142   5.335   0.211
 9480SOL    HW129339   6.169   5.351   0.306
 9480SOL    HW229340   6.218   5.294   0.160
 9481SOL     OW29341   4.805   2.380   2.417
 9481SOL    HW129342   4.768   2.288   2.402
 9481SOL    HW229343   4.873   2.378   2.490
 9482SOL     OW29344   6.919   0.583   2.886
 9482SOL    HW129345   6.895   0.661   2.829
 9482SOL    HW229346   6.975   0.614   2.963
 9483SOL     OW29347   1.777   0.772   0.515
 9483SOL    HW129348   1.791   0.759   0.613
 9483SOL    HW229349   1.865   0.764   0.468
 9484SOL     OW29350   3.663   0.337   4.918
 9484SOL    HW129351   3.649   0.305   4.824
 9484SOL    HW229352   3.645   0.435   4.923
 9485SOL     OW29353   0.373   1.700   0.868
 9485SOL    HW129354   0.359   1.774   0.934
 9485SOL    HW229355   0.469   1.675   0.865
 9486SOL     OW29356   4.434   6.271   1.545
 9486SOL    HW129357   4.459   6.175   1.556
 9486SOL    HW229358   4.498   6.328   1.597
 9487SOL     OW29359   3.180   4.092   3.764
 9487SOL    HW129360   3.225   4.177   3.738
 9487SOL    HW229361   3.179   4.083   3.864
 9488SOL     OW29362   2.928   0.376   1.035
 9488SOL    HW129363   2.970   0.456   0.993
 9488SOL    HW229364   2.841   0.402   1.077
 9489SOL     OW29365   5.217   4.131   1.222
 9489SOL    HW129366   5.222   4.032   1.236
 9489SOL    HW229367   5.134   4.166   1.266
 9490SOL     OW29368   6.820   5.607   3.468
 9490SOL    HW129369   6.874   5.603   3.552
 9490SOL    HW229370   6.881   5.600   3.389
 9491SOL     OW29371   5.398   5.647   3.778
 9491SOL    HW129372   5.485   5.693   3.795
 9491SOL    HW229373   5.413   5.569   3.716
 9492SOL     OW29374   3.737   3.572   4.688
 9492SOL    HW129375   3.764   3.520   4.769
 9492SOL    HW229376   3.728   3.511   4.610
 9493SOL     OW29377   3.163   5.939   4.673
 9493SOL    HW129378   3.080   5.963   4.623
 9493SOL    HW229379   3.171   5.997   4.754
 9494SOL     OW29380   5.693   3.246   2.241
 9494SOL    HW129381   5.777   3.249   2.187
 9494SOL    HW229382   5.618   3.287   2.189
 9495SOL     OW29383   6.888   1.813   3.041
 9495SOL    HW129384   6.906   1.853   2.951
 9495SOL    HW229385   6.798   1.842   3.073
 9496SOL     OW29386   5.446   3.148   1.709
 9496SOL    HW129387   5.394   3.204   1.774
 9496SOL    HW229388   5.515   3.096   1.759
 9497SOL     OW29389   4.930   5.988   4.816
 9497SOL    HW129390   4.833   5.985   4.837
 9497SOL    HW229391   4.983   5.962   4.897
 9498SOL     OW29392   6.560   4.691   4.835
 9498SOL    HW129393   6.564   4.715   4.932
 9498SOL    HW229394   6.559   4.774   4.780
 9499SOL     OW29395   1.480   6.335   5.167
 9499SOL    HW129396   1.567   6.381   5.149
 9499SOL    HW229397   1.459   6.340   5.265
 9500SOL     OW29398   4.323   6.733   0.506
 9500SOL    HW129399   4.255   6.665   0.531
 9500SOL    HW229400   4.300   6.821   0.549
 9501SOL     OW29401   1.777   1.269   4.533
 9501SOL    HW129402   1.813   1.317   4.613
 9501SOL    HW229403   1.825   1.181   4.522
 9502SOL     OW29404   5.881   3.310   5.489
 9502SOL    HW129405   5.784   3.332   5.498
 9502SOL    HW229406   5.912   3.335   5.397
 9503SOL     OW29407   6.577   2.486   0.106
 9503SOL    HW129408   6.618   2.395   0.108
 9503SOL    HW229409   6.504   2.492   0.174
 9504SOL     OW29410   6.990   3.586   1.868
 9504SOL    HW129411   6.980   3.684   1.853
 9504SOL    HW229412   6.920   3.537   1.816
 9505SOL     OW29413   4.866   4.471   5.666
 9505SOL    HW129414   4.887   4.504   5.575
 9505SOL    HW229415   4.827   4.379   5.660
 9506SOL     OW29416   1.714   2.709   0.823
 9506SOL    HW129417   1.752   2.779   0.763
 9506SOL    HW229418   1.759   2.622   0.805
 9507SOL     OW29419   0.120   0.798   2.040
 9507SOL    HW129420   0.149   0.893   2.047
 9507SOL    HW229421   0.127   0.767   1.945
 9508SOL     OW29422   5.960   2.006   2.704
 9508SOL    HW129423   5.971   1.919   2.752
 9508SOL    HW229424   5.989   1.996   2.609
 9509SOL     OW29425   0.003   1.130   3.460
 9509SOL    HW129426   6.997   1.075   3.540
 9509SOL    HW229427   7.018   1.227   3.483
 9510SOL     OW29428   1.397   4.239   3.789
 9510SOL    HW129429   1.466   4.286   3.734
 9510SOL    HW229430   1.355   4.166   3.735
 9511SOL     OW29431   2.263   0.539   0.933
 9511SOL    HW129432   2.265   0.629   0.977
 9511SOL    HW229433   2.170   0.518   0.904
 9512SOL     OW29434   6.776   2.130   0.681
 9512SOL    HW129435   6.847   2.181   0.729
 9512SOL    HW229436   6.763   2.041   0.725
 9513SOL     OW29437   2.659   4.160   6.732
 9513SOL    HW129438   2.576   4.107   6.714
 9513SOL    HW229439   2.676   4.221   6.654
 9514SOL     OW29440   2.623   5.009   6.858
 9514SOL    HW129441   2.651   4.928   6.807
 9514SOL    HW229442   2.665   5.090   6.817
 9515SOL     OW29443   1.784   6.396   2.392
 9515SOL    HW129444   1.767   6.432   2.300
 9515SOL    HW229445   1.699   6.359   2.429
 9516SOL     OW29446   5.615   4.280   0.328
 9516SOL    HW129447   5.646   4.187   0.306
 9516SOL    HW229448   5.539   4.276   0.393
 9517SOL     OW29449   1.582   3.831   1.199
 9517SOL    HW129450   1.538   3.919   1.182
 9517SOL    HW229451   1.576   3.775   1.116
 9518SOL     OW29452   2.040   1.422   0.685
 9518SOL    HW129453   1.997   1.457   0.601
 9518SOL    HW229454   2.013   1.479   0.762
 9519SOL     OW29455   3.281   3.003   5.020
 9519SOL    HW129456   3.283   3.036   4.926
 9519SOL    HW229457   3.304   3.077   5.082
 9520SOL     OW29458   2.816   0.839   3.224
 9520SOL    HW129459   2.891   0.901   3.248
 9520SOL    HW229460   2.795   0.848   3.127
 9521SOL     OW29461   5.539   5.477   2.548
 9521SOL    HW129462   5.478   5.475   2.469
 9521SOL    HW229463   5.634   5.475   2.517
 9522SOL     OW29464   3.091   5.746   1.411
 9522SOL    HW129465   3.187   5.745   1.437
 9522SOL    HW229466   3.041   5.680   1.466
 9523SOL     OW29467   3.133   5.569   5.203
 9523SOL    HW129468   3.103   5.664   5.202
 9523SOL    HW229469   3.056   5.510   5.179
 9524SOL     OW29470   3.740   2.512   0.923
 9524SOL    HW129471   3.684   2.593   0.907
 9524SOL    HW229472   3.827   2.522   0.875
 9525SOL     OW29473   2.536   2.503   6.117
 9525SOL    HW129474   2.485   2.433   6.166
 9525SOL    HW229475   2.618   2.527   6.169
 9526SOL     OW29476   4.973   6.129   1.569
 9526SOL    HW129477   4.995   6.102   1.663
 9526SOL    HW229478   4.917   6.212   1.570
 9527SOL     OW29479   0.791   0.113   1.982
 9527SOL    HW129480   0.789   0.126   2.081
 9527SOL    HW229481   0.703   0.141   1.943
 9528SOL     OW29482   6.718   0.574   0.287
 9528SOL    HW129483   6.744   0.487   0.329
 9528SOL    HW229484   6.621   0.572   0.262
 9529SOL     OW29485   6.650   3.067   5.645
 9529SOL    HW129486   6.622   3.163   5.647
 9529SOL    HW229487   6.673   3.040   5.552
 9530SOL     OW29488   2.152   3.088   3.373
 9530SOL    HW129489   2.203   3.004   3.393
 9530SOL    HW229490   2.076   3.067   3.311
 9531SOL     OW29491   3.938   5.187   3.019
 9531SOL    HW129492   3.945   5.139   3.107
 9531SOL    HW229493   4.024   5.179   2.969
 9532SOL     OW29494   0.335   6.281   2.234
 9532SOL    HW129495   0.249   6.324   2.260
 9532SOL    HW229496   0.323   6.231   2.148
 9533SOL     OW29497   0.177   0.647   4.557
 9533SOL    HW129498   0.203   0.737   4.521
 9533SOL    HW229499   0.205   0.640   4.653
 9534SOL     OW29500   5.916   2.933   5.212
 9534SOL    HW129501   5.834   2.961   5.163
 9534SOL    HW229502   5.892   2.868   5.284
 9535SOL     OW29503   2.354   1.287   5.661
 9535SOL    HW129504   2.453   1.289   5.673
 9535SOL    HW229505   2.315   1.375   5.687
 9536SOL     OW29506   3.134   4.659   5.290
 9536SOL    HW129507   3.043   4.648   5.250
 9536SOL    HW229508   3.130   4.644   5.389
 9537SOL     OW29509   2.524   0.325   2.432
 9537SOL    HW129510   2.445   0.277   2.395
 9537SOL    HW229511   2.538   0.410   2.381
 9538SOL     OW29512   6.486   1.757   4.597
 9538SOL    HW129513   6.585   1.741   4.600
 9538SOL    HW229514   6.463   1.834   4.656
 9539SOL     OW29515   2.302   4.287   5.830
 9539SOL    HW129516   2.223   4.344   5.851
 9539SOL    HW229517   2.272   4.192   5.817
 9540SOL     OW29518   4.646   4.240   5.170
 9540SOL    HW129519   4.737   4.208   5.145
 9540SOL    HW229520   4.609   4.182   5.243
 9541SOL     OW29521   2.341   1.964   5.909
 9541SOL    HW129522   2.259   2.017   5.931
 9541SOL    HW229523   2.356   1.895   5.980
 9542SOL     OW29524   4.762   3.835   5.265
 9542SOL    HW129525   4.786   3.753   5.212
 9542SOL    HW229526   4.663   3.844   5.270
 9543SOL     OW29527   3.858   0.734   4.593
 9543SOL    HW129528   3.819   0.642   4.598
 9543SOL    HW229529   3.907   0.744   4.506
 9544SOL     OW29530   6.285   1.027   2.452
 9544SOL    HW129531   6.324   0.953   2.506
 9544SOL    HW229532   6.354   1.063   2.389
 9545SOL     OW29533   6.631   5.369   3.589
 9545SOL    HW129534   6.653   5.338   3.497
 9545SOL    HW229535   6.581   5.455   3.585
 9546SOL     OW29536   1.823   3.083   6.926
 9546SOL    HW129537   1.828   2.985   6.949
 9546SOL    HW229538   1.858   3.137   7.001
 9547SOL     OW29539   2.366   5.887   4.046
 9547SOL    HW129540   2.441   5.826   4.072
 9547SOL    HW229541   2.283   5.833   4.031
 9548SOL     OW29542   6.606   5.735   4.728
 9548SOL    HW129543   6.642   5.652   4.772
 9548SOL    HW229544   6.506   5.737   4.737
 9549SOL     OW29545   3.090   4.530   1.281
 9549SOL    HW129546   3.017   4.516   1.214
 9549SOL    HW229547   3.117   4.442   1.319
 9550SOL     OW29548   6.997   1.373   6.336
 9550SOL    HW129549   6.966   1.280   6.356
 9550SOL    HW229550   6.938   1.439   6.381
 9551SOL     OW29551   0.098   0.057   4.523
 9551SOL    HW129552   0.133   0.140   4.479
 9551SOL    HW229553   0.001   0.070   4.545
 9552SOL     OW29554   0.966   6.245   2.699
 9552SOL    HW129555   1.061   6.276   2.692
 9552SOL    HW229556   0.952   6.168   2.637
 9553SOL     OW29557   6.314   4.347   6.429
 9553SOL    HW129558   6.312   4.339   6.529
 9553SOL    HW229559   6.302   4.443   6.404
 9554SOL     OW29560   2.688   0.792   1.510
 9554SOL    HW129561   2.769   0.788   1.569
 9554SOL    HW229562   2.708   0.850   1.431
 9555SOL     OW29563   0.027   2.068   0.919
 9555SOL    HW129564   0.041   1.969   0.913
 9555SOL    HW229565   6.966   2.087   0.976
 9556SOL     OW29566   2.080   1.677   1.266
 9556SOL    HW129567   2.166   1.691   1.315
 9556SOL    HW229568   2.077   1.736   1.186
 9557SOL     OW29569   6.024   0.805   2.426
 9557SOL    HW129570   6.027   0.706   2.433
 9557SOL    HW229571   6.028   0.846   2.517
 9558SOL     OW29572   6.728   5.693   3.823
 9558SOL    HW129573   6.693   5.601   3.835
 9558SOL    HW229574   6.816   5.690   3.775
 9559SOL     OW29575   6.848   3.795   1.735
 9559SOL    HW129576   6.806   3.814   1.823
 9559SOL    HW229577   6.939   3.837   1.732
 9560SOL     OW29578   1.619   1.713   2.909
 9560SOL    HW129579   1.558   1.638   2.934
 9560SOL    HW229580   1.618   1.783   2.980
 9561SOL     OW29581   2.422   6.874   1.017
 9561SOL    HW129582   2.479   6.829   0.948
 9561SOL    HW229583   2.326   6.862   0.994
 9562SOL     OW29584   3.100   6.306   4.637
 9562SOL    HW129585   3.191   6.342   4.661
 9562SOL    HW229586   3.073   6.237   4.703
 9563SOL     OW29587   6.341   6.207   6.693
 9563SOL    HW129588   6.297   6.293   6.718
 9563SOL    HW229589   6.402   6.178   6.767
 9564SOL     OW29590   2.792   0.224   6.688
 9564SOL    HW129591   2.784   0.168   6.771
 9564SOL    HW229592   2.706   0.274   6.674
 9565SOL     OW29593   4.421   6.004   4.842
 9565SOL    HW129594   4.363   5.996   4.761
 9565SOL    HW229595   4.377   5.957   4.919
 9566SOL     OW29596   3.323   4.452   0.216
 9566SOL    HW129597   3.307   4.482   0.310
 9566SOL    HW229598   3.303   4.527   0.153
 9567SOL     OW29599   6.412   5.157   6.037
 9567SOL    HW129600   6.314   5.139   6.032
 9567SOL    HW229601   6.428   5.240   6.091
 9568SOL     OW29602   4.558   3.061   6.374
 9568SOL    HW129603   4.548   3.149   6.421
 9568SOL    HW229604   4.496   2.994   6.416
 9569SOL     OW29605   6.480   1.269   0.760
 9569SOL    HW129606   6.559   1.329   0.753
 9569SOL    HW229607   6.474   1.211   0.678
 9570SOL     OW29608   0.619   1.973   1.701
 9570SOL    HW129609   0.704   1.977   1.752
 9570SOL    HW229610   0.625   2.035   1.622
 9571SOL     OW29611   2.612   3.419   0.344
 9571SOL    HW129612   2.606   3.369   0.258
 9571SOL    HW229613   2.707   3.424   0.374
 9572SOL     OW29614   1.398   5.543   0.937
 9572SOL    HW129615   1.388   5.593   1.023
 9572SOL    HW229616   1.312   5.546   0.887
 9573SOL     OW29617   0.622   1.206   6.693
 9573SOL    HW129618   0.549   1.190   6.758
 9573SOL    HW229619   0.702   1.150   6.717
 9574SOL     OW29620   3.781   3.315   4.797
 9574SOL    HW129621   3.877   3.290   4.798
 9574SOL    HW229622   3.728   3.249   4.850
 9575SOL     OW29623   5.760   1.048   0.987
 9575SOL    HW129624   5.823   1.005   1.052
 9575SOL    HW229625   5.707   1.120   1.033
 9576SOL     OW29626   3.360   1.472   3.460
 9576SOL    HW129627   3.375   1.378   3.491
 9576SOL    HW229628   3.351   1.474   3.361
 9577SOL     OW29629   1.378   0.716   2.415
 9577SOL    HW129630   1.396   0.680   2.507
 9577SOL    HW229631   1.446   0.787   2.394
 9578SOL     OW29632   5.811   3.530   2.955
 9578SOL    HW129633   5.743   3.475   2.907
 9578SOL    HW229634   5.855   3.475   3.026
 9579SOL     OW29635   1.304   6.570   2.773
 9579SOL    HW129636   1.384   6.625   2.748
 9579SOL    HW229637   1.335   6.486   2.819
 9580SOL     OW29638   5.498   3.806   0.030
 9580SOL    HW129639   5.524   3.773   0.121
 9580SOL    HW229640   5.413   3.761   0.002
 9581SOL     OW29641   2.520   4.866   6.369
 9581SOL    HW129642   2.442   4.805   6.384
 9581SOL    HW229643   2.519   4.900   6.275
 9582SOL     OW29644   4.292   4.666   4.091
 9582SOL    HW129645   4.324   4.761   4.093
 9582SOL    HW229646   4.294   4.628   4.184
 9583SOL     OW29647   2.246   3.343   1.628
 9583SOL    HW129648   2.284   3.395   1.705
 9583SOL    HW229649   2.309   3.349   1.551
 9584SOL     OW29650   6.137   5.889   6.576
 9584SOL    HW129651   6.083   5.829   6.517
 9584SOL    HW229652   6.197   5.834   6.633
 9585SOL     OW29653   6.254   0.826   2.200
 9585SOL    HW129654   6.240   0.872   2.288
 9585SOL    HW229655   6.177   0.847   2.139
 9586SOL     OW29656   5.859   3.764   3.200
 9586SOL    HW129657   5.908   3.683   3.232
 9586SOL    HW229658   5.886   3.785   3.106
 9587SOL     OW29659   5.715   0.293   2.214
 9587SOL    HW129660   5.629   0.321   2.170
 9587SOL    HW229661   5.701   0.291   2.313
 9588SOL     OW29662   0.056   1.365   1.318
 9588SOL    HW129663   0.079   1.431   1.389
 9588SOL    HW229664   0.006   1.288   1.358
 9589SOL     OW29665   2.406   5.800   6.938
 9589SOL    HW129666   2.457   5.864   6.995
 9589SOL    HW229667   2.390   5.841   6.848
 9590SOL     OW29668   0.260   3.674   1.672
 9590SOL    HW129669   0.203   3.735   1.726
 9590SOL    HW229670   0.212   3.588   1.656
 9591SOL     OW29671   2.822   6.027   0.676
 9591SOL    HW129672   2.811   5.946   0.617
 9591SOL    HW229673   2.831   6.108   0.620
 9592SOL     OW29674   4.382   5.357   2.700
 9592SOL    HW129675   4.333   5.416   2.764
 9592SOL    HW229676   4.317   5.313   2.638
 9593SOL     OW29677   5.130   2.259   4.578
 9593SOL    HW129678   5.102   2.200   4.655
 9593SOL    HW229679   5.226   2.284   4.589
 9594SOL     OW29680   6.875   6.203   3.183
 9594SOL    HW129681   6.817   6.201   3.265
 9594SOL    HW229682   6.880   6.297   3.148
 9595SOL     OW29683   2.355   5.790   4.954
 9595SOL    HW129684   2.426   5.845   4.998
 9595SOL    HW229685   2.312   5.730   5.022
 9596SOL     OW29686   0.398   5.022   5.793
 9596SOL    HW129687   0.400   4.925   5.819
 9596SOL    HW229688   0.401   5.030   5.694
 9597SOL     OW29689   0.103   3.829   1.813
 9597SOL    HW129690   0.081   3.833   1.911
 9597SOL    HW229691   0.125   3.920   1.780
 9598SOL     OW29692   0.633   3.927   5.256
 9598SOL    HW129693   0.604   3.843   5.302
 9598SOL    HW229694   0.576   4.003   5.286
 9599SOL     OW29695   3.500   0.409   5.226
 9599SOL    HW129696   3.464   0.400   5.318
 9599SOL    HW229697   3.496   0.505   5.198
 9600SOL     OW29698   1.663   0.426   5.682
 9600SOL    HW129699   1.691   0.490   5.753
 9600SOL    HW229700   1.565   0.409   5.690
 9601SOL     OW29701   6.361   4.078   6.427
 9601SOL    HW129702   6.354   4.176   6.410
 9601SOL    HW229703   6.366   4.029   6.340
 9602SOL     OW29704   6.773   5.293   6.079
 9602SOL    HW129705   6.753   5.207   6.032
 9602SOL    HW229706   6.693   5.322   6.131
 9603SOL     OW29707   2.056   6.834   4.620
 9603SOL    HW129708   1.989   6.773   4.578
 9603SOL    HW229709   2.146   6.791   4.618
 9604SOL     OW29710   5.422   0.762   0.453
 9604SOL    HW129711   5.372   0.746   0.368
 9604SOL    HW229712   5.361   0.799   0.522
 9605SOL     OW29713   1.328   4.612   5.546
 9605SOL    HW129714   1.376   4.636   5.631
 9605SOL    HW229715   1.343   4.516   5.525
 9606SOL     OW29716   0.927   0.171   4.050
 9606SOL    HW129717   0.834   0.190   4.082
 9606SOL    HW229718   0.925   0.143   3.954
 9607SOL     OW29719   0.827   1.061   1.509
 9607SOL    HW129720   0.876   1.081   1.424
 9607SOL    HW229721   0.885   1.086   1.587
 9608SOL     OW29722   6.970   0.121   2.524
 9608SOL    HW129723   0.045   0.098   2.554
 9608SOL    HW229724   6.968   0.129   2.425
 9609SOL     OW29725   1.270   4.175   4.443
 9609SOL    HW129726   1.300   4.143   4.533
 9609SOL    HW229727   1.173   4.158   4.432
 9610SOL     OW29728   1.574   2.757   5.761
 9610SOL    HW129729   1.546   2.666   5.793
 9610SOL    HW229730   1.525   2.778   5.676
 9611SOL     OW29731   6.656   0.281   1.521
 9611SOL    HW129732   6.566   0.239   1.509
 9611SOL    HW229733   6.697   0.296   1.431
 9612SOL     OW29734   6.772   3.011   0.671
 9612SOL    HW129735   6.817   3.066   0.742
 9612SOL    HW229736   6.778   2.914   0.697
 9613SOL     OW29737   5.401   6.744   4.254
 9613SOL    HW129738   5.482   6.686   4.251
 9613SOL    HW229739   5.417   6.827   4.201
 9614SOL     OW29740   4.165   3.560   1.916
 9614SOL    HW129741   4.191   3.464   1.902
 9614SOL    HW229742   4.245   3.619   1.903
 9615SOL     OW29743   2.653   4.951   3.606
 9615SOL    HW129744   2.575   4.904   3.647
 9615SOL    HW229745   2.633   4.970   3.510
 9616SOL     OW29746   3.943   3.183   1.512
 9616SOL    HW129747   4.035   3.152   1.486
 9616SOL    HW229748   3.875   3.129   1.463
 9617SOL     OW29749   1.097   3.556   3.653
 9617SOL    HW129750   1.050   3.504   3.581
 9617SOL    HW229751   1.051   3.539   3.741
 9618SOL     OW29752   3.689   0.201   6.387
 9618SOL    HW129753   3.755   0.233   6.319
 9618SOL    HW229754   3.695   0.257   6.469
 9619SOL     OW29755   1.253   6.289   0.669
 9619SOL    HW129756   1.268   6.237   0.584
 9619SOL    HW229757   1.257   6.226   0.747
 9620SOL     OW29758   4.009   0.867   6.812
 9620SOL    HW129759   4.086   0.841   6.755
 9620SOL    HW229760   3.946   0.789   6.822
 9621SOL     OW29761   1.304   0.593   1.976
 9621SOL    HW129762   1.312   0.564   2.072
 9621SOL    HW229763   1.251   0.677   1.971
 9622SOL     OW29764   6.551   0.813   6.732
 9622SOL    HW129765   6.534   0.806   6.634
 9622SOL    HW229766   6.577   0.907   6.755
 9623SOL     OW29767   4.900   5.555   6.389
 9623SOL    HW129768   4.813   5.588   6.352
 9623SOL    HW229769   4.955   5.517   6.315
 9624SOL     OW29770   5.147   5.167   5.368
 9624SOL    HW129771   5.202   5.203   5.444
 9624SOL    HW229772   5.206   5.147   5.290
 9625SOL     OW29773   4.932   4.253   6.364
 9625SOL    HW129774   4.945   4.161   6.401
 9625SOL    HW229775   4.851   4.294   6.406
 9626SOL     OW29776   1.665   4.477   4.549
 9626SOL    HW129777   1.702   4.386   4.566
 9626SOL    HW229778   1.714   4.519   4.472
 9627SOL     OW29779   1.603   4.424   5.322
 9627SOL    HW129780   1.618   4.346   5.262
 9627SOL    HW229781   1.568   4.501   5.269
 9628SOL     OW29782   5.966   4.396   6.962
 9628SOL    HW129783   5.972   4.299   6.938
 9628SOL    HW229784   5.870   4.423   6.965
 9629SOL     OW29785   6.562   6.219   3.497
 9629SOL    HW129786   6.589   6.312   3.471
 9629SOL    HW229787   6.634   6.155   3.470
 9630SOL     OW29788   6.135   6.177   5.375
 9630SOL    HW129789   6.204   6.241   5.340
 9630SOL    HW229790   6.049   6.190   5.325
 9631SOL     OW29791   4.641   1.212   1.845
 9631SOL    HW129792   4.613   1.150   1.772
 9631SOL    HW229793   4.653   1.161   1.930
 9632SOL     OW29794   1.706   5.305   1.760
 9632SOL    HW129795   1.731   5.219   1.805
 9632SOL    HW229796   1.616   5.334   1.793
 9633SOL     OW29797   3.585   3.065   1.938
 9633SOL    HW129798   3.632   3.093   1.855
 9633SOL    HW229799   3.593   2.965   1.949
 9634SOL     OW29800   6.137   4.261   3.127
 9634SOL    HW129801   6.108   4.340   3.073
 9634SOL    HW229802   6.189   4.293   3.207
 9635SOL     OW29803   6.944   4.634   4.826
 9635SOL    HW129804   6.958   4.599   4.734
 9635SOL    HW229805   6.846   4.647   4.842
 9636SOL     OW29806   4.236   1.142   5.935
 9636SOL    HW129807   4.141   1.142   5.904
 9636SOL    HW229808   4.250   1.218   5.998
 9637SOL     OW29809   2.474   3.531   1.469
 9637SOL    HW129810   2.553   3.470   1.460
 9637SOL    HW229811   2.466   3.561   1.563
 9638SOL     OW29812   0.181   4.259   6.136
 9638SOL    HW129813   0.171   4.293   6.043
 9638SOL    HW229814   0.197   4.336   6.198
 9639SOL     OW29815   4.259   2.420   1.825
 9639SOL    HW129816   4.205   2.344   1.790
 9639SOL    HW229817   4.242   2.502   1.771
 9640SOL     OW29818   4.154   1.045   1.897
 9640SOL    HW129819   4.098   0.965   1.918
 9640SOL    HW229820   4.115   1.126   1.943
 9641SOL     OW29821   5.345   5.677   2.930
 9641SOL    HW129822   5.275   5.745   2.951
 9641SOL    HW229823   5.309   5.613   2.862
 9642SOL     OW29824   1.128   0.358   4.415
 9642SOL    HW129825   1.173   0.419   4.480
 9642SOL    HW229826   1.178   0.360   4.328
 9643SOL     OW29827   4.599   4.388   3.648
 9643SOL    HW129828   4.617   4.301   3.692
 9643SOL    HW229829   4.677   4.449   3.660
 9644SOL     OW29830   1.709   5.745   5.162
 9644SOL    HW129831   1.612   5.753   5.187
 9644SOL    HW229832   1.728   5.650   5.137
 9645SOL     OW29833   1.284   4.174   5.196
 9645SOL    HW129834   1.286   4.274   5.189
 9645SOL    HW229835   1.269   4.134   5.106
 9646SOL     OW29836   2.140   6.474   3.807
 9646SOL    HW129837   2.155   6.444   3.901
 9646SOL    HW229838   2.064   6.423   3.767
 9647SOL     OW29839   6.870   6.354   2.726
 9647SOL    HW129840   6.912   6.442   2.704
 9647SOL    HW229841   6.783   6.346   2.677
 9648SOL     OW29842   5.448   3.135   1.256
 9648SOL    HW129843   5.389   3.165   1.181
 9648SOL    HW229844   5.446   3.203   1.329
 9649SOL     OW29845   2.429   3.600   6.288
 9649SOL    HW129846   2.477   3.609   6.201
 9649SOL    HW229847   2.475   3.656   6.358
 9650SOL     OW29848   6.135   4.992   3.250
 9650SOL    HW129849   6.156   5.050   3.329
 9650SOL    HW229850   6.173   5.033   3.167
 9651SOL     OW29851   3.860   1.387   0.756
 9651SOL    HW129852   3.771   1.361   0.792
 9651SOL    HW229853   3.902   1.309   0.710
 9652SOL     OW29854   0.814   4.324   1.530
 9652SOL    HW129855   0.773   4.270   1.603
 9652SOL    HW229856   0.742   4.368   1.476
 9653SOL     OW29857   4.379   4.749   5.465
 9653SOL    HW129858   4.393   4.779   5.371
 9653SOL    HW229859   4.430   4.810   5.527
 9654SOL     OW29860   3.153   2.972   2.675
 9654SOL    HW129861   3.107   2.885   2.689
 9654SOL    HW229862   3.138   3.003   2.581
 9655SOL     OW29863   0.091   1.466   0.668
 9655SOL    HW129864   0.027   1.403   0.712
 9655SOL    HW229865   0.150   1.507   0.738
 9656SOL     OW29866   4.578   2.066   0.670
 9656SOL    HW129867   4.576   1.970   0.701
 9656SOL    HW229868   4.667   2.106   0.690
 9657SOL     OW29869   5.112   4.288   3.493
 9657SOL    HW129870   5.208   4.314   3.482
 9657SOL    HW229871   5.091   4.212   3.431
 9658SOL     OW29872   5.364   2.100   2.261
 9658SOL    HW129873   5.370   2.028   2.192
 9658SOL    HW229874   5.273   2.141   2.259
 9659SOL     OW29875   2.286   1.916   0.031
 9659SOL    HW129876   2.204   1.951   7.003
 9659SOL    HW229877   2.355   1.988   0.034
 9660SOL     OW29878   0.625   0.154   1.694
 9660SOL    HW129879   0.619   0.061   1.731
 9660SOL    HW229880   0.720   0.174   1.670
 9661SOL     OW29881   4.686   5.550   1.439
 9661SOL    HW129882   4.612   5.483   1.438
 9661SOL    HW229883   4.750   5.530   1.365
 9662SOL     OW29884   5.125   4.140   6.939
 9662SOL    HW129885   5.165   4.101   6.856
 9662SOL    HW229886   5.176   4.109   0.001
 9663SOL     OW29887   0.701   4.287   2.562
 9663SOL    HW129888   0.707   4.226   2.641
 9663SOL    HW229889   0.752   4.248   2.485
 9664SOL     OW29890   5.638   4.424   4.039
 9664SOL    HW129891   5.578   4.449   3.963
 9664SOL    HW229892   5.619   4.330   4.066
 9665SOL     OW29893   6.336   5.975   5.728
 9665SOL    HW129894   6.288   6.060   5.707
 9665SOL    HW229895   6.318   5.949   5.823
 9666SOL     OW29896   6.601   4.182   1.672
 9666SOL    HW129897   6.532   4.225   1.614
 9666SOL    HW229898   6.615   4.238   1.754
 9667SOL     OW29899   4.672   4.045   0.499
 9667SOL    HW129900   4.712   4.002   0.579
 9667SOL    HW229901   4.576   4.067   0.518
 9668SOL     OW29902   1.581   1.324   6.166
 9668SOL    HW129903   1.650   1.253   6.149
 9668SOL    HW229904   1.492   1.292   6.132
 9669SOL     OW29905   2.558   0.055   0.581
 9669SOL    HW129906   2.620   0.043   0.504
 9669SOL    HW229907   2.575   0.144   0.624
 9670SOL     OW29908   0.202   6.177   5.157
 9670SOL    HW129909   0.148   6.105   5.113
 9670SOL    HW229910   0.232   6.243   5.089
 9671SOL     OW29911   0.489   5.027   0.152
 9671SOL    HW129912   0.432   5.057   0.229
 9671SOL    HW229913   0.497   5.101   0.086
 9672SOL     OW29914   1.724   5.007   2.675
 9672SOL    HW129915   1.718   4.998   2.774
 9672SOL    HW229916   1.739   5.103   2.651
 9673SOL     OW29917   3.767   3.925   1.200
 9673SOL    HW129918   3.676   3.944   1.238
 9673SOL    HW229919   3.819   3.869   1.264
 9674SOL     OW29920   3.740   6.232   3.067
 9674SOL    HW129921   3.752   6.183   3.153
 9674SOL    HW229922   3.811   6.301   3.058
 9675SOL     OW29923   4.886   3.458   6.975
 9675SOL    HW129924   4.975   3.416   6.992
 9675SOL    HW229925   4.845   3.419   6.892
 9676SOL     OW29926   1.379   3.573   5.785
 9676SOL    HW129927   1.428   3.552   5.701
 9676SOL    HW229928   1.419   3.523   5.862
 9677SOL     OW29929   6.756   5.168   6.476
 9677SOL    HW129930   6.689   5.241   6.462
 9677SOL    HW229931   6.843   5.207   6.506
 9678SOL     OW29932   3.219   3.767   4.280
 9678SOL    HW129933   3.243   3.832   4.351
 9678SOL    HW229934   3.127   3.787   4.246
 9679SOL     OW29935   2.964   1.507   4.594
 9679SOL    HW129936   2.976   1.590   4.647
 9679SOL    HW229937   3.042   1.446   4.607
 9680SOL     OW29938   4.908   6.903   5.516
 9680SOL    HW129939   4.830   6.854   5.555
 9680SOL    HW229940   4.978   6.837   5.488
 9681SOL     OW29941   3.324   1.899   1.384
 9681SOL    HW129942   3.311   1.810   1.426
 9681SOL    HW229943   3.300   1.894   1.287
 9682SOL     OW29944   4.995   4.309   3.727
 9682SOL    HW129945   4.922   4.246   3.701
 9682SOL    HW229946   5.062   4.314   3.653
 9683SOL     OW29947   3.097   6.115   0.506
 9683SOL    HW129948   3.022   6.108   0.439
 9683SOL    HW229949   3.147   6.029   0.508
 9684SOL     OW29950   0.584   3.783   5.019
 9684SOL    HW129951   0.667   3.748   4.977
 9684SOL    HW229952   0.603   3.810   5.114
 9685SOL     OW29953   4.587   3.533   0.674
 9685SOL    HW129954   4.655   3.516   0.745
 9685SOL    HW229955   4.622   3.504   0.585
 9686SOL     OW29956   0.825   3.031   0.303
 9686SOL    HW129957   0.823   3.088   0.385
 9686SOL    HW229958   0.916   3.034   0.263
 9687SOL     OW29959   6.222   0.407   1.689
 9687SOL    HW129960   6.185   0.469   1.758
 9687SOL    HW229961   6.226   0.315   1.726
 9688SOL     OW29962   0.836   3.776   1.060
 9688SOL    HW129963   0.912   3.747   1.002
 9688SOL    HW229964   0.766   3.705   1.063
 9689SOL     OW29965   0.977   4.198   6.451
 9689SOL    HW129966   0.933   4.108   6.459
 9689SOL    HW229967   1.030   4.201   6.366
 9690SOL     OW29968   4.373   5.726   5.665
 9690SOL    HW129969   4.437   5.649   5.659
 9690SOL    HW229970   4.280   5.690   5.671
 9691SOL     OW29971   3.082   4.030   2.159
 9691SOL    HW129972   3.080   3.997   2.065
 9691SOL    HW229973   2.993   4.068   2.182
 9692SOL     OW29974   4.718   5.627   1.082
 9692SOL    HW129975   4.736   5.619   0.984
 9692SOL    HW229976   4.693   5.721   1.103
 9693SOL     OW29977   5.694   4.426   3.098
 9693SOL    HW129978   5.764   4.355   3.099
 9693SOL    HW229979   5.664   4.443   3.192
 9694SOL     OW29980   3.761   0.989   1.951
 9694SOL    HW129981   3.692   1.060   1.935
 9694SOL    HW229982   3.751   0.953   2.044
 9695SOL     OW29983   6.677   2.851   3.606
 9695SOL    HW129984   6.621   2.857   3.688
 9695SOL    HW229985   6.768   2.818   3.630
 9696SOL     OW29986   5.959   2.106   2.085
 9696SOL    HW129987   5.952   2.202   2.113
 9696SOL    HW229988   5.933   2.097   1.989
 9697SOL     OW29989   0.311   6.598   0.791
 9697SOL    HW129990   0.392   6.577   0.736
 9697SOL    HW229991   0.332   6.581   0.888
 9698SOL     OW29992   5.609   2.933   6.161
 9698SOL    HW129993   5.700   2.965   6.136
 9698SOL    HW229994   5.560   3.006   6.209
 9699SOL     OW29995   0.727   5.606   0.157
 9699SOL    HW129996   0.674   5.688   0.180
 9699SOL    HW229997   0.755   5.560   0.241
 9700SOL     OW29998   6.371   5.469   4.607
 9700SOL    HW129999   6.442   5.505   4.548
 9700SOL    HW230000   6.343   5.378   4.576
 9701SOL     OW30001   3.910   3.934   5.863
 9701SOL    HW130002   4.004   3.955   5.891
 9701SOL    HW230003   3.890   3.838   5.885
 9702SOL     OW30004   3.932   2.465   0.116
 9702SOL    HW130005   3.919   2.450   0.018
 9702SOL    HW230006   3.879   2.545   0.144
 9703SOL     OW30007   5.024   3.971   3.937
 9703SOL    HW130008   5.030   4.056   3.990
 9703SOL    HW230009   5.058   3.987   3.845
 9704SOL     OW30010   3.150   5.378   2.581
 9704SOL    HW130011   3.084   5.356   2.653
 9704SOL    HW230012   3.242   5.353   2.613
 9705SOL     OW30013   6.167   4.391   5.765
 9705SOL    HW130014   6.232   4.452   5.810
 9705SOL    HW230015   6.116   4.340   5.834
 9706SOL     OW30016   2.852   2.418   1.654
 9706SOL    HW130017   2.813   2.341   1.603
 9706SOL    HW230018   2.857   2.393   1.751
 9707SOL     OW30019   5.560   5.072   2.406
 9707SOL    HW130020   5.593   4.978   2.417
 9707SOL    HW230021   5.608   5.114   2.329
 9708SOL     OW30022   0.995   1.452   3.006
 9708SOL    HW130023   1.051   1.496   3.075
 9708SOL    HW230024   0.904   1.494   3.005
 9709SOL     OW30025   5.443   4.732   1.915
 9709SOL    HW130026   5.396   4.664   1.860
 9709SOL    HW230027   5.459   4.696   2.007
 9710SOL     OW30028   6.339   0.489   0.738
 9710SOL    HW130029   6.394   0.446   0.810
 9710SOL    HW230030   6.368   0.454   0.649
 9711SOL     OW30031   3.740   5.666   6.270
 9711SOL    HW130032   3.758   5.571   6.298
 9711SOL    HW230033   3.669   5.666   6.200
 9712SOL     OW30034   6.021   3.231   0.274
 9712SOL    HW130035   6.108   3.247   0.321
 9712SOL    HW230036   6.026   3.267   0.181
 9713SOL     OW30037   2.860   5.303   3.362
 9713SOL    HW130038   2.954   5.292   3.394
 9713SOL    HW230039   2.797   5.292   3.439
 9714SOL     OW30040   3.672   6.331   5.723
 9714SOL    HW130041   3.701   6.320   5.818
 9714SOL    HW230042   3.651   6.242   5.684
 9715SOL     OW30043   5.751   4.689   6.607
 9715SOL    HW130044   5.804   4.744   6.542
 9715SOL    HW230045   5.810   4.621   6.649
 9716SOL     OW30046   3.723   4.779   7.004
 9716SOL    HW130047   3.749   4.693   0.031
 9716SOL    HW230048   3.781   4.794   6.924
 9717SOL     OW30049   4.680   6.185   6.488
 9717SOL    HW130050   4.704   6.156   6.581
 9717SOL    HW230051   4.751   6.156   6.424
 9718SOL     OW30052   4.298   3.224   1.150
 9718SOL    HW130053   4.236   3.153   1.182
 9718SOL    HW230054   4.304   3.297   1.219
 9719SOL     OW30055   5.256   6.886   5.993
 9719SOL    HW130056   5.352   6.898   5.968
 9719SOL    HW230057   5.251   6.823   6.071
 9720SOL     OW30058   0.739   3.586   2.472
 9720SOL    HW130059   0.765   3.618   2.563
 9720SOL    HW230060   0.652   3.627   2.446
 9721SOL     OW30061   0.157   1.249   6.594
 9721SOL    HW130062   0.102   1.313   6.648
 9721SOL    HW230063   0.153   1.274   6.497
 9722SOL     OW30064   3.694   0.842   5.432
 9722SOL    HW130065   3.749   0.868   5.353
 9722SOL    HW230066   3.608   0.892   5.431
 9723SOL     OW30067   4.869   5.858   4.028
 9723SOL    HW130068   4.866   5.758   4.019
 9723SOL    HW230069   4.844   5.883   4.121
 9724SOL     OW30070   1.630   4.376   0.053
 9724SOL    HW130071   1.535   4.350   0.036
 9724SOL    HW230072   1.649   4.464   0.009
 9725SOL     OW30073   3.902   6.342   6.295
 9725SOL    HW130074   3.872   6.305   6.384
 9725SOL    HW230075   3.863   6.433   6.282
 9726SOL     OW30076   4.598   2.069   4.803
 9726SOL    HW130077   4.505   2.077   4.839
 9726SOL    HW230078   4.635   2.160   4.787
 9727SOL     OW30079   1.235   2.418   6.861
 9727SOL    HW130080   1.261   2.497   6.916
 9727SOL    HW230081   1.137   2.422   6.840
 9728SOL     OW30082   0.118   1.811   5.178
 9728SOL    HW130083   0.090   1.716   5.166
 9728SOL    HW230084   0.134   1.853   5.089
 9729SOL     OW30085   1.312   4.522   3.820
 9729SOL    HW130086   1.392   4.582   3.819
 9729SOL    HW230087   1.335   4.437   3.866
 9730SOL     OW30088   1.003   4.486   3.373
 9730SOL    HW130089   1.041   4.456   3.460
 9730SOL    HW230090   1.026   4.582   3.357
 9731SOL     OW30091   4.620   5.395   1.720
 9731SOL    HW130092   4.564   5.315   1.698
 9731SOL    HW230093   4.716   5.375   1.702
 9732SOL     OW30094   0.946   3.071   2.080
 9732SOL    HW130095   0.864   3.126   2.094
 9732SOL    HW230096   1.000   3.110   2.005
 9733SOL     OW30097   5.882   5.540   0.501
 9733SOL    HW130098   5.965   5.579   0.461
 9733SOL    HW230099   5.867   5.449   0.464
 9734SOL     OW30100   6.600   0.284   0.185
 9734SOL    HW130101   6.537   0.227   0.132
 9734SOL    HW230102   6.617   0.242   0.274
 9735SOL     OW30103   1.694   3.025   3.238
 9735SOL    HW130104   1.663   2.932   3.218
 9735SOL    HW230105   1.667   3.049   3.332
 9736SOL     OW30106   5.277   1.748   6.414
 9736SOL    HW130107   5.308   1.658   6.382
 9736SOL    HW230108   5.331   1.775   6.495
 9737SOL     OW30109   5.374   2.200   2.542
 9737SOL    HW130110   5.454   2.240   2.588
 9737SOL    HW230111   5.400   2.173   2.449
 9738SOL     OW30112   1.936   6.754   0.740
 9738SOL    HW130113   1.860   6.719   0.795
 9738SOL    HW230114   1.900   6.814   0.668
 9739SOL     OW30115   5.198   5.708   0.226
 9739SOL    HW130116   5.248   5.763   0.293
 9739SOL    HW230117   5.180   5.762   0.144
 9740SOL     OW30118   6.891   1.357   2.945
 9740SOL    HW130119   6.886   1.299   3.026
 9740SOL    HW230120   6.959   1.429   2.961
 9741SOL     OW30121   2.464   1.089   3.428
 9741SOL    HW130122   2.434   1.082   3.523
 9741SOL    HW230123   2.509   1.004   3.401
 9742SOL     OW30124   3.981   1.273   0.525
 9742SOL    HW130125   4.079   1.254   0.527
 9742SOL    HW230126   3.966   1.368   0.497
 9743SOL     OW30127   0.076   4.083   2.848
 9743SOL    HW130128   0.087   4.181   2.835
 9743SOL    HW230129   0.025   4.066   2.933
 9744SOL     OW30130   2.085   0.289   2.782
 9744SOL    HW130131   2.038   0.315   2.698
 9744SOL    HW230132   2.133   0.368   2.820
 9745SOL     OW30133   4.916   3.204   5.961
 9745SOL    HW130134   4.908   3.286   6.018
 9745SOL    HW230135   4.825   3.169   5.940
 9746SOL     OW30136   5.386   6.615   5.557
 9746SOL    HW130137   5.476   6.657   5.542
 9746SOL    HW230138   5.337   6.665   5.628
 9747SOL     OW30139   3.047   2.105   1.927
 9747SOL    HW130140   3.058   2.100   1.828
 9747SOL    HW230141   3.015   2.197   1.952
 9748SOL     OW30142   6.741   6.833   3.325
 9748SOL    HW130143   6.747   6.760   3.257
 9748SOL    HW230144   6.667   6.895   3.300
 9749SOL     OW30145   0.622   0.810   3.436
 9749SOL    HW130146   0.662   0.852   3.354
 9749SOL    HW230147   0.600   0.714   3.416
 9750SOL     OW30148   5.947   5.624   3.618
 9750SOL    HW130149   5.948   5.524   3.622
 9750SOL    HW230150   6.037   5.660   3.643
 9751SOL     OW30151   2.303   6.993   0.628
 9751SOL    HW130152   2.255   6.971   0.543
 9751SOL    HW230153   2.394   0.010   0.606
 9752SOL     OW30154   4.354   1.659   5.605
 9752SOL    HW130155   4.390   1.581   5.657
 9752SOL    HW230156   4.349   1.635   5.508
 9753SOL     OW30157   0.826   5.652   5.838
 9753SOL    HW130158   0.903   5.615   5.786
 9753SOL    HW230159   0.750   5.587   5.836
 9754SOL     OW30160   3.039   0.601   0.931
 9754SOL    HW130161   3.002   0.632   0.844
 9754SOL    HW230162   3.095   0.673   0.971
 9755SOL     OW30163   3.265   3.972   4.458
 9755SOL    HW130164   3.337   4.003   4.519
 9755SOL    HW230165   3.209   4.049   4.429
 9756SOL     OW30166   6.230   2.478   6.356
 9756SOL    HW130167   6.144   2.431   6.335
 9756SOL    HW230168   6.255   2.461   6.451
 9757SOL     OW30169   5.782   4.484   4.902
 9757SOL    HW130170   5.713   4.437   4.957
 9757SOL    HW230171   5.743   4.567   4.862
 9758SOL     OW30172   2.125   1.162   0.660
 9758SOL    HW130173   2.088   1.248   0.695
 9758SOL    HW230174   2.190   1.181   0.586
 9759SOL     OW30175   0.857   0.803   0.235
 9759SOL    HW130176   0.862   0.755   0.323
 9759SOL    HW230177   0.837   0.899   0.251
 9760SOL     OW30178   5.191   3.378   5.371
 9760SOL    HW130179   5.103   3.397   5.326
 9760SOL    HW230180   5.256   3.451   5.349
 9761SOL     OW30181   1.107   2.390   1.799
 9761SOL    HW130182   1.034   2.386   1.867
 9761SOL    HW230183   1.183   2.445   1.834
 9762SOL     OW30184   3.289   1.435   4.908
 9762SOL    HW130185   3.199   1.412   4.945
 9762SOL    HW230186   3.290   1.531   4.880
 9763SOL     OW30187   5.631   0.989   3.885
 9763SOL    HW130188   5.533   0.996   3.902
 9763SOL    HW230189   5.659   1.060   3.820
 9764SOL     OW30190   6.429   2.417   2.072
 9764SOL    HW130191   6.514   2.379   2.036
 9764SOL    HW230192   6.351   2.364   2.037
 9765SOL     OW30193   6.815   6.625   3.110
 9765SOL    HW130194   6.847   6.532   3.092
 9765SOL    HW230195   6.876   6.691   3.065
 9766SOL     OW30196   2.647   6.340   2.083
 9766SOL    HW130197   2.629   6.417   2.144
 9766SOL    HW230198   2.743   6.315   2.088
 9767SOL     OW30199   2.631   2.562   5.871
 9767SOL    HW130200   2.597   2.518   5.955
 9767SOL    HW230201   2.670   2.651   5.893
 9768SOL     OW30202   4.519   1.443   1.954
 9768SOL    HW130203   4.529   1.354   1.911
 9768SOL    HW230204   4.425   1.453   1.989
 9769SOL     OW30205   3.533   1.509   4.525
 9769SOL    HW130206   3.584   1.503   4.611
 9769SOL    HW230207   3.467   1.434   4.520
 9770SOL     OW30208   3.940   1.169   5.410
 9770SOL    HW130209   3.948   1.082   5.457
 9770SOL    HW230210   4.030   1.198   5.377
 9771SOL     OW30211   2.323   5.419   1.032
 9771SOL    HW130212   2.347   5.375   1.118
 9771SOL    HW230213   2.406   5.444   0.983
 9772SOL     OW30214   2.051   6.373   1.722
 9772SOL    HW130215   2.086   6.464   1.747
 9772SOL    HW230216   1.956   6.365   1.753
 9773SOL     OW30217   4.957   5.413   3.736
 9773SOL    HW130218   4.956   5.512   3.751
 9773SOL    HW230219   4.917   5.392   3.647
 9774SOL     OW30220   0.342   5.432   2.905
 9774SOL    HW130221   0.357   5.342   2.946
 9774SOL    HW230222   0.246   5.458   2.917
 9775SOL     OW30223   3.126   0.360   3.557
 9775SOL    HW130224   3.164   0.452   3.568
 9775SOL    HW230225   3.178   0.296   3.613
 9776SOL     OW30226   1.127   4.538   5.920
 9776SOL    HW130227   1.107   4.625   5.875
 9776SOL    HW230228   1.160   4.472   5.852
 9777SOL     OW30229   6.271   4.921   0.879
 9777SOL    HW130230   6.259   5.015   0.911
 9777SOL    HW230231   6.186   4.889   0.837
 9778SOL     OW30232   0.020   1.535   5.022
 9778SOL    HW130233   6.998   1.444   5.013
 9778SOL    HW230234   6.986   1.600   4.967
 9779SOL     OW30235   0.614   1.821   3.905
 9779SOL    HW130236   0.649   1.736   3.866
 9779SOL    HW230237   0.689   1.872   3.947
 9780SOL     OW30238   2.280   1.777   0.741
 9780SOL    HW130239   2.324   1.753   0.654
 9780SOL    HW230240   2.336   1.844   0.789
 9781SOL     OW30241   2.164   3.223   4.629
 9781SOL    HW130242   2.195   3.136   4.590
 9781SOL    HW230243   2.167   3.294   4.559
 9782SOL     OW30244   0.654   2.183   0.081
 9782SOL    HW130245   0.588   2.182   0.156
 9782SOL    HW230246   0.609   2.215   7.016
 9783SOL     OW30247   4.392   2.426   3.316
 9783SOL    HW130248   4.473   2.479   3.290
 9783SOL    HW230249   4.362   2.371   3.237
 9784SOL     OW30250   3.768   0.402   6.071
 9784SOL    HW130251   3.734   0.465   6.140
 9784SOL    HW230252   3.814   0.454   5.998
 9785SOL     OW30253   6.885   2.182   5.499
 9785SOL    HW130254   6.972   2.227   5.516
 9785SOL    HW230255   6.817   2.212   5.566
 9786SOL     OW30256   2.355   3.179   0.439
 9786SOL    HW130257   2.380   3.253   0.376
 9786SOL    HW230258   2.256   3.174   0.448
 9787SOL     OW30259   3.294   3.380   2.739
 9787SOL    HW130260   3.364   3.318   2.774
 9787SOL    HW230261   3.215   3.327   2.709
 9788SOL     OW30262   1.138   6.636   1.802
 9788SOL    HW130263   1.124   6.728   1.837
 9788SOL    HW230264   1.212   6.592   1.853
 9789SOL     OW30265   1.291   6.153   0.423
 9789SOL    HW130266   1.328   6.130   0.333
 9789SOL    HW230267   1.340   6.101   0.493
 9790SOL     OW30268   6.556   4.382   5.902
 9790SOL    HW130269   6.623   4.438   5.853
 9790SOL    HW230270   6.604   4.318   5.962
 9791SOL     OW30271   0.364   0.063   6.527
 9791SOL    HW130272   0.322   0.128   6.463
 9791SOL    HW230273   0.306   0.053   6.608
 9792SOL     OW30274   3.222   4.901   0.867
 9792SOL    HW130275   3.275   4.970   0.817
 9792SOL    HW230276   3.168   4.946   0.938
 9793SOL     OW30277   4.257   0.544   2.469
 9793SOL    HW130278   4.162   0.536   2.441
 9793SOL    HW230279   4.310   0.469   2.428
 9794SOL     OW30280   6.304   4.636   5.548
 9794SOL    HW130281   6.213   4.675   5.564
 9794SOL    HW230282   6.349   4.620   5.635
 9795SOL     OW30283   1.371   2.367   4.633
 9795SOL    HW130284   1.402   2.273   4.644
 9795SOL    HW230285   1.440   2.420   4.583
 9796SOL     OW30286   4.064   3.766   2.678
 9796SOL    HW130287   4.084   3.689   2.737
 9796SOL    HW230288   4.125   3.842   2.701
 9797SOL     OW30289   1.907   5.890   0.227
 9797SOL    HW130290   2.005   5.894   0.211
 9797SOL    HW230291   1.859   5.903   0.140
 9798SOL     OW30292   2.816   0.579   2.393
 9798SOL    HW130293   2.739   0.561   2.331
 9798SOL    HW230294   2.839   0.496   2.443
 9799SOL     OW30295   3.007   4.054   6.249
 9799SOL    HW130296   3.007   3.980   6.182
 9799SOL    HW230297   2.914   4.068   6.283
 9800SOL     OW30298   5.230   5.079   4.562
 9800SOL    HW130299   5.145   5.026   4.559
 9800SOL    HW230300   5.239   5.123   4.652
 9801SOL     OW30301   4.690   4.289   6.733
 9801SOL    HW130302   4.718   4.345   6.655
 9801SOL    HW230303   4.628   4.341   6.791
 9802SOL     OW30304   5.895   4.832   0.534
 9802SOL    HW130305   5.821   4.795   0.478
 9802SOL    HW230306   5.980   4.830   0.481
 9803SOL     OW30307   1.747   3.183   6.535
 9803SOL    HW130308   1.755   3.214   6.440
 9803SOL    HW230309   1.654   3.147   6.551
 9804SOL     OW30310   0.606   6.182   3.320
 9804SOL    HW130311   0.591   6.281   3.326
 9804SOL    HW230312   0.653   6.161   3.234
 9805SOL     OW30313   0.405   6.521   3.221
 9805SOL    HW130314   0.442   6.481   3.304
 9805SOL    HW230315   0.456   6.605   3.199
 9806SOL     OW30316   1.406   1.526   6.825
 9806SOL    HW130317   1.433   1.622   6.828
 9806SOL    HW230318   1.466   1.476   6.763
 9807SOL     OW30319   2.971   3.847   1.085
 9807SOL    HW130320   2.883   3.836   1.131
 9807SOL    HW230321   2.966   3.805   0.994
 9808SOL     OW30322   4.206   5.589   4.985
 9808SOL    HW130323   4.115   5.575   5.024
 9808SOL    HW230324   4.203   5.572   4.886
 9809SOL     OW30325   0.715   3.481   0.060
 9809SOL    HW130326   0.808   3.452   0.042
 9809SOL    HW230327   0.651   3.421   0.012
 9810SOL     OW30328   3.297   2.095   4.540
 9810SOL    HW130329   3.243   2.119   4.621
 9810SOL    HW230330   3.386   2.059   4.569
 9811SOL     OW30331   5.640   4.890   3.229
 9811SOL    HW130332   5.611   4.847   3.315
 9811SOL    HW230333   5.740   4.885   3.222
 9812SOL     OW30334   3.301   1.430   5.526
 9812SOL    HW130335   3.393   1.430   5.566
 9812SOL    HW230336   3.249   1.353   5.563
 9813SOL     OW30337   5.077   1.931   1.081
 9813SOL    HW130338   5.022   1.868   1.025
 9813SOL    HW230339   5.017   2.001   1.119
 9814SOL     OW30340   0.104   0.686   6.752
 9814SOL    HW130341   0.069   0.667   6.844
 9814SOL    HW230342   0.203   0.693   6.755
 9815SOL     OW30343   4.912   3.326   4.385
 9815SOL    HW130344   4.958   3.375   4.311
 9815SOL    HW230345   4.980   3.271   4.435
 9816SOL     OW30346   0.337   1.014   5.980
 9816SOL    HW130347   0.289   1.042   5.897
 9816SOL    HW230348   0.272   1.008   6.056
 9817SOL     OW30349   1.447   6.720   3.393
 9817SOL    HW130350   1.359   6.737   3.437
 9817SOL    HW230351   1.466   6.622   3.394
 9818SOL     OW30352   6.644   1.359   4.130
 9818SOL    HW130353   6.672   1.335   4.037
 9818SOL    HW230354   6.545   1.378   4.130
 9819SOL     OW30355   5.282   3.207   3.061
 9819SOL    HW130356   5.354   3.266   3.025
 9819SOL    HW230357   5.291   3.116   3.022
 9820SOL     OW30358   3.480   3.142   6.419
 9820SOL    HW130359   3.465   3.196   6.336
 9820SOL    HW230360   3.575   3.150   6.447
 9821SOL     OW30361   5.541   1.130   6.556
 9821SOL    HW130362   5.492   1.212   6.585
 9821SOL    HW230363   5.637   1.153   6.541
 9822SOL     OW30364   1.580   0.042   3.301
 9822SOL    HW130365   1.567   0.090   3.214
 9822SOL    HW230366   1.492   0.028   3.345
 9823SOL     OW30367   3.074   7.009   0.539
 9823SOL    HW130368   2.994   6.971   0.585
 9823SOL    HW230369   3.044   0.045   0.460
 9824SOL     OW30370   2.103   4.724   4.809
 9824SOL    HW130371   2.168   4.797   4.831
 9824SOL    HW230372   2.115   4.697   4.714
 9825SOL     OW30373   3.608   5.081   5.721
 9825SOL    HW130374   3.704   5.102   5.699
 9825SOL    HW230375   3.603   4.991   5.764
 9826SOL     OW30376   5.041   5.053   6.136
 9826SOL    HW130377   5.128   5.006   6.118
 9826SOL    HW230378   5.013   5.103   6.054
 9827SOL     OW30379   1.974   3.621   3.862
 9827SOL    HW130380   2.020   3.590   3.779
 9827SOL    HW230381   2.040   3.627   3.937
 9828SOL     OW30382   2.404   3.188   6.262
 9828SOL    HW130383   2.358   3.262   6.311
 9828SOL    HW230384   2.343   3.110   6.254
 9829SOL     OW30385   3.472   5.959   6.881
 9829SOL    HW130386   3.411   6.033   6.853
 9829SOL    HW230387   3.454   5.877   6.826
 9830SOL     OW30388   6.065   2.982   2.076
 9830SOL    HW130389   6.138   2.940   2.130
 9830SOL    HW230390   6.105   3.050   2.014
 9831SOL     OW30391   2.096   5.586   1.141
 9831SOL    HW130392   2.062   5.529   1.216
 9831SOL    HW230393   2.170   5.538   1.094
 9832SOL     OW30394   5.013   5.599   2.771
 9832SOL    HW130395   4.939   5.544   2.733
 9832SOL    HW230396   5.095   5.590   2.714
 9833SOL     OW30397   4.170   3.263   5.307
 9833SOL    HW130398   4.096   3.236   5.369
 9833SOL    HW230399   4.147   3.235   5.214
 9834SOL     OW30400   3.265   4.399   5.348
 9834SOL    HW130401   3.166   4.390   5.343
 9834SOL    HW230402   3.291   4.494   5.331
 9835SOL     OW30403   3.340   2.817   5.501
 9835SOL    HW130404   3.269   2.879   5.467
 9835SOL    HW230405   3.297   2.739   5.546
 9836SOL     OW30406   6.066   4.645   4.015
 9836SOL    HW130407   5.973   4.631   4.049
 9836SOL    HW230408   6.062   4.699   3.931
 9837SOL     OW30409   2.892   0.538   3.001
 9837SOL    HW130410   2.954   0.472   2.959
 9837SOL    HW230411   2.926   0.631   2.986
 9838SOL     OW30412   1.005   6.687   6.021
 9838SOL    HW130413   1.093   6.647   5.997
 9838SOL    HW230414   0.993   6.773   5.971
 9839SOL     OW30415   6.108   1.962   3.318
 9839SOL    HW130416   6.078   1.900   3.246
 9839SOL    HW230417   6.100   2.056   3.286
 9840SOL     OW30418   6.931   1.918   1.454
 9840SOL    HW130419   6.997   1.984   1.490
 9840SOL    HW230420   6.980   1.844   1.407
 9841SOL     OW30421   2.028   4.182   4.546
 9841SOL    HW130422   2.036   4.092   4.590
 9841SOL    HW230423   2.012   4.251   4.616
 9842SOL     OW30424   4.057   3.522   2.514
 9842SOL    HW130425   4.061   3.621   2.527
 9842SOL    HW230426   4.097   3.476   2.592
 9843SOL     OW30427   5.108   0.487   1.410
 9843SOL    HW130428   5.088   0.406   1.465
 9843SOL    HW230429   5.152   0.556   1.468
 9844SOL     OW30430   6.073   1.007   2.075
 9844SOL    HW130431   5.990   1.029   2.023
 9844SOL    HW230432   6.104   1.089   2.123
 9845SOL     OW30433   3.413   2.104   3.717
 9845SOL    HW130434   3.487   2.118   3.651
 9845SOL    HW230435   3.451   2.093   3.808
 9846SOL     OW30436   3.928   3.752   1.833
 9846SOL    HW130437   3.973   3.692   1.767
 9846SOL    HW230438   3.875   3.821   1.784
 9847SOL     OW30439   3.501   2.865   4.366
 9847SOL    HW130440   3.597   2.888   4.348
 9847SOL    HW230441   3.450   2.868   4.279
 9848SOL     OW30442   3.236   3.326   6.003
 9848SOL    HW130443   3.325   3.328   6.050
 9848SOL    HW230444   3.196   3.234   6.011
 9849SOL     OW30445   0.521   0.369   6.875
 9849SOL    HW130446   0.541   0.314   6.794
 9849SOL    HW230447   0.446   0.432   6.854
 9850SOL     OW30448   5.646   0.165   3.984
 9850SOL    HW130449   5.550   0.190   3.977
 9850SOL    HW230450   5.703   0.248   3.981
 9851SOL     OW30451   4.853   1.476   5.046
 9851SOL    HW130452   4.919   1.413   5.086
 9851SOL    HW230453   4.794   1.513   5.118
 9852SOL     OW30454   4.274   2.176   2.656
 9852SOL    HW130455   4.370   2.162   2.679
 9852SOL    HW230456   4.267   2.223   2.568
 9853SOL     OW30457   5.480   4.431   4.681
 9853SOL    HW130458   5.417   4.387   4.745
 9853SOL    HW230459   5.438   4.431   4.590
 9854SOL     OW30460   0.452   6.033   5.259
 9854SOL    HW130461   0.373   6.092   5.243
 9854SOL    HW230462   0.512   6.075   5.327
 9855SOL     OW30463   2.353   2.844   0.976
 9855SOL    HW130464   2.393   2.927   0.938
 9855SOL    HW230465   2.259   2.834   0.946
 9856SOL     OW30466   4.535   3.836   5.596
 9856SOL    HW130467   4.600   3.847   5.672
 9856SOL    HW230468   4.448   3.804   5.632
 9857SOL     OW30469   4.489   2.389   3.571
 9857SOL    HW130470   4.452   2.391   3.478
 9857SOL    HW230471   4.414   2.394   3.637
 9858SOL     OW30472   0.064   0.766   0.527
 9858SOL    HW130473   0.053   0.678   0.572
 9858SOL    HW230474   0.125   0.757   0.448
 9859SOL     OW30475   6.118   6.799   2.141
 9859SOL    HW130476   6.026   6.760   2.129
 9859SOL    HW230477   6.115   6.897   2.124
 9860SOL     OW30478   0.682   1.549   3.795
 9860SOL    HW130479   0.699   1.528   3.892
 9860SOL    HW230480   0.674   1.463   3.744
 9861SOL     OW30481   3.148   0.260   3.282
 9861SOL    HW130482   3.060   0.233   3.242
 9861SOL    HW230483   3.132   0.308   3.368
 9862SOL     OW30484   3.768   4.238   7.011
 9862SOL    HW130485   3.689   4.283   0.037
 9862SOL    HW230486   3.823   4.192   0.063
 9863SOL     OW30487   3.634   6.859   2.689
 9863SOL    HW130488   3.566   6.788   2.668
 9863SOL    HW230489   3.714   6.817   2.732
 9864SOL     OW30490   3.779   6.627   4.140
 9864SOL    HW130491   3.808   6.545   4.090
 9864SOL    HW230492   3.813   6.708   4.092
 9865SOL     OW30493   1.549   0.897   4.144
 9865SOL    HW130494   1.642   0.864   4.123
 9865SOL    HW230495   1.531   0.884   4.241
 9866SOL     OW30496   4.616   4.892   6.088
 9866SOL    HW130497   4.673   4.891   6.170
 9866SOL    HW230498   4.521   4.913   6.114
 9867SOL     OW30499   6.246   1.010   0.569
 9867SOL    HW130500   6.198   1.075   0.627
 9867SOL    HW230501   6.227   1.030   0.473
 9868SOL     OW30502   0.645   4.004   5.935
 9868SOL    HW130503   0.646   3.907   5.959
 9868SOL    HW230504   0.724   4.026   5.878
 9869SOL     OW30505   1.702   3.123   2.315
 9869SOL    HW130506   1.736   3.037   2.277
 9869SOL    HW230507   1.657   3.176   2.243
 9870SOL     OW30508   3.842   5.421   2.717
 9870SOL    HW130509   3.890   5.491   2.769
 9870SOL    HW230510   3.745   5.442   2.715
 9871SOL     OW30511   0.145   5.845   6.188
 9871SOL    HW130512   0.176   5.876   6.098
 9871SOL    HW230513   0.075   5.906   6.223
 9872SOL     OW30514   2.457   4.849   4.214
 9872SOL    HW130515   2.523   4.779   4.244
 9872SOL    HW230516   2.377   4.804   4.175
 9873SOL     OW30517   2.418   2.625   6.989
 9873SOL    HW130518   2.475   2.690   0.022
 9873SOL    HW230519   2.477   2.564   6.936
 9874SOL     OW30520   6.864   2.917   4.810
 9874SOL    HW130521   6.928   2.879   4.877
 9874SOL    HW230522   6.805   2.984   4.855
 9875SOL     OW30523   6.198   6.400   1.936
 9875SOL    HW130524   6.224   6.497   1.935
 9875SOL    HW230525   6.280   6.344   1.939
 9876SOL     OW30526   6.483   0.455   3.369
 9876SOL    HW130527   6.414   0.404   3.317
 9876SOL    HW230528   6.461   0.552   3.367
 9877SOL     OW30529   0.456   6.258   4.201
 9877SOL    HW130530   0.448   6.345   4.151
 9877SOL    HW230531   0.548   6.251   4.240
 9878SOL     OW30532   2.647   4.844   5.077
 9878SOL    HW130533   2.678   4.753   5.049
 9878SOL    HW230534   2.624   4.898   4.996
 9879SOL     OW30535   5.551   5.340   4.601
 9879SOL    HW130536   5.640   5.334   4.646
 9879SOL    HW230537   5.520   5.435   4.601
 9880SOL     OW30538   3.256   0.849   5.927
 9880SOL    HW130539   3.253   0.753   5.900
 9880SOL    HW230540   3.199   0.863   6.008
 9881SOL     OW30541   0.695   0.877   5.005
 9881SOL    HW130542   0.743   0.960   4.976
 9881SOL    HW230543   0.631   0.849   4.934
 9882SOL     OW30544   1.060   3.767   3.949
 9882SOL    HW130545   1.154   3.736   3.962
 9882SOL    HW230546   1.058   3.866   3.935
 9883SOL     OW30547   1.111   6.358   0.097
 9883SOL    HW130548   1.193   6.405   0.131
 9883SOL    HW230549   1.135   6.299   0.020
 9884SOL     OW30550   4.947   2.160   1.960
 9884SOL    HW130551   4.868   2.213   1.928
 9884SOL    HW230552   5.030   2.214   1.949
 9885SOL     OW30553   6.696   2.254   4.872
 9885SOL    HW130554   6.740   2.334   4.912
 9885SOL    HW230555   6.683   2.185   4.943
 9886SOL     OW30556   1.227   4.625   2.665
 9886SOL    HW130557   1.318   4.663   2.676
 9886SOL    HW230558   1.213   4.553   2.734
 9887SOL     OW30559   3.919   0.255   6.226
 9887SOL    HW130560   3.917   0.158   6.204
 9887SOL    HW230561   3.870   0.306   6.155
 9888SOL     OW30562   5.540   4.691   2.790
 9888SOL    HW130563   5.622   4.646   2.826
 9888SOL    HW230564   5.513   4.764   2.853
 9889SOL     OW30565   6.522   5.323   2.143
 9889SOL    HW130566   6.531   5.249   2.210
 9889SOL    HW230567   6.601   5.384   2.151
 9890SOL     OW30568   1.964   2.345   0.641
 9890SOL    HW130569   1.998   2.260   0.681
 9890SOL    HW230570   1.993   2.351   0.545
 9891SOL     OW30571   4.855   3.995   1.909
 9891SOL    HW130572   4.868   4.092   1.930
 9891SOL    HW230573   4.862   3.941   1.993
 9892SOL     OW30574   6.873   4.910   1.183
 9892SOL    HW130575   6.783   4.943   1.210
 9892SOL    HW230576   6.903   4.958   1.100
 9893SOL     OW30577   0.837   0.544   1.331
 9893SOL    HW130578   0.836   0.635   1.374
 9893SOL    HW230579   0.749   0.499   1.349
 9894SOL     OW30580   2.976   3.058   0.570
 9894SOL    HW130581   3.074   3.077   0.556
 9894SOL    HW230582   2.961   2.959   0.567
 9895SOL     OW30583   6.169   4.956   4.417
 9895SOL    HW130584   6.201   4.956   4.322
 9895SOL    HW230585   6.082   4.908   4.423
 9896SOL     OW30586   6.621   1.595   6.759
 9896SOL    HW130587   6.690   1.660   6.790
 9896SOL    HW230588   6.570   1.633   6.682
 9897SOL     OW30589   5.306   6.345   2.611
 9897SOL    HW130590   5.214   6.374   2.638
 9897SOL    HW230591   5.323   6.252   2.643
 9898SOL     OW30592   1.762   5.976   5.001
 9898SOL    HW130593   1.746   5.900   5.064
 9898SOL    HW230594   1.676   5.998   4.954
 9899SOL     OW30595   1.261   5.859   0.817
 9899SOL    HW130596   1.285   5.786   0.881
 9899SOL    HW230597   1.184   5.911   0.853
 9900SOL     OW30598   1.939   2.386   3.022
 9900SOL    HW130599   1.912   2.290   3.031
 9900SOL    HW230600   1.913   2.435   3.105
 9901SOL     OW30601   3.071   0.344   6.798
 9901SOL    HW130602   2.980   0.319   6.765
 9901SOL    HW230603   3.140   0.290   6.749
 9902SOL     OW30604   3.429   5.073   1.613
 9902SOL    HW130605   3.425   5.106   1.708
 9902SOL    HW230606   3.425   5.150   1.551
 9903SOL     OW30607   5.673   2.099   1.343
 9903SOL    HW130608   5.619   2.027   1.299
 9903SOL    HW230609   5.769   2.088   1.318
 9904SOL     OW30610   0.986   3.804   6.749
 9904SOL    HW130611   0.965   3.706   6.750
 9904SOL    HW230612   1.080   3.817   6.718
 9905SOL     OW30613   2.009   0.420   6.456
 9905SOL    HW130614   1.982   0.512   6.485
 9905SOL    HW230615   2.006   0.415   6.356
 9906SOL     OW30616   1.910   3.417   1.111
 9906SOL    HW130617   1.954   3.354   1.047
 9906SOL    HW230618   1.980   3.467   1.162
 9907SOL     OW30619   0.876   6.946   1.485
 9907SOL    HW130620   0.823   6.921   1.567
 9907SOL    HW230621   0.960   6.992   1.513
 9908SOL     OW30622   6.317   1.341   5.489
 9908SOL    HW130623   6.310   1.283   5.570
 9908SOL    HW230624   6.317   1.437   5.516
 9909SOL     OW30625   4.524   1.576   2.832
 9909SOL    HW130626   4.431   1.596   2.866
 9909SOL    HW230627   4.589   1.587   2.907
 9910SOL     OW30628   1.040   5.064   1.447
 9910SOL    HW130629   1.022   5.073   1.545
 9910SOL    HW230630   1.091   4.979   1.431
 9911SOL     OW30631   3.215   5.819   2.482
 9911SOL    HW130632   3.187   5.912   2.509
 9911SOL    HW230633   3.255   5.773   2.560
 9912SOL     OW30634   3.889   0.146   1.412
 9912SOL    HW130635   3.921   0.225   1.360
 9912SOL    HW230636   3.900   0.063   1.357
 9913SOL     OW30637   6.455   4.017   0.172
 9913SOL    HW130638   6.452   4.117   0.163
 9913SOL    HW230639   6.543   3.990   0.209
 9914SOL     OW30640   5.927   1.048   4.829
 9914SOL    HW130641   5.870   1.031   4.749
 9914SOL    HW230642   5.869   1.070   4.907
 9915SOL     OW30643   6.358   1.214   3.786
 9915SOL    HW130644   6.349   1.268   3.871
 9915SOL    HW230645   6.344   1.117   3.807
 9916SOL     OW30646   1.956   2.606   2.805
 9916SOL    HW130647   2.015   2.669   2.857
 9916SOL    HW230648   1.943   2.522   2.858
 9917SOL     OW30649   4.631   3.997   6.333
 9917SOL    HW130650   4.642   4.011   6.431
 9917SOL    HW230651   4.549   3.942   6.316
 9918SOL     OW30652   2.665   2.011   3.533
 9918SOL    HW130653   2.612   2.096   3.531
 9918SOL    HW230654   2.650   1.961   3.448
 9919SOL     OW30655   0.568   5.413   0.731
 9919SOL    HW130656   0.641   5.471   0.695
 9919SOL    HW230657   0.583   5.398   0.829
 9920SOL     OW30658   5.088   1.300   2.301
 9920SOL    HW130659   4.995   1.297   2.337
 9920SOL    HW230660   5.125   1.392   2.312
 9921SOL     OW30661   4.094   6.065   4.314
 9921SOL    HW130662   4.013   6.099   4.266
 9921SOL    HW230663   4.141   6.141   4.358
 9922SOL     OW30664   2.206   3.876   0.326
 9922SOL    HW130665   2.107   3.868   0.325
 9922SOL    HW230666   2.247   3.785   0.338
 9923SOL     OW30667   5.506   4.682   6.995
 9923SOL    HW130668   5.504   4.641   0.068
 9923SOL    HW230669   5.489   4.611   6.926
 9924SOL     OW30670   6.034   1.808   3.117
 9924SOL    HW130671   6.004   1.714   3.132
 9924SOL    HW230672   6.124   1.809   3.074
 9925SOL     OW30673   0.247   4.355   4.159
 9925SOL    HW130674   0.249   4.455   4.164
 9925SOL    HW230675   0.153   4.323   4.157
 9926SOL     OW30676   4.477   2.858   1.406
 9926SOL    HW130677   4.536   2.897   1.477
 9926SOL    HW230678   4.453   2.930   1.341
 9927SOL     OW30679   1.787   0.231   0.507
 9927SOL    HW130680   1.740   0.193   0.428
 9927SOL    HW230681   1.731   0.218   0.589
 9928SOL     OW30682   4.904   4.813   2.820
 9928SOL    HW130683   4.931   4.764   2.903
 9928SOL    HW230684   4.834   4.760   2.771
 9929SOL     OW30685   3.105   4.116   5.139
 9929SOL    HW130686   3.104   4.052   5.216
 9929SOL    HW230687   3.095   4.209   5.173
 9930SOL     OW30688   6.248   6.609   5.008
 9930SOL    HW130689   6.287   6.669   5.078
 9930SOL    HW230690   6.303   6.617   4.924
 9931SOL     OW30691   0.607   5.316   4.579
 9931SOL    HW130692   0.509   5.325   4.560
 9931SOL    HW230693   0.656   5.299   4.493
 9932SOL     OW30694   3.028   3.509   6.052
 9932SOL    HW130695   3.095   3.436   6.041
 9932SOL    HW230696   2.999   3.542   5.962
 9933SOL     OW30697   1.203   6.367   3.962
 9933SOL    HW130698   1.291   6.335   3.998
 9933SOL    HW230699   1.144   6.394   4.037
 9934SOL     OW30700   6.422   2.283   5.651
 9934SOL    HW130701   6.340   2.340   5.657
 9934SOL    HW230702   6.398   2.194   5.613
 9935SOL     OW30703   3.472   6.646   0.519
 9935SOL    HW130704   3.452   6.551   0.495
 9935SOL    HW230705   3.392   6.703   0.498
 9936SOL     OW30706   6.829   4.753   0.237
 9936SOL    HW130707   6.768   4.829   0.262
 9936SOL    HW230708   6.904   4.788   0.181
 9937SOL     OW30709   0.198   1.979   1.563
 9937SOL    HW130710   0.150   1.960   1.649
 9937SOL    HW230711   0.265   1.907   1.546
 9938SOL     OW30712   6.825   5.018   3.403
 9938SOL    HW130713   6.849   5.105   3.447
 9938SOL    HW230714   6.899   4.952   3.418
 9939SOL     OW30715   4.255   2.657   1.559
 9939SOL    HW130716   4.166   2.702   1.569
 9939SOL    HW230717   4.307   2.703   1.486
 9940SOL     OW30718   0.902   0.812   1.449
 9940SOL    HW130719   0.852   0.894   1.478
 9940SOL    HW230720   0.955   0.777   1.526
 9941SOL     OW30721   3.160   3.125   4.552
 9941SOL    HW130722   3.197   3.051   4.609
 9941SOL    HW230723   3.157   3.095   4.456
 9942SOL     OW30724   2.667   5.189   3.157
 9942SOL    HW130725   2.664   5.202   3.256
 9942SOL    HW230726   2.630   5.269   3.111
 9943SOL     OW30727   0.504   4.275   5.558
 9943SOL    HW130728   0.601   4.272   5.583
 9943SOL    HW230729   0.448   4.262   5.639
 9944SOL     OW30730   0.905   4.357   6.671
 9944SOL    HW130731   0.948   4.299   6.601
 9944SOL    HW230732   0.880   4.302   6.750
 9945SOL     OW30733   4.431   5.646   6.543
 9945SOL    HW130734   4.418   5.745   6.529
 9945SOL    HW230735   4.454   5.629   6.639
 9946SOL     OW30736   5.950   0.598   3.373
 9946SOL    HW130737   5.993   0.684   3.346
 9946SOL    HW230738   5.855   0.615   3.398
 9947SOL     OW30739   2.473   2.323   4.361
 9947SOL    HW130740   2.385   2.291   4.327
 9947SOL    HW230741   2.545   2.259   4.333
 9948SOL     OW30742   6.322   4.501   5.956
 9948SOL    HW130743   6.404   4.448   5.939
 9948SOL    HW230744   6.287   4.481   6.048
 9949SOL     OW30745   6.781   4.962   4.199
 9949SOL    HW130746   6.682   4.957   4.185
 9949SOL    HW230747   6.817   5.045   4.156
 9950SOL     OW30748   5.597   6.168   5.501
 9950SOL    HW130749   5.595   6.092   5.436
 9950SOL    HW230750   5.690   6.176   5.539
 9951SOL     OW30751   0.989   1.701   3.901
 9951SOL    HW130752   0.976   1.606   3.871
 9951SOL    HW230753   0.932   1.761   3.845
 9952SOL     OW30754   1.260   4.559   0.305
 9952SOL    HW130755   1.319   4.621   0.253
 9952SOL    HW230756   1.233   4.603   0.391
 9953SOL     OW30757   5.652   2.432   4.819
 9953SOL    HW130758   5.677   2.350   4.766
 9953SOL    HW230759   5.596   2.492   4.763
 9954SOL     OW30760   0.301   0.744   5.924
 9954SOL    HW130761   0.328   0.838   5.901
 9954SOL    HW230762   0.363   0.680   5.878
 9955SOL     OW30763   5.970   3.574   6.317
 9955SOL    HW130764   6.041   3.535   6.375
 9955SOL    HW230765   5.984   3.673   6.309
 9956SOL     OW30766   0.757   5.573   2.704
 9956SOL    HW130767   0.822   5.644   2.675
 9956SOL    HW230768   0.744   5.579   2.804
 9957SOL     OW30769   5.295   6.349   1.814
 9957SOL    HW130770   5.276   6.263   1.766
 9957SOL    HW230771   5.273   6.338   1.911
 9958SOL     OW30772   2.525   5.204   0.078
 9958SOL    HW130773   2.570   5.140   0.015
 9958SOL    HW230774   2.440   5.237   0.037
 9959SOL     OW30775   4.010   3.643   4.298
 9959SOL    HW130776   3.934   3.580   4.291
 9959SOL    HW230777   4.078   3.623   4.228
 9960SOL     OW30778   0.442   0.428   1.878
 9960SOL    HW130779   0.487   0.374   1.949
 9960SOL    HW230780   0.484   0.409   1.789
 9961SOL     OW30781   1.761   5.599   4.393
 9961SOL    HW130782   1.838   5.536   4.382
 9961SOL    HW230783   1.703   5.594   4.312
 9962SOL     OW30784   5.061   6.376   1.394
 9962SOL    HW130785   5.126   6.307   1.425
 9962SOL    HW230786   4.999   6.336   1.327
 9963SOL     OW30787   2.614   3.045   6.506
 9963SOL    HW130788   2.569   3.106   6.572
 9963SOL    HW230789   2.685   3.096   6.458
 9964SOL     OW30790   5.128   3.490   6.118
 9964SOL    HW130791   5.032   3.480   6.090
 9964SOL    HW230792   5.133   3.552   6.196
 9965SOL     OW30793   3.528   5.815   6.425
 9965SOL    HW130794   3.583   5.736   6.396
 9965SOL    HW230795   3.557   5.896   6.374
 9966SOL     OW30796   2.341   5.890   2.421
 9966SOL    HW130797   2.440   5.877   2.417
 9966SOL    HW230798   2.308   5.926   2.333
 9967SOL     OW30799   5.607   6.946   2.252
 9967SOL    HW130800   5.684   7.001   2.217
 9967SOL    HW230801   5.609   6.856   2.208
 9968SOL     OW30802   2.844   3.173   6.402
 9968SOL    HW130803   2.802   3.262   6.388
 9968SOL    HW230804   2.899   3.176   6.486
 9969SOL     OW30805   2.288   2.832   3.432
 9969SOL    HW130806   2.306   2.735   3.424
 9969SOL    HW230807   2.319   2.865   3.522
 9970SOL     OW30808   5.317   4.262   2.645
 9970SOL    HW130809   5.336   4.341   2.702
 9970SOL    HW230810   5.291   4.184   2.702
 9971SOL     OW30811   2.719   4.473   0.845
 9971SOL    HW130812   2.679   4.441   0.931
 9971SOL    HW230813   2.793   4.411   0.817
 9972SOL     OW30814   3.561   4.822   1.474
 9972SOL    HW130815   3.479   4.850   1.523
 9972SOL    HW230816   3.633   4.891   1.488
 9973SOL     OW30817   4.319   2.395   4.539
 9973SOL    HW130818   4.311   2.383   4.638
 9973SOL    HW230819   4.240   2.355   4.493
 9974SOL     OW30820   6.716   3.434   3.733
 9974SOL    HW130821   6.767   3.443   3.819
 9974SOL    HW230822   6.639   3.498   3.733
 9975SOL     OW30823   0.092   4.834   6.799
 9975SOL    HW130824   0.001   4.795   6.786
 9975SOL    HW230825   0.159   4.760   6.810
 9976SOL     OW30826   0.607   6.054   5.456
 9976SOL    HW130827   0.597   6.001   5.540
 9976SOL    HW230828   0.691   6.108   5.460
 9977SOL     OW30829   7.016   5.608   5.285
 9977SOL    HW130830   0.012   5.510   5.301
 9977SOL    HW230831   6.944   5.620   5.217
 9978SOL     OW30832   5.951   3.164   3.223
 9978SOL    HW130833   6.048   3.165   3.247
 9978SOL    HW230834   5.907   3.085   3.264
 9979SOL     OW30835   0.009   4.559   5.647
 9979SOL    HW130836   0.010   4.654   5.681
 9979SOL    HW230837   0.075   4.550   5.573
 9980SOL     OW30838   1.811   1.688   6.230
 9980SOL    HW130839   1.890   1.747   6.211
 9980SOL    HW230840   1.731   1.745   6.248
 9981SOL     OW30841   2.739   1.988   2.018
 9981SOL    HW130842   2.778   2.070   1.977
 9981SOL    HW230843   2.668   2.014   2.083
 9982SOL     OW30844   0.283   0.655   3.624
 9982SOL    HW130845   0.286   0.723   3.551
 9982SOL    HW230846   0.229   0.576   3.594
 9983SOL     OW30847   0.603   2.663   3.737
 9983SOL    HW130848   0.521   2.658   3.680
 9983SOL    HW230849   0.684   2.669   3.677
 9984SOL     OW30850   2.054   0.800   0.424
 9984SOL    HW130851   2.076   0.725   0.487
 9984SOL    HW230852   2.136   0.855   0.408
 9985SOL     OW30853   2.120   1.320   1.742
 9985SOL    HW130854   2.113   1.276   1.652
 9985SOL    HW230855   2.114   1.251   1.814
 9986SOL     OW30856   4.716   4.407   6.484
 9986SOL    HW130857   4.617   4.422   6.481
 9986SOL    HW230858   4.763   4.492   6.461
 9987SOL     OW30859   6.820   2.257   3.753
 9987SOL    HW130860   6.747   2.282   3.817
 9987SOL    HW230861   6.907   2.292   3.787
 9988SOL     OW30862   0.520   5.505   5.267
 9988SOL    HW130863   0.516   5.513   5.167
 9988SOL    HW230864   0.503   5.595   5.308
 9989SOL     OW30865   6.201   4.705   3.522
 9989SOL    HW130866   6.111   4.720   3.481
 9989SOL    HW230867   6.210   4.610   3.550
 9990SOL     OW30868   2.941   6.296   2.097
 9990SOL    HW130869   2.995   6.275   2.015
 9990SOL    HW230870   3.002   6.305   2.175
 9991SOL     OW30871   2.128   2.561   3.651
 9991SOL    HW130872   2.193   2.557   3.576
 9991SOL    HW230873   2.068   2.640   3.640
 9992SOL     OW30874   5.066   4.314   0.173
 9992SOL    HW130875   4.992   4.246   0.174
 9992SOL    HW230876   5.063   4.365   0.087
 9993SOL     OW30877   3.946   0.686   1.709
 9993SOL    HW130878   3.929   0.621   1.783
 9993SOL    HW230879   3.916   0.646   1.622
 9994SOL     OW30880   0.232   4.806   3.329
 9994SOL    HW130881   0.187   4.725   3.290
 9994SOL    HW230882   0.187   4.830   3.416
 9995SOL     OW30883   4.012   1.530   2.823
 9995SOL    HW130884   3.965   1.542   2.735
 9995SOL    HW230885   3.992   1.439   2.859
 9996SOL     OW30886   2.267   3.063   1.675
 9996SOL    HW130887   2.242   3.160   1.675
 9996SOL    HW230888   2.199   3.012   1.622
 9997SOL     OW30889   3.497   1.878   0.735
 9997SOL    HW130890   3.475   1.927   0.820
 9997SOL    HW230891   3.441   1.913   0.660
 9998SOL     OW30892   5.588   4.242   0.777
 9998SOL    HW130893   5.615   4.330   0.738
 9998SOL    HW230894   5.529   4.257   0.856
 9999SOL     OW30895   6.747   2.922   5.352
 9999SOL    HW130896   6.685   2.843   5.354
 9999SOL    HW230897   6.831   2.900   5.401
10000SOL     OW30898   6.828   3.703   0.089
10000SOL    HW130899   6.830   3.697   7.008
10000SOL    HW230900   6.754   3.646   0.125
10001SOL     OW30901   4.887   0.439   2.039
10001SOL    HW130902   4.790   0.459   2.034
10001SOL    HW230903   4.920   0.453   2.132
10002SOL     OW30904   1.600   0.489   2.081
10002SOL    HW130905   1.698   0.485   2.099
10002SOL    HW230906   1.577   0.427   2.006
10003SOL     OW30907   3.805   1.532   3.431
10003SOL    HW130908   3.874   1.605   3.426
10003SOL    HW230909   3.760   1.535   3.520
10004SOL     OW30910   5.485   2.523   3.808
10004SOL    HW130911   5.468   2.592   3.738
10004SOL    HW230912   5.417   2.533   3.881
10005SOL     OW30913   4.762   0.819   3.922
10005SOL    HW130914   4.818   0.823   4.005
10005SOL    HW230915   4.799   0.748   3.861
10006SOL     OW30916   5.177   0.137   4.515
10006SOL    HW130917   5.097   0.186   4.549
10006SOL    HW230918   5.194   0.058   4.574
10007SOL     OW30919   0.898   5.095   5.209
10007SOL    HW130920   0.964   5.100   5.285
10007SOL    HW230921   0.819   5.152   5.230
10008SOL     OW30922   4.372   1.231   4.534
10008SOL    HW130923   4.315   1.309   4.508
10008SOL    HW230924   4.457   1.264   4.575
10009SOL     OW30925   2.043   4.329   1.741
10009SOL    HW130926   1.988   4.332   1.658
10009SOL    HW230927   1.985   4.351   1.820
10010SOL     OW30928   1.799   0.630   5.818
10010SOL    HW130929   1.710   0.659   5.854
10010SOL    HW230930   1.811   0.667   5.726
10011SOL     OW30931   5.657   1.684   4.826
10011SOL    HW130932   5.566   1.699   4.787
10011SOL    HW230933   5.679   1.586   4.823
10012SOL     OW30934   4.946   0.998   3.217
10012SOL    HW130935   4.953   1.045   3.129
10012SOL    HW230936   4.947   0.899   3.202
10013SOL     OW30937   0.932   1.447   3.818
10013SOL    HW130938   0.853   1.443   3.758
10013SOL    HW230939   1.011   1.407   3.771
10014SOL     OW30940   6.825   4.082   0.491
10014SOL    HW130941   6.818   4.166   0.437
10014SOL    HW230942   6.735   4.040   0.499
10015SOL     OW30943   1.555   3.874   0.423
10015SOL    HW130944   1.461   3.904   0.439
10015SOL    HW230945   1.567   3.781   0.458
10016SOL     OW30946   1.703   1.068   6.453
10016SOL    HW130947   1.657   1.049   6.366
10016SOL    HW230948   1.640   1.052   6.528
10017SOL     OW30949   3.072   1.784   3.295
10017SOL    HW130950   3.021   1.858   3.339
10017SOL    HW230951   3.168   1.789   3.324
10018SOL     OW30952   4.213   6.459   5.696
10018SOL    HW130953   4.259   6.441   5.783
10018SOL    HW230954   4.116   6.437   5.703
10019SOL     OW30955   6.879   2.267   2.546
10019SOL    HW130956   6.926   2.180   2.536
10019SOL    HW230957   6.807   2.275   2.478
10020SOL     OW30958   1.475   2.313   1.798
10020SOL    HW130959   1.473   2.282   1.893
10020SOL    HW230960   1.542   2.260   1.747
10021SOL     OW30961   0.119   2.791   1.369
10021SOL    HW130962   0.110   2.691   1.376
10021SOL    HW230963   0.216   2.815   1.371
10022SOL     OW30964   2.908   0.660   6.198
10022SOL    HW130965   2.907   0.576   6.251
10022SOL    HW230966   2.940   0.736   6.255
10023SOL     OW30967   1.011   5.346   6.800
10023SOL    HW130968   1.006   5.307   6.891
10023SOL    HW230969   0.981   5.279   6.732
10024SOL     OW30970   1.713   6.476   2.138
10024SOL    HW130971   1.660   6.561   2.137
10024SOL    HW230972   1.738   6.451   2.044
10025SOL     OW30973   1.746   1.583   1.321
10025SOL    HW130974   1.733   1.508   1.387
10025SOL    HW230975   1.820   1.643   1.353
10026SOL     OW30976   5.688   6.483   3.567
10026SOL    HW130977   5.613   6.439   3.518
10026SOL    HW230978   5.671   6.476   3.666
10027SOL     OW30979   6.554   3.610   4.801
10027SOL    HW130980   6.486   3.553   4.848
10027SOL    HW230981   6.542   3.705   4.829
10028SOL     OW30982   1.805   1.197   1.743
10028SOL    HW130983   1.764   1.282   1.777
10028SOL    HW230984   1.765   1.173   1.655
10029SOL     OW30985   5.029   1.949   4.591
10029SOL    HW130986   4.994   1.953   4.497
10029SOL    HW230987   4.977   2.011   4.649
10030SOL     OW30988   2.757   6.945   3.453
10030SOL    HW130989   2.668   6.980   3.424
10030SOL    HW230990   2.746   6.854   3.493
10031SOL     OW30991   5.734   5.108   4.936
10031SOL    HW130992   5.769   5.150   5.020
10031SOL    HW230993   5.774   5.017   4.925
10032SOL     OW30994   2.152   1.635   5.262
10032SOL    HW130995   2.200   1.723   5.259
10032SOL    HW230996   2.119   1.613   5.170
10033SOL     OW30997   5.810   2.889   4.309
10033SOL    HW130998   5.732   2.884   4.247
10033SOL    HW230999   5.863   2.972   4.289
10034SOL     OW31000   3.547   0.456   3.951
10034SOL    HW131001   3.609   0.522   3.908
10034SOL    HW231002   3.453   0.491   3.947
10035SOL     OW31003   6.089   4.452   1.368
10035SOL    HW131004   6.154   4.472   1.441
10035SOL    HW231005   6.002   4.423   1.407
10036SOL     OW31006   6.183   2.290   1.344
10036SOL    HW131007   6.170   2.359   1.274
10036SOL    HW231008   6.104   2.228   1.345
10037SOL     OW31009   0.015   1.489   0.325
10037SOL    HW131010   0.027   1.538   0.411
10037SOL    HW231011   6.951   1.431   0.331
10038SOL     OW31012   5.486   0.430   0.218
10038SOL    HW131013   5.394   0.396   0.198
10038SOL    HW231014   5.497   0.522   0.181
10039SOL     OW31015   3.615   0.662   3.639
10039SOL    HW131016   3.692   0.681   3.700
10039SOL    HW231017   3.567   0.580   3.670
10040SOL     OW31018   5.222   5.021   6.538
10040SOL    HW131019   5.214   5.114   6.500
10040SOL    HW231020   5.295   5.019   6.606
10041SOL     OW31021   4.188   5.754   6.890
10041SOL    HW131022   4.235   5.827   6.840
10041SOL    HW231023   4.239   5.669   6.878
10042SOL     OW31024   0.631   2.268   4.108
10042SOL    HW131025   0.667   2.355   4.073
10042SOL    HW231026   0.537   2.281   4.138
10043SOL     OW31027   6.908   1.305   5.075
10043SOL    HW131028   6.811   1.323   5.067
10043SOL    HW231029   6.922   1.213   5.112
10044SOL     OW31030   1.983   2.301   4.531
10044SOL    HW131031   1.904   2.259   4.488
10044SOL    HW231032   1.981   2.284   4.630
10045SOL     OW31033   3.971   0.499   1.944
10045SOL    HW131034   3.994   0.425   2.006
10045SOL    HW231035   3.955   0.583   1.996
10046SOL     OW31036   2.011   3.612   0.693
10046SOL    HW131037   1.947   3.672   0.741
10046SOL    HW231038   1.970   3.581   0.607
10047SOL     OW31039   1.001   3.475   4.847
10047SOL    HW131040   1.036   3.491   4.755
10047SOL    HW231041   1.001   3.377   4.866
10048SOL     OW31042   0.520   6.455   2.706
10048SOL    HW131043   0.613   6.440   2.675
10048SOL    HW231044   0.512   6.428   2.802
10049SOL     OW31045   1.964   1.536   5.675
10049SOL    HW131046   1.909   1.611   5.639
10049SOL    HW231047   2.044   1.573   5.722
10050SOL     OW31048   5.354   4.109   5.187
10050SOL    HW131049   5.274   4.063   5.147
10050SOL    HW231050   5.427   4.113   5.120
10051SOL     OW31051   0.402   4.055   4.840
10051SOL    HW131052   0.438   3.990   4.772
10051SOL    HW231053   0.448   4.143   4.829
10052SOL     OW31054   2.183   1.304   3.484
10052SOL    HW131055   2.109   1.282   3.421
10052SOL    HW231056   2.230   1.219   3.511
10053SOL     OW31057   4.251   5.861   4.185
10053SOL    HW131058   4.191   5.804   4.129
10053SOL    HW231059   4.195   5.923   4.240
10054SOL     OW31060   6.112   4.733   5.286
10054SOL    HW131061   6.041   4.734   5.216
10054SOL    HW231062   6.153   4.642   5.290
10055SOL     OW31063   6.205   2.462   5.678
10055SOL    HW131064   6.201   2.536   5.611
10055SOL    HW231065   6.124   2.467   5.738
10056SOL     OW31066   5.369   4.715   3.468
10056SOL    HW131067   5.349   4.698   3.372
10056SOL    HW231068   5.300   4.776   3.506
10057SOL     OW31069   5.472   4.250   5.394
10057SOL    HW131070   5.439   4.212   5.307
10057SOL    HW231071   5.419   4.212   5.469
10058SOL     OW31072   6.719   3.391   4.898
10058SOL    HW131073   6.676   3.382   4.988
10058SOL    HW231074   6.672   3.463   4.847
10059SOL     OW31075   6.937   1.839   0.314
10059SOL    HW131076   0.003   1.870   0.270
10059SOL    HW231077   6.959   1.793   0.400
10060SOL     OW31078   2.339   2.124   3.161
10060SOL    HW131079   2.436   2.150   3.162
10060SOL    HW231080   2.297   2.157   3.077
10061SOL     OW31081   4.511   1.069   3.962
10061SOL    HW131082   4.549   1.031   3.877
10061SOL    HW231083   4.587   1.100   4.021
10062SOL     OW31084   6.621   6.921   4.291
10062SOL    HW131085   6.675   6.874   4.221
10062SOL    HW231086   6.589   6.855   4.359
10063SOL     OW31087   3.275   1.732   4.770
10063SOL    HW131088   3.232   1.729   4.680
10063SOL    HW231089   3.204   1.750   4.839
10064SOL     OW31090   4.299   5.892   6.422
10064SOL    HW131091   4.296   5.916   6.325
10064SOL    HW231092   4.238   5.952   6.473
10065SOL     OW31093   1.998   1.195   1.317
10065SOL    HW131094   2.011   1.259   1.241
10065SOL    HW231095   2.071   1.206   1.384
10066SOL     OW31096   0.324   2.463   4.788
10066SOL    HW131097   0.370   2.401   4.724
10066SOL    HW231098   0.227   2.440   4.793
10067SOL     OW31099   0.173   3.145   6.430
10067SOL    HW131100   0.145   3.088   6.352
10067SOL    HW231101   0.272   3.138   6.442
10068SOL     OW31102   1.173   3.828   3.644
10068SOL    HW131103   1.169   3.730   3.661
10068SOL    HW231104   1.159   3.877   3.730
10069SOL     OW31105   3.047   4.899   1.606
10069SOL    HW131106   3.073   4.938   1.517
10069SOL    HW231107   2.992   4.817   1.591
10070SOL     OW31108   0.576   4.934   5.269
10070SOL    HW131109   0.500   4.954   5.207
10070SOL    HW231110   0.645   5.005   5.259
10071SOL     OW31111   1.219   0.420   4.108
10071SOL    HW131112   1.152   0.475   4.060
10071SOL    HW231113   1.285   0.383   4.042
10072SOL     OW31114   0.642   1.191   3.262
10072SOL    HW131115   0.543   1.195   3.277
10072SOL    HW231116   0.669   1.097   3.246
10073SOL     OW31117   6.663   3.741   3.871
10073SOL    HW131118   6.671   3.782   3.780
10073SOL    HW231119   6.750   3.699   3.896
10074SOL     OW31120   1.642   5.892   0.571
10074SOL    HW131121   1.639   5.816   0.506
10074SOL    HW231122   1.683   5.972   0.527
10075SOL     OW31123   1.917   0.768   2.588
10075SOL    HW131124   1.821   0.746   2.570
10075SOL    HW231125   1.927   0.798   2.683
10076SOL     OW31126   4.953   5.576   3.039
10076SOL    HW131127   5.015   5.502   3.066
10076SOL    HW231128   4.978   5.610   2.948
10077SOL     OW31129   5.335   2.407   0.405
10077SOL    HW131130   5.387   2.429   0.488
10077SOL    HW231131   5.237   2.418   0.423
10078SOL     OW31132   0.907   6.290   4.707
10078SOL    HW131133   1.002   6.281   4.676
10078SOL    HW231134   0.857   6.350   4.644
10079SOL     OW31135   5.479   2.283   3.003
10079SOL    HW131136   5.572   2.293   3.037
10079SOL    HW231137   5.433   2.372   3.003
10080SOL     OW31138   4.946   0.810   6.397
10080SOL    HW131139   5.029   0.757   6.419
10080SOL    HW231140   4.957   0.854   6.308
10081SOL     OW31141   0.635   1.597   0.330
10081SOL    HW131142   0.622   1.616   0.233
10081SOL    HW231143   0.556   1.632   0.381
10082SOL     OW31144   1.325   5.324   3.618
10082SOL    HW131145   1.329   5.235   3.665
10082SOL    HW231146   1.375   5.392   3.671
10083SOL     OW31147   3.376   6.769   3.608
10083SOL    HW131148   3.390   6.734   3.701
10083SOL    HW231149   3.450   6.832   3.584
10084SOL     OW31150   6.788   6.949   4.971
10084SOL    HW131151   6.886   6.958   4.953
10084SOL    HW231152   6.751   6.875   4.914
10085SOL     OW31153   4.659   6.792   0.711
10085SOL    HW131154   4.582   6.738   0.744
10085SOL    HW231155   4.635   6.837   0.625
10086SOL     OW31156   6.063   6.158   3.230
10086SOL    HW131157   6.039   6.254   3.238
10086SOL    HW231158   6.087   6.122   3.321
10087SOL     OW31159   0.009   6.539   4.386
10087SOL    HW131160   6.982   6.626   4.366
10087SOL    HW231161   0.077   6.552   4.459
10088SOL     OW31162   6.827   0.809   0.285
10088SOL    HW131163   6.783   0.844   0.368
10088SOL    HW231164   6.806   0.712   0.275
10089SOL     OW31165   3.097   1.395   3.514
10089SOL    HW131166   3.183   1.443   3.497
10089SOL    HW231167   3.029   1.425   3.447
10090SOL     OW31168   0.551   4.501   2.349
10090SOL    HW131169   0.547   4.528   2.445
10090SOL    HW231170   0.509   4.411   2.337
10091SOL     OW31171   6.383   6.006   6.504
10091SOL    HW131172   6.385   6.076   6.575
10091SOL    HW231173   6.300   5.951   6.513
10092SOL     OW31174   1.601   3.076   5.344
10092SOL    HW131175   1.604   3.145   5.271
10092SOL    HW231176   1.643   2.991   5.313
10093SOL     OW31177   4.996   3.485   4.824
10093SOL    HW131178   4.944   3.400   4.830
10093SOL    HW231179   4.944   3.560   4.865
10094SOL     OW31180   2.423   6.490   0.827
10094SOL    HW131181   2.403   6.574   0.878
10094SOL    HW231182   2.428   6.413   0.890
10095SOL     OW31183   5.388   1.844   4.988
10095SOL    HW131184   5.439   1.926   4.962
10095SOL    HW231185   5.379   1.784   4.908
10096SOL     OW31186   5.134   1.045   2.546
10096SOL    HW131187   5.122   1.046   2.447
10096SOL    HW231188   5.229   1.020   2.568
10097SOL     OW31189   2.183   2.404   6.442
10097SOL    HW131190   2.259   2.396   6.378
10097SOL    HW231191   2.214   2.453   6.524
10098SOL     OW31192   2.818   5.686   4.608
10098SOL    HW131193   2.892   5.619   4.609
10098SOL    HW231194   2.750   5.661   4.539
10099SOL     OW31195   6.265   4.286   1.813
10099SOL    HW131196   6.349   4.311   1.862
10099SOL    HW231197   6.244   4.190   1.829
10100SOL     OW31198   5.484   4.963   5.411
10100SOL    HW131199   5.477   5.005   5.501
10100SOL    HW231200   5.580   4.964   5.381
10101SOL     OW31201   6.796   2.917   1.888
10101SOL    HW131202   6.766   2.832   1.845
10101SOL    HW231203   6.756   2.925   1.979
10102SOL     OW31204   5.719   0.405   0.725
10102SOL    HW131205   5.691   0.395   0.821
10102SOL    HW231206   5.816   0.430   0.722
10103SOL     OW31207   0.987   0.545   5.385
10103SOL    HW131208   1.007   0.449   5.402
10103SOL    HW231209   0.892   0.555   5.355
10104SOL     OW31210   2.286   0.791   6.154
10104SOL    HW131211   2.346   0.714   6.131
10104SOL    HW231212   2.300   0.865   6.088
10105SOL     OW31213   2.627   1.041   5.929
10105SOL    HW131214   2.649   0.956   5.977
10105SOL    HW231215   2.644   1.029   5.831
10106SOL     OW31216   4.470   6.014   1.589
10106SOL    HW131217   4.458   5.919   1.559
10106SOL    HW231218   4.563   6.027   1.623
10107SOL     OW31219   4.942   3.591   6.651
10107SOL    HW131220   4.884   3.636   6.583
10107SOL    HW231221   4.993   3.517   6.606
10108SOL     OW31222   1.373   2.484   0.916
10108SOL    HW131223   1.351   2.427   0.995
10108SOL    HW231224   1.441   2.438   0.859
10109SOL     OW31225   0.806   1.083   0.270
10109SOL    HW131226   0.750   1.163   0.289
10109SOL    HW231227   0.798   1.058   0.174
10110SOL     OW31228   4.532   5.117   2.757
10110SOL    HW131229   4.622   5.130   2.714
10110SOL    HW231230   4.479   5.201   2.750
10111SOL     OW31231   1.234   2.646   2.234
10111SOL    HW131232   1.185   2.717   2.184
10111SOL    HW231233   1.311   2.686   2.282
10112SOL     OW31234   6.736   3.705   2.978
10112SOL    HW131235   6.756   3.725   3.074
10112SOL    HW231236   6.659   3.760   2.947
10113SOL     OW31237   4.311   0.872   6.677
10113SOL    HW131238   4.368   0.797   6.641
10113SOL    HW231239   4.324   0.880   6.775
10114SOL     OW31240   3.876   2.147   3.010
10114SOL    HW131241   3.917   2.162   3.100
10114SOL    HW231242   3.929   2.196   2.941
10115SOL     OW31243   4.263   1.778   4.230
10115SOL    HW131244   4.347   1.794   4.178
10115SOL    HW231245   4.286   1.760   4.326
10116SOL     OW31246   5.729   0.095   5.514
10116SOL    HW131247   5.759   0.071   5.421
10116SOL    HW231248   5.648   0.153   5.508
10117SOL     OW31249   6.711   5.685   5.693
10117SOL    HW131250   6.742   5.600   5.735
10117SOL    HW231251   6.666   5.742   5.761
10118SOL     OW31252   2.881   4.799   4.299
10118SOL    HW131253   2.808   4.864   4.275
10118SOL    HW231254   2.854   4.707   4.272
10119SOL     OW31255   7.017   5.250   3.874
10119SOL    HW131256   6.985   5.207   3.790
10119SOL    HW231257   0.057   5.329   3.851
10120SOL     OW31258   1.394   2.866   2.603
10120SOL    HW131259   1.387   2.807   2.684
10120SOL    HW231260   1.474   2.926   2.613
10121SOL     OW31261   5.674   4.479   0.671
10121SOL    HW131262   5.716   4.470   0.761
10121SOL    HW231263   5.742   4.511   0.605
10122SOL     OW31264   6.069   2.238   3.272
10122SOL    HW131265   6.110   2.303   3.208
10122SOL    HW231266   6.092   2.263   3.366
10123SOL     OW31267   6.161   6.599   0.617
10123SOL    HW131268   6.171   6.600   0.517
10123SOL    HW231269   6.164   6.693   0.651
10124SOL     OW31270   1.158   5.135   2.554
10124SOL    HW131271   1.074   5.129   2.500
10124SOL    HW231272   1.135   5.155   2.649
10125SOL     OW31273   1.936   0.999   1.846
10125SOL    HW131274   2.035   1.002   1.856
10125SOL    HW231275   1.900   1.091   1.830
10126SOL     OW31276   6.191   0.007   5.966
10126SOL    HW131277   6.177   6.968   5.885
10126SOL    HW231278   6.122   0.079   5.969
10127SOL     OW31279   1.182   4.686   6.370
10127SOL    HW131280   1.157   4.717   6.462
10127SOL    HW231281   1.137   4.745   6.302
10128SOL     OW31282   2.849   0.597   0.107
10128SOL    HW131283   2.819   0.692   0.121
10128SOL    HW231284   2.798   0.557   0.031
10129SOL     OW31285   6.931   1.476   2.063
10129SOL    HW131286   6.901   1.381   2.074
10129SOL    HW231287   6.963   1.491   1.970
10130SOL     OW31288   1.169   2.293   1.550
10130SOL    HW131289   1.253   2.340   1.522
10130SOL    HW231290   1.143   2.322   1.642
10131SOL     OW31291   1.795   0.762   4.055
10131SOL    HW131292   1.866   0.827   4.027
10131SOL    HW231293   1.834   0.695   4.117
10132SOL     OW31294   0.378   0.028   2.561
10132SOL    HW131295   0.367   6.956   2.520
10132SOL    HW231296   0.302   0.045   2.624
10133SOL     OW31297   4.648   5.817   1.410
10133SOL    HW131298   4.663   5.720   1.427
10133SOL    HW231299   4.730   5.869   1.436
10134SOL     OW31300   0.116   0.916   2.760
10134SOL    HW131301   0.116   0.995   2.699
10134SOL    HW231302   0.151   0.835   2.711
10135SOL     OW31303   5.675   1.199   3.721
10135SOL    HW131304   5.608   1.196   3.647
10135SOL    HW231305   5.702   1.293   3.739
10136SOL     OW31306   4.959   2.661   2.654
10136SOL    HW131307   5.041   2.717   2.668
10136SOL    HW231308   4.880   2.721   2.640
10137SOL     OW31309   0.597   5.235   5.565
10137SOL    HW131310   0.507   5.249   5.526
10137SOL    HW231311   0.614   5.305   5.636
10138SOL     OW31312   5.982   1.747   6.763
10138SOL    HW131313   6.028   1.756   6.852
10138SOL    HW231314   6.016   1.665   6.716
10139SOL     OW31315   3.630   3.189   4.979
10139SOL    HW131316   3.550   3.247   4.959
10139SOL    HW231317   3.610   3.132   5.058
10140SOL     OW31318   6.540   6.489   5.771
10140SOL    HW131319   6.456   6.541   5.785
10140SOL    HW231320   6.546   6.462   5.675
10141SOL     OW31321   3.778   1.238   3.988
10141SOL    HW131322   3.786   1.333   4.018
10141SOL    HW231323   3.779   1.177   4.067
10142SOL     OW31324   5.958   6.310   4.658
10142SOL    HW131325   5.861   6.334   4.650
10142SOL    HW231326   5.996   6.353   4.741
10143SOL     OW31327   5.761   2.920   0.107
10143SOL    HW131328   5.840   2.891   0.052
10143SOL    HW231329   5.787   2.923   0.203
10144SOL     OW31330   4.168   6.757   5.263
10144SOL    HW131331   4.223   6.674   5.269
10144SOL    HW231332   4.107   6.763   5.342
10145SOL     OW31333   4.248   6.208   2.459
10145SOL    HW131334   4.186   6.149   2.510
10145SOL    HW231335   4.337   6.211   2.505
10146SOL     OW31336   0.062   4.114   4.395
10146SOL    HW131337   0.032   4.172   4.471
10146SOL    HW231338   7.001   4.092   4.337
10147SOL     OW31339   4.321   4.825   0.164
10147SOL    HW131340   4.227   4.834   0.199
10147SOL    HW231341   4.379   4.893   0.208
10148SOL     OW31342   0.207   5.127   1.094
10148SOL    HW131343   0.204   5.062   1.018
10148SOL    HW231344   0.162   5.212   1.067
10149SOL     OW31345   4.634   4.906   1.652
10149SOL    HW131346   4.662   4.899   1.556
10149SOL    HW231347   4.659   4.822   1.699
10150SOL     OW31348   4.861   3.734   1.706
10150SOL    HW131349   4.845   3.817   1.759
10150SOL    HW231350   4.876   3.658   1.768
10151SOL     OW31351   0.184   0.292   5.437
10151SOL    HW131352   0.092   0.330   5.434
10151SOL    HW231353   0.215   0.286   5.532
10152SOL     OW31354   5.824   6.012   3.182
10152SOL    HW131355   5.852   5.945   3.113
10152SOL    HW231356   5.897   6.078   3.195
10153SOL     OW31357   4.042   5.962   3.828
10153SOL    HW131358   4.138   5.980   3.848
10153SOL    HW231359   4.027   5.863   3.820
10154SOL     OW31360   4.031   4.854   5.638
10154SOL    HW131361   3.993   4.767   5.668
10154SOL    HW231362   4.071   4.844   5.547
10155SOL     OW31363   4.814   2.135   5.897
10155SOL    HW131364   4.871   2.090   5.966
10155SOL    HW231365   4.740   2.184   5.942
10156SOL     OW31366   4.370   0.361   1.360
10156SOL    HW131367   4.281   0.393   1.327
10156SOL    HW231368   4.410   0.431   1.420
10157SOL     OW31369   0.382   2.410   0.267
10157SOL    HW131370   0.433   2.323   0.264
10157SOL    HW231371   0.366   2.435   0.362
10158SOL     OW31372   5.687   6.805   2.583
10158SOL    HW131373   5.646   6.886   2.542
10158SOL    HW231374   5.691   6.732   2.514
10159SOL     OW31375   3.431   3.013   3.005
10159SOL    HW131376   3.414   2.956   3.086
10159SOL    HW231377   3.353   3.074   2.991
10160SOL     OW31378   1.801   4.225   2.505
10160SOL    HW131379   1.775   4.135   2.540
10160SOL    HW231380   1.734   4.293   2.533
10161SOL     OW31381   3.316   4.750   6.194
10161SOL    HW131382   3.404   4.737   6.147
10161SOL    HW231383   3.312   4.843   6.231
10162SOL     OW31384   1.751   4.604   1.594
10162SOL    HW131385   1.793   4.636   1.679
10162SOL    HW231386   1.804   4.528   1.558
10163SOL     OW31387   1.439   5.746   5.266
10163SOL    HW131388   1.436   5.807   5.345
10163SOL    HW231389   1.345   5.730   5.233
10164SOL     OW31390   6.269   3.297   3.557
10164SOL    HW131391   6.288   3.277   3.653
10164SOL    HW231392   6.172   3.317   3.545
10165SOL     OW31393   5.529   3.020   3.680
10165SOL    HW131394   5.470   3.023   3.761
10165SOL    HW231395   5.618   2.982   3.705
10166SOL     OW31396   1.558   2.408   1.288
10166SOL    HW131397   1.600   2.453   1.210
10166SOL    HW231398   1.550   2.310   1.270
10167SOL     OW31399   0.488   4.835   6.495
10167SOL    HW131400   0.539   4.774   6.433
10167SOL    HW231401   0.553   4.895   6.542
10168SOL     OW31402   6.076   1.518   6.443
10168SOL    HW131403   5.986   1.477   6.455
10168SOL    HW231404   6.129   1.508   6.528
10169SOL     OW31405   0.376   3.605   3.223
10169SOL    HW131406   0.276   3.602   3.226
10169SOL    HW231407   0.405   3.698   3.198
10170SOL     OW31408   6.439   5.485   7.016
10170SOL    HW131409   6.393   5.478   6.927
10170SOL    HW231410   6.410   5.569   0.044
10171SOL     OW31411   1.332   2.880   5.636
10171SOL    HW131412   1.240   2.862   5.669
10171SOL    HW231413   1.354   2.976   5.650
10172SOL     OW31414   6.884   6.925   3.557
10172SOL    HW131415   6.906   0.003   3.537
10172SOL    HW231416   6.847   6.881   3.475
10173SOL     OW31417   3.681   4.819   0.403
10173SOL    HW131418   3.745   4.842   0.477
10173SOL    HW231419   3.587   4.831   0.436
10174SOL     OW31420   5.324   6.507   3.222
10174SOL    HW131421   5.287   6.487   3.313
10174SOL    HW231422   5.375   6.593   3.225
10175SOL     OW31423   6.629   1.930   3.093
10175SOL    HW131424   6.595   1.849   3.141
10175SOL    HW231425   6.555   1.997   3.084
10176SOL     OW31426   6.187   3.197   5.928
10176SOL    HW131427   6.285   3.203   5.910
10176SOL    HW231428   6.170   3.130   6.001
10177SOL     OW31429   2.173   0.371   1.250
10177SOL    HW131430   2.248   0.306   1.242
10177SOL    HW231431   2.087   0.321   1.262
10178SOL     OW31432   1.759   0.805   0.842
10178SOL    HW131433   1.786   0.767   0.930
10178SOL    HW231434   1.822   0.878   0.816
10179SOL     OW31435   0.193   4.283   0.172
10179SOL    HW131436   0.190   4.313   0.076
10179SOL    HW231437   0.191   4.183   0.175
10180SOL     OW31438   4.658   6.883   0.047
10180SOL    HW131439   4.623   6.969   0.084
10180SOL    HW231440   4.716   6.839   0.116
10181SOL     OW31441   6.335   3.305   1.309
10181SOL    HW131442   6.317   3.214   1.346
10181SOL    HW231443   6.317   3.305   1.210
10182SOL     OW31444   5.739   1.385   0.378
10182SOL    HW131445   5.719   1.439   0.460
10182SOL    HW231446   5.781   1.298   0.405
10183SOL     OW31447   6.224   2.950   6.244
10183SOL    HW131448   6.212   2.874   6.180
10183SOL    HW231449   6.202   2.919   6.336
10184SOL     OW31450   5.724   2.745   6.651
10184SOL    HW131451   5.705   2.744   6.553
10184SOL    HW231452   5.822   2.757   6.666
10185SOL     OW31453   4.415   5.972   2.768
10185SOL    HW131454   4.510   5.980   2.736
10185SOL    HW231455   4.353   5.977   2.690
10186SOL     OW31456   4.775   3.622   5.468
10186SOL    HW131457   4.743   3.709   5.433
10186SOL    HW231458   4.700   3.556   5.470
10187SOL     OW31459   2.166   3.993   5.568
10187SOL    HW131460   2.195   4.041   5.486
10187SOL    HW231461   2.185   3.895   5.558
10188SOL     OW31462   2.698   6.337   0.313
10188SOL    HW131463   2.696   6.422   0.366
10188SOL    HW231464   2.605   6.314   0.284
10189SOL     OW31465   1.583   0.910   0.118
10189SOL    HW131466   1.616   0.951   0.203
10189SOL    HW231467   1.490   0.941   0.100
10190SOL     OW31468   3.269   3.978   1.236
10190SOL    HW131469   3.246   3.886   1.267
10190SOL    HW231470   3.185   4.027   1.211
10191SOL     OW31471   6.215   5.412   1.068
10191SOL    HW131472   6.284   5.445   1.004
10191SOL    HW231473   6.123   5.427   1.030
10192SOL     OW31474   2.094   1.598   5.000
10192SOL    HW131475   2.054   1.667   4.939
10192SOL    HW231476   2.183   1.570   4.964
10193SOL     OW31477   3.681   3.645   2.084
10193SOL    HW131478   3.723   3.669   2.172
10193SOL    HW231479   3.676   3.545   2.076
10194SOL     OW31480   3.039   0.288   4.867
10194SOL    HW131481   2.971   0.342   4.916
10194SOL    HW231482   3.052   0.200   4.914
10195SOL     OW31483   5.897   0.038   1.888
10195SOL    HW131484   5.806   0.077   1.875
10195SOL    HW231485   5.958   0.072   1.816
10196SOL     OW31486   5.421   2.530   3.361
10196SOL    HW131487   5.484   2.535   3.438
10196SOL    HW231488   5.411   2.434   3.333
10197SOL     OW31489   5.927   0.318   3.391
10197SOL    HW131490   5.949   0.414   3.376
10197SOL    HW231491   5.903   0.303   3.487
10198SOL     OW31492   3.769   6.171   1.015
10198SOL    HW131493   3.719   6.250   1.050
10198SOL    HW231494   3.838   6.202   0.949
10199SOL     OW31495   0.923   1.399   0.238
10199SOL    HW131496   0.930   1.495   0.265
10199SOL    HW231497   0.861   1.391   0.160
10200SOL     OW31498   5.405   3.332   5.758
10200SOL    HW131499   5.432   3.246   5.716
10200SOL    HW231500   5.312   3.324   5.795
10201SOL     OW31501   0.259   5.713   1.749
10201SOL    HW131502   0.305   5.801   1.734
10201SOL    HW231503   0.241   5.669   1.661
10202SOL     OW31504   0.839   3.858   1.303
10202SOL    HW131505   0.748   3.852   1.345
10202SOL    HW231506   0.831   3.844   1.204
10203SOL     OW31507   1.687   2.694   2.734
10203SOL    HW131508   1.686   2.724   2.639
10203SOL    HW231509   1.779   2.662   2.758
10204SOL     OW31510   3.298   4.439   6.299
10204SOL    HW131511   3.288   4.538   6.299
10204SOL    HW231512   3.376   4.413   6.356
10205SOL     OW31513   4.247   1.419   3.145
10205SOL    HW131514   4.336   1.466   3.146
10205SOL    HW231515   4.232   1.375   3.233
10206SOL     OW31516   4.983   5.920   5.807
10206SOL    HW131517   5.039   5.986   5.758
10206SOL    HW231518   4.901   5.899   5.754
10207SOL     OW31519   1.801   0.429   1.368
10207SOL    HW131520   1.719   0.431   1.424
10207SOL    HW231521   1.775   0.429   1.271
10208SOL     OW31522   6.314   5.538   5.513
10208SOL    HW131523   6.349   5.630   5.498
10208SOL    HW231524   6.372   5.491   5.580
10209SOL     OW31525   0.061   0.995   6.092
10209SOL    HW131526   0.007   1.079   6.089
10209SOL    HW231527   0.009   0.920   6.052
10210SOL     OW31528   5.458   6.502   1.469
10210SOL    HW131529   5.400   6.574   1.507
10210SOL    HW231530   5.507   6.536   1.389
10211SOL     OW31531   3.593   6.613   5.740
10211SOL    HW131532   3.520   6.627   5.673
10211SOL    HW231533   3.625   6.519   5.736
10212SOL     OW31534   0.676   1.070   4.187
10212SOL    HW131535   0.635   1.060   4.096
10212SOL    HW231536   0.746   1.000   4.200
10213SOL     OW31537   6.102   1.533   2.306
10213SOL    HW131538   6.099   1.479   2.390
10213SOL    HW231539   6.190   1.580   2.299
10214SOL     OW31540   0.406   0.916   2.583
10214SOL    HW131541   0.368   0.864   2.660
10214SOL    HW231542   0.371   0.879   2.497
10215SOL     OW31543   3.093   2.907   5.234
10215SOL    HW131544   3.152   2.881   5.158
10215SOL    HW231545   3.115   3.000   5.263
10216SOL     OW31546   6.914   6.776   0.967
10216SOL    HW131547   6.934   6.775   0.869
10216SOL    HW231548   6.917   6.870   1.001
10217SOL     OW31549   2.501   1.420   4.500
10217SOL    HW131550   2.425   1.370   4.459
10217SOL    HW231551   2.560   1.357   4.551
10218SOL     OW31552   1.004   1.142   1.342
10218SOL    HW131553   1.044   1.167   1.254
10218SOL    HW231554   1.015   1.218   1.406
10219SOL     OW31555   0.234   2.538   2.737
10219SOL    HW131556   0.250   2.504   2.830
10219SOL    HW231557   0.136   2.531   2.716
10220SOL     OW31558   4.144   1.744   1.711
10220SOL    HW131559   4.186   1.665   1.756
10220SOL    HW231560   4.214   1.796   1.663
10221SOL     OW31561   1.335   2.157   3.993
10221SOL    HW131562   1.283   2.113   3.919
10221SOL    HW231563   1.339   2.256   3.976
10222SOL     OW31564   1.355   3.869   5.427
10222SOL    HW131565   1.424   3.925   5.381
10222SOL    HW231566   1.313   3.806   5.362
10223SOL     OW31567   2.030   5.329   6.269
10223SOL    HW131568   2.073   5.331   6.359
10223SOL    HW231569   1.988   5.239   6.254
10224SOL     OW31570   0.967   1.042   4.351
10224SOL    HW131571   0.997   1.054   4.256
10224SOL    HW231572   0.926   0.952   4.362
10225SOL     OW31573   1.191   6.164   5.307
10225SOL    HW131574   1.195   6.213   5.394
10225SOL    HW231575   1.153   6.223   5.237
10226SOL     OW31576   2.699   0.454   6.936
10226SOL    HW131577   2.626   0.445   7.004
10226SOL    HW231578   2.661   0.437   6.845
10227SOL     OW31579   4.635   5.049   0.894
10227SOL    HW131580   4.708   4.981   0.889
10227SOL    HW231581   4.667   5.129   0.945
10228SOL     OW31582   0.474   4.703   1.907
10228SOL    HW131583   0.441   4.698   2.001
10228SOL    HW231584   0.467   4.797   1.874
10229SOL     OW31585   1.252   1.124   3.985
10229SOL    HW131586   1.170   1.083   4.025
10229SOL    HW231587   1.319   1.141   4.057
10230SOL     OW31588   6.965   0.740   3.561
10230SOL    HW131589   6.983   0.837   3.580
10230SOL    HW231590   0.009   0.708   3.489
10231SOL     OW31591   6.536   6.843   5.660
10231SOL    HW131592   6.569   6.930   5.624
10231SOL    HW231593   6.517   6.780   5.584
10232SOL     OW31594   3.796   0.956   4.439
10232SOL    HW131595   3.845   0.948   4.526
10232SOL    HW231596   3.826   0.882   4.378
10233SOL     OW31597   5.236   2.882   5.353
10233SOL    HW131598   5.225   2.833   5.439
10233SOL    HW231599   5.249   2.980   5.372
10234SOL     OW31600   5.231   0.341   0.899
10234SOL    HW131601   5.297   0.281   0.945
10234SOL    HW231602   5.221   0.426   0.950
10235SOL     OW31603   4.807   1.135   0.378
10235SOL    HW131604   4.786   1.206   0.311
10235SOL    HW231605   4.767   1.048   0.349
10236SOL     OW31606   1.823   6.387   1.906
10236SOL    HW131607   1.854   6.304   1.952
10236SOL    HW231608   1.741   6.368   1.853
10237SOL     OW31609   6.289   4.316   0.876
10237SOL    HW131610   6.328   4.225   0.864
10237SOL    HW231611   6.354   4.385   0.845
10238SOL     OW31612   3.466   4.010   4.605
10238SOL    HW131613   3.537   4.057   4.658
10238SOL    HW231614   3.470   3.912   4.622
10239SOL     OW31615   1.415   4.326   4.835
10239SOL    HW131616   1.483   4.259   4.864
10239SOL    HW231617   1.459   4.398   4.783
10240SOL     OW31618   1.476   4.780   2.682
10240SOL    HW131619   1.563   4.734   2.660
10240SOL    HW231620   1.487   4.879   2.669
10241SOL     OW31621   0.210   0.704   1.475
10241SOL    HW131622   0.116   0.698   1.508
10241SOL    HW231623   0.215   0.666   1.382
10242SOL     OW31624   0.145   2.401   6.465
10242SOL    HW131625   0.219   2.466   6.482
10242SOL    HW231626   0.062   2.452   6.438
10243SOL     OW31627   0.045   5.245   1.402
10243SOL    HW131628   0.037   5.227   1.304
10243SOL    HW231629   0.014   5.339   1.421
10244SOL     OW31630   1.459   4.725   0.183
10244SOL    HW131631   1.456   4.787   0.262
10244SOL    HW231632   1.531   4.657   0.197
10245SOL     OW31633   1.911   3.917   0.258
10245SOL    HW131634   1.878   3.822   0.251
10245SOL    HW231635   1.931   3.951   0.166
10246SOL     OW31636   3.004   3.397   4.458
10246SOL    HW131637   2.954   3.349   4.530
10246SOL    HW231638   3.095   3.421   4.490
10247SOL     OW31639   0.922   5.313   5.053
10247SOL    HW131640   0.914   5.222   5.094
10247SOL    HW231641   1.015   5.326   5.018
10248SOL     OW31642   3.337   0.045   1.917
10248SOL    HW131643   3.248   0.055   1.961
10248SOL    HW231644   3.380   6.978   1.948
10249SOL     OW31645   2.547   0.983   6.403
10249SOL    HW131646   2.496   0.898   6.412
10249SOL    HW231647   2.501   1.043   6.338
10250SOL     OW31648   0.328   1.905   1.043
10250SOL    HW131649   0.238   1.941   1.067
10250SOL    HW231650   0.386   1.901   1.124
10251SOL     OW31651   1.870   2.902   5.479
10251SOL    HW131652   1.855   2.842   5.401
10251SOL    HW231653   1.968   2.909   5.498
10252SOL     OW31654   6.718   6.337   0.607
10252SOL    HW131655   6.618   6.339   0.619
10252SOL    HW231656   6.748   6.421   0.562
10253SOL     OW31657   4.700   5.581   7.013
10253SOL    HW131658   4.735   5.658   0.048
10253SOL    HW231659   4.745   5.497   0.025
10254SOL     OW31660   3.892   2.183   5.012
10254SOL    HW131661   3.986   2.166   4.984
10254SOL    HW231662   3.832   2.178   4.932
10255SOL     OW31663   2.390   5.595   1.442
10255SOL    HW131664   2.361   5.555   1.355
10255SOL    HW231665   2.339   5.679   1.458
10256SOL     OW31666   5.759   6.713   1.565
10256SOL    HW131667   5.796   6.796   1.524
10256SOL    HW231668   5.699   6.668   1.499
10257SOL     OW31669   1.289   4.430   5.114
10257SOL    HW131670   1.284   4.529   5.099
10257SOL    HW231671   1.336   4.388   5.036
10258SOL     OW31672   4.890   0.307   3.817
10258SOL    HW131673   4.988   0.299   3.835
10258SOL    HW231674   4.868   0.267   3.728
10259SOL     OW31675   0.743   5.601   3.428
10259SOL    HW131676   0.733   5.509   3.466
10259SOL    HW231677   0.653   5.645   3.422
10260SOL     OW31678   6.892   0.343   3.112
10260SOL    HW131679   6.917   0.316   3.019
10260SOL    HW231680   6.961   0.404   3.149
10261SOL     OW31681   6.882   6.486   1.887
10261SOL    HW131682   6.969   6.438   1.875
10261SOL    HW231683   6.892   6.581   1.858
10262SOL     OW31684   2.817   5.715   4.938
10262SOL    HW131685   2.916   5.698   4.940
10262SOL    HW231686   2.775   5.660   4.866
10263SOL     OW31687   4.714   1.088   6.699
10263SOL    HW131688   4.744   1.080   6.604
10263SOL    HW231689   4.789   1.125   6.755
10264SOL     OW31690   6.154   1.527   6.730
10264SOL    HW131691   6.089   1.455   6.755
10264SOL    HW231692   6.229   1.529   6.796
10265SOL     OW31693   3.295   2.121   3.132
10265SOL    HW131694   3.263   2.045   3.074
10265SOL    HW231695   3.379   2.159   3.094
10266SOL     OW31696   3.495   2.816   5.020
10266SOL    HW131697   3.402   2.839   4.991
10266SOL    HW231698   3.515   2.861   5.107
10267SOL     OW31699   6.445   1.907   6.674
10267SOL    HW131700   6.374   1.962   6.631
10267SOL    HW231701   6.517   1.966   6.710
10268SOL     OW31702   4.566   6.576   1.976
10268SOL    HW131703   4.479   6.625   1.966
10268SOL    HW231704   4.629   6.632   2.029
10269SOL     OW31705   1.786   1.804   5.616
10269SOL    HW131706   1.721   1.728   5.609
10269SOL    HW231707   1.812   1.816   5.712
10270SOL     OW31708   2.140   5.777   2.564
10270SOL    HW131709   2.231   5.796   2.530
10270SOL    HW231710   2.074   5.778   2.488
10271SOL     OW31711   3.394   2.924   0.488
10271SOL    HW131712   3.332   2.876   0.427
10271SOL    HW231713   3.342   2.975   0.556
10272SOL     OW31714   1.210   0.788   4.597
10272SOL    HW131715   1.218   0.797   4.498
10272SOL    HW231716   1.297   0.812   4.640
10273SOL     OW31717   3.952   5.940   3.545
10273SOL    HW131718   3.966   5.990   3.631
10273SOL    HW231719   4.005   5.983   3.472
10274SOL     OW31720   1.499   4.466   5.951
10274SOL    HW131721   1.520   4.547   5.896
10274SOL    HW231722   1.523   4.384   5.901
10275SOL     OW31723   1.482   0.253   1.998
10275SOL    HW131724   1.467   0.225   2.093
10275SOL    HW231725   1.570   0.218   1.966
10276SOL     OW31726   6.623   5.580   6.458
10276SOL    HW131727   6.536   5.621   6.429
10276SOL    HW231728   6.608   5.527   6.542
10277SOL     OW31729   2.526   6.642   3.694
10277SOL    HW131730   2.464   6.645   3.616
10277SOL    HW231731   2.484   6.590   3.768
10278SOL     OW31732   5.648   0.895   5.410
10278SOL    HW131733   5.705   0.941   5.478
10278SOL    HW231734   5.706   0.850   5.342
10279SOL     OW31735   2.837   0.202   4.087
10279SOL    HW131736   2.815   0.108   4.111
10279SOL    HW231737   2.754   0.258   4.091
10280SOL     OW31738   2.571   4.337   1.036
10280SOL    HW131739   2.516   4.273   0.983
10280SOL    HW231740   2.578   4.304   1.131
10281SOL     OW31741   5.818   2.620   2.462
10281SOL    HW131742   5.833   2.702   2.517
10281SOL    HW231743   5.771   2.551   2.517
10282SOL     OW31744   6.735   3.570   4.162
10282SOL    HW131745   6.641   3.545   4.187
10282SOL    HW231746   6.790   3.576   4.245
10283SOL     OW31747   1.057   2.876   1.219
10283SOL    HW131748   1.156   2.882   1.211
10283SOL    HW231749   1.015   2.961   1.186
10284SOL     OW31750   4.949   4.739   6.185
10284SOL    HW131751   5.011   4.816   6.173
10284SOL    HW231752   4.950   4.683   6.102
10285SOL     OW31753   4.698   6.900   0.982
10285SOL    HW131754   4.612   6.879   1.028
10285SOL    HW231755   4.697   6.861   0.889
10286SOL     OW31756   3.517   1.844   3.900
10286SOL    HW131757   3.422   1.825   3.874
10286SOL    HW231758   3.549   1.774   3.963
10287SOL     OW31759   1.645   6.756   2.089
10287SOL    HW131760   1.702   6.832   2.120
10287SOL    HW231761   1.661   6.739   1.992
10288SOL     OW31762   4.821   6.437   2.576
10288SOL    HW131763   4.843   6.409   2.482
10288SOL    HW231764   4.770   6.365   2.622
10289SOL     OW31765   3.539   0.690   1.882
10289SOL    HW131766   3.509   0.753   1.810
10289SOL    HW231767   3.576   0.743   1.958
10290SOL     OW31768   3.654   4.104   2.757
10290SOL    HW131769   3.681   4.193   2.793
10290SOL    HW231770   3.569   4.075   2.802
10291SOL     OW31771   4.107   0.266   4.168
10291SOL    HW131772   4.141   0.319   4.245
10291SOL    HW231773   4.150   0.176   4.168
10292SOL     OW31774   1.237   1.704   4.579
10292SOL    HW131775   1.271   1.610   4.583
10292SOL    HW231776   1.190   1.718   4.492
10293SOL     OW31777   1.857   6.100   2.626
10293SOL    HW131778   1.858   6.003   2.650
10293SOL    HW231779   1.925   6.149   2.681
10294SOL     OW31780   5.010   3.547   3.286
10294SOL    HW131781   5.106   3.543   3.315
10294SOL    HW231782   4.961   3.467   3.321
10295SOL     OW31783   6.167   4.820   5.820
10295SOL    HW131784   6.097   4.766   5.867
10295SOL    HW231785   6.148   4.820   5.722
10296SOL     OW31786   5.099   4.395   6.556
10296SOL    HW131787   5.053   4.476   6.593
10296SOL    HW231788   5.031   4.332   6.519
10297SOL     OW31789   2.714   6.536   4.472
10297SOL    HW131790   2.754   6.502   4.387
10297SOL    HW231791   2.634   6.481   4.496
10298SOL     OW31792   4.135   4.718   2.928
10298SOL    HW131793   4.149   4.760   2.838
10298SOL    HW231794   4.213   4.738   2.987
10299SOL     OW31795   4.234   4.762   2.677
10299SOL    HW131796   4.304   4.757   2.606
10299SOL    HW231797   4.146   4.785   2.636
10300SOL     OW31798   1.492   4.695   2.097
10300SOL    HW131799   1.518   4.773   2.041
10300SOL    HW231800   1.454   4.622   2.039
10301SOL     OW31801   5.714   2.122   2.380
10301SOL    HW131802   5.679   2.140   2.288
10301SOL    HW231803   5.785   2.052   2.375
10302SOL     OW31804   1.340   6.003   3.650
10302SOL    HW131805   1.427   6.028   3.607
10302SOL    HW231806   1.273   5.983   3.579
10303SOL     OW31807   3.600   4.900   1.124
10303SOL    HW131808   3.629   4.894   1.220
10303SOL    HW231809   3.665   4.851   1.066
10304SOL     OW31810   5.877   0.896   3.258
10304SOL    HW131811   5.909   0.988   3.279
10304SOL    HW231812   5.792   0.878   3.308
10305SOL     OW31813   0.911   5.760   6.431
10305SOL    HW131814   0.912   5.698   6.510
10305SOL    HW231815   1.005   5.770   6.397
10306SOL     OW31816   4.651   5.609   6.248
10306SOL    HW131817   4.626   5.528   6.194
10306SOL    HW231818   4.619   5.597   6.342
10307SOL     OW31819   2.306   1.848   5.197
10307SOL    HW131820   2.270   1.893   5.115
10307SOL    HW231821   2.384   1.791   5.172
10308SOL     OW31822   3.121   4.909   4.438
10308SOL    HW131823   3.054   4.861   4.381
10308SOL    HW231824   3.082   4.923   4.529
10309SOL     OW31825   6.469   0.467   3.900
10309SOL    HW131826   6.384   0.441   3.854
10309SOL    HW231827   6.545   0.419   3.857
10310SOL     OW31828   3.117   3.678   1.228
10310SOL    HW131829   3.067   3.752   1.183
10310SOL    HW231830   3.054   3.603   1.248
10311SOL     OW31831   0.376   5.704   1.271
10311SOL    HW131832   0.447   5.772   1.254
10311SOL    HW231833   0.404   5.616   1.231
10312SOL     OW31834   3.652   5.707   1.556
10312SOL    HW131835   3.750   5.699   1.538
10312SOL    HW231836   3.633   5.672   1.648
10313SOL     OW31837   4.066   6.659   2.471
10313SOL    HW131838   4.060   6.738   2.531
10313SOL    HW231839   4.000   6.589   2.500
10314SOL     OW31840   5.757   0.678   1.547
10314SOL    HW131841   5.791   0.768   1.573
10314SOL    HW231842   5.818   0.637   1.480
10315SOL     OW31843   6.693   6.427   4.437
10315SOL    HW131844   6.763   6.372   4.483
10315SOL    HW231845   6.659   6.378   4.357
10316SOL     OW31846   6.853   2.966   4.337
10316SOL    HW131847   6.763   2.970   4.380
10316SOL    HW231848   6.900   3.054   4.350
10317SOL     OW31849   3.658   4.851   6.526
10317SOL    HW131850   3.673   4.802   6.440
10317SOL    HW231851   3.722   4.928   6.531
10318SOL     OW31852   6.252   5.710   1.399
10318SOL    HW131853   6.238   5.809   1.399
10318SOL    HW231854   6.316   5.686   1.326
10319SOL     OW31855   0.831   4.340   4.781
10319SOL    HW131856   0.900   4.363   4.712
10319SOL    HW231857   0.877   4.316   4.867
10320SOL     OW31858   0.830   0.686   0.867
10320SOL    HW131859   0.848   0.697   0.964
10320SOL    HW231860   0.799   0.592   0.849
10321SOL     OW31861   4.023   6.841   4.573
10321SOL    HW131862   3.961   6.764   4.559
10321SOL    HW231863   4.002   6.885   4.661
10322SOL     OW31864   6.569   5.678   0.458
10322SOL    HW131865   6.581   5.714   0.551
10322SOL    HW231866   6.653   5.693   0.405
10323SOL     OW31867   6.673   3.555   6.702
10323SOL    HW131868   6.699   3.460   6.713
10323SOL    HW231869   6.608   3.564   6.626
10324SOL     OW31870   3.323   3.375   3.453
10324SOL    HW131871   3.340   3.403   3.359
10324SOL    HW231872   3.384   3.299   3.477
10325SOL     OW31873   6.609   4.610   4.506
10325SOL    HW131874   6.520   4.656   4.503
10325SOL    HW231875   6.674   4.666   4.557
10326SOL     OW31876   4.978   2.933   6.819
10326SOL    HW131877   4.943   2.986   6.896
10326SOL    HW231878   5.010   2.996   6.748
10327SOL     OW31879   2.412   1.441   2.889
10327SOL    HW131880   2.493   1.478   2.935
10327SOL    HW231881   2.360   1.516   2.848
10328SOL     OW31882   5.846   3.973   1.708
10328SOL    HW131883   5.833   3.907   1.633
10328SOL    HW231884   5.871   3.923   1.791
10329SOL     OW31885   2.563   0.387   4.441
10329SOL    HW131886   2.548   0.377   4.539
10329SOL    HW231887   2.655   0.422   4.424
10330SOL     OW31888   3.618   5.127   3.219
10330SOL    HW131889   3.527   5.167   3.217
10330SOL    HW231890   3.675   5.172   3.150
10331SOL     OW31891   5.695   1.007   3.003
10331SOL    HW131892   5.700   1.005   2.903
10331SOL    HW231893   5.777   0.966   3.041
10332SOL     OW31894   0.149   2.102   0.520
10332SOL    HW131895   0.113   2.195   0.528
10332SOL    HW231896   0.160   2.079   0.424
10333SOL     OW31897   5.912   4.370   4.137
10333SOL    HW131898   5.941   4.275   4.131
10333SOL    HW231899   5.816   4.378   4.110
10334SOL     OW31900   2.289   5.525   3.835
10334SOL    HW131901   2.341   5.489   3.757
10334SOL    HW231902   2.353   5.555   3.906
10335SOL     OW31903   1.878   4.610   6.733
10335SOL    HW131904   1.848   4.610   6.829
10335SOL    HW231905   1.800   4.590   6.674
10336SOL     OW31906   4.779   6.258   2.860
10336SOL    HW131907   4.879   6.263   2.871
10336SOL    HW231908   4.736   6.334   2.908
10337SOL     OW31909   6.718   5.236   5.230
10337SOL    HW131910   6.796   5.184   5.196
10337SOL    HW231911   6.724   5.330   5.196
10338SOL     OW31912   3.420   6.500   0.884
10338SOL    HW131913   3.439   6.475   0.789
10338SOL    HW231914   3.324   6.481   0.905
10339SOL     OW31915   3.696   5.107   0.981
10339SOL    HW131916   3.657   5.057   1.059
10339SOL    HW231917   3.653   5.197   0.974
10340SOL     OW31918   1.510   5.474   6.919
10340SOL    HW131919   1.445   5.478   6.843
10340SOL    HW231920   1.462   5.444   7.002
10341SOL     OW31921   2.240   2.771   2.021
10341SOL    HW131922   2.226   2.675   1.997
10341SOL    HW231923   2.297   2.814   1.951
10342SOL     OW31924   1.981   6.064   6.128
10342SOL    HW131925   1.943   5.984   6.083
10342SOL    HW231926   2.009   6.040   6.221
10343SOL     OW31927   2.023   3.954   0.019
10343SOL    HW131928   2.114   3.913   0.025
10343SOL    HW231929   2.030   4.046   6.999
10344SOL     OW31930   4.028   3.687   3.770
10344SOL    HW131931   3.959   3.735   3.824
10344SOL    HW231932   3.998   3.680   3.675
10345SOL     OW31933   2.006   1.368   6.700
10345SOL    HW131934   1.989   1.278   6.658
10345SOL    HW231935   1.945   1.380   6.778
10346SOL     OW31936   5.885   0.084   1.067
10346SOL    HW131937   5.909   0.100   0.971
10346SOL    HW231938   5.930   0.001   1.100
10347SOL     OW31939   5.074   1.531   0.753
10347SOL    HW131940   5.067   1.624   0.789
10347SOL    HW231941   4.998   1.513   0.690
10348SOL     OW31942   6.624   0.480   6.280
10348SOL    HW131943   6.679   0.409   6.235
10348SOL    HW231944   6.654   0.490   6.375
10349SOL     OW31945   5.967   0.350   1.066
10349SOL    HW131946   5.919   0.262   1.075
10349SOL    HW231947   6.065   0.336   1.083
10350SOL     OW31948   3.723   6.148   4.580
10350SOL    HW131949   3.630   6.119   4.556
10350SOL    HW231950   3.783   6.068   4.582
10351SOL     OW31951   6.091   4.804   5.556
10351SOL    HW131952   6.095   4.814   5.456
10351SOL    HW231953   6.045   4.883   5.596
10352SOL     OW31954   5.233   2.552   6.493
10352SOL    HW131955   5.197   2.475   6.439
10352SOL    HW231956   5.159   2.617   6.511
10353SOL     OW31957   0.047   2.967   3.582
10353SOL    HW131958   0.011   2.880   3.617
10353SOL    HW231959   0.100   2.950   3.499
10354SOL     OW31960   1.317   4.380   1.393
10354SOL    HW131961   1.339   4.350   1.485
10354SOL    HW231962   1.218   4.379   1.380
10355SOL     OW31963   1.322   1.300   1.307
10355SOL    HW131964   1.328   1.220   1.366
10355SOL    HW231965   1.412   1.320   1.268
10356SOL     OW31966   0.539   3.295   6.985
10356SOL    HW131967   0.576   3.205   7.007
10356SOL    HW231968   0.443   3.300   7.013
10357SOL     OW31969   2.158   2.395   6.003
10357SOL    HW131970   2.095   2.457   5.955
10357SOL    HW231971   2.237   2.378   5.945
10358SOL     OW31972   1.776   3.328   2.744
10358SOL    HW131973   1.783   3.404   2.809
10358SOL    HW231974   1.686   3.329   2.701
10359SOL     OW31975   4.736   2.731   2.118
10359SOL    HW131976   4.742   2.688   2.027
10359SOL    HW231977   4.737   2.830   2.108
10360SOL     OW31978   5.067   4.908   2.585
10360SOL    HW131979   5.128   4.829   2.584
10360SOL    HW231980   5.007   4.903   2.665
10361SOL     OW31981   2.609   0.924   2.206
10361SOL    HW131982   2.539   0.871   2.253
10361SOL    HW231983   2.606   0.905   2.108
10362SOL     OW31984   0.516   4.446   2.878
10362SOL    HW131985   0.575   4.379   2.833
10362SOL    HW231986   0.520   4.432   2.977
10363SOL     OW31987   4.580   2.557   0.217
10363SOL    HW131988   4.554   2.460   0.215
10363SOL    HW231989   4.675   2.566   0.188
10364SOL     OW31990   5.883   5.121   1.090
10364SOL    HW131991   5.864   5.206   1.140
10364SOL    HW231992   5.804   5.060   1.099
10365SOL     OW31993   5.711   4.751   0.310
10365SOL    HW131994   5.785   4.760   0.243
10365SOL    HW231995   5.662   4.665   0.294
10366SOL     OW31996   4.144   0.016   3.705
10366SOL    HW131997   4.130   6.966   3.633
10366SOL    HW231998   4.239   0.046   3.705
10367SOL     OW31999   6.621   1.736   2.246
10367SOL    HW132000   6.582   1.819   2.205
10367SOL    HW232001   6.682   1.692   2.180
10368SOL     OW32002   2.822   1.056   2.398
10368SOL    HW132003   2.774   1.089   2.317
10368SOL    HW232004   2.853   1.134   2.452
10369SOL     OW32005   2.719   6.724   5.776
10369SOL    HW132006   2.810   6.701   5.810
10369SOL    HW232007   2.650   6.689   5.840
10370SOL     OW32008   6.537   1.328   4.783
10370SOL    HW132009   6.473   1.402   4.801
10370SOL    HW232010   6.525   1.294   4.690
10371SOL     OW32011   3.254   0.005   3.403
10371SOL    HW132012   3.249   0.089   3.349
10371SOL    HW232013   3.296   0.024   3.492
10372SOL     OW32014   2.618   0.901   1.940
10372SOL    HW132015   2.616   0.964   1.863
10372SOL    HW232016   2.593   0.809   1.909
10373SOL     OW32017   0.228   6.866   4.642
10373SOL    HW132018   0.176   6.936   4.593
10373SOL    HW232019   0.318   6.903   4.666
10374SOL     OW32020   2.773   6.494   4.775
10374SOL    HW132021   2.748   6.516   4.680
10374SOL    HW232022   2.728   6.409   4.802
10375SOL     OW32023   3.124   1.761   6.481
10375SOL    HW132024   3.065   1.841   6.467
10375SOL    HW232025   3.218   1.786   6.457
10376SOL     OW32026   1.755   6.298   3.589
10376SOL    HW132027   1.829   6.276   3.525
10376SOL    HW232028   1.794   6.324   3.678
10377SOL     OW32029   0.787   2.171   1.548
10377SOL    HW132030   0.723   2.200   1.477
10377SOL    HW232031   0.832   2.251   1.587
10378SOL     OW32032   0.164   5.594   5.755
10378SOL    HW132033   0.180   5.687   5.785
10378SOL    HW232034   0.073   5.564   5.785
10379SOL     OW32035   2.726   5.679   3.970
10379SOL    HW132036   2.825   5.689   3.979
10379SOL    HW232037   2.689   5.760   3.924
10380SOL     OW32038   1.358   2.069   4.698
10380SOL    HW132039   1.418   1.990   4.712
10380SOL    HW232040   1.297   2.051   4.620
10381SOL     OW32041   3.757   4.308   0.352
10381SOL    HW132042   3.786   4.384   0.410
10381SOL    HW232043   3.662   4.285   0.372
10382SOL     OW32044   3.182   6.231   1.943
10382SOL    HW132045   3.187   6.139   1.983
10382SOL    HW232046   3.179   6.224   1.843
10383SOL     OW32047   1.803   3.912   0.505
10383SOL    HW132048   1.859   3.922   0.423
10383SOL    HW232049   1.711   3.883   0.479
10384SOL     OW32050   6.307   6.287   0.870
10384SOL    HW132051   6.281   6.190   0.867
10384SOL    HW232052   6.405   6.296   0.854
10385SOL     OW32053   3.555   5.890   5.906
10385SOL    HW132054   3.462   5.893   5.942
10385SOL    HW232055   3.561   5.945   5.823
10386SOL     OW32056   0.712   0.816   5.679
10386SOL    HW132057   0.708   0.762   5.763
10386SOL    HW232058   0.636   0.881   5.678
10387SOL     OW32059   5.254   2.942   2.975
10387SOL    HW132060   5.322   2.896   2.918
10387SOL    HW232061   5.264   2.914   3.070
10388SOL     OW32062   2.760   6.997   0.915
10388SOL    HW132063   2.717   6.914   0.951
10388SOL    HW232064   2.702   0.018   0.844
10389SOL     OW32065   5.549   3.373   0.124
10389SOL    HW132066   5.538   3.280   0.091
10389SOL    HW232067   5.644   3.402   0.112
10390SOL     OW32068   1.585   2.529   0.434
10390SOL    HW132069   1.567   2.458   0.367
10390SOL    HW232070   1.527   2.516   0.514
10391SOL     OW32071   1.721   5.747   4.061
10391SOL    HW132072   1.786   5.671   4.065
10391SOL    HW232073   1.652   5.735   4.132
10392SOL     OW32074   6.106   5.108   5.165
10392SOL    HW132075   6.093   5.205   5.144
10392SOL    HW232076   6.069   5.088   5.256
10393SOL     OW32077   1.536   3.652   3.579
10393SOL    HW132078   1.567   3.590   3.652
10393SOL    HW232079   1.568   3.744   3.598
10394SOL     OW32080   2.363   5.524   4.497
10394SOL    HW132081   2.343   5.498   4.592
10394SOL    HW232082   2.317   5.611   4.477
10395SOL     OW32083   0.443   6.735   1.401
10395SOL    HW132084   0.439   6.827   1.363
10395SOL    HW232085   0.350   6.697   1.405
10396SOL     OW32086   4.026   1.739   3.680
10396SOL    HW132087   3.950   1.771   3.736
10396SOL    HW232088   3.999   1.736   3.584
10397SOL     OW32089   3.626   1.671   4.044
10397SOL    HW132090   3.661   1.579   4.066
10397SOL    HW232091   3.646   1.732   4.121
10398SOL     OW32092   5.839   2.281   1.094
10398SOL    HW132093   5.751   2.256   1.055
10398SOL    HW232094   5.871   2.207   1.153
10399SOL     OW32095   5.451   2.240   3.295
10399SOL    HW132096   5.495   2.154   3.319
10399SOL    HW232097   5.460   2.256   3.196
10400SOL     OW32098   4.941   6.000   0.089
10400SOL    HW132099   4.969   6.072   0.153
10400SOL    HW232100   4.844   5.980   0.102
10401SOL     OW32101   6.608   6.313   2.578
10401SOL    HW132102   6.643   6.350   2.492
10401SOL    HW232103   6.509   6.330   2.583
10402SOL     OW32104   6.409   2.209   5.232
10402SOL    HW132105   6.319   2.188   5.193
10402SOL    HW232106   6.432   2.304   5.212
10403SOL     OW32107   4.926   1.420   3.609
10403SOL    HW132108   4.908   1.500   3.665
10403SOL    HW232109   5.016   1.429   3.566
10404SOL     OW32110   6.258   6.315   4.322
10404SOL    HW132111   6.323   6.282   4.391
10404SOL    HW232112   6.287   6.284   4.231
10405SOL     OW32113   0.722   0.406   5.267
10405SOL    HW132114   0.685   0.487   5.220
10405SOL    HW232115   0.782   0.357   5.205
10406SOL     OW32116   2.315   4.408   3.249
10406SOL    HW132117   2.381   4.386   3.321
10406SOL    HW232118   2.270   4.324   3.218
10407SOL     OW32119   2.401   6.802   6.338
10407SOL    HW132120   2.312   6.824   6.297
10407SOL    HW232121   2.416   6.703   6.334
10408SOL     OW32122   4.581   0.214   1.685
10408SOL    HW132123   4.537   0.273   1.617
10408SOL    HW232124   4.656   0.264   1.728
10409SOL     OW32125   0.652   4.993   1.065
10409SOL    HW132126   0.642   4.942   1.150
10409SOL    HW232127   0.712   4.942   1.003
10410SOL     OW32128   5.447   1.801   1.913
10410SOL    HW132129   5.461   1.721   1.856
10410SOL    HW232130   5.358   1.842   1.893
10411SOL     OW32131   3.518   6.412   3.170
10411SOL    HW132132   3.447   6.352   3.207
10411SOL    HW232133   3.579   6.360   3.110
10412SOL     OW32134   0.510   0.979   0.033
10412SOL    HW132135   0.601   1.021   0.024
10412SOL    HW232136   0.520   0.884   0.062
10413SOL     OW32137   0.147   3.212   0.628
10413SOL    HW132138   0.218   3.279   0.650
10413SOL    HW232139   0.058   3.258   0.629
10414SOL     OW32140   4.135   4.650   5.903
10414SOL    HW132141   4.209   4.701   5.859
10414SOL    HW232142   4.067   4.623   5.834
10415SOL     OW32143   1.870   3.557   4.627
10415SOL    HW132144   1.921   3.597   4.551
10415SOL    HW232145   1.932   3.504   4.685
10416SOL     OW32146   6.152   0.415   5.033
10416SOL    HW132147   6.157   0.320   5.002
10416SOL    HW232148   6.116   0.472   4.960
10417SOL     OW32149   3.224   5.381   4.583
10417SOL    HW132150   3.296   5.366   4.651
10417SOL    HW232151   3.236   5.318   4.506
10418SOL     OW32152   0.328   3.636   6.921
10418SOL    HW132153   0.340   3.727   6.960
10418SOL    HW232154   0.386   3.627   6.841
10419SOL     OW32155   2.164   0.016   6.060
10419SOL    HW132156   2.189   0.103   6.103
10419SOL    HW232157   2.096   0.032   5.989
10420SOL     OW32158   0.445   3.688   3.650
10420SOL    HW132159   0.536   3.720   3.624
10420SOL    HW232160   0.401   3.644   3.572
10421SOL     OW32161   0.556   2.042   3.749
10421SOL    HW132162   0.582   1.973   3.816
10421SOL    HW232163   0.461   2.068   3.762
10422SOL     OW32164   6.298   3.266   4.941
10422SOL    HW132165   6.345   3.203   4.879
10422SOL    HW232166   6.298   3.358   4.902
10423SOL     OW32167   6.528   5.915   5.252
10423SOL    HW132168   6.471   5.996   5.242
10423SOL    HW232169   6.615   5.930   5.203
10424SOL     OW32170   4.669   3.286   0.167
10424SOL    HW132171   4.609   3.272   0.088
10424SOL    HW232172   4.763   3.267   0.141
10425SOL     OW32173   0.956   0.491   1.865
10425SOL    HW132174   1.010   0.473   1.783
10425SOL    HW232175   0.879   0.550   1.842
10426SOL     OW32176   6.025   4.858   0.774
10426SOL    HW132177   6.007   4.835   0.678
10426SOL    HW232178   5.955   4.921   0.807
10427SOL     OW32179   3.524   0.407   6.550
10427SOL    HW132180   3.478   0.487   6.510
10427SOL    HW232181   3.550   0.427   6.644
10428SOL     OW32182   3.881   1.253   3.717
10428SOL    HW132183   3.842   1.166   3.686
10428SOL    HW232184   3.862   1.265   3.815
10429SOL     OW32185   6.606   4.709   0.985
10429SOL    HW132186   6.521   4.682   1.030
10429SOL    HW232187   6.629   4.803   1.014
10430SOL     OW32188   4.932   0.246   4.597
10430SOL    HW132189   4.924   0.258   4.696
10430SOL    HW232190   4.861   0.298   4.552
10431SOL     OW32191   2.954   6.160   4.458
10431SOL    HW132192   2.954   6.178   4.360
10431SOL    HW232193   3.009   6.229   4.505
10432SOL     OW32194   5.374   6.541   5.115
10432SOL    HW132195   5.461   6.544   5.165
10432SOL    HW232196   5.389   6.570   5.020
10433SOL     OW32197   1.443   6.147   1.670
10433SOL    HW132198   1.354   6.191   1.662
10433SOL    HW232199   1.506   6.207   1.719
10434SOL     OW32200   3.844   6.720   3.316
10434SOL    HW132201   3.884   6.633   3.289
10434SOL    HW232202   3.745   6.709   3.326
10435SOL     OW32203   6.859   0.642   4.710
10435SOL    HW132204   6.843   0.598   4.622
10435SOL    HW232205   6.818   0.586   4.783
10436SOL     OW32206   0.774   5.039   5.644
10436SOL    HW132207   0.690   5.092   5.631
10436SOL    HW232208   0.766   4.984   5.727
10437SOL     OW32209   5.150   4.734   5.558
10437SOL    HW132210   5.115   4.671   5.627
10437SOL    HW232211   5.230   4.693   5.513
10438SOL     OW32212   6.169   6.576   0.309
10438SOL    HW132213   6.110   6.516   0.255
10438SOL    HW232214   6.171   6.667   0.267
10439SOL     OW32215   4.513   0.874   5.699
10439SOL    HW132216   4.531   0.904   5.792
10439SOL    HW232217   4.517   0.774   5.695
10440SOL     OW32218   1.382   7.018   0.310
10440SOL    HW132219   1.389   6.999   0.212
10440SOL    HW232220   1.288   0.026   0.332
10441SOL     OW32221   3.393   0.336   1.402
10441SOL    HW132222   3.379   0.403   1.476
10441SOL    HW232223   3.481   0.291   1.414
10442SOL     OW32224   2.982   6.432   5.623
10442SOL    HW132225   2.977   6.530   5.607
10442SOL    HW232226   2.982   6.383   5.536
10443SOL     OW32227   4.862   3.809   4.793
10443SOL    HW132228   4.881   3.780   4.886
10443SOL    HW232229   4.766   3.838   4.785
10444SOL     OW32230   3.727   6.368   4.760
10444SOL    HW132231   3.660   6.438   4.737
10444SOL    HW232232   3.709   6.286   4.706
10445SOL     OW32233   0.361   5.054   5.142
10445SOL    HW132234   0.391   5.074   5.049
10445SOL    HW232235   0.316   4.964   5.144
10446SOL     OW32236   1.430   3.023   5.076
10446SOL    HW132237   1.514   2.981   5.041
10446SOL    HW232238   1.387   3.077   5.004
10447SOL     OW32239   0.308   0.782   2.354
10447SOL    HW132240   0.329   0.767   2.257
10447SOL    HW232241   0.209   0.787   2.366
10448SOL     OW32242   3.342   1.198   2.076
10448SOL    HW132243   3.290   1.218   2.160
10448SOL    HW232244   3.342   1.099   2.060
10449SOL     OW32245   2.196   5.195   4.795
10449SOL    HW132246   2.234   5.103   4.793
10449SOL    HW232247   2.112   5.198   4.741
10450SOL     OW32248   0.622   1.537   0.855
10450SOL    HW132249   0.583   1.447   0.836
10450SOL    HW232250   0.681   1.564   0.779
10451SOL     OW32251   1.622   5.678   2.416
10451SOL    HW132252   1.688   5.688   2.490
10451SOL    HW232253   1.642   5.594   2.365
10452SOL     OW32254   6.619   4.071   2.380
10452SOL    HW132255   6.713   4.086   2.350
10452SOL    HW232256   6.615   4.071   2.480
10453SOL     OW32257   4.421   5.858   1.917
10453SOL    HW132258   4.486   5.826   1.849
10453SOL    HW232259   4.329   5.827   1.894
10454SOL     OW32260   4.708   3.868   0.760
10454SOL    HW132261   4.734   3.794   0.699
10454SOL    HW232262   4.680   3.831   0.848
10455SOL     OW32263   5.993   5.739   3.171
10455SOL    HW132264   5.984   5.641   3.188
10455SOL    HW232265   6.054   5.780   3.239
10456SOL     OW32266   3.131   6.490   1.376
10456SOL    HW132267   3.158   6.482   1.472
10456SOL    HW232268   3.031   6.482   1.369
10457SOL     OW32269   3.312   3.702   1.781
10457SOL    HW132270   3.303   3.623   1.720
10457SOL    HW232271   3.286   3.785   1.733
10458SOL     OW32272   0.623   1.339   5.990
10458SOL    HW132273   0.632   1.429   6.033
10458SOL    HW232274   0.529   1.305   6.001
10459SOL     OW32275   5.029   5.617   2.263
10459SOL    HW132276   5.104   5.564   2.224
10459SOL    HW232277   4.943   5.570   2.247
10460SOL     OW32278   1.425   4.985   1.244
10460SOL    HW132279   1.368   4.985   1.327
10460SOL    HW232280   1.515   4.948   1.266
10461SOL     OW32281   1.539   5.040   5.396
10461SOL    HW132282   1.491   5.124   5.371
10461SOL    HW232283   1.504   5.007   5.484
10462SOL     OW32284   6.249   2.451   3.292
10462SOL    HW132285   6.281   2.413   3.379
10462SOL    HW232286   6.327   2.469   3.233
10463SOL     OW32287   3.942   3.126   5.435
10463SOL    HW132288   3.980   3.036   5.456
10463SOL    HW232289   3.873   3.118   5.364
10464SOL     OW32290   6.153   6.663   1.312
10464SOL    HW132291   6.121   6.715   1.391
10464SOL    HW232292   6.250   6.641   1.324
10465SOL     OW32293   6.479   6.284   1.634
10465SOL    HW132294   6.501   6.189   1.614
10465SOL    HW232295   6.382   6.301   1.617
10466SOL     OW32296   4.775   4.772   5.312
10466SOL    HW132297   4.753   4.782   5.215
10466SOL    HW232298   4.789   4.862   5.353
10467SOL     OW32299   1.438   2.265   5.590
10467SOL    HW132300   1.451   2.272   5.491
10467SOL    HW232301   1.495   2.190   5.626
10468SOL     OW32302   3.983   4.809   3.132
10468SOL    HW132303   3.915   4.743   3.163
10468SOL    HW232304   4.038   4.769   3.059
10469SOL     OW32305   3.928   2.739   6.371
10469SOL    HW132306   3.958   2.822   6.324
10469SOL    HW232307   3.828   2.737   6.375
10470SOL     OW32308   3.192   2.154   3.569
10470SOL    HW132309   3.260   2.158   3.643
10470SOL    HW232310   3.101   2.170   3.606
10471SOL     OW32311   2.631   2.356   1.368
10471SOL    HW132312   2.646   2.258   1.380
10471SOL    HW232313   2.582   2.371   1.282
10472SOL     OW32314   2.628   5.673   1.120
10472SOL    HW132315   2.541   5.712   1.091
10472SOL    HW232316   2.644   5.697   1.216
10473SOL     OW32317   6.164   0.747   0.290
10473SOL    HW132318   6.195   0.741   0.385
10473SOL    HW232319   6.240   0.778   0.233
10474SOL     OW32320   4.607   1.477   4.869
10474SOL    HW132321   4.589   1.575   4.862
10474SOL    HW232322   4.687   1.462   4.927
10475SOL     OW32323   4.633   6.540   2.901
10475SOL    HW132324   4.594   6.491   2.824
10475SOL    HW232325   4.729   6.559   2.883
10476SOL     OW32326   6.921   6.296   6.938
10476SOL    HW132327   6.831   6.312   6.899
10476SOL    HW232328   6.970   6.383   6.947
10477SOL     OW32329   6.324   1.796   4.376
10477SOL    HW132330   6.392   1.770   4.445
10477SOL    HW232331   6.281   1.713   4.339
10478SOL     OW32332   0.452   0.567   1.277
10478SOL    HW132333   0.500   0.485   1.307
10478SOL    HW232334   0.451   0.634   1.351
10479SOL     OW32335   0.514   2.753   1.962
10479SOL    HW132336   0.469   2.786   1.879
10479SOL    HW232337   0.604   2.796   1.970
10480SOL     OW32338   5.945   0.297   1.543
10480SOL    HW132339   5.908   0.348   1.465
10480SOL    HW232340   5.900   0.328   1.627
10481SOL     OW32341   2.515   0.107   4.395
10481SOL    HW132342   2.417   0.115   4.414
10481SOL    HW232343   2.562   0.190   4.427
10482SOL     OW32344   0.470   5.505   4.972
10482SOL    HW132345   0.510   5.436   4.911
10482SOL    HW232346   0.487   5.596   4.934
10483SOL     OW32347   0.004   5.982   0.520
10483SOL    HW132348   6.927   6.006   0.502
10483SOL    HW232349   0.043   5.936   0.439
10484SOL     OW32350   6.207   0.939   1.428
10484SOL    HW132351   6.176   0.912   1.519
10484SOL    HW232352   6.147   1.010   1.392
10485SOL     OW32353   3.374   3.249   2.204
10485SOL    HW132354   3.290   3.298   2.228
10485SOL    HW232355   3.447   3.276   2.266
10486SOL     OW32356   6.450   0.882   5.933
10486SOL    HW132357   6.476   0.803   5.989
10486SOL    HW232358   6.495   0.964   5.968
10487SOL     OW32359   4.839   2.224   1.318
10487SOL    HW132360   4.778   2.152   1.350
10487SOL    HW232361   4.804   2.313   1.348
10488SOL     OW32362   2.073   1.894   6.210
10488SOL    HW132363   1.986   1.928   6.245
10488SOL    HW232364   2.087   1.927   6.116
10489SOL     OW32365   6.372   6.406   4.022
10489SOL    HW132366   6.361   6.348   3.941
10489SOL    HW232367   6.461   6.387   4.065
10490SOL     OW32368   5.911   1.974   0.618
10490SOL    HW132369   5.931   1.886   0.576
10490SOL    HW232370   5.873   2.036   0.549
10491SOL     OW32371   2.231   2.097   5.551
10491SOL    HW132372   2.164   2.171   5.546
10491SOL    HW232373   2.183   2.009   5.557
10492SOL     OW32374   4.711   6.209   1.279
10492SOL    HW132375   4.747   6.271   1.348
10492SOL    HW232376   4.614   6.192   1.297
10493SOL     OW32377   2.990   6.471   1.817
10493SOL    HW132378   2.931   6.546   1.846
10493SOL    HW232379   2.935   6.390   1.799
10494SOL     OW32380   6.219   4.165   5.561
10494SOL    HW132381   6.225   4.235   5.632
10494SOL    HW232382   6.172   4.084   5.598
10495SOL     OW32383   6.779   0.338   0.441
10495SOL    HW132384   6.702   0.289   0.483
10495SOL    HW232385   6.861   0.324   0.496
10496SOL     OW32386   6.512   4.757   5.103
10496SOL    HW132387   6.536   4.793   5.193
10496SOL    HW232388   6.431   4.804   5.068
10497SOL     OW32389   1.353   6.874   2.562
10497SOL    HW132390   1.411   6.954   2.544
10497SOL    HW232391   1.295   6.892   2.642
10498SOL     OW32392   5.911   6.015   0.819
10498SOL    HW132393   5.883   6.110   0.803
10498SOL    HW232394   6.011   6.011   0.825
10499SOL     OW32395   4.605   6.682   1.328
10499SOL    HW132396   4.651   6.763   1.365
10499SOL    HW232397   4.530   6.711   1.268
10500SOL     OW32398   5.814   2.251   5.945
10500SOL    HW132399   5.873   2.183   5.901
10500SOL    HW232400   5.746   2.205   6.002
10501SOL     OW32401   2.136   6.023   2.269
10501SOL    HW132402   2.217   6.076   2.244
10501SOL    HW232403   2.068   6.084   2.309
10502SOL     OW32404   2.727   4.057   0.885
10502SOL    HW132405   2.799   4.112   0.927
10502SOL    HW232406   2.639   4.102   0.900
10503SOL     OW32407   5.586   3.902   0.528
10503SOL    HW132408   5.658   3.956   0.572
10503SOL    HW232409   5.556   3.830   0.591
10504SOL     OW32410   0.387   2.364   5.350
10504SOL    HW132411   0.310   2.418   5.314
10504SOL    HW232412   0.383   2.272   5.312
10505SOL     OW32413   5.569   6.606   1.246
10505SOL    HW132414   5.619   6.688   1.218
10505SOL    HW232415   5.578   6.535   1.175
10506SOL     OW32416   0.585   3.686   0.544
10506SOL    HW132417   0.683   3.671   0.555
10506SOL    HW232418   0.556   3.655   0.454
10507SOL     OW32419   2.319   5.337   6.968
10507SOL    HW132420   2.403   5.382   6.939
10507SOL    HW232421   2.261   5.319   6.889
10508SOL     OW32422   0.637   5.533   4.148
10508SOL    HW132423   0.678   5.564   4.062
10508SOL    HW232424   0.677   5.445   4.175
10509SOL     OW32425   6.262   4.556   4.749
10509SOL    HW132426   6.197   4.532   4.821
10509SOL    HW232427   6.352   4.522   4.771
10510SOL     OW32428   4.814   6.124   0.498
10510SOL    HW132429   4.737   6.187   0.483
10510SOL    HW232430   4.782   6.044   0.548
10511SOL     OW32431   2.981   1.625   1.820
10511SOL    HW132432   3.045   1.577   1.880
10511SOL    HW232433   2.981   1.722   1.841
10512SOL     OW32434   3.571   0.077   6.014
10512SOL    HW132435   3.482   0.042   6.043
10512SOL    HW232436   3.641   0.010   6.036
10513SOL     OW32437   6.251   3.155   3.311
10513SOL    HW132438   6.297   3.212   3.242
10513SOL    HW232439   6.297   3.165   3.399
10514SOL     OW32440   1.518   1.637   1.626
10514SOL    HW132441   1.592   1.702   1.644
10514SOL    HW232442   1.480   1.654   1.535
10515SOL     OW32443   2.082   2.936   4.255
10515SOL    HW132444   2.145   2.936   4.178
10515SOL    HW232445   2.031   2.850   4.256
10516SOL     OW32446   2.392   1.661   0.173
10516SOL    HW132447   2.348   1.748   0.149
10516SOL    HW232448   2.481   1.655   0.129
10517SOL     OW32449   1.522   4.194   1.418
10517SOL    HW132450   1.489   4.267   1.477
10517SOL    HW232451   1.458   4.117   1.421
10518SOL     OW32452   6.977   5.946   1.643
10518SOL    HW132453   6.933   5.859   1.667
10518SOL    HW232454   6.931   6.021   1.690
10519SOL     OW32455   2.981   4.721   0.187
10519SOL    HW132456   2.893   4.698   0.230
10519SOL    HW232457   2.970   4.719   0.087
10520SOL     OW32458   0.069   2.287   5.937
10520SOL    HW132459   0.032   2.195   5.938
10520SOL    HW232460   0.114   2.306   6.024
10521SOL     OW32461   6.714   5.559   1.379
10521SOL    HW132462   6.639   5.495   1.362
10521SOL    HW232463   6.695   5.646   1.335
10522SOL     OW32464   0.465   2.826   3.255
10522SOL    HW132465   0.388   2.767   3.281
10522SOL    HW232466   0.430   2.913   3.220
10523SOL     OW32467   0.471   4.074   3.589
10523SOL    HW132468   0.519   4.030   3.665
10523SOL    HW232469   0.497   4.171   3.586
10524SOL     OW32470   0.777   6.284   3.947
10524SOL    HW132471   0.797   6.304   4.042
10524SOL    HW232472   0.828   6.347   3.888
10525SOL     OW32473   4.049   0.029   5.358
10525SOL    HW132474   3.963   0.018   5.310
10525SOL    HW232475   4.102   0.103   5.317
10526SOL     OW32476   0.684   6.692   1.895
10526SOL    HW132477   0.647   6.715   1.985
10526SOL    HW232478   0.613   6.704   1.826
10527SOL     OW32479   0.833   0.527   6.072
10527SOL    HW132480   0.916   0.496   6.118
10527SOL    HW232481   0.758   0.462   6.092
10528SOL     OW32482   1.091   3.897   6.283
10528SOL    HW132483   1.044   3.874   6.368
10528SOL    HW232484   1.092   3.996   6.271
10529SOL     OW32485   2.154   5.540   4.708
10529SOL    HW132486   2.165   5.639   4.704
10529SOL    HW232487   2.076   5.517   4.766
10530SOL     OW32488   1.136   6.353   5.518
10530SOL    HW132489   1.076   6.302   5.580
10530SOL    HW232490   1.218   6.382   5.566
10531SOL     OW32491   2.266   1.984   4.390
10531SOL    HW132492   2.315   2.027   4.466
10531SOL    HW232493   2.290   2.030   4.304
10532SOL     OW32494   6.876   6.964   6.597
10532SOL    HW132495   6.825   6.924   6.673
10532SOL    HW232496   6.962   7.003   6.632
10533SOL     OW32497   2.871   6.045   3.857
10533SOL    HW132498   2.789   5.989   3.849
10533SOL    HW232499   2.945   6.004   3.804
10534SOL     OW32500   6.426   5.278   1.895
10534SOL    HW132501   6.371   5.361   1.889
10534SOL    HW232502   6.472   5.275   1.985
10535SOL     OW32503   2.008   1.522   2.562
10535SOL    HW132504   1.987   1.583   2.639
10535SOL    HW232505   1.923   1.497   2.516
10536SOL     OW32506   4.833   0.167   4.141
10536SOL    HW132507   4.747   0.130   4.108
10536SOL    HW232508   4.840   0.263   4.117
10537SOL     OW32509   4.908   6.402   3.815
10537SOL    HW132510   4.826   6.435   3.862
10537SOL    HW232511   4.884   6.327   3.753
10538SOL     OW32512   6.370   3.578   1.019
10538SOL    HW132513   6.462   3.540   1.012
10538SOL    HW232514   6.304   3.504   1.023
10539SOL     OW32515   6.350   5.214   1.213
10539SOL    HW132516   6.288   5.281   1.170
10539SOL    HW232517   6.296   5.148   1.265
10540SOL     OW32518   2.006   3.336   5.637
10540SOL    HW132519   1.943   3.278   5.585
10540SOL    HW232520   2.038   3.411   5.578
10541SOL     OW32521   3.913   3.052   3.845
10541SOL    HW132522   3.990   3.088   3.899
10541SOL    HW232523   3.829   3.056   3.900
10542SOL     OW32524   6.380   0.274   4.617
10542SOL    HW132525   6.407   0.195   4.671
10542SOL    HW232526   6.353   0.244   4.525
10543SOL     OW32527   1.044   1.692   4.381
10543SOL    HW132528   1.072   1.709   4.286
10543SOL    HW232529   0.991   1.607   4.385
10544SOL     OW32530   2.042   6.159   2.805
10544SOL    HW132531   2.122   6.100   2.809
10544SOL    HW232532   2.048   6.229   2.876
10545SOL     OW32533   1.664   1.853   1.677
10545SOL    HW132534   1.590   1.905   1.719
10545SOL    HW232535   1.719   1.913   1.620
10546SOL     OW32536   3.361   6.277   1.202
10546SOL    HW132537   3.375   6.187   1.245
10546SOL    HW232538   3.326   6.341   1.270
10547SOL     OW32539   5.082   2.122   3.970
10547SOL    HW132540   5.073   2.030   3.933
10547SOL    HW232541   4.992   2.163   3.982
10548SOL     OW32542   0.279   3.615   4.144
10548SOL    HW132543   0.331   3.540   4.185
10548SOL    HW232544   0.311   3.630   4.050
10549SOL     OW32545   0.405   1.536   0.609
10549SOL    HW132546   0.370   1.443   0.600
10549SOL    HW232547   0.331   1.601   0.591
10550SOL     OW32548   4.046   6.533   3.561
10550SOL    HW132549   4.124   6.535   3.499
10550SOL    HW232550   4.003   6.443   3.558
10551SOL     OW32551   2.418   2.094   6.338
10551SOL    HW132552   2.508   2.115   6.298
10551SOL    HW232553   2.408   1.995   6.347
10552SOL     OW32554   2.155   0.705   4.922
10552SOL    HW132555   2.251   0.697   4.946
10552SOL    HW232556   2.102   0.640   4.977
10553SOL     OW32557   0.059   4.203   0.978
10553SOL    HW132558   7.013   4.209   0.901
10553SOL    HW232559   0.153   4.208   0.944
10554SOL     OW32560   5.209   5.502   2.035
10554SOL    HW132561   5.171   5.553   1.958
10554SOL    HW232562   5.148   5.426   2.058
10555SOL     OW32563   2.707   2.365   1.049
10555SOL    HW132564   2.685   2.279   1.003
10555SOL    HW232565   2.726   2.435   0.981
10556SOL     OW32566   2.921   0.797   3.819
10556SOL    HW132567   2.913   0.701   3.791
10556SOL    HW232568   2.911   0.856   3.739
10557SOL     OW32569   1.397   3.247   3.651
10557SOL    HW132570   1.330   3.308   3.609
10557SOL    HW232571   1.376   3.237   3.748
10558SOL     OW32572   3.771   5.967   6.068
10558SOL    HW132573   3.819   5.880   6.077
10558SOL    HW232574   3.702   5.960   5.996
10559SOL     OW32575   3.979   0.837   1.928
10559SOL    HW132576   3.887   0.873   1.936
10559SOL    HW232577   3.990   0.792   1.839
10560SOL     OW32578   4.628   6.996   2.495
10560SOL    HW132579   4.533   6.999   2.524
10560SOL    HW232580   4.687   6.983   2.575
10561SOL     OW32581   3.784   4.404   1.656
10561SOL    HW132582   3.860   4.345   1.628
10561SOL    HW232583   3.807   4.500   1.637
10562SOL     OW32584   4.169   6.064   0.481
10562SOL    HW132585   4.248   6.048   0.422
10562SOL    HW232586   4.101   5.991   0.468
10563SOL     OW32587   1.062   0.800   1.673
10563SOL    HW132588   1.109   0.712   1.665
10563SOL    HW232589   0.995   0.794   1.748
10564SOL     OW32590   5.788   6.737   3.920
10564SOL    HW132591   5.759   6.647   3.888
10564SOL    HW232592   5.760   6.750   4.015
10565SOL     OW32593   6.502   6.212   5.594
10565SOL    HW132594   6.412   6.168   5.608
10565SOL    HW232595   6.572   6.157   5.639
10566SOL     OW32596   3.244   1.580   6.649
10566SOL    HW132597   3.199   1.492   6.658
10566SOL    HW232598   3.205   1.630   6.572
10567SOL     OW32599   2.389   2.792   6.072
10567SOL    HW132600   2.334   2.790   5.989
10567SOL    HW232601   2.409   2.699   6.101
10568SOL     OW32602   6.083   2.338   0.660
10568SOL    HW132603   5.994   2.354   0.702
10568SOL    HW232604   6.126   2.258   0.703
10569SOL     OW32605   5.651   0.519   2.040
10569SOL    HW132606   5.700   0.448   1.989
10569SOL    HW232607   5.713   0.594   2.061
10570SOL     OW32608   1.402   4.398   3.434
10570SOL    HW132609   1.426   4.474   3.373
10570SOL    HW232610   1.305   4.405   3.458
10571SOL     OW32611   0.182   4.116   5.249
10571SOL    HW132612   0.088   4.144   5.231
10571SOL    HW232613   0.216   4.061   5.173
10572SOL     OW32614   0.091   4.889   2.811
10572SOL    HW132615   0.050   4.977   2.789
10572SOL    HW232616   0.092   4.876   2.910
10573SOL     OW32617   5.067   0.314   5.081
10573SOL    HW132618   5.045   0.389   5.143
10573SOL    HW232619   5.141   0.342   5.019
10574SOL     OW32620   6.976   1.548   4.037
10574SOL    HW132621   0.033   1.486   4.057
10574SOL    HW232622   6.996   1.598   3.953
10575SOL     OW32623   6.620   1.150   3.649
10575SOL    HW132624   6.623   1.146   3.549
10575SOL    HW232625   6.525   1.159   3.679
10576SOL     OW32626   0.996   5.741   3.044
10576SOL    HW132627   1.034   5.669   2.985
10576SOL    HW232628   0.897   5.748   3.030
10577SOL     OW32629   1.862   4.559   0.434
10577SOL    HW132630   1.949   4.570   0.386
10577SOL    HW232631   1.853   4.464   0.465
10578SOL     OW32632   4.724   0.928   3.489
10578SOL    HW132633   4.707   1.000   3.422
10578SOL    HW232634   4.803   0.873   3.459
10579SOL     OW32635   3.601   3.136   1.163
10579SOL    HW132636   3.527   3.082   1.203
10579SOL    HW232637   3.569   3.181   1.080
10580SOL     OW32638   6.583   6.233   5.907
10580SOL    HW132639   6.534   6.218   5.992
10580SOL    HW232640   6.585   6.331   5.886
10581SOL     OW32641   5.738   0.265   2.487
10581SOL    HW132642   5.705   0.180   2.529
10581SOL    HW232643   5.837   0.273   2.503
10582SOL     OW32644   4.793   4.666   6.396
10582SOL    HW132645   4.845   4.664   6.481
10582SOL    HW232646   4.857   4.665   6.319
10583SOL     OW32647   4.595   0.008   4.453
10583SOL    HW132648   4.694   0.009   4.468
10583SOL    HW232649   4.575   6.997   4.360
10584SOL     OW32650   6.262   6.963   6.598
10584SOL    HW132651   6.193   6.908   6.645
10584SOL    HW232652   6.280   0.028   6.650
10585SOL     OW32653   2.091   2.096   6.028
10585SOL    HW132654   1.994   2.091   6.003
10585SOL    HW232655   2.108   2.181   6.079
10586SOL     OW32656   4.904   4.969   5.709
10586SOL    HW132657   4.840   4.893   5.720
10586SOL    HW232658   4.901   5.002   5.615
10587SOL     OW32659   6.312   5.235   6.743
10587SOL    HW132660   6.305   5.308   6.811
10587SOL    HW232661   6.377   5.166   6.775
10588SOL     OW32662   1.974   1.784   4.826
10588SOL    HW132663   2.004   1.840   4.749
10588SOL    HW232664   1.904   1.833   4.878
10589SOL     OW32665   4.979   0.446   4.327
10589SOL    HW132666   5.013   0.370   4.271
10589SOL    HW232667   4.915   0.411   4.395
10590SOL     OW32668   0.332   6.518   1.748
10590SOL    HW132669   0.327   6.618   1.758
10590SOL    HW232670   0.403   6.482   1.807
10591SOL     OW32671   2.543   1.619   1.270
10591SOL    HW132672   2.586   1.529   1.270
10591SOL    HW232673   2.444   1.610   1.257
10592SOL     OW32674   5.696   3.604   4.728
10592SOL    HW132675   5.763   3.671   4.698
10592SOL    HW232676   5.731   3.556   4.809
10593SOL     OW32677   2.235   5.886   0.610
10593SOL    HW132678   2.330   5.858   0.611
10593SOL    HW232679   2.209   5.922   0.699
10594SOL     OW32680   4.566   1.898   2.883
10594SOL    HW132681   4.611   1.812   2.908
10594SOL    HW232682   4.468   1.891   2.905
10595SOL     OW32683   6.088   0.298   6.680
10595SOL    HW132684   6.029   0.220   6.660
10595SOL    HW232685   6.084   0.319   6.778
10596SOL     OW32686   4.706   0.201   6.956
10596SOL    HW132687   4.620   0.162   6.990
10596SOL    HW232688   4.729   0.282   7.010
10597SOL     OW32689   2.466   1.265   5.949
10597SOL    HW132690   2.545   1.204   5.945
10597SOL    HW232691   2.452   1.307   5.859
10598SOL     OW32692   3.581   2.257   6.688
10598SOL    HW132693   3.525   2.175   6.698
10598SOL    HW232694   3.523   2.334   6.661
10599SOL     OW32695   6.343   3.425   6.844
10599SOL    HW132696   6.317   3.449   6.750
10599SOL    HW232697   6.264   3.390   6.893
10600SOL     OW32698   3.475   2.524   1.239
10600SOL    HW132699   3.407   2.452   1.253
10600SOL    HW232700   3.517   2.549   1.327
10601SOL     OW32701   1.522   4.665   5.743
10601SOL    HW132702   1.531   4.756   5.784
10601SOL    HW232703   1.611   4.634   5.711
10602SOL     OW32704   1.130   1.073   1.074
10602SOL    HW132705   1.179   1.144   1.023
10602SOL    HW232706   1.125   0.990   1.019
10603SOL     OW32707   4.827   0.271   3.199
10603SOL    HW132708   4.815   0.197   3.265
10603SOL    HW232709   4.740   0.319   3.186
10604SOL     OW32710   0.068   5.996   5.030
10604SOL    HW132711   6.992   6.003   5.062
10604SOL    HW232712   0.113   5.920   5.075
10605SOL     OW32713   1.494   6.398   0.140
10605SOL    HW132714   1.499   6.387   0.040
10605SOL    HW232715   1.542   6.322   0.183
10606SOL     OW32716   6.697   1.010   1.545
10606SOL    HW132717   6.750   0.926   1.554
10606SOL    HW232718   6.610   0.989   1.499
10607SOL     OW32719   3.963   4.669   0.234
10607SOL    HW132720   3.992   4.764   0.248
10607SOL    HW232721   4.034   4.619   0.185
10608SOL     OW32722   6.894   3.615   3.971
10608SOL    HW132723   6.856   3.573   4.053
10608SOL    HW232724   6.954   3.549   3.925
10609SOL     OW32725   2.880   6.662   6.809
10609SOL    HW132726   2.786   6.634   6.829
10609SOL    HW232727   2.921   6.705   6.890
10610SOL     OW32728   0.361   1.655   3.969
10610SOL    HW132729   0.399   1.741   3.933
10610SOL    HW232730   0.286   1.676   4.032
10611SOL     OW32731   2.854   5.120   6.116
10611SOL    HW132732   2.831   5.141   6.021
10611SOL    HW232733   2.943   5.076   6.120
10612SOL     OW32734   5.185   2.375   4.044
10612SOL    HW132735   5.161   2.358   4.139
10612SOL    HW232736   5.169   2.293   3.989
10613SOL     OW32737   6.337   5.782   4.721
10613SOL    HW132738   6.364   5.849   4.790
10613SOL    HW232739   6.241   5.757   4.734
10614SOL     OW32740   5.513   1.116   4.485
10614SOL    HW132741   5.422   1.136   4.451
10614SOL    HW232742   5.513   1.121   4.585
10615SOL     OW32743   3.471   0.641   6.157
10615SOL    HW132744   3.550   0.603   6.204
10615SOL    HW232745   3.390   0.584   6.176
10616SOL     OW32746   3.160   6.155   6.656
10616SOL    HW132747   3.127   6.249   6.641
10616SOL    HW232748   3.198   6.147   6.748
10617SOL     OW32749   3.150   4.313   1.436
10617SOL    HW132750   3.237   4.269   1.415
10617SOL    HW232751   3.135   4.312   1.535
10618SOL     OW32752   1.601   4.882   5.891
10618SOL    HW132753   1.682   4.939   5.877
10618SOL    HW232754   1.611   4.830   5.976
10619SOL     OW32755   0.191   2.687   3.165
10619SOL    HW132756   0.208   2.626   3.087
10619SOL    HW232757   0.093   2.688   3.186
10620SOL     OW32758   0.819   0.115   5.529
10620SOL    HW132759   0.801   0.161   5.617
10620SOL    HW232760   0.748   0.139   5.464
10621SOL     OW32761   6.966   4.082   2.044
10621SOL    HW132762   6.908   4.078   2.126
10621SOL    HW232763   6.931   4.151   1.982
10622SOL     OW32764   4.348   2.382   1.488
10622SOL    HW132765   4.287   2.436   1.546
10622SOL    HW232766   4.364   2.293   1.532
10623SOL     OW32767   6.817   5.917   5.991
10623SOL    HW132768   6.885   5.920   6.064
10623SOL    HW232769   6.858   5.948   5.906
10624SOL     OW32770   0.279   2.630   5.651
10624SOL    HW132771   0.308   2.539   5.680
10624SOL    HW232772   0.286   2.638   5.552
10625SOL     OW32773   0.332   3.835   1.459
10625SOL    HW132774   0.314   3.744   1.497
10625SOL    HW232775   0.334   3.902   1.532
10626SOL     OW32776   3.275   3.085   0.675
10626SOL    HW132777   3.230   3.098   0.764
10626SOL    HW232778   3.339   3.160   0.659
10627SOL     OW32779   5.988   1.305   6.793
10627SOL    HW132780   6.051   1.229   6.776
10627SOL    HW232781   5.938   1.287   6.878
10628SOL     OW32782   4.377   6.993   1.354
10628SOL    HW132783   4.381   0.034   1.434
10628SOL    HW232784   4.282   6.962   1.340
10629SOL     OW32785   3.241   5.080   4.858
10629SOL    HW132786   3.179   5.076   4.937
10629SOL    HW232787   3.199   5.032   4.781
10630SOL     OW32788   6.136   1.304   2.113
10630SOL    HW132789   6.154   1.393   2.153
10630SOL    HW232790   6.045   1.272   2.140
10631SOL     OW32791   3.731   4.473   5.842
10631SOL    HW132792   3.684   4.385   5.832
10631SOL    HW232793   3.786   4.471   5.926
10632SOL     OW32794   5.629   6.486   3.865
10632SOL    HW132795   5.644   6.405   3.921
10632SOL    HW232796   5.536   6.520   3.878
10633SOL     OW32797   2.519   2.747   1.455
10633SOL    HW132798   2.456   2.705   1.390
10633SOL    HW232799   2.541   2.680   1.527
10634SOL     OW32800   2.004   5.136   0.579
10634SOL    HW132801   2.058   5.086   0.647
10634SOL    HW232802   2.054   5.218   0.551
10635SOL     OW32803   2.051   2.962   6.472
10635SOL    HW132804   1.970   2.914   6.437
10635SOL    HW232805   2.100   3.005   6.396
10636SOL     OW32806   0.445   2.398   1.424
10636SOL    HW132807   0.396   2.330   1.477
10636SOL    HW232808   0.478   2.470   1.485
10637SOL     OW32809   1.605   5.122   6.253
10637SOL    HW132810   1.534   5.110   6.183
10637SOL    HW232811   1.569   5.093   6.341
10638SOL     OW32812   5.456   6.289   3.056
10638SOL    HW132813   5.510   6.373   3.055
10638SOL    HW232814   5.367   6.308   3.098
10639SOL     OW32815   1.211   3.529   2.018
10639SOL    HW132816   1.249   3.446   2.060
10639SOL    HW232817   1.250   3.609   2.063
10640SOL     OW32818   4.635   0.973   3.727
10640SOL    HW132819   4.686   0.933   3.803
10640SOL    HW232820   4.673   0.940   3.640
10641SOL     OW32821   2.564   1.597   3.143
10641SOL    HW132822   2.605   1.644   3.065
10641SOL    HW232823   2.571   1.499   3.130
10642SOL     OW32824   6.250   1.421   0.688
10642SOL    HW132825   6.198   1.345   0.650
10642SOL    HW232826   6.342   1.389   0.713
10643SOL     OW32827   2.334   6.088   5.367
10643SOL    HW132828   2.245   6.044   5.378
10643SOL    HW232829   2.329   6.157   5.295
10644SOL     OW32830   5.269   3.338   0.919
10644SOL    HW132831   5.365   3.362   0.931
10644SOL    HW232832   5.262   3.247   0.879
10645SOL     OW32833   1.609   2.930   4.275
10645SOL    HW132834   1.618   2.972   4.365
10645SOL    HW232835   1.576   2.998   4.210
10646SOL     OW32836   6.774   0.270   6.184
10646SOL    HW132837   6.796   0.242   6.090
10646SOL    HW232838   6.752   0.189   6.239
10647SOL     OW32839   3.334   5.525   5.028
10647SOL    HW132840   3.386   5.601   5.066
10647SOL    HW232841   3.266   5.494   5.095
10648SOL     OW32842   5.478   5.026   6.709
10648SOL    HW132843   5.545   5.081   6.661
10648SOL    HW232844   5.492   5.034   6.808
10649SOL     OW32845   0.578   3.461   3.409
10649SOL    HW132846   0.546   3.546   3.367
10649SOL    HW232847   0.557   3.384   3.348
10650SOL     OW32848   0.771   0.609   3.852
10650SOL    HW132849   0.718   0.531   3.818
10650SOL    HW232850   0.788   0.673   3.777
10651SOL     OW32851   6.177   5.848   6.171
10651SOL    HW132852   6.103   5.854   6.237
10651SOL    HW232853   6.157   5.777   6.103
10652SOL     OW32854   2.263   6.677   6.562
10652SOL    HW132855   2.355   6.710   6.583
10652SOL    HW232856   2.220   6.642   6.646
10653SOL     OW32857   4.225   5.959   4.655
10653SOL    HW132858   4.227   5.960   4.555
10653SOL    HW232859   4.178   5.877   4.686
10654SOL     OW32860   4.684   7.005   6.588
10654SOL    HW132861   4.710   0.032   6.503
10654SOL    HW232862   4.608   0.037   6.630
10655SOL     OW32863   1.667   5.208   0.222
10655SOL    HW132864   1.727   5.154   0.281
10655SOL    HW232865   1.680   5.305   0.241
10656SOL     OW32866   6.920   1.490   2.494
10656SOL    HW132867   6.981   1.466   2.418
10656SOL    HW232868   6.917   1.415   2.559
10657SOL     OW32869   6.143   0.867   4.764
10657SOL    HW132870   6.061   0.918   4.788
10657SOL    HW232871   6.212   0.880   4.835
10658SOL     OW32872   6.546   4.439   4.755
10658SOL    HW132873   6.561   4.530   4.794
10658SOL    HW232874   6.553   4.444   4.655
10659SOL     OW32875   0.962   5.767   0.701
10659SOL    HW132876   0.883   5.712   0.674
10659SOL    HW232877   0.931   5.856   0.735
10660SOL     OW32878   5.564   3.656   6.590
10660SOL    HW132879   5.611   3.695   6.669
10660SOL    HW232880   5.630   3.612   6.530
10661SOL     OW32881   1.200   6.152   1.126
10661SOL    HW132882   1.230   6.155   1.031
10661SOL    HW232883   1.276   6.127   1.185
10662SOL     OW32884   4.821   0.642   2.498
10662SOL    HW132885   4.842   0.579   2.574
10662SOL    HW232886   4.738   0.693   2.519
10663SOL     OW32887   0.857   1.168   2.404
10663SOL    HW132888   0.900   1.179   2.493
10663SOL    HW232889   0.771   1.117   2.414
10664SOL     OW32890   6.371   3.973   5.314
10664SOL    HW132891   6.420   4.049   5.272
10664SOL    HW232892   6.375   3.981   5.413
10665SOL     OW32893   1.269   1.734   0.343
10665SOL    HW132894   1.337   1.755   0.273
10665SOL    HW232895   1.247   1.637   0.340
10666SOL     OW32896   3.255   3.948   1.658
10666SOL    HW132897   3.231   3.982   1.568
10666SOL    HW232898   3.331   4.000   1.695
10667SOL     OW32899   4.826   2.313   3.556
10667SOL    HW132900   4.733   2.306   3.591
10667SOL    HW232901   4.826   2.296   3.457
10668SOL     OW32902   2.924   1.621   5.198
10668SOL    HW132903   3.007   1.674   5.180
10668SOL    HW232904   2.851   1.683   5.228
10669SOL     OW32905   5.571   0.700   1.343
10669SOL    HW132906   5.480   0.725   1.376
10669SOL    HW232907   5.634   0.695   1.420
10670SOL     OW32908   5.815   4.852   4.876
10670SOL    HW132909   5.887   4.840   4.808
10670SOL    HW232910   5.745   4.782   4.864
10671SOL     OW32911   2.127   1.582   4.455
10671SOL    HW132912   2.202   1.537   4.504
10671SOL    HW232913   2.163   1.625   4.372
10672SOL     OW32914   6.556   4.322   1.956
10672SOL    HW132915   6.566   4.294   2.052
10672SOL    HW232916   6.622   4.393   1.934
10673SOL     OW32917   0.425   1.153   6.856
10673SOL    HW132918   0.363   1.113   6.788
10673SOL    HW232919   0.433   1.092   6.934
10674SOL     OW32920   3.972   3.476   3.312
10674SOL    HW132921   4.010   3.395   3.356
10674SOL    HW232922   3.991   3.473   3.214
10675SOL     OW32923   1.578   6.806   0.012
10675SOL    HW132924   1.512   6.770   0.078
10675SOL    HW232925   1.588   6.742   6.955
10676SOL     OW32926   6.717   6.210   5.102
10676SOL    HW132927   6.674   6.274   5.038
10676SOL    HW232928   6.681   6.224   5.193
10677SOL     OW32929   1.642   0.400   1.688
10677SOL    HW132930   1.731   0.363   1.714
10677SOL    HW232931   1.606   0.350   1.609
10678SOL     OW32932   4.980   5.702   3.771
10678SOL    HW132933   5.026   5.700   3.860
10678SOL    HW232934   4.891   5.746   3.781
10679SOL     OW32935   4.089   5.425   6.688
10679SOL    HW132936   3.992   5.438   6.668
10679SOL    HW232937   4.126   5.353   6.630
10680SOL     OW32938   3.753   2.163   4.284
10680SOL    HW132939   3.775   2.243   4.229
10680SOL    HW232940   3.794   2.081   4.243
10681SOL     OW32941   0.342   3.711   1.038
10681SOL    HW132942   0.348   3.628   1.092
10681SOL    HW232943   0.359   3.690   0.942
10682SOL     OW32944   0.474   1.659   5.227
10682SOL    HW132945   0.552   1.685   5.170
10682SOL    HW232946   0.435   1.573   5.193
10683SOL     OW32947   4.825   1.705   3.941
10683SOL    HW132948   4.740   1.668   3.904
10683SOL    HW232949   4.821   1.704   4.041
10684SOL     OW32950   4.845   5.021   3.037
10684SOL    HW132951   4.883   4.985   3.122
10684SOL    HW232952   4.745   5.021   3.043
10685SOL     OW32953   0.627   5.556   1.816
10685SOL    HW132954   0.538   5.523   1.786
10685SOL    HW232955   0.690   5.560   1.738
10686SOL     OW32956   0.956   4.395   5.499
10686SOL    HW132957   1.019   4.317   5.499
10686SOL    HW232958   0.923   4.411   5.405
10687SOL     OW32959   5.718   5.730   4.149
10687SOL    HW132960   5.751   5.737   4.055
10687SOL    HW232961   5.671   5.642   4.161
10688SOL     OW32962   6.400   3.914   2.753
10688SOL    HW132963   6.353   3.862   2.682
10688SOL    HW232964   6.476   3.965   2.713
10689SOL     OW32965   7.016   0.133   3.469
10689SOL    HW132966   7.004   0.097   3.376
10689SOL    HW232967   0.095   0.147   3.486
10690SOL     OW32968   0.327   5.687   3.992
10690SOL    HW132969   0.264   5.668   4.068
10690SOL    HW232970   0.367   5.601   3.960
10691SOL     OW32971   0.822   2.050   2.483
10691SOL    HW132972   0.874   2.031   2.566
10691SOL    HW232973   0.743   1.989   2.478
10692SOL     OW32974   2.875   6.703   3.992
10692SOL    HW132975   2.843   6.608   3.998
10692SOL    HW232976   2.872   6.733   3.897
10693SOL     OW32977   2.245   6.018   0.905
10693SOL    HW132978   2.315   6.083   0.936
10693SOL    HW232979   2.155   6.052   0.931
10694SOL     OW32980   5.434   6.525   0.369
10694SOL    HW132981   5.484   6.606   0.337
10694SOL    HW232982   5.340   6.552   0.391
10695SOL     OW32983   0.268   2.416   3.080
10695SOL    HW132984   0.351   2.386   3.033
10695SOL    HW232985   0.289   2.436   3.175
10696SOL     OW32986   6.943   4.461   3.469
10696SOL    HW132987   6.865   4.400   3.455
10696SOL    HW232988   6.990   4.474   3.382
10697SOL     OW32989   0.253   6.365   4.978
10697SOL    HW132990   0.271   6.434   5.048
10697SOL    HW232991   0.177   6.394   4.920
10698SOL     OW32992   5.340   4.227   6.478
10698SOL    HW132993   5.276   4.304   6.485
10698SOL    HW232994   5.332   4.170   6.560
10699SOL     OW32995   3.741   4.166   1.779
10699SOL    HW132996   3.757   4.085   1.724
10699SOL    HW232997   3.762   4.248   1.725
10700SOL     OW32998   5.888   6.816   0.585
10700SOL    HW132999   5.823   6.891   0.573
10700SOL    HW233000   5.979   6.853   0.604
10701SOL     OW33001   2.797   6.172   6.782
10701SOL    HW133002   2.871   6.149   6.844
10701SOL    HW233003   2.815   6.260   6.738
10702SOL     OW33004   5.342   2.896   1.606
10702SOL    HW133005   5.355   2.982   1.656
10702SOL    HW233006   5.411   2.889   1.534
10703SOL     OW33007   2.987   3.264   5.045
10703SOL    HW133008   2.956   3.174   5.075
10703SOL    HW233009   3.079   3.256   5.005
10704SOL     OW33010   6.033   5.844   1.594
10704SOL    HW133011   6.001   5.932   1.631
10704SOL    HW233012   6.132   5.837   1.609
10705SOL     OW33013   5.889   4.892   1.802
10705SOL    HW133014   5.807   4.870   1.854
10705SOL    HW233015   5.957   4.820   1.816
10706SOL     OW33016   5.081   0.622   2.507
10706SOL    HW133017   4.990   0.661   2.491
10706SOL    HW233018   5.146   0.661   2.441
10707SOL     OW33019   0.134   6.871   4.349
10707SOL    HW133020   0.125   6.958   4.396
10707SOL    HW233021   0.043   6.831   4.335
10708SOL     OW33022   4.461   0.756   1.977
10708SOL    HW133023   4.482   0.732   2.072
10708SOL    HW233024   4.514   0.837   1.951
10709SOL     OW33025   5.720   5.197   5.516
10709SOL    HW133026   5.737   5.294   5.531
10709SOL    HW233027   5.622   5.179   5.522
10710SOL     OW33028   0.110   0.223   4.175
10710SOL    HW133029   0.012   0.235   4.162
10710SOL    HW233030   0.137   0.257   4.265
10711SOL     OW33031   1.754   6.846   4.754
10711SOL    HW133032   1.686   6.881   4.690
10711SOL    HW233033   1.736   6.881   4.845
10712SOL     OW33034   2.781   0.633   2.085
10712SOL    HW133035   2.698   0.602   2.131
10712SOL    HW233036   2.757   0.667   1.994
10713SOL     OW33037   0.626   3.519   2.042
10713SOL    HW133038   0.633   3.513   1.943
10713SOL    HW233039   0.536   3.487   2.071
10714SOL     OW33040   5.889   3.787   5.056
10714SOL    HW133041   5.799   3.822   5.031
10714SOL    HW233042   5.923   3.728   4.982
10715SOL     OW33043   4.927   0.874   2.718
10715SOL    HW133044   5.002   0.877   2.784
10715SOL    HW233045   4.953   0.927   2.636
10716SOL     OW33046   5.815   2.108   3.854
10716SOL    HW133047   5.904   2.070   3.827
10716SOL    HW233048   5.783   2.170   3.783
10717SOL     OW33049   1.475   1.916   1.418
10717SOL    HW133050   1.468   1.820   1.392
10717SOL    HW233051   1.391   1.945   1.464
10718SOL     OW33052   1.489   3.075   6.577
10718SOL    HW133053   1.444   2.995   6.537
10718SOL    HW233054   1.533   3.049   6.663
10719SOL     OW33055   6.497   5.849   2.603
10719SOL    HW133056   6.446   5.787   2.544
10719SOL    HW233057   6.449   5.861   2.690
10720SOL     OW33058   0.528   4.295   4.778
10720SOL    HW133059   0.623   4.301   4.808
10720SOL    HW233060   0.487   4.386   4.778
10721SOL     OW33061   5.631   3.834   4.995
10721SOL    HW133062   5.617   3.787   4.907
10721SOL    HW233063   5.548   3.828   5.050
10722SOL     OW33064   0.732   4.923   0.102
10722SOL    HW133065   0.638   4.943   0.129
10722SOL    HW233066   0.779   4.877   0.178
10723SOL     OW33067   0.446   3.620   6.108
10723SOL    HW133068   0.387   3.685   6.059
10723SOL    HW233069   0.402   3.530   6.110
10724SOL     OW33070   5.940   1.005   0.032
10724SOL    HW133071   5.855   1.031   7.004
10724SOL    HW233072   5.919   0.945   0.109
10725SOL     OW33073   0.636   5.672   4.433
10725SOL    HW133074   0.615   5.612   4.356
10725SOL    HW233075   0.562   5.668   4.501
10726SOL     OW33076   5.266   6.966   5.355
10726SOL    HW133077   5.249   6.922   5.444
10726SOL    HW233078   5.187   0.005   5.331
10727SOL     OW33079   0.221   4.822   5.130
10727SOL    HW133080   0.196   4.797   5.037
10727SOL    HW233081   0.271   4.747   5.173
10728SOL     OW33082   0.264   5.906   0.160
10728SOL    HW133083   0.309   5.922   0.073
10728SOL    HW233084   0.248   5.808   0.172
10729SOL     OW33085   5.463   0.789   1.629
10729SOL    HW133086   5.557   0.820   1.613
10729SOL    HW233087   5.449   0.776   1.727
10730SOL     OW33088   2.310   0.568   1.661
10730SOL    HW133089   2.233   0.631   1.670
10730SOL    HW233090   2.277   0.480   1.627
10731SOL     OW33091   3.087   5.888   0.918
10731SOL    HW133092   3.099   5.839   1.005
10731SOL    HW233093   3.151   5.964   0.913
10732SOL     OW33094   5.916   5.351   3.615
10732SOL    HW133095   5.890   5.337   3.710
10732SOL    HW233096   5.840   5.323   3.555
10733SOL     OW33097   6.696   1.712   1.124
10733SOL    HW133098   6.728   1.790   1.179
10733SOL    HW233099   6.738   1.628   1.158
10734SOL     OW33100   1.023   0.543   6.904
10734SOL    HW133101   1.088   0.597   6.957
10734SOL    HW233102   0.997   0.593   6.822
10735SOL     OW33103   1.186   3.319   3.219
10735SOL    HW133104   1.282   3.344   3.232
10735SOL    HW233105   1.174   3.278   3.128
10736SOL     OW33106   1.402   0.595   2.678
10736SOL    HW133107   1.355   0.520   2.723
10736SOL    HW233108   1.390   0.679   2.731
10737SOL     OW33109   2.005   1.791   0.720
10737SOL    HW133110   2.104   1.778   0.728
10737SOL    HW233111   1.959   1.731   0.785
10738SOL     OW33112   2.425   0.331   3.294
10738SOL    HW133113   2.357   0.260   3.277
10738SOL    HW233114   2.487   0.338   3.215
10739SOL     OW33115   0.582   1.276   0.756
10739SOL    HW133116   0.560   1.179   0.765
10739SOL    HW233117   0.669   1.286   0.707
10740SOL     OW33118   0.348   4.593   5.217
10740SOL    HW133119   0.406   4.550   5.286
10740SOL    HW233120   0.359   4.546   5.130
10741SOL     OW33121   6.233   0.097   1.233
10741SOL    HW133122   6.270   0.007   1.256
10741SOL    HW233123   6.144   0.086   1.188
10742SOL     OW33124   5.446   0.843   1.066
10742SOL    HW133125   5.475   0.819   1.159
10742SOL    HW233126   5.450   0.942   1.054
10743SOL     OW33127   2.670   1.869   4.754
10743SOL    HW133128   2.644   1.964   4.769
10743SOL    HW233129   2.614   1.830   4.680
10744SOL     OW33130   4.034   1.114   0.923
10744SOL    HW133131   3.956   1.161   0.965
10744SOL    HW233132   4.114   1.173   0.926
10745SOL     OW33133   0.143   5.331   6.842
10745SOL    HW133134   0.177   5.342   6.749
10745SOL    HW233135   0.151   5.235   6.870
10746SOL     OW33136   2.258   4.334   0.859
10746SOL    HW133137   2.164   4.303   0.867
10746SOL    HW233138   2.269   4.422   0.904
10747SOL     OW33139   4.487   1.192   3.529
10747SOL    HW133140   4.515   1.111   3.581
10747SOL    HW233141   4.390   1.186   3.507
10748SOL     OW33142   4.764   1.266   1.535
10748SOL    HW133143   4.705   1.327   1.482
10748SOL    HW233144   4.798   1.315   1.615
10749SOL     OW33145   0.588   5.891   3.233
10749SOL    HW133146   0.496   5.871   3.269
10749SOL    HW233147   0.652   5.901   3.309
10750SOL     OW33148   4.501   6.130   5.149
10750SOL    HW133149   4.459   6.119   5.059
10750SOL    HW233150   4.550   6.217   5.153
10751SOL     OW33151   1.688   4.238   4.000
10751SOL    HW133152   1.784   4.211   3.993
10751SOL    HW233153   1.632   4.157   4.020
10752SOL     OW33154   5.889   4.037   6.139
10752SOL    HW133155   5.790   4.040   6.124
10752SOL    HW233156   5.907   4.034   6.238
10753SOL     OW33157   4.512   6.772   4.327
10753SOL    HW133158   4.487   6.789   4.422
10753SOL    HW233159   4.435   6.795   4.268
10754SOL     OW33160   1.065   1.351   3.492
10754SOL    HW133161   0.977   1.304   3.499
10754SOL    HW233162   1.133   1.304   3.548
10755SOL     OW33163   6.997   0.798   6.514
10755SOL    HW133164   0.069   0.819   6.477
10755SOL    HW233165   7.007   0.754   6.603
10756SOL     OW33166   0.069   4.494   0.315
10756SOL    HW133167   0.103   4.402   0.295
10756SOL    HW233168   0.052   4.543   0.229
10757SOL     OW33169   1.153   3.213   0.381
10757SOL    HW133170   1.168   3.140   0.447
10757SOL    HW233171   1.153   3.302   0.428
10758SOL     OW33172   0.421   6.792   4.298
10758SOL    HW133173   0.332   6.801   4.343
10758SOL    HW233174   0.464   6.881   4.292
10759SOL     OW33175   1.817   2.900   1.238
10759SOL    HW133176   1.732   2.887   1.187
10759SOL    HW233177   1.871   2.971   1.194
10760SOL     OW33178   6.832   1.176   1.744
10760SOL    HW133179   6.777   1.166   1.661
10760SOL    HW233180   6.773   1.167   1.824
10761SOL     OW33181   1.164   0.941   6.169
10761SOL    HW133182   1.161   0.984   6.260
10761SOL    HW233183   1.095   0.869   6.164
10762SOL     OW33184   4.343   1.797   4.671
10762SOL    HW133185   4.309   1.841   4.754
10762SOL    HW233186   4.361   1.865   4.601
10763SOL     OW33187   5.221   6.615   2.500
10763SOL    HW133188   5.216   6.517   2.480
10763SOL    HW233189   5.130   6.648   2.524
10764SOL     OW33190   5.431   2.592   5.865
10764SOL    HW133191   5.518   2.604   5.816
10764SOL    HW233192   5.411   2.675   5.918
10765SOL     OW33193   5.081   2.171   0.434
10765SOL    HW133194   5.147   2.096   0.436
10765SOL    HW233195   4.989   2.134   0.425
10766SOL     OW33196   4.964   3.609   1.214
10766SOL    HW133197   4.989   3.582   1.121
10766SOL    HW233198   4.980   3.532   1.276
10767SOL     OW33199   1.117   0.721   0.076
10767SOL    HW133200   1.134   0.662   0.155
10767SOL    HW233201   1.027   0.763   0.083
10768SOL     OW33202   4.994   4.608   1.310
10768SOL    HW133203   4.906   4.616   1.262
10768SOL    HW233204   5.026   4.699   1.335
10769SOL     OW33205   2.641   4.656   4.763
10769SOL    HW133206   2.679   4.709   4.687
10769SOL    HW233207   2.713   4.641   4.831
10770SOL     OW33208   5.239   0.749   5.227
10770SOL    HW133209   5.144   0.772   5.248
10770SOL    HW233210   5.249   0.649   5.224
10771SOL     OW33211   5.481   1.130   3.541
10771SOL    HW133212   5.500   1.163   3.448
10771SOL    HW233213   5.395   1.168   3.573
10772SOL     OW33214   6.747   6.836   4.583
10772SOL    HW133215   6.649   6.841   4.563
10772SOL    HW233216   6.770   6.743   4.612
10773SOL     OW33217   6.688   5.437   0.092
10773SOL    HW133218   6.753   5.399   0.026
10773SOL    HW233219   6.601   5.456   0.047
10774SOL     OW33220   2.133   2.074   6.903
10774SOL    HW133221   2.180   2.135   6.839
10774SOL    HW233222   2.072   2.013   6.853
10775SOL     OW33223   6.898   4.717   1.378
10775SOL    HW133224   6.888   4.790   1.311
10775SOL    HW233225   6.827   4.726   1.448
10776SOL     OW33226   0.202   0.354   6.713
10776SOL    HW133227   0.172   0.299   6.635
10776SOL    HW233228   0.281   0.409   6.685
10777SOL     OW33229   3.374   5.721   3.010
10777SOL    HW133230   3.452   5.662   2.992
10777SOL    HW233231   3.295   5.665   3.035
10778SOL     OW33232   5.801   0.189   4.388
10778SOL    HW133233   5.756   0.239   4.313
10778SOL    HW233234   5.850   0.254   4.446
10779SOL     OW33235   6.225   4.478   3.665
10779SOL    HW133236   6.125   4.481   3.660
10779SOL    HW233237   6.255   4.383   3.670
10780SOL     OW33238   2.072   0.885   3.774
10780SOL    HW133239   2.040   0.932   3.857
10780SOL    HW233240   2.026   0.924   3.694
10781SOL     OW33241   4.260   0.972   3.263
10781SOL    HW133242   4.271   0.879   3.228
10781SOL    HW233243   4.228   0.969   3.358
10782SOL     OW33244   5.376   1.852   2.161
10782SOL    HW133245   5.420   1.849   2.071
10782SOL    HW233246   5.294   1.794   2.160
10783SOL     OW33247   0.768   3.126   3.567
10783SOL    HW133248   0.707   3.047   3.564
10783SOL    HW233249   0.717   3.206   3.600
10784SOL     OW33250   3.783   6.781   4.373
10784SOL    HW133251   3.797   6.717   4.297
10784SOL    HW233252   3.781   6.730   4.459
10785SOL     OW33253   0.250   4.669   1.601
10785SOL    HW133254   0.199   4.746   1.640
10785SOL    HW233255   0.200   4.633   1.522
10786SOL     OW33256   5.491   4.841   3.011
10786SOL    HW133257   5.427   4.917   3.002
10786SOL    HW233258   5.543   4.851   3.096
10787SOL     OW33259   1.760   1.411   4.803
10787SOL    HW133260   1.691   1.470   4.762
10787SOL    HW233261   1.792   1.450   4.889
10788SOL     OW33262   1.992   4.471   6.140
10788SOL    HW133263   2.057   4.395   6.141
10788SOL    HW233264   1.972   4.499   6.234
10789SOL     OW33265   0.181   2.815   6.505
10789SOL    HW133266   0.164   2.854   6.595
10789SOL    HW233267   0.118   2.856   6.439
10790SOL     OW33268   1.325   1.067   1.496
10790SOL    HW133269   1.295   1.013   1.417
10790SOL    HW233270   1.310   1.016   1.580
10791SOL     OW33271   0.623   0.043   0.915
10791SOL    HW133272   0.580   0.111   0.974
10791SOL    HW233273   0.603   0.065   0.819
10792SOL     OW33274   3.199   3.827   3.725
10792SOL    HW133275   3.206   3.923   3.750
10792SOL    HW233276   3.118   3.787   3.768
10793SOL     OW33277   5.596   3.500   4.273
10793SOL    HW133278   5.520   3.496   4.208
10793SOL    HW233279   5.562   3.525   4.364
10794SOL     OW33280   3.049   3.748   3.433
10794SOL    HW133281   3.009   3.690   3.362
10794SOL    HW233282   2.979   3.766   3.503
10795SOL     OW33283   6.770   4.733   2.557
10795SOL    HW133284   6.685   4.778   2.587
10795SOL    HW233285   6.847   4.793   2.574
10796SOL     OW33286   5.609   6.847   6.708
10796SOL    HW133287   5.555   6.787   6.649
10796SOL    HW233288   5.553   6.878   6.785
10797SOL     OW33289   4.157   2.976   1.650
10797SOL    HW133290   4.107   2.912   1.592
10797SOL    HW233291   4.101   3.001   1.729
10798SOL     OW33292   2.894   6.324   0.597
10798SOL    HW133293   2.866   6.332   0.693
10798SOL    HW233294   2.979   6.272   0.591
10799SOL     OW33295   3.809   1.079   1.693
10799SOL    HW133296   3.818   1.178   1.700
10799SOL    HW233297   3.804   1.039   1.784
10800SOL     OW33298   0.816   6.764   6.225
10800SOL    HW133299   0.761   6.717   6.294
10800SOL    HW233300   0.894   6.707   6.201
10801SOL     OW33301   0.646   5.992   5.940
10801SOL    HW133302   0.581   6.055   5.984
10801SOL    HW233303   0.664   5.915   6.001
10802SOL     OW33304   0.771   1.409   3.350
10802SOL    HW133305   0.859   1.432   3.310
10802SOL    HW233306   0.731   1.332   3.299
10803SOL     OW33307   3.279   3.916   6.317
10803SOL    HW133308   3.237   3.850   6.254
10803SOL    HW233309   3.255   4.009   6.289
10804SOL     OW33310   5.752   3.367   1.866
10804SOL    HW133311   5.811   3.313   1.925
10804SOL    HW233312   5.656   3.347   1.887
10805SOL     OW33313   4.293   6.458   6.711
10805SOL    HW133314   4.259   6.453   6.617
10805SOL    HW233315   4.376   6.514   6.713
10806SOL     OW33316   4.733   3.626   5.871
10806SOL    HW133317   4.715   3.724   5.872
10806SOL    HW233318   4.773   3.601   5.783
10807SOL     OW33319   1.202   0.073   2.156
10807SOL    HW133320   1.141   0.020   2.096
10807SOL    HW233321   1.176   0.169   2.152
10808SOL     OW33322   0.357   2.906   5.756
10808SOL    HW133323   0.357   2.807   5.750
10808SOL    HW233324   0.450   2.940   5.740
10809SOL     OW33325   2.703   4.647   3.446
10809SOL    HW133326   2.770   4.685   3.510
10809SOL    HW233327   2.739   4.654   3.353
10810SOL     OW33328   1.309   0.154   4.201
10810SOL    HW133329   1.244   0.210   4.148
10810SOL    HW233330   1.268   0.131   4.289
10811SOL     OW33331   4.064   4.218   6.256
10811SOL    HW133332   4.110   4.255   6.175
10811SOL    HW233333   4.131   4.171   6.314
10812SOL     OW33334   0.617   4.393   0.811
10812SOL    HW133335   0.553   4.422   0.882
10812SOL    HW233336   0.615   4.293   0.803
10813SOL     OW33337   2.132   4.927   6.401
10813SOL    HW133338   2.187   4.844   6.394
10813SOL    HW233339   2.141   4.980   6.316
10814SOL     OW33340   1.530   6.995   6.616
10814SOL    HW133341   1.580   6.956   6.538
10814SOL    HW233342   1.550   6.942   6.698
10815SOL     OW33343   4.354   4.668   3.358
10815SOL    HW133344   4.327   4.698   3.267
10815SOL    HW233345   4.441   4.618   3.352
10816SOL     OW33346   3.143   3.086   2.426
10816SOL    HW133347   3.195   3.029   2.363
10816SOL    HW233348   3.111   3.168   2.379
10817SOL     OW33349   4.439   0.880   3.524
10817SOL    HW133350   4.400   0.805   3.577
10817SOL    HW233351   4.521   0.915   3.570
10818SOL     OW33352   4.389   4.465   5.471
10818SOL    HW133353   4.391   4.426   5.562
10818SOL    HW233354   4.385   4.565   5.478
10819SOL     OW33355   6.315   4.939   6.247
10819SOL    HW133356   6.329   4.986   6.160
10819SOL    HW233357   6.314   4.840   6.233
10820SOL     OW33358   6.975   5.663   3.732
10820SOL    HW133359   6.973   5.685   3.829
10820SOL    HW233360   0.051   5.642   3.704
10821SOL     OW33361   5.439   6.718   2.668
10821SOL    HW133362   5.533   6.742   2.643
10821SOL    HW233363   5.388   6.697   2.585
10822SOL     OW33364   6.839   3.222   3.386
10822SOL    HW133365   6.793   3.287   3.326
10822SOL    HW233366   6.884   3.271   3.461
10823SOL     OW33367   1.689   6.648   1.587
10823SOL    HW133368   1.696   6.643   1.488
10823SOL    HW233369   1.712   6.741   1.618
10824SOL     OW33370   6.644   1.374   2.845
10824SOL    HW133371   6.667   1.386   2.748
10824SOL    HW233372   6.728   1.377   2.899
10825SOL     OW33373   2.438   1.115   6.208
10825SOL    HW133374   2.485   1.203   6.202
10825SOL    HW233375   2.418   1.081   6.117
10826SOL     OW33376   1.295   2.854   3.899
10826SOL    HW133377   1.223   2.847   3.830
10826SOL    HW233378   1.254   2.860   3.990
10827SOL     OW33379   6.976   2.906   3.973
10827SOL    HW133380   0.042   2.956   3.992
10827SOL    HW233381   6.922   2.956   3.905
10828SOL     OW33382   1.105   4.611   0.671
10828SOL    HW133383   1.184   4.671   0.684
10828SOL    HW233384   1.136   4.520   0.641
10829SOL     OW33385   4.182   2.345   0.405
10829SOL    HW133386   4.101   2.290   0.424
10829SOL    HW233387   4.260   2.308   0.456
10830SOL     OW33388   5.282   1.978   3.053
10830SOL    HW133389   5.198   1.963   3.001
10830SOL    HW233390   5.358   1.993   2.990
10831SOL     OW33391   2.685   5.970   3.106
10831SOL    HW133392   2.673   5.879   3.067
10831SOL    HW233393   2.597   6.016   3.114
10832SOL     OW33394   0.685   2.883   6.213
10832SOL    HW133395   0.764   2.847   6.262
10832SOL    HW233396   0.606   2.885   6.275
10833SOL     OW33397   0.773   0.178   2.251
10833SOL    HW133398   0.743   0.273   2.255
10833SOL    HW233399   0.825   0.156   2.333
10834SOL     OW33400   0.783   2.021   0.410
10834SOL    HW133401   0.783   1.964   0.328
10834SOL    HW233402   0.736   2.107   0.391
10835SOL     OW33403   5.535   2.482   0.598
10835SOL    HW133404   5.590   2.543   0.655
10835SOL    HW233405   5.592   2.404   0.569
10836SOL     OW33406   6.659   1.360   5.019
10836SOL    HW133407   6.596   1.343   5.094
10836SOL    HW233408   6.609   1.354   4.932
10837SOL     OW33409   6.710   5.151   1.279
10837SOL    HW133410   6.806   5.162   1.251
10837SOL    HW233411   6.660   5.235   1.261
10838SOL     OW33412   5.992   5.548   4.065
10838SOL    HW133413   5.935   5.626   4.044
10838SOL    HW233414   6.064   5.575   4.129
10839SOL     OW33415   4.392   3.115   1.705
10839SOL    HW133416   4.322   3.056   1.664
10839SOL    HW233417   4.450   3.061   1.765
10840SOL     OW33418   2.800   5.784   2.850
10840SOL    HW133419   2.808   5.877   2.812
10840SOL    HW233420   2.719   5.740   2.812
10841SOL     OW33421   5.915   4.972   5.696
10841SOL    HW133422   5.933   5.069   5.705
10841SOL    HW233423   5.875   4.937   5.780
10842SOL     OW33424   4.710   2.562   1.888
10842SOL    HW133425   4.808   2.576   1.891
10842SOL    HW233426   4.672   2.610   1.808
10843SOL     OW33427   1.110   1.682   1.607
10843SOL    HW133428   1.112   1.615   1.681
10843SOL    HW233429   1.031   1.665   1.548
10844SOL     OW33430   0.481   6.818   3.775
10844SOL    HW133431   0.405   6.882   3.780
10844SOL    HW233432   0.531   6.819   3.862
10845SOL     OW33433   3.017   0.190   5.303
10845SOL    HW133434   2.973   0.279   5.290
10845SOL    HW233435   3.103   0.187   5.252
10846SOL     OW33436   5.469   1.300   0.298
10846SOL    HW133437   5.524   1.252   0.229
10846SOL    HW233438   5.529   1.349   0.360
10847SOL     OW33439   3.551   2.870   6.669
10847SOL    HW133440   3.605   2.951   6.693
10847SOL    HW233441   3.541   2.812   6.750
10848SOL     OW33442   2.948   3.498   6.651
10848SOL    HW133443   3.013   3.563   6.613
10848SOL    HW233444   2.947   3.506   6.751
10849SOL     OW33445   1.956   5.239   3.662
10849SOL    HW133446   1.962   5.312   3.730
10849SOL    HW233447   1.993   5.155   3.700
10850SOL     OW33448   2.535   5.531   6.949
10850SOL    HW133449   2.500   5.620   6.921
10850SOL    HW233450   2.601   5.498   6.881
10851SOL     OW33451   1.852   3.653   0.208
10851SOL    HW133452   1.866   3.575   0.268
10851SOL    HW233453   1.909   3.643   0.126
10852SOL     OW33454   1.298   0.371   6.840
10852SOL    HW133455   1.393   0.346   6.821
10852SOL    HW233456   1.289   0.397   6.936
10853SOL     OW33457   1.667   2.321   5.140
10853SOL    HW133458   1.740   2.256   5.119
10853SOL    HW233459   1.637   2.365   5.055
10854SOL     OW33460   4.435   4.800   5.210
10854SOL    HW133461   4.442   4.896   5.183
10854SOL    HW233462   4.439   4.743   5.128
10855SOL     OW33463   3.814   0.304   1.037
10855SOL    HW133464   3.784   0.210   1.022
10855SOL    HW233465   3.877   0.331   0.964
10856SOL     OW33466   5.254   1.461   0.172
10856SOL    HW133467   5.299   1.438   0.259
10856SOL    HW233468   5.322   1.460   0.098
10857SOL     OW33469   6.642   2.611   2.879
10857SOL    HW133470   6.717   2.602   2.945
10857SOL    HW233471   6.648   2.538   2.811
10858SOL     OW33472   0.998   1.604   6.427
10858SOL    HW133473   1.073   1.658   6.467
10858SOL    HW233474   1.013   1.507   6.446
10859SOL     OW33475   1.042   4.392   4.553
10859SOL    HW133476   1.111   4.417   4.620
10859SOL    HW233477   1.012   4.474   4.504
10860SOL     OW33478   0.022   1.420   5.575
10860SOL    HW133479   0.109   1.470   5.576
10860SOL    HW233480   6.996   1.431   5.486
10861SOL     OW33481   3.705   3.348   3.437
10861SOL    HW133482   3.637   3.276   3.422
10861SOL    HW233483   3.683   3.427   3.379
10862SOL     OW33484   2.274   1.950   6.626
10862SOL    HW133485   2.332   2.031   6.636
10862SOL    HW233486   2.305   1.878   6.687
10863SOL     OW33487   3.749   0.940   3.896
10863SOL    HW133488   3.659   0.976   3.919
10863SOL    HW233489   3.803   0.929   3.979
10864SOL     OW33490   2.456   5.977   1.272
10864SOL    HW133491   2.546   5.937   1.286
10864SOL    HW233492   2.389   5.905   1.257
10865SOL     OW33493   6.893   1.180   2.111
10865SOL    HW133494   6.970   1.147   2.056
10865SOL    HW233495   6.808   1.166   2.061
10866SOL     OW33496   5.372   4.399   0.937
10866SOL    HW133497   5.282   4.426   0.970
10866SOL    HW233498   5.403   4.465   0.868
10867SOL     OW33499   3.429   4.314   6.827
10867SOL    HW133500   3.511   4.288   6.777
10867SOL    HW233501   3.454   4.351   6.917
10868SOL     OW33502   4.214   2.060   4.288
10868SOL    HW133503   4.242   1.967   4.267
10868SOL    HW233504   4.210   2.114   4.204
10869NA      NA33505   6.809   2.118   5.247
10870NA      NA33506   4.469   4.385   5.248
10871NA      NA33507   2.026   3.433   2.157
10872NA      NA33508   5.047   3.880   4.650
10873NA      NA33509   4.347   2.561   5.250
10874NA      NA33510   3.214   4.712   1.661
10875NA      NA33511   6.980   4.503   0.538
10876NA      NA33512   3.270   3.705   3.539
10877NA      NA33513   5.135   5.473   0.347
10878NA      NA33514   2.892   0.080   5.517
10879NA      NA33515   5.841   5.608   1.301
10880NA      NA33516   2.170   0.285   4.233
10881NA      NA33517   3.684   5.152   2.443
10882NA      NA33518   3.995   3.645   2.064
   7.01802   7.01802   7.01802
