Generated by trjconv : CNT in water t= 574.00000
33518
    1C        C    1   2.838   2.767   4.748
    1C        C    2   2.896   2.717   4.867
    1C        C    3   2.842   2.771   4.984
    1C        C    4   2.850   2.776   4.260
    1C        C    5   2.897   2.727   4.384
    1C        C    6   2.845   2.772   4.508
    1C        C    7   3.013   2.640   4.626
    1C        C    8   2.898   2.722   4.628
    1C        C    9   3.077   2.605   4.747
    1C        C   10   3.010   2.634   4.868
    1C        C   11   3.182   2.492   4.978
    1C        C   12   3.062   2.563   4.977
    1C        C   13   2.841   2.765   3.772
    1C        C   14   2.892   2.714   3.893
    1C        C   15   2.843   2.766   4.015
    1C        C   16   3.020   2.651   4.138
    1C        C   17   2.901   2.728   4.138
    1C        C   18   3.082   2.622   4.261
    1C        C   19   3.013   2.647   4.382
    1C        C   20   3.207   2.558   4.503
    1C        C   21   3.075   2.609   4.503
    1C        C   22   3.274   2.533   4.624
    1C        C   23   3.209   2.552   4.748
    1C        C   24   3.413   2.487   4.864
    1C        C   25   3.271   2.504   4.866
    1C        C   26   3.491   2.490   4.980
    1C        C   27   2.847   2.766   3.280
    1C        C   28   2.900   2.722   3.404
    1C        C   29   2.854   2.772   3.528
    1C        C   30   3.017   2.642   3.650
    1C        C   31   2.903   2.726   3.652
    1C        C   32   3.077   2.608   3.773
    1C        C   33   3.010   2.637   3.894
    1C        C   34   3.208   2.558   4.017
    1C        C   35   3.076   2.607   4.015
    1C        C   36   3.278   2.541   4.139
    1C        C   37   3.211   2.563   4.261
    1C        C   38   3.419   2.521   4.382
    1C        C   39   3.280   2.547   4.382
    1C        C   40   3.487   2.505   4.505
    1C        C   41   3.413   2.504   4.625
    1C        C   42   3.631   2.485   4.743
    1C        C   43   3.488   2.488   4.743
    1C        C   44   3.706   2.489   4.862
    1C        C   45   3.630   2.483   4.980
    1C        C   46   2.838   2.754   2.795
    1C        C   47   2.895   2.712   2.917
    1C        C   48   2.840   2.760   3.038
    1C        C   49   3.018   2.639   3.162
    1C        C   50   2.898   2.715   3.159
    1C        C   51   3.079   2.607   3.285
    1C        C   52   3.015   2.641   3.407
    1C        C   53   3.207   2.549   3.528
    1C        C   54   3.077   2.604   3.528
    1C        C   55   3.274   2.529   3.651
    1C        C   56   3.208   2.554   3.773
    1C        C   57   3.416   2.515   3.895
    1C        C   58   3.276   2.536   3.895
    1C        C   59   3.487   2.510   4.017
    1C        C   60   3.417   2.512   4.140
    1C        C   61   3.630   2.509   4.257
    1C        C   62   3.489   2.503   4.261
    1C        C   63   3.699   2.517   4.380
    1C        C   64   3.629   2.504   4.502
    1C        C   65   3.837   2.547   4.621
    1C        C   66   3.701   2.508   4.623
    1C        C   67   3.906   2.564   4.743
    1C        C   68   3.842   2.527   4.863
    1C        C   69   4.050   2.592   4.979
    1C        C   70   3.922   2.535   4.978
    1C        C   71   2.824   2.736   2.308
    1C        C   72   2.881   2.692   2.429
    1C        C   73   2.829   2.744   2.550
    1C        C   74   3.008   2.630   2.673
    1C        C   75   2.888   2.704   2.673
    1C        C   76   3.073   2.597   2.794
    1C        C   77   3.011   2.631   2.917
    1C        C   78   3.206   2.549   3.038
    1C        C   79   3.075   2.602   3.039
    1C        C   80   3.275   2.534   3.160
    1C        C   81   3.209   2.552   3.284
    1C        C   82   3.416   2.508   3.403
    1C        C   83   3.276   2.530   3.406
    1C        C   84   3.485   2.506   3.526
    1C        C   85   3.415   2.514   3.648
    1C        C   86   3.625   2.512   3.771
    1C        C   87   3.484   2.511   3.771
    1C        C   88   3.697   2.515   3.892
    1C        C   89   3.628   2.513   4.015
    1C        C   90   3.840   2.547   4.138
    1C        C   91   3.701   2.518   4.136
    1C        C   92   3.906   2.573   4.259
    1C        C   93   3.836   2.553   4.380
    1C        C   94   4.032   2.636   4.503
    1C        C   95   3.905   2.573   4.501
    1C        C   96   4.096   2.668   4.624
    1C        C   97   4.036   2.621   4.743
    1C        C   98   4.193   2.768   4.863
    1C        C   99   4.104   2.656   4.863
    1C        C  100   4.210   2.846   4.979
    1C        C  101   2.816   2.729   2.071
    1C        C  102   2.989   2.593   2.190
    1C        C  103   2.873   2.677   2.188
    1C        C  104   3.060   2.570   2.311
    1C        C  105   2.999   2.615   2.430
    1C        C  106   3.200   2.543   2.551
    1C        C  107   3.069   2.595   2.551
    1C        C  108   3.271   2.525   2.672
    1C        C  109   3.203   2.543   2.795
    1C        C  110   3.412   2.501   2.915
    1C        C  111   3.273   2.522   2.916
    1C        C  112   3.484   2.493   3.036
    1C        C  113   3.414   2.506   3.158
    1C        C  114   3.627   2.501   3.280
    1C        C  115   3.486   2.500   3.280
    1C        C  116   3.696   2.512   3.403
    1C        C  117   3.626   2.507   3.526
    1C        C  118   3.835   2.546   3.647
    1C        C  119   3.696   2.519   3.649
    1C        C  120   3.901   2.571   3.769
    1C        C  121   3.834   2.549   3.892
    1C        C  122   4.029   2.634   4.015
    1C        C  123   3.904   2.568   4.014
    1C        C  124   4.093   2.671   4.136
    1C        C  125   4.035   2.632   4.259
    1C        C  126   4.203   2.761   4.377
    1C        C  127   4.095   2.670   4.381
    1C        C  128   4.247   2.817   4.499
    1C        C  129   4.199   2.765   4.621
    1C        C  130   4.331   2.933   4.741
    1C        C  131   4.251   2.816   4.743
    1C        C  132   4.359   3.002   4.862
    1C        C  133   4.282   2.965   4.973
    1C        C  134   3.173   2.470   2.083
    1C        C  135   3.038   2.505   2.088
    1C        C  136   3.262   2.483   2.191
    1C        C  137   3.194   2.522   2.308
    1C        C  138   3.404   2.486   2.428
    1C        C  139   3.264   2.509   2.430
    1C        C  140   3.480   2.496   2.547
    1C        C  141   3.410   2.504   2.669
    1C        C  142   3.622   2.505   2.789
    1C        C  143   3.481   2.497   2.791
    1C        C  144   3.692   2.514   2.912
    1C        C  145   3.625   2.502   3.035
    1C        C  146   3.833   2.542   3.158
    1C        C  147   3.696   2.508   3.157
    1C        C  148   3.902   2.564   3.279
    1C        C  149   3.834   2.544   3.401
    1C        C  150   4.028   2.626   3.523
    1C        C  151   3.901   2.565   3.523
    1C        C  152   4.087   2.666   3.645
    1C        C  153   4.028   2.634   3.769
    1C        C  154   4.198   2.758   3.888
    1C        C  155   4.086   2.671   3.892
    1C        C  156   4.251   2.806   4.009
    1C        C  157   4.202   2.760   4.133
    1C        C  158   4.342   2.921   4.252
    1C        C  159   4.254   2.810   4.255
    1C        C  160   4.377   2.981   4.375
    1C        C  161   4.330   2.931   4.498
    1C        C  162   4.442   3.114   4.617
    1C        C  163   4.370   2.992   4.619
    1C        C  164   4.470   3.183   4.737
    1C        C  165   4.435   3.120   4.858
    1C        C  166   4.515   3.321   4.971
    1C        C  167   4.479   3.187   4.973
    1C        C  168   3.478   2.442   2.072
    1C        C  169   3.401   2.456   2.188
    1C        C  170   3.617   2.469   2.305
    1C        C  171   3.475   2.468   2.308
    1C        C  172   3.691   2.494   2.423
    1C        C  173   3.621   2.496   2.546
    1C        C  174   3.830   2.544   2.667
    1C        C  175   3.693   2.508   2.667
    1C        C  176   3.897   2.566   2.790
    1C        C  177   3.831   2.542   2.912
    1C        C  178   4.026   2.623   3.033
    1C        C  179   3.898   2.563   3.034
    1C        C  180   4.091   2.660   3.153
    1C        C  181   4.030   2.624   3.275
    1C        C  182   4.194   2.753   3.398
    1C        C  183   4.085   2.664   3.399
    1C        C  184   4.251   2.799   3.519
    1C        C  185   4.201   2.750   3.642
    1C        C  186   4.335   2.915   3.765
    1C        C  187   4.249   2.802   3.764
    1C        C  188   4.378   2.973   3.886
    1C        C  189   4.341   2.915   4.009
    1C        C  190   4.446   3.104   4.128
    1C        C  191   4.380   2.979   4.129
    1C        C  192   4.471   3.171   4.250
    1C        C  193   4.442   3.107   4.373
    1C        C  194   4.504   3.313   4.493
    1C        C  195   4.467   3.177   4.493
    1C        C  196   4.524   3.388   4.611
    1C        C  197   4.514   3.319   4.734
    1C        C  198   4.558   3.535   4.849
    1C        C  199   4.534   3.394   4.853
    1C        C  200   4.587   3.620   4.960
    1C        C  201   3.616   2.420   2.073
    1C        C  202   3.828   2.513   2.183
    1C        C  203   3.692   2.467   2.184
    1C        C  204   3.901   2.537   2.303
    1C        C  205   3.829   2.521   2.423
    1C        C  206   4.021   2.621   2.543
    1C        C  207   3.896   2.556   2.543
    1C        C  208   4.081   2.664   2.664
    1C        C  209   4.024   2.628   2.788
    1C        C  210   4.197   2.749   2.908
    1C        C  211   4.086   2.661   2.911
    1C        C  212   4.254   2.793   3.030
    1C        C  213   4.204   2.744   3.152
    1C        C  214   4.335   2.909   3.273
    1C        C  215   4.249   2.797   3.275
    1C        C  216   4.370   2.973   3.395
    1C        C  217   4.334   2.913   3.518
    1C        C  218   4.431   3.100   3.639
    1C        C  219   4.370   2.973   3.641
    1C        C  220   4.457   3.169   3.759
    1C        C  221   4.439   3.101   3.882
    1C        C  222   4.495   3.305   4.006
    1C        C  223   4.468   3.167   4.004
    1C        C  224   4.508   3.378   4.126
    1C        C  225   4.502   3.308   4.249
    1C        C  226   4.519   3.523   4.365
    1C        C  227   4.512   3.382   4.369
    1C        C  228   4.521   3.595   4.486
    1C        C  229   4.536   3.528   4.609
    1C        C  230   4.506   3.744   4.727
    1C        C  231   4.536   3.605   4.728
    1C        C  232   4.497   3.818   4.847
    1C        C  233   4.549   3.756   4.960
    1C        C  234   4.018   2.610   2.064
    1C        C  235   3.899   2.538   2.065
    1C        C  236   4.084   2.652   2.179
    1C        C  237   4.025   2.607   2.300
    1C        C  238   4.200   2.733   2.420
    1C        C  239   4.084   2.651   2.420
    1C        C  240   4.257   2.780   2.540
    1C        C  241   4.200   2.739   2.663
    1C        C  242   4.339   2.902   2.784
    1C        C  243   4.249   2.792   2.785
    1C        C  244   4.379   2.961   2.905
    1C        C  245   4.342   2.904   3.029
    1C        C  246   4.436   3.095   3.148
    1C        C  247   4.378   2.966   3.151
    1C        C  248   4.455   3.164   3.270
    1C        C  249   4.431   3.100   3.393
    1C        C  250   4.485   3.304   3.514
    1C        C  251   4.455   3.166   3.516
    1C        C  252   4.497   3.373   3.636
    1C        C  253   4.488   3.307   3.761
    1C        C  254   4.516   3.516   3.879
    1C        C  255   4.502   3.376   3.883
    1C        C  256   4.515   3.590   4.000
    1C        C  257   4.519   3.519   4.122
    1C        C  258   4.491   3.732   4.242
    1C        C  259   4.514   3.592   4.243
    1C        C  260   4.476   3.803   4.363
    1C        C  261   4.491   3.734   4.485
    1C        C  262   4.430   3.941   4.602
    1C        C  263   4.479   3.809   4.604
    1C        C  264   4.404   4.011   4.722
    1C        C  265   4.440   3.947   4.842
    1C        C  266   4.326   4.132   4.957
    1C        C  267   4.401   4.015   4.958
    1C        C  268   4.263   2.777   2.062
    1C        C  269   4.198   2.736   2.179
    1C        C  270   4.350   2.887   2.300
    1C        C  271   4.259   2.778   2.299
    1C        C  272   4.384   2.951   2.421
    1C        C  273   4.348   2.888   2.542
    1C        C  274   4.443   3.085   2.662
    1C        C  275   4.380   2.958   2.661
    1C        C  276   4.474   3.151   2.782
    1C        C  277   4.446   3.086   2.904
    1C        C  278   4.503   3.292   3.025
    1C        C  279   4.469   3.155   3.025
    1C        C  280   4.507   3.367   3.145
    1C        C  281   4.492   3.300   3.269
    1C        C  282   4.513   3.512   3.390
    1C        C  283   4.499   3.372   3.391
    1C        C  284   4.515   3.582   3.513
    1C        C  285   4.511   3.514   3.637
    1C        C  286   4.493   3.727   3.753
    1C        C  287   4.511   3.587   3.757
    1C        C  288   4.476   3.798   3.874
    1C        C  289   4.491   3.729   3.996
    1C        C  290   4.425   3.930   4.117
    1C        C  291   4.474   3.798   4.119
    1C        C  292   4.396   4.000   4.237
    1C        C  293   4.431   3.937   4.358
    1C        C  294   4.327   4.126   4.477
    1C        C  295   4.398   4.003   4.479
    1C        C  296   4.285   4.186   4.598
    1C        C  297   4.325   4.129   4.721
    1C        C  298   4.200   4.312   4.837
    1C        C  299   4.283   4.195   4.840
    1C        C  300   4.168   4.396   4.949
    1C        C  301   4.350   2.886   2.060
    1C        C  302   4.470   3.068   2.178
    1C        C  303   4.395   2.946   2.179
    1C        C  304   4.488   3.139   2.300
    1C        C  305   4.445   3.078   2.420
    1C        C  306   4.511   3.285   2.537
    1C        C  307   4.470   3.149   2.539
    1C        C  308   4.512   3.356   2.658
    1C        C  309   4.504   3.289   2.782
    1C        C  310   4.521   3.502   2.899
    1C        C  311   4.521   3.361   2.903
    1C        C  312   4.516   3.575   3.020
    1C        C  313   4.514   3.508   3.144
    1C        C  314   4.490   3.719   3.265
    1C        C  315   4.511   3.580   3.266
    1C        C  316   4.478   3.791   3.386
    1C        C  317   4.491   3.721   3.508
    1C        C  318   4.427   3.925   3.628
    1C        C  319   4.474   3.792   3.629
    1C        C  320   4.398   3.993   3.749
    1C        C  321   4.426   3.930   3.873
    1C        C  322   4.324   4.116   3.990
    1C        C  323   4.396   3.995   3.995
    1C        C  324   4.278   4.176   4.110
    1C        C  325   4.321   4.120   4.232
    1C        C  326   4.191   4.286   4.353
    1C        C  327   4.283   4.180   4.354
    1C        C  328   4.136   4.335   4.474
    1C        C  329   4.189   4.290   4.597
    1C        C  330   4.021   4.429   4.716
    1C        C  331   4.138   4.347   4.715
    1C        C  332   3.969   4.489   4.832
    1C        C  333   4.047   4.468   4.947
    1C        C  334   4.557   3.267   2.061
    1C        C  335   4.540   3.128   2.068
    1C        C  336   4.539   3.349   2.174
    1C        C  337   4.516   3.278   2.294
    1C        C  338   4.521   3.494   2.411
    1C        C  339   4.522   3.353   2.413
    1C        C  340   4.518   3.566   2.532
    1C        C  341   4.520   3.497   2.656
    1C        C  342   4.493   3.710   2.772
    1C        C  343   4.519   3.571   2.776
    1C        C  344   4.474   3.780   2.894
    1C        C  345   4.493   3.715   3.018
    1C        C  346   4.431   3.918   3.137
    1C        C  347   4.474   3.783   3.140
    1C        C  348   4.397   3.982   3.258
    1C        C  349   4.428   3.923   3.383
    1C        C  350   4.320   4.106   3.501
    1C        C  351   4.394   3.986   3.505
    1C        C  352   4.279   4.167   3.621
    1C        C  353   4.320   4.111   3.744
    1C        C  354   4.181   4.270   3.867
    1C        C  355   4.275   4.165   3.867
    1C        C  356   4.124   4.319   3.987
    1C        C  357   4.176   4.273   4.110
    1C        C  358   4.016   4.409   4.230
    1C        C  359   4.132   4.329   4.232
    1C        C  360   3.955   4.447   4.352
    1C        C  361   4.019   4.415   4.473
    1C        C  362   3.830   4.517   4.594
    1C        C  363   3.959   4.460   4.593
    1C        C  364   3.762   4.546   4.715
    1C        C  365   3.837   4.539   4.834
    1C        C  366   3.628   4.586   4.947
    1C        C  367   3.765   4.567   4.952
    1C        C  368   4.512   3.564   2.053
    1C        C  369   4.531   3.490   2.170
    1C        C  370   4.510   3.706   2.286
    1C        C  371   4.521   3.565   2.289
    1C        C  372   4.492   3.776   2.407
    1C        C  373   4.503   3.707   2.530
    1C        C  374   4.429   3.911   2.649
    1C        C  375   4.478   3.778   2.649
    1C        C  376   4.402   3.976   2.771
    1C        C  377   4.435   3.916   2.894
    1C        C  378   4.321   4.097   3.010
    1C        C  379   4.402   3.981   3.014
    1C        C  380   4.275   4.153   3.132
    1C        C  381   4.316   4.098   3.255
    1C        C  382   4.179   4.261   3.377
    1C        C  383   4.275   4.157   3.377
    1C        C  384   4.123   4.308   3.497
    1C        C  385   4.179   4.267   3.621
    1C        C  386   4.008   4.388   3.741
    1C        C  387   4.126   4.311   3.744
    1C        C  388   3.945   4.427   3.861
    1C        C  389   4.003   4.393   3.985
    1C        C  390   3.820   4.494   4.108
    1C        C  391   3.948   4.434   4.108
    1C        C  392   3.754   4.516   4.231
    1C        C  393   3.824   4.501   4.352
    1C        C  394   3.617   4.549   4.474
    1C        C  395   3.757   4.527   4.474
    1C        C  396   3.545   4.551   4.595
    1C        C  397   3.621   4.555   4.714
    1C        C  398   3.409   4.544   4.841
    1C        C  399   3.547   4.572   4.833
    1C        C  400   3.339   4.512   4.958
    1C        C  401   4.500   3.702   2.049
    1C        C  402   4.450   3.913   2.165
    1C        C  403   4.495   3.779   2.166
    1C        C  404   4.409   3.972   2.286
    1C        C  405   4.442   3.908   2.407
    1C        C  406   4.324   4.092   2.525
    1C        C  407   4.405   3.976   2.526
    1C        C  408   4.278   4.149   2.646
    1C        C  409   4.322   4.093   2.768
    1C        C  410   4.177   4.251   2.889
    1C        C  411   4.280   4.154   2.888
    1C        C  412   4.122   4.299   3.010
    1C        C  413   4.171   4.249   3.133
    1C        C  414   4.002   4.377   3.254
    1C        C  415   4.121   4.301   3.254
    1C        C  416   3.943   4.413   3.377
    1C        C  417   4.005   4.385   3.501
    1C        C  418   3.811   4.478   3.620
    1C        C  419   3.941   4.421   3.621
    1C        C  420   3.747   4.505   3.742
    1C        C  421   3.815   4.483   3.864
    1C        C  422   3.611   4.535   3.989
    1C        C  423   3.751   4.513   3.986
    1C        C  424   3.542   4.537   4.112
    1C        C  425   3.615   4.539   4.233
    1C        C  426   3.402   4.549   4.361
    1C        C  427   3.543   4.553   4.354
    1C        C  428   3.329   4.545   4.482
    1C        C  429   3.404   4.558   4.601
    1C        C  430   3.193   4.521   4.724
    1C        C  431   3.333   4.547   4.722
    1C        C  432   3.123   4.494   4.845
    1C        C  433   3.202   4.490   4.961
    1C        C  434   4.388   4.126   2.053
    1C        C  435   4.447   3.999   2.054
    1C        C  436   4.308   4.165   2.165
    1C        C  437   4.332   4.092   2.285
    1C        C  438   4.181   4.247   2.400
    1C        C  439   4.282   4.150   2.403
    1C        C  440   4.121   4.289   2.521
    1C        C  441   4.177   4.248   2.644
    1C        C  442   4.004   4.371   2.766
    1C        C  443   4.121   4.291   2.766
    1C        C  444   3.942   4.408   2.887
    1C        C  445   4.004   4.377   3.010
    1C        C  446   3.808   4.461   3.133
    1C        C  447   3.941   4.411   3.131
    1C        C  448   3.745   4.493   3.255
    1C        C  449   3.813   4.470   3.377
    1C        C  450   3.606   4.527   3.497
    1C        C  451   3.743   4.496   3.497
    1C        C  452   3.539   4.541   3.621
    1C        C  453   3.608   4.534   3.744
    1C        C  454   3.398   4.544   3.865
    1C        C  455   3.540   4.545   3.867
    1C        C  456   3.332   4.536   3.990
    1C        C  457   3.400   4.537   4.113
    1C        C  458   3.197   4.498   4.237
    1C        C  459   3.334   4.534   4.238
    1C        C  460   3.127   4.487   4.359
    1C        C  461   3.190   4.518   4.481
    1C        C  462   2.994   4.441   4.605
    1C        C  463   3.123   4.499   4.603
    1C        C  464   2.930   4.399   4.724
    1C        C  465   2.990   4.442   4.846
    1C        C  466   2.798   4.339   4.959
    1C        C  467   2.902   4.433   4.959
    1C        C  468   4.125   4.285   2.041
    1C        C  469   4.191   4.246   2.158
    1C        C  470   4.010   4.372   2.281
    1C        C  471   4.130   4.294   2.277
    1C        C  472   3.943   4.402   2.401
    1C        C  473   4.004   4.369   2.524
    1C        C  474   3.812   4.462   2.643
    1C        C  475   3.941   4.406   2.645
    1C        C  476   3.745   4.485   2.765
    1C        C  477   3.813   4.466   2.887
    1C        C  478   3.608   4.519   3.010
    1C        C  479   3.745   4.484   3.009
    1C        C  480   3.535   4.529   3.131
    1C        C  481   3.607   4.526   3.252
    1C        C  482   3.395   4.535   3.377
    1C        C  483   3.536   4.535   3.374
    1C        C  484   3.325   4.528   3.500
    1C        C  485   3.398   4.540   3.620
    1C        C  486   3.191   4.501   3.748
    1C        C  487   3.328   4.534   3.743
    1C        C  488   3.126   4.477   3.871
    1C        C  489   3.195   4.502   3.992
    1C        C  490   3.005   4.411   4.118
    1C        C  491   3.131   4.475   4.115
    1C        C  492   2.941   4.384   4.241
    1C        C  493   2.998   4.428   4.362
    1C        C  494   2.829   4.303   4.481
    1C        C  495   2.935   4.397   4.485
    1C        C  496   2.775   4.254   4.602
    1C        C  497   2.820   4.309   4.724
    1C        C  498   2.664   4.165   4.843
    1C        C  499   2.752   4.275   4.843
    1C        C  500   2.601   4.117   4.958
    1C        C  501   4.003   4.350   2.041
    1C        C  502   3.818   4.461   2.157
    1C        C  503   3.945   4.400   2.159
    1C        C  504   3.745   4.482   2.276
    1C        C  505   3.812   4.455   2.397
    1C        C  506   3.608   4.511   2.522
    1C        C  507   3.745   4.479   2.519
    1C        C  508   3.536   4.515   2.644
    1C        C  509   3.605   4.507   2.767
    1C        C  510   3.394   4.526   2.888
    1C        C  511   3.535   4.520   2.889
    1C        C  512   3.323   4.528   3.010
    1C        C  513   3.394   4.535   3.132
    1C        C  514   3.188   4.494   3.256
    1C        C  515   3.325   4.526   3.255
    1C        C  516   3.122   4.469   3.379
    1C        C  517   3.189   4.492   3.502
    1C        C  518   2.996   4.414   3.627
    1C        C  519   3.124   4.475   3.626
    1C        C  520   2.938   4.380   3.751
    1C        C  521   2.999   4.415   3.873
    1C        C  522   2.835   4.282   3.994
    1C        C  523   2.946   4.370   3.996
    1C        C  524   2.788   4.235   4.119
    1C        C  525   2.832   4.294   4.239
    1C        C  526   2.696   4.133   4.364
    1C        C  527   2.781   4.246   4.362
    1C        C  528   2.656   4.074   4.486
    1C        C  529   2.689   4.142   4.605
    1C        C  530   2.580   3.960   4.727
    1C        C  531   2.640   4.089   4.726
    1C        C  532   2.541   3.901   4.850
    1C        C  533   2.530   3.996   4.956
    1C        C  534   3.618   4.550   2.043
    1C        C  535   3.750   4.506   2.043
    1C        C  536   3.535   4.527   2.158
    1C        C  537   3.606   4.509   2.280
    1C        C  538   3.394   4.517   2.404
    1C        C  539   3.535   4.523   2.402
    1C        C  540   3.322   4.509   2.525
    1C        C  541   3.395   4.509   2.646
    1C        C  542   3.184   4.489   2.770
    1C        C  543   3.322   4.517   2.767
    1C        C  544   3.117   4.464   2.892
    1C        C  545   3.187   4.491   3.012
    1C        C  546   2.993   4.408   3.135
    1C        C  547   3.120   4.470   3.135
    1C        C  548   2.936   4.372   3.259
    1C        C  549   2.994   4.409   3.382
    1C        C  550   2.831   4.279   3.506
    1C        C  551   2.936   4.374   3.506
    1C        C  552   2.782   4.232   3.630
    1C        C  553   2.832   4.286   3.751
    1C        C  554   2.704   4.117   3.875
    1C        C  555   2.783   4.233   3.872
    1C        C  556   2.663   4.062   3.999
    1C        C  557   2.700   4.125   4.120
    1C        C  558   2.605   3.938   4.245
    1C        C  559   2.660   4.069   4.243
    1C        C  560   2.577   3.875   4.368
    1C        C  561   2.593   3.947   4.489
    1C        C  562   2.523   3.747   4.613
    1C        C  563   2.560   3.883   4.610
    1C        C  564   2.512   3.679   4.736
    1C        C  565   2.518   3.760   4.853
    1C        C  566   2.532   3.547   4.975
    1C        C  567   2.524   3.686   4.972
    1C        C  568   3.326   4.480   2.045
    1C        C  569   3.394   4.512   2.163
    1C        C  570   3.181   4.479   2.281
    1C        C  571   3.319   4.511   2.284
    1C        C  572   3.115   4.458   2.404
    1C        C  573   3.184   4.480   2.526
    1C        C  574   2.989   4.400   2.649
    1C        C  575   3.116   4.462   2.649
    1C        C  576   2.929   4.362   2.771
    1C        C  577   2.990   4.403   2.892
    1C        C  578   2.823   4.276   3.019
    1C        C  579   2.930   4.368   3.015
    1C        C  580   2.774   4.227   3.142
    1C        C  581   2.829   4.280   3.261
    1C        C  582   2.700   4.113   3.384
    1C        C  583   2.785   4.225   3.383
    1C        C  584   2.660   4.057   3.508
    1C        C  585   2.701   4.117   3.629
    1C        C  586   2.605   3.930   3.756
    1C        C  587   2.667   4.057   3.753
    1C        C  588   2.580   3.867   3.879
    1C        C  589   2.603   3.934   4.001
    1C        C  590   2.542   3.732   4.126
    1C        C  591   2.583   3.868   4.125
    1C        C  592   2.529   3.666   4.250
    1C        C  593   2.542   3.739   4.370
    1C        C  594   2.512   3.531   4.497
    1C        C  595   2.521   3.672   4.493
    1C        C  596   2.509   3.461   4.620
    1C        C  597   2.515   3.537   4.739
    1C        C  598   2.538   3.326   4.862
    1C        C  599   2.532   3.467   4.860
    1C        C  600   2.537   3.247   4.978
    1C        C  601   3.193   4.440   2.045
    1C        C  602   2.981   4.392   2.160
    1C        C  603   3.115   4.443   2.161
    1C        C  604   2.924   4.358   2.286
    1C        C  605   2.986   4.400   2.406
    1C        C  606   2.817   4.272   2.529
    1C        C  607   2.928   4.359   2.528
    1C        C  608   2.767   4.223   2.652
    1C        C  609   2.818   4.275   2.773
    1C        C  610   2.686   4.114   2.896
    1C        C  611   2.770   4.227   2.897
    1C        C  612   2.651   4.055   3.019
    1C        C  613   2.691   4.113   3.141
    1C        C  614   2.594   3.925   3.266
    1C        C  615   2.656   4.052   3.264
    1C        C  616   2.576   3.863   3.391
    1C        C  617   2.602   3.929   3.514
    1C        C  618   2.528   3.729   3.638
    1C        C  619   2.574   3.863   3.635
    1C        C  620   2.517   3.661   3.761
    1C        C  621   2.535   3.733   3.881
    1C        C  622   2.511   3.524   4.009
    1C        C  623   2.521   3.664   4.004
    1C        C  624   2.516   3.455   4.132
    1C        C  625   2.515   3.526   4.255
    1C        C  626   2.534   3.316   4.377
    1C        C  627   2.513   3.456   4.377
    1C        C  628   2.551   3.249   4.501
    1C        C  629   2.529   3.322   4.621
    1C        C  630   2.591   3.117   4.747
    1C        C  631   2.547   3.252   4.742
    1C        C  632   2.614   3.045   4.867
    1C        C  633   2.556   3.108   4.982
    1C        C  634   2.781   4.307   2.055
    1C        C  635   2.892   4.391   2.048
    1C        C  636   2.748   4.232   2.169
    1C        C  637   2.809   4.275   2.288
    1C        C  638   2.674   4.111   2.408
    1C        C  639   2.759   4.224   2.410
    1C        C  640   2.640   4.052   2.532
    1C        C  641   2.685   4.108   2.653
    1C        C  642   2.587   3.921   2.779
    1C        C  643   2.649   4.048   2.776
    1C        C  644   2.563   3.856   2.902
    1C        C  645   2.591   3.927   3.021
    1C        C  646   2.528   3.724   3.148
    1C        C  647   2.566   3.860   3.143
    1C        C  648   2.522   3.656   3.271
    1C        C  649   2.538   3.727   3.392
    1C        C  650   2.515   3.519   3.519
    1C        C  651   2.517   3.660   3.515
    1C        C  652   2.516   3.449   3.642
    1C        C  653   2.506   3.520   3.764
    1C        C  654   2.531   3.312   3.887
    1C        C  655   2.509   3.452   3.887
    1C        C  656   2.556   3.247   4.010
    1C        C  657   2.538   3.316   4.132
    1C        C  658   2.601   3.116   4.258
    1C        C  659   2.549   3.247   4.255
    1C        C  660   2.630   3.052   4.381
    1C        C  661   2.599   3.117   4.503
    1C        C  662   2.710   2.940   4.627
    1C        C  663   2.625   3.052   4.626
    1C        C  664   2.747   2.876   4.747
    1C        C  665   2.692   2.925   4.869
    1C        C  666   2.743   2.869   4.987
    1C        C  667   2.689   4.023   2.054
    1C        C  668   2.688   4.105   2.167
    1C        C  669   2.593   3.912   2.292
    1C        C  670   2.645   4.044   2.287
    1C        C  671   2.563   3.846   2.414
    1C        C  672   2.587   3.921   2.532
    1C        C  673   2.525   3.721   2.659
    1C        C  674   2.565   3.856   2.655
    1C        C  675   2.516   3.649   2.780
    1C        C  676   2.532   3.718   2.902
    1C        C  677   2.512   3.511   3.031
    1C        C  678   2.520   3.652   3.027
    1C        C  679   2.514   3.442   3.154
    1C        C  680   2.514   3.515   3.275
    1C        C  681   2.532   3.306   3.399
    1C        C  682   2.515   3.446   3.398
    1C        C  683   2.549   3.238   3.522
    1C        C  684   2.539   3.309   3.643
    1C        C  685   2.594   3.108   3.770
    1C        C  686   2.546   3.241   3.766
    1C        C  687   2.628   3.047   3.893
    1C        C  688   2.605   3.114   4.015
    1C        C  689   2.708   2.931   4.139
    1C        C  690   2.631   3.049   4.137
    1C        C  691   2.754   2.879   4.262
    1C        C  692   2.709   2.935   4.384
    1C        C  693   2.751   2.878   4.506
    1C        C  694   2.633   3.894   2.059
    1C        C  695   2.542   3.699   2.177
    1C        C  696   2.584   3.833   2.175
    1C        C  697   2.515   3.634   2.300
    1C        C  698   2.529   3.709   2.419
    1C        C  699   2.496   3.503   2.547
    1C        C  700   2.508   3.644   2.542
    1C        C  701   2.507   3.433   2.669
    1C        C  702   2.509   3.508   2.789
    1C        C  703   2.521   3.297   2.913
    1C        C  704   2.509   3.437   2.911
    1C        C  705   2.543   3.229   3.034
    1C        C  706   2.531   3.302   3.155
    1C        C  707   2.593   3.101   3.279
    1C        C  708   2.549   3.235   3.278
    1C        C  709   2.627   3.041   3.403
    1C        C  710   2.602   3.107   3.525
    1C        C  711   2.707   2.927   3.649
    1C        C  712   2.628   3.044   3.649
    1C        C  713   2.748   2.872   3.773
    1C        C  714   2.708   2.930   3.895
    1C        C  715   2.751   2.873   4.017
    1C        C  716   2.450   3.499   2.065
    1C        C  717   2.497   3.631   2.063
    1C        C  718   2.463   3.421   2.184
    1C        C  719   2.485   3.495   2.303
    1C        C  720   2.509   3.290   2.426
    1C        C  721   2.486   3.429   2.427
    1C        C  722   2.531   3.221   2.547
    1C        C  723   2.522   3.292   2.669
    1C        C  724   2.587   3.092   2.791
    1C        C  725   2.537   3.225   2.792
    1C        C  726   2.616   3.029   2.914
    1C        C  727   2.588   3.095   3.036
    1C        C  728   2.699   2.915   3.160
    1C        C  729   2.619   3.032   3.159
    1C        C  730   2.750   2.869   3.283
    1C        C  731   2.708   2.925   3.405
    1C        C  732   2.754   2.871   3.528
    1C        C  733   2.485   3.197   2.073
    1C        C  734   2.481   3.279   2.187
    1C        C  735   2.580   3.085   2.305
    1C        C  736   2.522   3.215   2.307
    1C        C  737   2.614   3.023   2.427
    1C        C  738   2.583   3.089   2.548
    1C        C  739   2.695   2.909   2.669
    1C        C  740   2.615   3.026   2.670
    1C        C  741   2.737   2.853   2.792
    1C        C  742   2.692   2.911   2.913
    1C        C  743   2.742   2.862   3.036
    1C        C  744   2.544   3.071   2.071
    1C        C  745   2.677   2.896   2.187
    1C        C  746   2.609   3.020   2.184
    1C        C  747   2.724   2.838   2.306
    1C        C  748   2.684   2.900   2.426
    1C        C  749   2.733   2.847   2.548
    1C        C  750   2.727   2.836   2.071
    1C        C  751   3.657   2.290   2.015
    1C        O  752   3.736   2.203   2.062
    1C        O  753   3.665   2.272   1.876
    1C        C  754   4.649   3.056   2.000
    1C        O  755   4.640   3.029   1.877
    1C        O  756   4.722   2.951   2.058
    1C        C  757   4.417   4.210   1.934
    1C        O  758   4.508   4.298   1.935
    1C        O  759   4.360   4.205   1.806
    1C        C  760   3.588   4.649   1.937
    1C        O  761   3.600   4.772   1.959
    1C        O  762   3.614   4.625   1.801
    1C        C  763   2.879   4.516   1.970
    1C        O  764   2.893   4.524   1.845
    1C        O  765   2.780   4.604   2.016
    1C        C  766   2.343   3.474   1.966
    1C        O  767   2.367   3.491   1.843
    1C        O  768   2.213   3.523   1.981
    1C        C  769   4.689   3.592   5.063
    1C        O  770   4.671   3.561   5.184
    1C        O  771   4.820   3.639   5.049
    1C        C  772   4.270   4.439   5.047
    1C        O  773   4.254   4.424   5.171
    1C        O  774   4.351   4.550   5.021
    1C        C  775   4.144   2.535   5.077
    1C        O  776   4.161   2.410   5.084
    1C        O  777   4.207   2.613   5.175
    1C        C  778   2.874   4.549   5.046
    1C        O  779   2.785   4.635   5.019
    1C        O  780   2.900   4.555   5.184
    1C        C  781   2.450   3.038   5.057
    1C        O  782   2.330   3.045   5.020
    1C        O  783   2.469   3.008   5.192
    1C        C  784   2.416   3.999   5.050
    1C        O  785   2.295   3.995   5.012
    1C        O  786   2.440   3.957   5.181
    1C        C  787   2.946   2.395   2.053
    1C        O  788   2.881   2.402   1.946
    1C        O  789   2.983   2.264   2.084
    1C        C  790   3.202   2.399   5.091
    1C        O  791   3.183   2.274   5.093
    1C        O  792   3.191   2.441   5.224
    1C        H  793   4.291   3.016   5.067
    1C        H  794   4.161   2.820   5.070
    1C        H  795   4.470   3.138   5.068
    1C        H  796   4.581   3.347   5.052
    1C        H  797   4.571   3.816   5.046
    1C        H  798   4.437   3.982   5.054
    1C        H  799   4.311   4.182   5.051
    1C        H  800   4.037   4.540   5.025
    1C        H  801   3.814   4.614   5.034
    1C        H  802   3.591   4.660   5.015
    1C        H  803   3.395   4.490   5.046
    1C        H  804   3.165   4.439   5.048
    1C        H  805   3.910   2.458   5.051
    1C        H  806   3.668   2.413   5.052
    1C        H  807   3.009   2.571   5.070
    1C        H  808   3.449   2.535   5.068
    1C        H  809   2.870   2.722   5.075
    1C        H  810   2.714   2.906   5.083
    1C        H  811   2.542   3.295   5.074
    1C        H  812   2.553   3.503   5.070
    1C        H  813   2.501   3.737   5.063
    1C        H  814   2.573   4.189   5.032
    1C        H  815   2.731   4.344   5.043
    1C        H  816   2.695   2.873   1.975
    1C        H  817   2.866   2.712   1.978
    1C        H  818   3.212   2.464   1.983
    1C        H  819   3.429   2.423   1.979
    1C        H  820   3.882   2.466   1.988
    1C        H  821   4.070   2.610   1.970
    1C        H  822   4.263   2.715   1.976
    1C        H  823   4.377   2.925   1.964
    1C        H  824   4.619   3.306   1.983
    1C        H  825   4.504   3.513   1.959
    1C        H  826   4.544   3.753   1.966
    1C        H  827   3.811   4.540   1.961
    1C        H  828   3.948   4.338   1.950
    1C        H  829   4.181   4.289   1.949
    1C        H  830   4.468   3.958   1.957
    1C        H  831   2.660   3.827   1.980
    1C        H  832   2.771   4.033   1.986
    1C        H  833   2.712   4.311   1.972
    1C        H  834   3.362   4.509   1.949
    1C        H  835   3.148   4.417   1.951
    1C        H  836   2.526   3.004   1.990
    1C        H  837   2.434   3.226   1.983
    1C        H  838   2.498   3.688   1.972
    2V3OU   H29  839   2.810   3.548   6.272
    2V3OU   C27  840   2.782   3.503   6.371
    2V3OU   H27  841   2.724   3.573   6.437
    2V3OU   H28  842   2.729   3.405   6.356
    2V3OU   O11  843   2.909   3.476   6.430
    2V3OU   C15  844   2.921   3.391   6.538
    2V3OU   C13  845   3.051   3.376   6.591
    2V3OU   C14  846   3.074   3.265   6.673
    2V3OU   C16  847   2.971   3.184   6.720
    2V3OU    H6  848   2.987   3.111   6.800
    2V3OU   C12  849   3.212   3.226   6.712
    2V3OU    O2  850   3.244   3.126   6.780
    2V3OU   C10  851   3.322   3.311   6.664
    2V3OU    C8  852   3.455   3.274   6.675
    2V3OU   O10  853   3.494   3.155   6.729
    2V3OU   H26  854   3.409   3.114   6.751
    2V3OU    C6  855   3.565   3.351   6.624
    2V3OU    C5  856   3.536   3.471   6.560
    2V3OU    C4  857   3.704   3.298   6.624
    2V3OU    H4  858   3.721   3.230   6.712
    2V3OU    H5  859   3.713   3.231   6.533
    2V3OU    C2  860   3.820   3.399   6.619
    2V3OU    O6  861   3.806   3.475   6.740
    2V3OU   H21  862   3.764   3.553   6.699
    2V3OU    C3  863   3.784   3.495   6.506
    2V3OU    H2  864   3.865   3.571   6.491
    2V3OU    H3  865   3.782   3.436   6.410
    2V3OU   C25  866   3.953   3.325   6.601
    2V3OU    O7  867   4.000   3.295   6.492
    2V3OU   C26  868   4.032   3.291   6.726
    2V3OU   H22  869   4.069   3.376   6.790
    2V3OU   H23  870   4.116   3.223   6.699
    2V3OU    O8  871   3.957   3.209   6.813
    2V3OU   H24  872   3.924   3.262   6.887
    2V3OU    C1  873   3.648   3.561   6.517
    2V3OU    H1  874   3.625   3.616   6.421
    2V3OU    O3  875   3.657   3.651   6.628
    2V3OU   C19  876   3.623   3.789   6.617
    2V3OU    H9  877   3.526   3.810   6.564
    2V3OU    O4  878   3.720   3.851   6.535
    2V3OU   C20  879   3.850   3.874   6.590
    2V3OU   H10  880   3.899   3.772   6.601
    2V3OU   C24  881   3.611   3.853   6.756
    2V3OU   H16  882   3.548   3.788   6.822
    2V3OU   H17  883   3.568   3.957   6.754
    2V3OU   C23  884   3.750   3.872   6.817
    2V3OU   H15  885   3.791   3.767   6.838
    2V3OU    N1  886   3.735   3.955   6.934
    2V3OU   H19  887   3.807   3.923   6.995
    2V3OU   H20  888   3.650   3.934   6.983
    2V3OU   C21  889   3.853   3.945   6.726
    2V3OU   H11  890   3.954   3.929   6.775
    2V3OU    O5  891   3.829   4.084   6.716
    2V3OU   H18  892   3.788   4.105   6.801
    2V3OU   C22  893   3.916   3.949   6.476
    2V3OU   H12  894   3.865   4.047   6.462
    2V3OU   H13  895   3.911   3.886   6.383
    2V3OU   H14  896   4.025   3.962   6.499
    2V3OU   C11  897   3.158   3.471   6.558
    2V3OU    O1  898   3.124   3.588   6.529
    2V3OU    C9  899   3.296   3.430   6.591
    2V3OU    C7  900   3.399   3.511   6.545
    2V3OU    O9  901   3.384   3.622   6.464
    2V3OU   H25  902   3.288   3.635   6.460
    2V3OU   C17  903   2.817   3.311   6.590
    2V3OU    H7  904   2.712   3.338   6.587
    2V3OU   C18  905   2.840   3.208   6.680
    2V3OU    H8  906   2.756   3.150   6.722
    3SOL     OW  907   2.966   3.828   5.049
    3SOL    HW1  908   2.972   3.901   4.981
    3SOL    HW2  909   2.870   3.804   5.064
    4SOL     OW  910   1.456   0.091   0.572
    4SOL    HW1  911   1.470   0.145   0.655
    4SOL    HW2  912   1.360   0.065   0.564
    5SOL     OW  913   4.048   2.102   0.622
    5SOL    HW1  914   3.963   2.107   0.675
    5SOL    HW2  915   4.027   2.087   0.526
    6SOL     OW  916   3.409   1.811   2.158
    6SOL    HW1  917   3.318   1.850   2.154
    6SOL    HW2  918   3.471   1.865   2.101
    7SOL     OW  919   2.247   3.000   4.780
    7SOL    HW1  920   2.232   2.902   4.790
    7SOL    HW2  921   2.290   3.036   4.863
    8SOL     OW  922   1.324   1.549   6.203
    8SOL    HW1  923   1.410   1.521   6.161
    8SOL    HW2  924   1.333   1.544   6.303
    9SOL     OW  925   2.386   2.104   5.695
    9SOL    HW1  926   2.307   2.090   5.753
    9SOL    HW2  927   2.427   2.193   5.715
   10SOL     OW  928   5.448   5.062   0.889
   10SOL    HW1  929   5.487   4.993   0.827
   10SOL    HW2  930   5.397   5.016   0.962
   11SOL     OW  931   3.450   1.456   0.629
   11SOL    HW1  932   3.539   1.491   0.660
   11SOL    HW2  933   3.437   1.363   0.664
   12SOL     OW  934   5.570   5.026   1.297
   12SOL    HW1  935   5.659   5.026   1.252
   12SOL    HW2  936   5.581   5.046   1.394
   13SOL     OW  937   4.320   5.416   1.822
   13SOL    HW1  938   4.238   5.406   1.766
   13SOL    HW2  939   4.321   5.506   1.865
   14SOL     OW  940   4.321   6.010   0.839
   14SOL    HW1  941   4.258   5.959   0.779
   14SOL    HW2  942   4.332   6.103   0.804
   15SOL     OW  943   0.454   0.052   6.735
   15SOL    HW1  944   0.495   0.081   6.821
   15SOL    HW2  945   0.357   0.075   6.735
   16SOL     OW  946   2.047   5.139   5.563
   16SOL    HW1  947   2.040   5.057   5.506
   16SOL    HW2  948   1.986   5.210   5.528
   17SOL     OW  949   0.293   1.953   3.945
   17SOL    HW1  950   0.255   1.889   3.878
   17SOL    HW2  951   0.243   2.039   3.942
   18SOL     OW  952   2.719   0.039   5.422
   18SOL    HW1  953   2.771   0.025   5.506
   18SOL    HW2  954   2.764   7.015   5.347
   19SOL     OW  955   4.006   5.913   3.171
   19SOL    HW1  956   4.091   5.929   3.121
   19SOL    HW2  957   4.027   5.867   3.257
   20SOL     OW  958   0.388   1.877   4.714
   20SOL    HW1  959   0.444   1.935   4.655
   20SOL    HW2  960   0.297   1.917   4.723
   21SOL     OW  961   1.633   3.078   1.749
   21SOL    HW1  962   1.646   3.035   1.659
   21SOL    HW2  963   1.718   3.069   1.801
   22SOL     OW  964   0.983   0.804   0.692
   22SOL    HW1  965   1.080   0.793   0.669
   22SOL    HW2  966   0.927   0.760   0.622
   23SOL     OW  967   0.598   5.537   0.326
   23SOL    HW1  968   0.578   5.440   0.338
   23SOL    HW2  969   0.687   5.558   0.366
   24SOL     OW  970   4.685   0.786   0.168
   24SOL    HW1  971   4.642   0.758   0.082
   24SOL    HW2  972   4.670   0.884   0.182
   25SOL     OW  973   1.210   0.735   5.021
   25SOL    HW1  974   1.254   0.647   5.003
   25SOL    HW2  975   1.259   0.782   5.095
   26SOL     OW  976   2.331   6.577   5.597
   26SOL    HW1  977   2.275   6.517   5.655
   26SOL    HW2  978   2.427   6.558   5.614
   27SOL     OW  979   6.909   0.024   2.429
   27SOL    HW1  980   6.981   0.033   2.361
   27SOL    HW2  981   6.941   6.992   2.506
   28SOL     OW  982   2.188   0.819   5.041
   28SOL    HW1  983   2.164   0.907   5.084
   28SOL    HW2  984   2.238   0.836   4.957
   29SOL     OW  985   5.409   0.726   1.448
   29SOL    HW1  986   5.383   0.807   1.395
   29SOL    HW2  987   5.372   0.644   1.405
   30SOL     OW  988   4.847   6.700   4.905
   30SOL    HW1  989   4.825   6.745   4.993
   30SOL    HW2  990   4.919   6.633   4.919
   31SOL     OW  991   6.372   4.091   4.173
   31SOL    HW1  992   6.319   4.163   4.217
   31SOL    HW2  993   6.311   4.020   4.138
   32SOL     OW  994   3.313   1.280   1.344
   32SOL    HW1  995   3.258   1.287   1.261
   32SOL    HW2  996   3.256   1.246   1.419
   33SOL     OW  997   1.826   4.414   5.482
   33SOL    HW1  998   1.878   4.380   5.404
   33SOL    HW2  999   1.800   4.336   5.540
   34SOL     OW 1000   2.379   6.617   5.004
   34SOL    HW1 1001   2.426   6.682   4.945
   34SOL    HW2 1002   2.388   6.525   4.966
   35SOL     OW 1003   1.580   3.294   4.911
   35SOL    HW1 1004   1.626   3.365   4.857
   35SOL    HW2 1005   1.538   3.336   4.992
   36SOL     OW 1006   5.251   1.137   4.010
   36SOL    HW1 1007   5.207   1.180   4.089
   36SOL    HW2 1008   5.330   1.192   3.981
   37SOL     OW 1009   1.088   5.765   3.992
   37SOL    HW1 1010   1.027   5.773   4.071
   37SOL    HW2 1011   1.047   5.810   3.913
   38SOL     OW 1012   0.984   3.424   1.907
   38SOL    HW1 1013   1.084   3.432   1.899
   38SOL    HW2 1014   0.951   3.356   1.842
   39SOL     OW 1015   6.378   5.535   1.366
   39SOL    HW1 1016   6.388   5.451   1.420
   39SOL    HW2 1017   6.466   5.582   1.359
   40SOL     OW 1018   4.173   0.943   6.336
   40SOL    HW1 1019   4.075   0.958   6.320
   40SOL    HW2 1020   4.222   0.953   6.250
   41SOL     OW 1021   6.868   3.508   1.199
   41SOL    HW1 1022   6.907   3.580   1.141
   41SOL    HW2 1023   6.867   3.422   1.149
   42SOL     OW 1024   2.755   3.609   0.719
   42SOL    HW1 1025   2.675   3.623   0.660
   42SOL    HW2 1026   2.833   3.581   0.663
   43SOL     OW 1027   4.845   0.864   3.890
   43SOL    HW1 1028   4.892   0.812   3.819
   43SOL    HW2 1029   4.900   0.944   3.915
   44SOL     OW 1030   0.219   0.455   6.983
   44SOL    HW1 1031   0.148   0.523   7.001
   44SOL    HW2 1032   0.231   0.397   0.041
   45SOL     OW 1033   1.865   3.610   5.784
   45SOL    HW1 1034   1.922   3.540   5.829
   45SOL    HW2 1035   1.784   3.567   5.745
   46SOL     OW 1036   1.338   4.535   3.977
   46SOL    HW1 1037   1.324   4.458   4.038
   46SOL    HW2 1038   1.397   4.506   3.901
   47SOL     OW 1039   6.967   4.781   6.373
   47SOL    HW1 1040   7.000   4.688   6.353
   47SOL    HW2 1041   6.894   4.805   6.309
   48SOL     OW 1042   0.984   3.779   0.230
   48SOL    HW1 1043   1.008   3.806   0.324
   48SOL    HW2 1044   0.895   3.734   0.230
   49SOL     OW 1045   3.387   1.206   0.147
   49SOL    HW1 1046   3.435   1.190   0.234
   49SOL    HW2 1047   3.439   1.272   0.092
   50SOL     OW 1048   5.175   1.727   5.440
   50SOL    HW1 1049   5.129   1.671   5.371
   50SOL    HW2 1050   5.180   1.676   5.526
   51SOL     OW 1051   1.548   6.241   2.345
   51SOL    HW1 1052   1.579   6.167   2.405
   51SOL    HW2 1053   1.623   6.306   2.331
   52SOL     OW 1054   5.565   3.319   2.560
   52SOL    HW1 1055   5.499   3.391   2.580
   52SOL    HW2 1056   5.654   3.344   2.598
   53SOL     OW 1057   3.914   6.948   0.860
   53SOL    HW1 1058   4.012   6.933   0.847
   53SOL    HW2 1059   3.899   0.008   0.913
   54SOL     OW 1060   0.898   1.198   5.962
   54SOL    HW1 1061   0.959   1.127   5.996
   54SOL    HW2 1062   0.815   1.156   5.924
   55SOL     OW 1063   2.239   3.360   6.356
   55SOL    HW1 1064   2.263   3.301   6.279
   55SOL    HW2 1065   2.309   3.352   6.427
   56SOL     OW 1066   1.277   1.832   6.826
   56SOL    HW1 1067   1.296   1.807   6.731
   56SOL    HW2 1068   1.344   1.901   6.855
   57SOL     OW 1069   4.128   5.557   1.386
   57SOL    HW1 1070   4.153   5.462   1.404
   57SOL    HW2 1071   4.149   5.579   1.291
   58SOL     OW 1072   0.348   0.782   0.197
   58SOL    HW1 1073   0.433   0.834   0.185
   58SOL    HW2 1074   0.280   0.841   0.241
   59SOL     OW 1075   4.196   3.002   6.879
   59SOL    HW1 1076   4.187   3.043   6.788
   59SOL    HW2 1077   4.249   2.917   6.872
   60SOL     OW 1078   6.335   2.428   2.684
   60SOL    HW1 1079   6.425   2.463   2.656
   60SOL    HW2 1080   6.278   2.416   2.603
   61SOL     OW 1081   1.889   5.525   2.500
   61SOL    HW1 1082   1.823   5.462   2.541
   61SOL    HW2 1083   1.861   5.545   2.406
   62SOL     OW 1084   4.889   3.447   3.098
   62SOL    HW1 1085   4.875   3.348   3.096
   62SOL    HW2 1086   4.852   3.487   3.013
   63SOL     OW 1087   4.137   6.992   6.185
   63SOL    HW1 1088   4.091   6.943   6.111
   63SOL    HW2 1089   4.117   0.066   6.179
   64SOL     OW 1090   1.988   1.973   6.824
   64SOL    HW1 1091   1.953   1.961   6.916
   64SOL    HW2 1092   1.985   1.886   6.775
   65SOL     OW 1093   0.852   5.463   5.248
   65SOL    HW1 1094   0.903   5.448   5.164
   65SOL    HW2 1095   0.779   5.529   5.231
   66SOL     OW 1096   4.585   1.381   1.464
   66SOL    HW1 1097   4.560   1.419   1.374
   66SOL    HW2 1098   4.507   1.330   1.500
   67SOL     OW 1099   0.005   3.187   2.385
   67SOL    HW1 1100   0.009   3.262   2.451
   67SOL    HW2 1101   0.072   3.201   2.312
   68SOL     OW 1102   0.713   0.865   6.183
   68SOL    HW1 1103   0.777   0.831   6.252
   68SOL    HW2 1104   0.752   0.851   6.092
   69SOL     OW 1105   1.158   0.440   6.327
   69SOL    HW1 1106   1.134   0.536   6.314
   69SOL    HW2 1107   1.257   0.429   6.316
   70SOL     OW 1108   4.735   5.128   3.373
   70SOL    HW1 1109   4.796   5.078   3.312
   70SOL    HW2 1110   4.774   5.217   3.395
   71SOL     OW 1111   5.105   0.885   5.351
   71SOL    HW1 1112   5.069   0.857   5.440
   71SOL    HW2 1113   5.138   0.804   5.302
   72SOL     OW 1114   6.512   1.845   2.670
   72SOL    HW1 1115   6.427   1.797   2.652
   72SOL    HW2 1116   6.568   1.793   2.734
   73SOL     OW 1117   2.726   0.901   1.083
   73SOL    HW1 1118   2.681   0.863   1.002
   73SOL    HW2 1119   2.673   0.877   1.165
   74SOL     OW 1120   2.448   0.522   0.203
   74SOL    HW1 1121   2.530   0.530   0.146
   74SOL    HW2 1122   2.390   0.603   0.190
   75SOL     OW 1123   2.634   2.612   1.490
   75SOL    HW1 1124   2.561   2.680   1.480
   75SOL    HW2 1125   2.600   2.535   1.544
   76SOL     OW 1126   3.063   5.175   6.335
   76SOL    HW1 1127   2.988   5.217   6.283
   76SOL    HW2 1128   3.043   5.181   6.433
   77SOL     OW 1129   0.097   4.821   4.656
   77SOL    HW1 1130   0.003   4.787   4.658
   77SOL    HW2 1131   0.131   4.833   4.749
   78SOL     OW 1132   4.969   1.477   1.047
   78SOL    HW1 1133   4.996   1.439   1.136
   78SOL    HW2 1134   5.050   1.492   0.991
   79SOL     OW 1135   1.903   3.799   4.060
   79SOL    HW1 1136   1.874   3.704   4.076
   79SOL    HW2 1137   1.907   3.816   3.962
   80SOL     OW 1138   4.066   2.250   5.314
   80SOL    HW1 1139   4.056   2.190   5.394
   80SOL    HW2 1140   4.010   2.216   5.239
   81SOL     OW 1141   2.551   4.679   3.057
   81SOL    HW1 1142   2.486   4.609   3.087
   81SOL    HW2 1143   2.574   4.663   2.961
   82SOL     OW 1144   2.684   0.611   1.382
   82SOL    HW1 1145   2.631   0.690   1.351
   82SOL    HW2 1146   2.627   0.529   1.378
   83SOL     OW 1147   6.135   2.499   3.580
   83SOL    HW1 1148   6.186   2.459   3.656
   83SOL    HW2 1149   6.160   2.453   3.494
   84SOL     OW 1150   5.096   2.357   2.912
   84SOL    HW1 1151   5.096   2.414   2.830
   84SOL    HW2 1152   5.035   2.396   2.981
   85SOL     OW 1153   2.452   5.378   3.136
   85SOL    HW1 1154   2.374   5.388   3.198
   85SOL    HW2 1155   2.435   5.432   3.053
   86SOL     OW 1156   4.582   1.185   6.560
   86SOL    HW1 1157   4.598   1.097   6.516
   86SOL    HW2 1158   4.670   1.231   6.575
   87SOL     OW 1159   3.174   2.857   6.648
   87SOL    HW1 1160   3.150   2.897   6.737
   87SOL    HW2 1161   3.116   2.777   6.632
   88SOL     OW 1162   1.252   2.161   1.029
   88SOL    HW1 1163   1.307   2.242   1.006
   88SOL    HW2 1164   1.262   2.093   0.957
   89SOL     OW 1165   4.166   3.599   5.494
   89SOL    HW1 1166   4.189   3.622   5.589
   89SOL    HW2 1167   4.251   3.588   5.441
   90SOL     OW 1168   6.773   4.506   1.752
   90SOL    HW1 1169   6.746   4.602   1.749
   90SOL    HW2 1170   6.823   4.489   1.837
   91SOL     OW 1171   4.959   5.341   0.231
   91SOL    HW1 1172   5.002   5.259   0.269
   91SOL    HW2 1173   5.029   5.401   0.193
   92SOL     OW 1174   6.213   6.189   6.815
   92SOL    HW1 1175   6.291   6.216   6.871
   92SOL    HW2 1176   6.157   6.269   6.795
   93SOL     OW 1177   2.838   3.493   2.137
   93SOL    HW1 1178   2.845   3.407   2.187
   93SOL    HW2 1179   2.751   3.537   2.158
   94SOL     OW 1180   3.431   0.659   4.497
   94SOL    HW1 1181   3.492   0.597   4.547
   94SOL    HW2 1182   3.336   0.626   4.505
   95SOL     OW 1183   1.033   6.038   4.419
   95SOL    HW1 1184   1.070   6.057   4.510
   95SOL    HW2 1185   1.049   6.117   4.359
   96SOL     OW 1186   0.084   6.502   0.049
   96SOL    HW1 1187   0.021   6.535   0.119
   96SOL    HW2 1188   0.034   6.490   6.987
   97SOL     OW 1189   3.628   4.961   4.489
   97SOL    HW1 1190   3.658   5.016   4.567
   97SOL    HW2 1191   3.561   4.894   4.520
   98SOL     OW 1192   6.666   2.181   5.065
   98SOL    HW1 1193   6.675   2.279   5.046
   98SOL    HW2 1194   6.649   2.133   4.979
   99SOL     OW 1195   4.784   4.489   4.719
   99SOL    HW1 1196   4.737   4.518   4.802
   99SOL    HW2 1197   4.844   4.563   4.687
  100SOL     OW 1198   2.114   1.925   5.232
  100SOL    HW1 1199   2.061   1.989   5.288
  100SOL    HW2 1200   2.193   1.893   5.285
  101SOL     OW 1201   5.190   2.926   2.569
  101SOL    HW1 1202   5.178   2.915   2.471
  101SOL    HW2 1203   5.159   2.843   2.616
  102SOL     OW 1204   4.422   6.263   0.764
  102SOL    HW1 1205   4.386   6.331   0.828
  102SOL    HW2 1206   4.510   6.295   0.728
  103SOL     OW 1207   1.611   2.007   1.106
  103SOL    HW1 1208   1.610   1.908   1.097
  103SOL    HW2 1209   1.573   2.049   1.024
  104SOL     OW 1210   0.998   3.844   1.464
  104SOL    HW1 1211   0.902   3.832   1.440
  104SOL    HW2 1212   1.013   3.812   1.557
  105SOL     OW 1213   0.087   2.004   4.415
  105SOL    HW1 1214   0.066   1.929   4.353
  105SOL    HW2 1215   0.102   1.967   4.507
  106SOL     OW 1216   5.107   3.588   1.418
  106SOL    HW1 1217   5.116   3.620   1.512
  106SOL    HW2 1218   5.133   3.662   1.355
  107SOL     OW 1219   4.562   0.366   2.528
  107SOL    HW1 1220   4.565   0.432   2.454
  107SOL    HW2 1221   4.472   0.370   2.573
  108SOL     OW 1222   3.397   1.444   5.016
  108SOL    HW1 1223   3.479   1.415   4.966
  108SOL    HW2 1224   3.425   1.492   5.099
  109SOL     OW 1225   2.478   1.643   4.532
  109SOL    HW1 1226   2.439   1.665   4.442
  109SOL    HW2 1227   2.447   1.711   4.599
  110SOL     OW 1228   4.437   4.811   5.552
  110SOL    HW1 1229   4.341   4.785   5.552
  110SOL    HW2 1230   4.485   4.761   5.624
  111SOL     OW 1231   6.886   3.292   0.984
  111SOL    HW1 1232   6.977   3.329   0.966
  111SOL    HW2 1233   6.816   3.354   0.947
  112SOL     OW 1234   3.569   6.614   4.501
  112SOL    HW1 1235   3.583   6.633   4.404
  112SOL    HW2 1236   3.636   6.664   4.556
  113SOL     OW 1237   1.771   5.158   2.783
  113SOL    HW1 1238   1.690   5.153   2.841
  113SOL    HW2 1239   1.756   5.227   2.712
  114SOL     OW 1240   6.818   2.237   1.651
  114SOL    HW1 1241   6.850   2.251   1.745
  114SOL    HW2 1242   6.720   2.252   1.647
  115SOL     OW 1243   4.171   1.393   3.235
  115SOL    HW1 1244   4.158   1.398   3.334
  115SOL    HW2 1245   4.082   1.390   3.190
  116SOL     OW 1246   5.859   5.914   6.699
  116SOL    HW1 1247   5.873   5.970   6.617
  116SOL    HW2 1248   5.861   5.817   6.673
  117SOL     OW 1249   2.363   1.314   0.700
  117SOL    HW1 1250   2.354   1.277   0.607
  117SOL    HW2 1251   2.307   1.260   0.763
  118SOL     OW 1252   0.936   2.207   1.708
  118SOL    HW1 1253   0.847   2.205   1.754
  118SOL    HW2 1254   1.002   2.155   1.762
  119SOL     OW 1255   5.536   5.406   4.707
  119SOL    HW1 1256   5.488   5.431   4.624
  119SOL    HW2 1257   5.493   5.451   4.786
  120SOL     OW 1258   4.454   1.739   4.139
  120SOL    HW1 1259   4.476   1.695   4.227
  120SOL    HW2 1260   4.474   1.676   4.065
  121SOL     OW 1261   0.194   5.255   5.800
  121SOL    HW1 1262   0.284   5.279   5.765
  121SOL    HW2 1263   0.157   5.179   5.746
  122SOL     OW 1264   0.441   4.853   6.040
  122SOL    HW1 1265   0.354   4.804   6.054
  122SOL    HW2 1266   0.488   4.814   5.961
  123SOL     OW 1267   0.692   2.085   0.921
  123SOL    HW1 1268   0.599   2.069   0.888
  123SOL    HW2 1269   0.690   2.103   1.019
  124SOL     OW 1270   1.638   3.422   6.802
  124SOL    HW1 1271   1.706   3.431   6.730
  124SOL    HW2 1272   1.556   3.378   6.766
  125SOL     OW 1273   4.314   3.091   0.784
  125SOL    HW1 1274   4.356   3.002   0.770
  125SOL    HW2 1275   4.315   3.142   0.698
  126SOL     OW 1276   3.556   3.420   5.227
  126SOL    HW1 1277   3.552   3.434   5.325
  126SOL    HW2 1278   3.465   3.432   5.187
  127SOL     OW 1279   0.293   4.630   5.993
  127SOL    HW1 1280   0.321   4.550   5.940
  127SOL    HW2 1281   0.327   4.621   6.087
  128SOL     OW 1282   5.304   4.321   5.798
  128SOL    HW1 1283   5.211   4.298   5.770
  128SOL    HW2 1284   5.365   4.310   5.719
  129SOL     OW 1285   1.048   5.762   2.049
  129SOL    HW1 1286   0.986   5.840   2.039
  129SOL    HW2 1287   1.120   5.785   2.115
  130SOL     OW 1288   6.659   3.698   5.156
  130SOL    HW1 1289   6.665   3.709   5.057
  130SOL    HW2 1290   6.703   3.775   5.201
  131SOL     OW 1291   0.616   3.534   2.308
  131SOL    HW1 1292   0.694   3.585   2.344
  131SOL    HW2 1293   0.650   3.458   2.252
  132SOL     OW 1294   4.126   3.378   2.212
  132SOL    HW1 1295   4.218   3.369   2.174
  132SOL    HW2 1296   4.062   3.400   2.139
  133SOL     OW 1297   4.121   4.337   5.577
  133SOL    HW1 1298   4.039   4.385   5.608
  133SOL    HW2 1299   4.109   4.306   5.483
  134SOL     OW 1300   0.015   2.082   6.899
  134SOL    HW1 1301   6.991   2.053   6.817
  134SOL    HW2 1302   0.068   2.165   6.880
  135SOL     OW 1303   4.720   5.630   3.888
  135SOL    HW1 1304   4.760   5.689   3.958
  135SOL    HW2 1305   4.620   5.633   3.894
  136SOL     OW 1306   4.067   6.042   6.226
  136SOL    HW1 1307   4.072   6.104   6.304
  136SOL    HW2 1308   4.120   5.959   6.245
  137SOL     OW 1309   2.042   4.226   0.486
  137SOL    HW1 1310   2.077   4.162   0.554
  137SOL    HW2 1311   2.113   4.293   0.463
  138SOL     OW 1312   0.633   5.478   1.334
  138SOL    HW1 1313   0.732   5.489   1.339
  138SOL    HW2 1314   0.598   5.530   1.257
  139SOL     OW 1315   0.746   0.155   1.318
  139SOL    HW1 1316   0.772   0.240   1.364
  139SOL    HW2 1317   0.820   0.127   1.257
  140SOL     OW 1318   2.632   0.013   2.285
  140SOL    HW1 1319   2.715   6.983   2.299
  140SOL    HW2 1320   2.554   6.975   2.273
  141SOL     OW 1321   2.142   1.756   0.117
  141SOL    HW1 1322   2.232   1.743   0.159
  141SOL    HW2 1323   2.146   1.734   0.020
  142SOL     OW 1324   2.133   4.391   6.218
  142SOL    HW1 1325   2.084   4.416   6.302
  142SOL    HW2 1326   2.080   4.324   6.167
  143SOL     OW 1327   5.176   6.162   2.014
  143SOL    HW1 1328   5.251   6.216   1.977
  143SOL    HW2 1329   5.109   6.223   2.058
  144SOL     OW 1330   2.185   5.045   3.245
  144SOL    HW1 1331   2.272   5.003   3.218
  144SOL    HW2 1332   2.139   4.988   3.312
  145SOL     OW 1333   6.603   6.327   3.129
  145SOL    HW1 1334   6.681   6.273   3.095
  145SOL    HW2 1335   6.518   6.288   3.092
  146SOL     OW 1336   6.776   0.962   4.504
  146SOL    HW1 1337   6.858   0.998   4.458
  146SOL    HW2 1338   6.756   1.017   4.585
  147SOL     OW 1339   6.589   0.035   5.096
  147SOL    HW1 1340   6.651   0.090   5.040
  147SOL    HW2 1341   6.641   7.007   5.163
  148SOL     OW 1342   1.559   6.596   3.292
  148SOL    HW1 1343   1.542   6.618   3.388
  148SOL    HW2 1344   1.658   6.587   3.277
  149SOL     OW 1345   1.753   2.398   4.809
  149SOL    HW1 1346   1.762   2.355   4.719
  149SOL    HW2 1347   1.824   2.362   4.871
  150SOL     OW 1348   5.178   2.813   4.818
  150SOL    HW1 1349   5.152   2.801   4.722
  150SOL    HW2 1350   5.117   2.759   4.876
  151SOL     OW 1351   5.948   2.808   1.632
  151SOL    HW1 1352   5.858   2.849   1.650
  151SOL    HW2 1353   5.945   2.710   1.655
  152SOL     OW 1354   6.119   2.305   0.559
  152SOL    HW1 1355   6.097   2.250   0.640
  152SOL    HW2 1356   6.125   2.246   0.479
  153SOL     OW 1357   2.277   1.736   3.700
  153SOL    HW1 1358   2.355   1.674   3.710
  153SOL    HW2 1359   2.192   1.683   3.705
  154SOL     OW 1360   0.248   1.422   3.490
  154SOL    HW1 1361   0.170   1.452   3.546
  154SOL    HW2 1362   0.312   1.498   3.481
  155SOL     OW 1363   5.556   5.068   3.277
  155SOL    HW1 1364   5.575   4.990   3.217
  155SOL    HW2 1365   5.530   5.034   3.368
  156SOL     OW 1366   3.962   0.374   1.107
  156SOL    HW1 1367   4.036   0.370   1.040
  156SOL    HW2 1368   3.934   0.470   1.120
  157SOL     OW 1369   4.978   0.563   0.902
  157SOL    HW1 1370   4.951   0.542   0.808
  157SOL    HW2 1371   4.922   0.639   0.936
  158SOL     OW 1372   0.959   2.415   5.814
  158SOL    HW1 1373   0.972   2.390   5.910
  158SOL    HW2 1374   0.871   2.461   5.804
  159SOL     OW 1375   0.361   4.914   6.857
  159SOL    HW1 1376   0.307   4.836   6.828
  159SOL    HW2 1377   0.328   4.997   6.811
  160SOL     OW 1378   4.018   0.244   1.723
  160SOL    HW1 1379   3.995   0.322   1.782
  160SOL    HW2 1380   4.010   0.159   1.775
  161SOL     OW 1381   6.248   6.751   0.808
  161SOL    HW1 1382   6.189   6.806   0.868
  161SOL    HW2 1383   6.343   6.759   0.838
  162SOL     OW 1384   4.393   0.239   4.846
  162SOL    HW1 1385   4.389   0.143   4.874
  162SOL    HW2 1386   4.484   0.276   4.863
  163SOL     OW 1387   1.080   3.870   3.093
  163SOL    HW1 1388   1.103   3.786   3.042
  163SOL    HW2 1389   1.066   3.945   3.029
  164SOL     OW 1390   2.057   2.187   2.437
  164SOL    HW1 1391   2.081   2.242   2.517
  164SOL    HW2 1392   2.119   2.210   2.362
  165SOL     OW 1393   0.188   6.132   4.853
  165SOL    HW1 1394   0.276   6.099   4.820
  165SOL    HW2 1395   0.153   6.070   4.924
  166SOL     OW 1396   0.860   4.723   3.815
  166SOL    HW1 1397   0.798   4.766   3.880
  166SOL    HW2 1398   0.954   4.733   3.848
  167SOL     OW 1399   0.008   1.150   3.291
  167SOL    HW1 1400   0.048   1.241   3.287
  167SOL    HW2 1401   0.034   1.099   3.209
  168SOL     OW 1402   3.165   4.093   4.302
  168SOL    HW1 1403   3.115   4.066   4.385
  168SOL    HW2 1404   3.258   4.118   4.326
  169SOL     OW 1405   5.193   2.839   6.008
  169SOL    HW1 1406   5.094   2.830   6.000
  169SOL    HW2 1407   5.220   2.932   5.986
  170SOL     OW 1408   6.986   5.586   2.693
  170SOL    HW1 1409   0.043   5.609   2.639
  170SOL    HW2 1410   6.972   5.657   2.762
  171SOL     OW 1411   3.516   2.690   1.001
  171SOL    HW1 1412   3.616   2.684   1.001
  171SOL    HW2 1413   3.478   2.607   0.961
  172SOL     OW 1414   1.560   0.824   0.311
  172SOL    HW1 1415   1.605   0.746   0.355
  172SOL    HW2 1416   1.473   0.842   0.358
  173SOL     OW 1417   5.791   0.928   4.993
  173SOL    HW1 1418   5.821   0.984   5.070
  173SOL    HW2 1419   5.709   0.969   4.952
  174SOL     OW 1420   6.856   4.230   4.705
  174SOL    HW1 1421   6.926   4.283   4.753
  174SOL    HW2 1422   6.791   4.293   4.661
  175SOL     OW 1423   0.965   5.509   2.587
  175SOL    HW1 1424   0.991   5.546   2.676
  175SOL    HW2 1425   1.046   5.478   2.539
  176SOL     OW 1426   5.974   4.289   0.663
  176SOL    HW1 1427   6.039   4.251   0.729
  176SOL    HW2 1428   5.939   4.216   0.605
  177SOL     OW 1429   5.715   2.799   3.107
  177SOL    HW1 1430   5.715   2.870   3.036
  177SOL    HW2 1431   5.634   2.742   3.097
  178SOL     OW 1432   1.705   5.233   4.948
  178SOL    HW1 1433   1.666   5.156   4.896
  178SOL    HW2 1434   1.804   5.225   4.949
  179SOL     OW 1435   3.214   3.983   1.932
  179SOL    HW1 1436   3.169   3.908   1.884
  179SOL    HW2 1437   3.237   4.055   1.866
  180SOL     OW 1438   4.424   0.496   5.863
  180SOL    HW1 1439   4.403   0.457   5.774
  180SOL    HW2 1440   4.408   0.595   5.860
  181SOL     OW 1441   3.563   0.100   5.543
  181SOL    HW1 1442   3.491   0.035   5.517
  181SOL    HW2 1443   3.545   0.135   5.635
  182SOL     OW 1444   2.953   3.038   5.565
  182SOL    HW1 1445   3.003   3.118   5.530
  182SOL    HW2 1446   2.944   2.970   5.492
  183SOL     OW 1447   2.184   1.328   3.113
  183SOL    HW1 1448   2.156   1.360   3.204
  183SOL    HW2 1449   2.117   1.262   3.079
  184SOL     OW 1450   5.851   6.747   3.626
  184SOL    HW1 1451   5.821   6.752   3.721
  184SOL    HW2 1452   5.772   6.755   3.565
  185SOL     OW 1453   0.479   5.992   6.061
  185SOL    HW1 1454   0.469   6.088   6.034
  185SOL    HW2 1455   0.426   5.935   5.999
  186SOL     OW 1456   3.166   5.581   6.938
  186SOL    HW1 1457   3.083   5.539   6.901
  186SOL    HW2 1458   3.217   5.624   6.864
  187SOL     OW 1459   3.130   5.323   0.365
  187SOL    HW1 1460   3.213   5.287   0.323
  187SOL    HW2 1461   3.152   5.409   0.411
  188SOL     OW 1462   1.443   4.090   4.378
  188SOL    HW1 1463   1.496   4.136   4.307
  188SOL    HW2 1464   1.441   4.147   4.461
  189SOL     OW 1465   6.203   4.343   5.839
  189SOL    HW1 1466   6.238   4.365   5.930
  189SOL    HW2 1467   6.124   4.281   5.848
  190SOL     OW 1468   5.744   6.344   6.788
  190SOL    HW1 1469   5.801   6.270   6.821
  190SOL    HW2 1470   5.789   6.432   6.805
  191SOL     OW 1471   2.112   3.533   6.007
  191SOL    HW1 1472   2.177   3.470   6.050
  191SOL    HW2 1473   2.128   3.626   6.041
  192SOL     OW 1474   1.149   0.275   0.971
  192SOL    HW1 1475   1.178   0.361   0.928
  192SOL    HW2 1476   1.159   0.200   0.906
  193SOL     OW 1477   3.001   6.484   1.906
  193SOL    HW1 1478   2.907   6.473   1.875
  193SOL    HW2 1479   3.004   6.475   2.006
  194SOL     OW 1480   4.311   6.303   3.340
  194SOL    HW1 1481   4.359   6.390   3.341
  194SOL    HW2 1482   4.222   6.314   3.385
  195SOL     OW 1483   2.848   0.999   1.365
  195SOL    HW1 1484   2.853   0.911   1.317
  195SOL    HW2 1485   2.915   1.001   1.439
  196SOL     OW 1486   4.124   3.019   1.422
  196SOL    HW1 1487   4.160   3.106   1.387
  196SOL    HW2 1488   4.103   3.029   1.519
  197SOL     OW 1489   0.920   6.508   1.068
  197SOL    HW1 1490   0.952   6.473   1.156
  197SOL    HW2 1491   0.838   6.459   1.040
  198SOL     OW 1492   6.048   0.595   5.737
  198SOL    HW1 1493   5.983   0.527   5.772
  198SOL    HW2 1494   6.102   0.631   5.813
  199SOL     OW 1495   1.831   1.407   3.181
  199SOL    HW1 1496   1.777   1.334   3.223
  199SOL    HW2 1497   1.774   1.489   3.172
  200SOL     OW 1498   1.524   3.555   3.608
  200SOL    HW1 1499   1.458   3.483   3.632
  200SOL    HW2 1500   1.552   3.603   3.692
  201SOL     OW 1501   4.853   0.939   6.796
  201SOL    HW1 1502   4.915   0.932   6.875
  201SOL    HW2 1503   4.789   1.014   6.812
  202SOL     OW 1504   4.092   0.728   2.947
  202SOL    HW1 1505   4.059   0.698   2.858
  202SOL    HW2 1506   4.158   0.661   2.982
  203SOL     OW 1507   5.580   3.089   0.623
  203SOL    HW1 1508   5.654   3.025   0.601
  203SOL    HW2 1509   5.509   3.083   0.553
  204SOL     OW 1510   2.504   5.856   0.858
  204SOL    HW1 1511   2.441   5.879   0.933
  204SOL    HW2 1512   2.597   5.850   0.893
  205SOL     OW 1513   5.423   0.465   1.026
  205SOL    HW1 1514   5.371   0.434   0.947
  205SOL    HW2 1515   5.501   0.404   1.041
  206SOL     OW 1516   7.006   5.915   1.851
  206SOL    HW1 1517   0.021   5.994   1.900
  206SOL    HW2 1518   0.006   5.831   1.899
  207SOL     OW 1519   6.721   2.398   5.718
  207SOL    HW1 1520   6.806   2.359   5.754
  207SOL    HW2 1521   6.650   2.328   5.716
  208SOL     OW 1522   4.696   3.608   1.005
  208SOL    HW1 1523   4.615   3.563   0.968
  208SOL    HW2 1524   4.674   3.651   1.093
  209SOL     OW 1525   6.454   0.403   4.480
  209SOL    HW1 1526   6.394   0.333   4.519
  209SOL    HW2 1527   6.525   0.427   4.546
  210SOL     OW 1528   4.577   1.857   6.899
  210SOL    HW1 1529   4.539   1.939   6.942
  210SOL    HW2 1530   4.654   1.823   6.953
  211SOL     OW 1531   0.226   4.077   2.461
  211SOL    HW1 1532   0.223   4.072   2.561
  211SOL    HW2 1533   0.305   4.026   2.427
  212SOL     OW 1534   1.536   5.463   4.862
  212SOL    HW1 1535   1.481   5.515   4.927
  212SOL    HW2 1536   1.576   5.384   4.908
  213SOL     OW 1537   4.537   2.626   1.385
  213SOL    HW1 1538   4.547   2.643   1.287
  213SOL    HW2 1539   4.514   2.530   1.400
  214SOL     OW 1540   0.298   5.833   4.128
  214SOL    HW1 1541   0.218   5.799   4.178
  214SOL    HW2 1542   0.340   5.758   4.078
  215SOL     OW 1543   4.042   3.804   3.932
  215SOL    HW1 1544   3.965   3.864   3.911
  215SOL    HW2 1545   4.027   3.715   3.890
  216SOL     OW 1546   3.688   6.773   5.456
  216SOL    HW1 1547   3.748   6.833   5.508
  216SOL    HW2 1548   3.734   6.687   5.438
  217SOL     OW 1549   6.497   1.984   5.198
  217SOL    HW1 1550   6.544   2.047   5.136
  217SOL    HW2 1551   6.427   2.034   5.248
  218SOL     OW 1552   2.942   4.252   5.921
  218SOL    HW1 1553   2.927   4.340   5.876
  218SOL    HW2 1554   2.908   4.179   5.862
  219SOL     OW 1555   3.357   5.842   6.426
  219SOL    HW1 1556   3.399   5.896   6.499
  219SOL    HW2 1557   3.420   5.835   6.349
  220SOL     OW 1558   0.971   5.070   0.528
  220SOL    HW1 1559   1.000   5.132   0.601
  220SOL    HW2 1560   0.994   5.109   0.439
  221SOL     OW 1561   6.479   4.027   4.738
  221SOL    HW1 1562   6.519   3.979   4.660
  221SOL    HW2 1563   6.460   4.122   4.714
  222SOL     OW 1564   1.924   0.099   4.167
  222SOL    HW1 1565   1.833   0.087   4.127
  222SOL    HW2 1566   1.935   0.037   4.244
  223SOL     OW 1567   5.343   5.475   2.427
  223SOL    HW1 1568   5.323   5.569   2.453
  223SOL    HW2 1569   5.263   5.434   2.383
  224SOL     OW 1570   5.254   4.187   3.219
  224SOL    HW1 1571   5.223   4.134   3.140
  224SOL    HW2 1572   5.181   4.190   3.288
  225SOL     OW 1573   4.440   5.772   2.347
  225SOL    HW1 1574   4.424   5.798   2.442
  225SOL    HW2 1575   4.359   5.796   2.293
  226SOL     OW 1576   1.663   5.742   2.444
  226SOL    HW1 1577   1.731   5.777   2.379
  226SOL    HW2 1578   1.700   5.660   2.489
  227SOL     OW 1579   0.957   4.296   3.372
  227SOL    HW1 1580   0.989   4.227   3.436
  227SOL    HW2 1581   1.030   4.316   3.306
  228SOL     OW 1582   3.956   6.172   3.275
  228SOL    HW1 1583   3.891   6.130   3.338
  228SOL    HW2 1584   4.018   6.102   3.239
  229SOL     OW 1585   5.658   6.007   2.646
  229SOL    HW1 1586   5.704   5.952   2.715
  229SOL    HW2 1587   5.559   6.001   2.659
  230SOL     OW 1588   1.392   4.723   5.716
  230SOL    HW1 1589   1.359   4.781   5.790
  230SOL    HW2 1590   1.314   4.692   5.661
  231SOL     OW 1591   0.378   1.731   6.287
  231SOL    HW1 1592   0.368   1.651   6.347
  231SOL    HW2 1593   0.441   1.709   6.212
  232SOL     OW 1594   1.608   3.286   6.067
  232SOL    HW1 1595   1.576   3.332   5.984
  232SOL    HW2 1596   1.697   3.323   6.094
  233SOL     OW 1597   3.710   6.781   0.298
  233SOL    HW1 1598   3.738   6.707   0.359
  233SOL    HW2 1599   3.761   6.774   0.212
  234SOL     OW 1600   1.602   4.759   0.091
  234SOL    HW1 1601   1.693   4.799   0.099
  234SOL    HW2 1602   1.604   4.665   0.126
  235SOL     OW 1603   3.831   3.267   6.081
  235SOL    HW1 1604   3.914   3.253   6.135
  235SOL    HW2 1605   3.806   3.364   6.084
  236SOL     OW 1606   0.102   0.313   6.568
  236SOL    HW1 1607   0.177   0.293   6.631
  236SOL    HW2 1608   0.016   0.281   6.606
  237SOL     OW 1609   6.051   6.910   2.240
  237SOL    HW1 1610   6.088   6.976   2.305
  237SOL    HW2 1611   6.052   6.950   2.148
  238SOL     OW 1612   0.904   2.073   3.233
  238SOL    HW1 1613   0.962   2.155   3.227
  238SOL    HW2 1614   0.948   1.998   3.183
  239SOL     OW 1615   6.478   4.954   0.177
  239SOL    HW1 1616   6.400   4.976   0.236
  239SOL    HW2 1617   6.536   5.035   0.167
  240SOL     OW 1618   0.212   2.323   4.188
  240SOL    HW1 1619   0.244   2.392   4.124
  240SOL    HW2 1620   0.114   2.306   4.172
  241SOL     OW 1621   6.376   2.193   4.824
  241SOL    HW1 1622   6.337   2.233   4.741
  241SOL    HW2 1623   6.321   2.220   4.903
  242SOL     OW 1624   2.768   2.330   3.385
  242SOL    HW1 1625   2.860   2.296   3.362
  242SOL    HW2 1626   2.714   2.255   3.423
  243SOL     OW 1627   4.839   1.275   6.575
  243SOL    HW1 1628   4.868   1.219   6.497
  243SOL    HW2 1629   4.899   1.355   6.582
  244SOL     OW 1630   1.212   0.669   5.844
  244SOL    HW1 1631   1.235   0.753   5.794
  244SOL    HW2 1632   1.269   0.662   5.926
  245SOL     OW 1633   5.046   2.056   4.387
  245SOL    HW1 1634   4.967   2.117   4.393
  245SOL    HW2 1635   5.112   2.094   4.322
  246SOL     OW 1636   5.879   3.722   4.341
  246SOL    HW1 1637   5.796   3.710   4.395
  246SOL    HW2 1638   5.888   3.818   4.314
  247SOL     OW 1639   2.052   0.637   3.110
  247SOL    HW1 1640   1.974   0.694   3.136
  247SOL    HW2 1641   2.061   0.636   3.011
  248SOL     OW 1642   6.916   2.609   3.077
  248SOL    HW1 1643   6.948   2.519   3.103
  248SOL    HW2 1644   6.843   2.600   3.008
  249SOL     OW 1645   2.274   6.151   5.142
  249SOL    HW1 1646   2.237   6.154   5.050
  249SOL    HW2 1647   2.320   6.064   5.157
  250SOL     OW 1648   5.411   2.603   6.739
  250SOL    HW1 1649   5.382   2.509   6.756
  250SOL    HW2 1650   5.392   2.628   6.644
  251SOL     OW 1651   2.370   0.173   1.570
  251SOL    HW1 1652   2.307   0.130   1.635
  251SOL    HW2 1653   2.368   0.272   1.584
  252SOL     OW 1654   6.869   2.391   6.863
  252SOL    HW1 1655   6.844   2.351   6.775
  252SOL    HW2 1656   6.847   2.489   6.863
  253SOL     OW 1657   2.063   4.830   5.952
  253SOL    HW1 1658   2.036   4.739   5.984
  253SOL    HW2 1659   2.154   4.824   5.909
  254SOL     OW 1660   4.709   3.342   6.642
  254SOL    HW1 1661   4.623   3.335   6.692
  254SOL    HW2 1662   4.747   3.250   6.627
  255SOL     OW 1663   4.225   2.220   2.509
  255SOL    HW1 1664   4.175   2.217   2.422
  255SOL    HW2 1665   4.162   2.205   2.585
  256SOL     OW 1666   0.424   6.214   1.365
  256SOL    HW1 1667   0.345   6.152   1.371
  256SOL    HW2 1668   0.476   6.193   1.282
  257SOL     OW 1669   2.985   5.882   6.493
  257SOL    HW1 1670   3.021   5.831   6.414
  257SOL    HW2 1671   3.034   5.969   6.501
  258SOL     OW 1672   4.943   5.301   4.574
  258SOL    HW1 1673   4.915   5.344   4.488
  258SOL    HW2 1674   4.930   5.202   4.569
  259SOL     OW 1675   0.161   1.326   2.546
  259SOL    HW1 1676   0.237   1.316   2.482
  259SOL    HW2 1677   0.160   1.248   2.609
  260SOL     OW 1678   6.550   6.676   5.806
  260SOL    HW1 1679   6.455   6.658   5.780
  260SOL    HW2 1680   6.606   6.595   5.788
  261SOL     OW 1681   0.749   1.260   3.746
  261SOL    HW1 1682   0.711   1.345   3.782
  261SOL    HW2 1683   0.820   1.227   3.808
  262SOL     OW 1684   1.813   5.383   0.810
  262SOL    HW1 1685   1.886   5.318   0.831
  262SOL    HW2 1686   1.832   5.429   0.723
  263SOL     OW 1687   0.762   5.106   5.230
  263SOL    HW1 1688   0.675   5.058   5.232
  263SOL    HW2 1689   0.820   5.073   5.305
  264SOL     OW 1690   3.703   3.986   1.061
  264SOL    HW1 1691   3.751   3.914   1.110
  264SOL    HW2 1692   3.760   4.018   0.985
  265SOL     OW 1693   4.365   5.701   4.137
  265SOL    HW1 1694   4.409   5.687   4.049
  265SOL    HW2 1695   4.272   5.664   4.134
  266SOL     OW 1696   4.652   3.334   0.110
  266SOL    HW1 1697   4.593   3.309   0.033
  266SOL    HW2 1698   4.595   3.365   0.186
  267SOL     OW 1699   2.619   2.062   6.378
  267SOL    HW1 1700   2.625   1.971   6.336
  267SOL    HW2 1701   2.678   2.126   6.328
  268SOL     OW 1702   1.533   4.029   3.174
  268SOL    HW1 1703   1.483   3.963   3.118
  268SOL    HW2 1704   1.469   4.096   3.211
  269SOL     OW 1705   2.946   1.395   5.974
  269SOL    HW1 1706   2.955   1.402   5.875
  269SOL    HW2 1707   2.868   1.337   5.997
  270SOL     OW 1708   5.659   4.784   5.024
  270SOL    HW1 1709   5.565   4.767   5.054
  270SOL    HW2 1710   5.660   4.803   4.926
  271SOL     OW 1711   2.304   1.441   6.850
  271SOL    HW1 1712   2.316   1.354   6.801
  271SOL    HW2 1713   2.352   1.436   6.938
  272SOL     OW 1714   5.487   4.725   6.802
  272SOL    HW1 1715   5.508   4.673   6.720
  272SOL    HW2 1716   5.494   4.823   6.783
  273SOL     OW 1717   0.339   6.410   4.338
  273SOL    HW1 1718   0.426   6.387   4.294
  273SOL    HW2 1719   0.354   6.420   4.437
  274SOL     OW 1720   5.338   3.122   2.266
  274SOL    HW1 1721   5.430   3.143   2.299
  274SOL    HW2 1722   5.291   3.206   2.242
  275SOL     OW 1723   5.783   5.211   5.600
  275SOL    HW1 1724   5.845   5.159   5.659
  275SOL    HW2 1725   5.705   5.244   5.654
  276SOL     OW 1726   0.901   0.307   4.489
  276SOL    HW1 1727   0.957   0.243   4.436
  276SOL    HW2 1728   0.948   0.395   4.496
  277SOL     OW 1729   4.366   3.476   5.982
  277SOL    HW1 1730   4.296   3.491   5.913
  277SOL    HW2 1731   4.448   3.528   5.959
  278SOL     OW 1732   5.761   4.678   1.985
  278SOL    HW1 1733   5.726   4.751   2.044
  278SOL    HW2 1734   5.734   4.589   2.022
  279SOL     OW 1735   0.558   3.411   4.521
  279SOL    HW1 1736   0.526   3.460   4.439
  279SOL    HW2 1737   0.497   3.334   4.540
  280SOL     OW 1738   4.534   1.284   2.867
  280SOL    HW1 1739   4.476   1.316   2.792
  280SOL    HW2 1740   4.480   1.276   2.950
  281SOL     OW 1741   5.178   5.502   5.373
  281SOL    HW1 1742   5.144   5.428   5.316
  281SOL    HW2 1743   5.104   5.539   5.428
  282SOL     OW 1744   0.192   2.153   0.092
  282SOL    HW1 1745   0.097   2.160   0.060
  282SOL    HW2 1746   0.238   2.077   0.045
  283SOL     OW 1747   5.683   3.886   2.208
  283SOL    HW1 1748   5.677   3.858   2.303
  283SOL    HW2 1749   5.779   3.899   2.183
  284SOL     OW 1750   5.680   6.853   2.999
  284SOL    HW1 1751   5.746   6.784   2.970
  284SOL    HW2 1752   5.690   6.935   2.943
  285SOL     OW 1753   4.853   6.316   6.624
  285SOL    HW1 1754   4.801   6.366   6.693
  285SOL    HW2 1755   4.830   6.351   6.533
  286SOL     OW 1756   3.521   5.502   5.245
  286SOL    HW1 1757   3.520   5.552   5.158
  286SOL    HW2 1758   3.575   5.554   5.312
  287SOL     OW 1759   3.693   6.365   0.848
  287SOL    HW1 1760   3.636   6.320   0.916
  287SOL    HW2 1761   3.750   6.297   0.802
  288SOL     OW 1762   3.763   0.927   0.377
  288SOL    HW1 1763   3.792   0.833   0.396
  288SOL    HW2 1764   3.715   0.963   0.457
  289SOL     OW 1765   5.188   4.848   5.242
  289SOL    HW1 1766   5.125   4.859   5.319
  289SOL    HW2 1767   5.277   4.887   5.267
  290SOL     OW 1768   3.009   0.758   4.887
  290SOL    HW1 1769   3.034   0.820   4.813
  290SOL    HW2 1770   2.975   0.672   4.848
  291SOL     OW 1771   5.815   1.426   4.901
  291SOL    HW1 1772   5.856   1.338   4.922
  291SOL    HW2 1773   5.792   1.431   4.804
  292SOL     OW 1774   2.007   0.617   4.055
  292SOL    HW1 1775   2.060   0.532   4.058
  292SOL    HW2 1776   2.048   0.681   3.991
  293SOL     OW 1777   5.600   1.326   3.438
  293SOL    HW1 1778   5.541   1.397   3.477
  293SOL    HW2 1779   5.545   1.260   3.387
  294SOL     OW 1780   6.350   1.169   6.957
  294SOL    HW1 1781   6.418   1.230   6.996
  294SOL    HW2 1782   6.270   1.166   7.017
  295SOL     OW 1783   0.240   0.565   4.760
  295SOL    HW1 1784   0.274   0.563   4.854
  295SOL    HW2 1785   0.237   0.659   4.727
  296SOL     OW 1786   6.857   1.651   0.006
  296SOL    HW1 1787   6.941   1.608   6.996
  296SOL    HW2 1788   6.876   1.700   0.090
  297SOL     OW 1789   4.908   3.608   3.339
  297SOL    HW1 1790   4.906   3.579   3.244
  297SOL    HW2 1791   4.932   3.530   3.397
  298SOL     OW 1792   4.041   6.999   5.016
  298SOL    HW1 1793   4.018   6.985   5.112
  298SOL    HW2 1794   3.978   0.041   4.975
  299SOL     OW 1795   0.576   1.098   6.202
  299SOL    HW1 1796   0.569   1.101   6.102
  299SOL    HW2 1797   0.641   1.028   6.229
  300SOL     OW 1798   4.193   6.290   4.556
  300SOL    HW1 1799   4.210   6.312   4.460
  300SOL    HW2 1800   4.098   6.260   4.567
  301SOL     OW 1801   6.785   6.529   5.344
  301SOL    HW1 1802   6.789   6.521   5.444
  301SOL    HW2 1803   6.878   6.529   5.307
  302SOL     OW 1804   0.529   0.124   1.654
  302SOL    HW1 1805   0.585   0.100   1.734
  302SOL    HW2 1806   0.442   0.163   1.684
  303SOL     OW 1807   4.791   5.564   2.896
  303SOL    HW1 1808   4.848   5.633   2.942
  303SOL    HW2 1809   4.751   5.503   2.965
  304SOL     OW 1810   1.193   1.362   4.458
  304SOL    HW1 1811   1.197   1.318   4.368
  304SOL    HW2 1812   1.186   1.291   4.529
  305SOL     OW 1813   2.903   1.778   1.111
  305SOL    HW1 1814   2.951   1.696   1.079
  305SOL    HW2 1815   2.807   1.756   1.129
  306SOL     OW 1816   0.333   6.675   3.076
  306SOL    HW1 1817   0.284   6.762   3.084
  306SOL    HW2 1818   0.309   6.631   2.990
  307SOL     OW 1819   4.072   3.783   4.466
  307SOL    HW1 1820   4.049   3.690   4.495
  307SOL    HW2 1821   4.099   3.783   4.370
  308SOL     OW 1822   6.232   3.089   1.562
  308SOL    HW1 1823   6.138   3.110   1.533
  308SOL    HW2 1824   6.257   2.998   1.530
  309SOL     OW 1825   1.857   4.849   0.301
  309SOL    HW1 1826   1.785   4.917   0.287
  309SOL    HW2 1827   1.917   4.880   0.375
  310SOL     OW 1828   4.737   6.224   4.949
  310SOL    HW1 1829   4.819   6.171   4.928
  310SOL    HW2 1830   4.761   6.298   5.013
  311SOL     OW 1831   1.687   6.036   2.126
  311SOL    HW1 1832   1.764   6.053   2.186
  311SOL    HW2 1833   1.658   5.941   2.135
  312SOL     OW 1834   3.378   0.732   4.076
  312SOL    HW1 1835   3.435   0.664   4.029
  312SOL    HW2 1836   3.430   0.772   4.152
  313SOL     OW 1837   3.553   3.250   3.390
  313SOL    HW1 1838   3.557   3.286   3.484
  313SOL    HW2 1839   3.463   3.271   3.350
  314SOL     OW 1840   2.400   4.226   6.177
  314SOL    HW1 1841   2.393   4.296   6.105
  314SOL    HW2 1842   2.483   4.242   6.231
  315SOL     OW 1843   5.944   6.943   5.136
  315SOL    HW1 1844   5.980   0.008   5.106
  315SOL    HW2 1845   6.017   6.874   5.129
  316SOL     OW 1846   4.064   1.080   4.854
  316SOL    HW1 1847   4.122   1.156   4.826
  316SOL    HW2 1848   4.087   1.052   4.947
  317SOL     OW 1849   0.613   1.740   1.894
  317SOL    HW1 1850   0.667   1.822   1.875
  317SOL    HW2 1851   0.544   1.761   1.964
  318SOL     OW 1852   1.033   1.166   3.635
  318SOL    HW1 1853   1.002   1.076   3.606
  318SOL    HW2 1854   1.044   1.166   3.735
  319SOL     OW 1855   0.444   1.915   2.411
  319SOL    HW1 1856   0.421   2.013   2.416
  319SOL    HW2 1857   0.511   1.901   2.338
  320SOL     OW 1858   5.226   0.862   6.653
  320SOL    HW1 1859   5.173   0.793   6.701
  320SOL    HW2 1860   5.185   0.878   6.563
  321SOL     OW 1861   4.185   3.259   1.298
  321SOL    HW1 1862   4.087   3.256   1.276
  321SOL    HW2 1863   4.209   3.351   1.330
  322SOL     OW 1864   2.783   1.627   0.055
  322SOL    HW1 1865   2.793   1.706   7.019
  322SOL    HW2 1866   2.710   1.568   0.021
  323SOL     OW 1867   0.698   4.732   2.247
  323SOL    HW1 1868   0.684   4.806   2.313
  323SOL    HW2 1869   0.610   4.692   2.222
  324SOL     OW 1870   6.051   0.165   3.554
  324SOL    HW1 1871   6.043   0.065   3.546
  324SOL    HW2 1872   6.045   0.191   3.650
  325SOL     OW 1873   6.120   2.844   0.817
  325SOL    HW1 1874   6.180   2.904   0.764
  325SOL    HW2 1875   6.163   2.825   0.906
  326SOL     OW 1876   5.867   5.872   6.230
  326SOL    HW1 1877   5.953   5.833   6.262
  326SOL    HW2 1878   5.882   5.966   6.201
  327SOL     OW 1879   4.501   6.433   6.433
  327SOL    HW1 1880   4.447   6.423   6.350
  327SOL    HW2 1881   4.554   6.518   6.429
  328SOL     OW 1882   2.347   4.198   3.752
  328SOL    HW1 1883   2.326   4.289   3.788
  328SOL    HW2 1884   2.378   4.206   3.657
  329SOL     OW 1885   2.881   3.572   2.908
  329SOL    HW1 1886   2.809   3.637   2.884
  329SOL    HW2 1887   2.930   3.545   2.825
  330SOL     OW 1888   2.441   4.011   6.614
  330SOL    HW1 1889   2.376   3.994   6.688
  330SOL    HW2 1890   2.392   4.021   6.528
  331SOL     OW 1891   5.191   5.511   3.930
  331SOL    HW1 1892   5.189   5.596   3.878
  331SOL    HW2 1893   5.222   5.530   4.023
  332SOL     OW 1894   6.153   2.177   2.977
  332SOL    HW1 1895   6.165   2.132   2.888
  332SOL    HW2 1896   6.174   2.274   2.969
  333SOL     OW 1897   3.197   6.430   3.471
  333SOL    HW1 1898   3.124   6.371   3.507
  333SOL    HW2 1899   3.265   6.446   3.542
  334SOL     OW 1900   3.952   3.476   4.197
  334SOL    HW1 1901   3.894   3.426   4.262
  334SOL    HW2 1902   4.036   3.425   4.181
  335SOL     OW 1903   4.648   1.595   0.424
  335SOL    HW1 1904   4.606   1.613   0.513
  335SOL    HW2 1905   4.655   1.496   0.410
  336SOL     OW 1906   3.872   2.036   4.513
  336SOL    HW1 1907   3.937   1.961   4.502
  336SOL    HW2 1908   3.902   2.095   4.588
  337SOL     OW 1909   0.810   1.873   5.291
  337SOL    HW1 1910   0.865   1.934   5.347
  337SOL    HW2 1911   0.758   1.926   5.224
  338SOL     OW 1912   5.189   1.388   1.963
  338SOL    HW1 1913   5.281   1.372   1.928
  338SOL    HW2 1914   5.125   1.388   1.886
  339SOL     OW 1915   3.335   5.020   5.616
  339SOL    HW1 1916   3.387   5.077   5.680
  339SOL    HW2 1917   3.260   5.072   5.577
  340SOL     OW 1918   5.698   3.817   4.554
  340SOL    HW1 1919   5.670   3.756   4.629
  340SOL    HW2 1920   5.617   3.861   4.516
  341SOL     OW 1921   6.342   0.702   1.617
  341SOL    HW1 1922   6.380   0.753   1.540
  341SOL    HW2 1923   6.381   0.737   1.702
  342SOL     OW 1924   4.785   0.824   2.212
  342SOL    HW1 1925   4.816   0.733   2.183
  342SOL    HW2 1926   4.815   0.893   2.146
  343SOL     OW 1927   5.611   0.617   1.576
  343SOL    HW1 1928   5.621   0.548   1.505
  343SOL    HW2 1929   5.533   0.676   1.555
  344SOL     OW 1930   6.561   2.868   1.356
  344SOL    HW1 1931   6.591   2.876   1.261
  344SOL    HW2 1932   6.630   2.908   1.416
  345SOL     OW 1933   0.116   3.009   3.638
  345SOL    HW1 1934   0.193   3.056   3.680
  345SOL    HW2 1935   0.034   3.022   3.695
  346SOL     OW 1936   1.116   6.929   2.510
  346SOL    HW1 1937   1.034   6.872   2.508
  346SOL    HW2 1938   1.090   0.002   2.513
  347SOL     OW 1939   1.480   4.616   1.557
  347SOL    HW1 1940   1.448   4.538   1.503
  347SOL    HW2 1941   1.462   4.599   1.654
  348SOL     OW 1942   5.554   4.698   1.051
  348SOL    HW1 1943   5.466   4.743   1.032
  348SOL    HW2 1944   5.541   4.630   1.123
  349SOL     OW 1945   5.882   5.585   0.267
  349SOL    HW1 1946   5.853   5.597   0.362
  349SOL    HW2 1947   5.923   5.495   0.256
  350SOL     OW 1948   2.350   0.257   0.940
  350SOL    HW1 1949   2.423   0.248   0.873
  350SOL    HW2 1950   2.267   0.289   0.895
  351SOL     OW 1951   3.540   4.123   1.217
  351SOL    HW1 1952   3.586   4.062   1.152
  351SOL    HW2 1953   3.513   4.072   1.298
  352SOL     OW 1954   3.866   0.539   2.080
  352SOL    HW1 1955   3.872   0.502   1.987
  352SOL    HW2 1956   3.845   0.465   2.144
  353SOL     OW 1957   2.848   6.055   0.406
  353SOL    HW1 1958   2.808   6.024   0.493
  353SOL    HW2 1959   2.798   6.135   0.373
  354SOL     OW 1960   2.301   2.187   0.548
  354SOL    HW1 1961   2.295   2.152   0.455
  354SOL    HW2 1962   2.232   2.258   0.562
  355SOL     OW 1963   0.310   2.706   2.907
  355SOL    HW1 1964   0.386   2.706   2.842
  355SOL    HW2 1965   0.284   2.800   2.928
  356SOL     OW 1966   2.823   0.391   5.956
  356SOL    HW1 1967   2.829   0.336   5.873
  356SOL    HW2 1968   2.905   0.377   6.011
  357SOL     OW 1969   6.253   5.725   4.239
  357SOL    HW1 1970   6.216   5.656   4.177
  357SOL    HW2 1971   6.189   5.802   4.246
  358SOL     OW 1972   3.328   6.172   0.029
  358SOL    HW1 1973   3.305   6.093   6.996
  358SOL    HW2 1974   3.254   6.239   0.024
  359SOL     OW 1975   1.747   2.542   1.232
  359SOL    HW1 1976   1.807   2.463   1.244
  359SOL    HW2 1977   1.768   2.586   1.144
  360SOL     OW 1978   2.192   4.233   3.212
  360SOL    HW1 1979   2.178   4.331   3.199
  360SOL    HW2 1980   2.211   4.190   3.124
  361SOL     OW 1981   6.706   3.240   2.379
  361SOL    HW1 1982   6.805   3.244   2.395
  361SOL    HW2 1983   6.661   3.314   2.429
  362SOL     OW 1984   4.157   3.507   2.845
  362SOL    HW1 1985   4.255   3.528   2.852
  362SOL    HW2 1986   4.118   3.556   2.767
  363SOL     OW 1987   4.812   5.106   0.595
  363SOL    HW1 1988   4.896   5.147   0.631
  363SOL    HW2 1989   4.813   5.008   0.610
  364SOL     OW 1990   0.937   0.479   0.307
  364SOL    HW1 1991   1.026   0.442   0.281
  364SOL    HW2 1992   0.872   0.466   0.232
  365SOL     OW 1993   4.805   0.566   4.101
  365SOL    HW1 1994   4.742   0.629   4.145
  365SOL    HW2 1995   4.894   0.610   4.090
  366SOL     OW 1996   5.150   1.867   0.553
  366SOL    HW1 1997   5.073   1.908   0.504
  366SOL    HW2 1998   5.198   1.803   0.493
  367SOL     OW 1999   5.971   0.465   6.893
  367SOL    HW1 2000   5.978   0.396   6.821
  367SOL    HW2 2001   6.062   0.488   6.927
  368SOL     OW 2002   3.276   1.302   5.697
  368SOL    HW1 2003   3.366   1.293   5.741
  368SOL    HW2 2004   3.287   1.350   5.610
  369SOL     OW 2005   5.062   4.121   0.278
  369SOL    HW1 2006   5.010   4.062   0.215
  369SOL    HW2 2007   5.145   4.153   0.232
  370SOL     OW 2008   2.266   2.436   3.585
  370SOL    HW1 2009   2.338   2.473   3.527
  370SOL    HW2 2010   2.193   2.504   3.595
  371SOL     OW 2011   2.458   4.772   0.720
  371SOL    HW1 2012   2.460   4.807   0.814
  371SOL    HW2 2013   2.364   4.749   0.695
  372SOL     OW 2014   2.899   6.238   6.085
  372SOL    HW1 2015   2.910   6.268   5.990
  372SOL    HW2 2016   2.919   6.140   6.092
  373SOL     OW 2017   5.165   4.713   2.786
  373SOL    HW1 2018   5.221   4.673   2.858
  373SOL    HW2 2019   5.102   4.645   2.750
  374SOL     OW 2020   2.573   2.477   2.228
  374SOL    HW1 2021   2.516   2.446   2.152
  374SOL    HW2 2022   2.591   2.575   2.219
  375SOL     OW 2023   6.777   5.335   3.774
  375SOL    HW1 2024   6.812   5.423   3.742
  375SOL    HW2 2025   6.848   5.288   3.827
  376SOL     OW 2026   4.579   0.740   3.722
  376SOL    HW1 2027   4.553   0.785   3.808
  376SOL    HW2 2028   4.604   0.809   3.655
  377SOL     OW 2029   3.016   3.155   6.243
  377SOL    HW1 2030   2.993   3.191   6.153
  377SOL    HW2 2031   3.113   3.173   6.262
  378SOL     OW 2032   4.195   0.940   1.712
  378SOL    HW1 2033   4.294   0.930   1.704
  378SOL    HW2 2034   4.163   1.011   1.649
  379SOL     OW 2035   3.588   3.196   6.983
  379SOL    HW1 2036   3.535   3.160   0.037
  379SOL    HW2 2037   3.546   3.168   6.897
  380SOL     OW 2038   4.872   1.880   0.452
  380SOL    HW1 2039   4.808   1.929   0.392
  380SOL    HW2 2040   4.835   1.879   0.545
  381SOL     OW 2041   1.060   3.408   2.180
  381SOL    HW1 2042   0.977   3.407   2.236
  381SOL    HW2 2043   1.038   3.372   2.089
  382SOL     OW 2044   6.514   0.337   0.586
  382SOL    HW1 2045   6.450   0.405   0.550
  382SOL    HW2 2046   6.576   0.381   0.651
  383SOL     OW 2047   4.877   3.113   0.730
  383SOL    HW1 2048   4.912   3.190   0.677
  383SOL    HW2 2049   4.901   3.124   0.826
  384SOL     OW 2050   1.064   2.621   5.122
  384SOL    HW1 2051   1.147   2.658   5.164
  384SOL    HW2 2052   0.997   2.694   5.110
  385SOL     OW 2053   5.191   2.924   6.371
  385SOL    HW1 2054   5.127   2.876   6.432
  385SOL    HW2 2055   5.143   3.000   6.326
  386SOL     OW 2056   3.426   6.266   5.203
  386SOL    HW1 2057   3.482   6.345   5.226
  386SOL    HW2 2058   3.372   6.286   5.121
  387SOL     OW 2059   2.551   6.222   3.963
  387SOL    HW1 2060   2.457   6.203   3.937
  387SOL    HW2 2061   2.604   6.246   3.881
  388SOL     OW 2062   1.796   5.557   5.679
  388SOL    HW1 2063   1.708   5.600   5.698
  388SOL    HW2 2064   1.801   5.468   5.724
  389SOL     OW 2065   2.701   2.185   0.125
  389SOL    HW1 2066   2.727   2.246   0.199
  389SOL    HW2 2067   2.623   2.129   0.153
  390SOL     OW 2068   2.978   1.686   3.984
  390SOL    HW1 2069   2.968   1.610   4.048
  390SOL    HW2 2070   3.025   1.762   4.029
  391SOL     OW 2071   0.432   2.162   0.462
  391SOL    HW1 2072   0.393   2.079   0.501
  391SOL    HW2 2073   0.375   2.240   0.486
  392SOL     OW 2074   3.792   5.301   4.629
  392SOL    HW1 2075   3.792   5.279   4.531
  392SOL    HW2 2076   3.871   5.258   4.672
  393SOL     OW 2077   6.214   3.440   5.386
  393SOL    HW1 2078   6.130   3.495   5.382
  393SOL    HW2 2079   6.292   3.496   5.358
  394SOL     OW 2080   2.090   1.092   6.596
  394SOL    HW1 2081   2.045   1.180   6.581
  394SOL    HW2 2082   2.188   1.102   6.582
  395SOL     OW 2083   0.146   3.210   1.234
  395SOL    HW1 2084   0.104   3.272   1.168
  395SOL    HW2 2085   0.075   3.173   1.295
  396SOL     OW 2086   3.551   2.875   5.429
  396SOL    HW1 2087   3.462   2.887   5.473
  396SOL    HW2 2088   3.613   2.831   5.493
  397SOL     OW 2089   4.617   0.198   6.347
  397SOL    HW1 2090   4.582   0.187   6.440
  397SOL    HW2 2091   4.541   0.197   6.282
  398SOL     OW 2092   6.415   4.415   2.643
  398SOL    HW1 2093   6.477   4.486   2.609
  398SOL    HW2 2094   6.320   4.441   2.625
  399SOL     OW 2095   4.057   5.388   1.681
  399SOL    HW1 2096   4.030   5.374   1.585
  399SOL    HW2 2097   3.975   5.386   1.739
  400SOL     OW 2098   2.651   4.628   5.704
  400SOL    HW1 2099   2.621   4.713   5.662
  400SOL    HW2 2100   2.686   4.566   5.634
  401SOL     OW 2101   6.332   1.629   1.540
  401SOL    HW1 2102   6.417   1.664   1.581
  401SOL    HW2 2103   6.335   1.529   1.538
  402SOL     OW 2104   0.573   5.570   0.769
  402SOL    HW1 2105   0.579   5.494   0.703
  402SOL    HW2 2106   0.665   5.590   0.804
  403SOL     OW 2107   4.693   4.580   0.665
  403SOL    HW1 2108   4.626   4.507   0.648
  403SOL    HW2 2109   4.785   4.541   0.664
  404SOL     OW 2110   0.340   5.738   4.848
  404SOL    HW1 2111   0.382   5.822   4.813
  404SOL    HW2 2112   0.334   5.670   4.775
  405SOL     OW 2113   1.110   1.623   1.235
  405SOL    HW1 2114   1.100   1.713   1.279
  405SOL    HW2 2115   1.057   1.621   1.150
  406SOL     OW 2116   0.950   2.921   3.613
  406SOL    HW1 2117   0.965   2.866   3.531
  406SOL    HW2 2118   1.028   2.911   3.675
  407SOL     OW 2119   3.495   2.040   3.646
  407SOL    HW1 2120   3.410   2.088   3.669
  407SOL    HW2 2121   3.527   2.071   3.556
  408SOL     OW 2122   2.386   0.173   4.007
  408SOL    HW1 2123   2.422   0.100   3.948
  408SOL    HW2 2124   2.433   0.259   3.987
  409SOL     OW 2125   0.051   4.395   4.338
  409SOL    HW1 2126   0.039   4.488   4.306
  409SOL    HW2 2127   0.050   4.393   4.438
  410SOL     OW 2128   2.849   6.837   6.257
  410SOL    HW1 2129   2.795   6.756   6.279
  410SOL    HW2 2130   2.941   6.810   6.231
  411SOL     OW 2131   0.590   4.290   5.549
  411SOL    HW1 2132   0.648   4.284   5.630
  411SOL    HW2 2133   0.647   4.282   5.467
  412SOL     OW 2134   3.500   6.278   2.315
  412SOL    HW1 2135   3.479   6.258   2.411
  412SOL    HW2 2136   3.559   6.207   2.278
  413SOL     OW 2137   1.840   0.541   2.164
  413SOL    HW1 2138   1.773   0.605   2.200
  413SOL    HW2 2139   1.822   0.525   2.067
  414SOL     OW 2140   5.056   4.653   0.809
  414SOL    HW1 2141   5.049   4.587   0.735
  414SOL    HW2 2142   5.152   4.671   0.829
  415SOL     OW 2143   3.911   0.322   3.060
  415SOL    HW1 2144   3.879   0.307   3.153
  415SOL    HW2 2145   3.909   0.236   3.009
  416SOL     OW 2146   3.891   5.833   6.918
  416SOL    HW1 2147   3.837   5.866   6.995
  416SOL    HW2 2148   3.867   5.886   6.836
  417SOL     OW 2149   5.386   5.481   1.254
  417SOL    HW1 2150   5.338   5.500   1.340
  417SOL    HW2 2151   5.320   5.455   1.184
  418SOL     OW 2152   6.836   5.212   6.735
  418SOL    HW1 2153   6.924   5.164   6.737
  418SOL    HW2 2154   6.774   5.173   6.802
  419SOL     OW 2155   5.091   5.278   6.981
  419SOL    HW1 2156   5.060   5.370   7.006
  419SOL    HW2 2157   5.013   5.222   6.955
  420SOL     OW 2158   5.531   3.756   6.536
  420SOL    HW1 2159   5.528   3.756   6.636
  420SOL    HW2 2160   5.456   3.698   6.502
  421SOL     OW 2161   1.809   6.297   6.513
  421SOL    HW1 2162   1.834   6.218   6.569
  421SOL    HW2 2163   1.817   6.272   6.416
  422SOL     OW 2164   6.433   3.984   6.674
  422SOL    HW1 2165   6.376   3.957   6.752
  422SOL    HW2 2166   6.379   3.981   6.590
  423SOL     OW 2167   1.313   3.811   6.324
  423SOL    HW1 2168   1.225   3.825   6.278
  423SOL    HW2 2169   1.344   3.898   6.363
  424SOL     OW 2170   1.950   4.453   6.430
  424SOL    HW1 2171   1.944   4.453   6.530
  424SOL    HW2 2172   1.976   4.544   6.398
  425SOL     OW 2173   2.842   0.249   0.541
  425SOL    HW1 2174   2.830   0.159   0.501
  425SOL    HW2 2175   2.791   0.316   0.487
  426SOL     OW 2176   0.771   3.409   0.165
  426SOL    HW1 2177   0.800   3.367   0.251
  426SOL    HW2 2178   0.675   3.386   0.148
  427SOL     OW 2179   3.672   3.465   6.981
  427SOL    HW1 2180   3.657   3.367   6.993
  427SOL    HW2 2181   3.728   3.480   6.899
  428SOL     OW 2182   4.137   1.557   4.853
  428SOL    HW1 2183   4.141   1.605   4.766
  428SOL    HW2 2184   4.042   1.537   4.876
  429SOL     OW 2185   3.405   6.617   0.119
  429SOL    HW1 2186   3.406   6.687   0.191
  429SOL    HW2 2187   3.388   6.660   0.031
  430SOL     OW 2188   2.775   0.852   4.710
  430SOL    HW1 2189   2.837   0.802   4.651
  430SOL    HW2 2190   2.811   0.944   4.727
  431SOL     OW 2191   3.839   1.070   6.901
  431SOL    HW1 2192   3.788   1.063   6.987
  431SOL    HW2 2193   3.795   1.136   6.841
  432SOL     OW 2194   6.317   1.770   0.959
  432SOL    HW1 2195   6.307   1.672   0.939
  432SOL    HW2 2196   6.355   1.781   1.051
  433SOL     OW 2197   3.211   6.324   5.003
  433SOL    HW1 2198   3.206   6.287   4.910
  433SOL    HW2 2199   3.142   6.395   5.014
  434SOL     OW 2200   6.234   3.542   0.764
  434SOL    HW1 2201   6.282   3.630   0.764
  434SOL    HW2 2202   6.286   3.476   0.818
  435SOL     OW 2203   3.640   3.540   0.994
  435SOL    HW1 2204   3.657   3.595   1.076
  435SOL    HW2 2205   3.542   3.541   0.973
  436SOL     OW 2206   2.966   1.081   0.799
  436SOL    HW1 2207   2.972   1.158   0.736
  436SOL    HW2 2208   3.031   1.093   0.874
  437SOL     OW 2209   6.633   6.343   6.364
  437SOL    HW1 2210   6.568   6.386   6.426
  437SOL    HW2 2211   6.584   6.303   6.287
  438SOL     OW 2212   1.181   3.114   0.925
  438SOL    HW1 2213   1.145   3.021   0.931
  438SOL    HW2 2214   1.109   3.175   0.893
  439SOL     OW 2215   6.091   5.168   1.718
  439SOL    HW1 2216   6.175   5.147   1.769
  439SOL    HW2 2217   6.017   5.186   1.782
  440SOL     OW 2218   1.440   2.886   2.739
  440SOL    HW1 2219   1.468   2.940   2.660
  440SOL    HW2 2220   1.340   2.883   2.745
  441SOL     OW 2221   0.041   1.472   3.251
  441SOL    HW1 2222   0.045   1.534   3.330
  441SOL    HW2 2223   0.133   1.439   3.231
  442SOL     OW 2224   0.899   5.118   6.040
  442SOL    HW1 2225   0.888   5.116   5.941
  442SOL    HW2 2226   0.982   5.169   6.063
  443SOL     OW 2227   0.866   4.749   5.692
  443SOL    HW1 2228   0.842   4.780   5.784
  443SOL    HW2 2229   0.960   4.776   5.672
  444SOL     OW 2230   5.353   3.017   6.593
  444SOL    HW1 2231   5.430   3.033   6.655
  444SOL    HW2 2232   5.387   2.994   6.502
  445SOL     OW 2233   1.091   3.517   3.389
  445SOL    HW1 2234   1.073   3.423   3.415
  445SOL    HW2 2235   1.068   3.578   3.465
  446SOL     OW 2236   2.120   4.803   4.123
  446SOL    HW1 2237   2.042   4.855   4.158
  446SOL    HW2 2238   2.203   4.858   4.129
  447SOL     OW 2239   0.372   6.039   0.718
  447SOL    HW1 2240   0.362   5.949   0.676
  447SOL    HW2 2241   0.467   6.068   0.713
  448SOL     OW 2242   4.333   0.395   5.623
  448SOL    HW1 2243   4.236   0.413   5.642
  448SOL    HW2 2244   4.345   0.376   5.526
  449SOL     OW 2245   5.361   0.550   5.125
  449SOL    HW1 2246   5.410   0.465   5.146
  449SOL    HW2 2247   5.421   0.628   5.142
  450SOL     OW 2248   6.726   6.014   2.441
  450SOL    HW1 2249   6.716   6.109   2.472
  450SOL    HW2 2250   6.689   6.006   2.348
  451SOL     OW 2251   6.203   3.318   3.633
  451SOL    HW1 2252   6.276   3.283   3.692
  451SOL    HW2 2253   6.235   3.324   3.539
  452SOL     OW 2254   6.505   5.367   5.758
  452SOL    HW1 2255   6.553   5.328   5.836
  452SOL    HW2 2256   6.538   5.324   5.674
  453SOL     OW 2257   3.362   1.527   6.073
  453SOL    HW1 2258   3.407   1.611   6.104
  453SOL    HW2 2259   3.400   1.448   6.121
  454SOL     OW 2260   0.858   6.114   0.711
  454SOL    HW1 2261   0.928   6.088   0.644
  454SOL    HW2 2262   0.901   6.142   0.796
  455SOL     OW 2263   5.482   1.218   5.064
  455SOL    HW1 2264   5.521   1.155   4.998
  455SOL    HW2 2265   5.462   1.305   5.020
  456SOL     OW 2266   3.821   5.107   0.236
  456SOL    HW1 2267   3.858   5.015   0.244
  456SOL    HW2 2268   3.814   5.132   0.139
  457SOL     OW 2269   0.417   4.479   1.673
  457SOL    HW1 2270   0.463   4.425   1.744
  457SOL    HW2 2271   0.326   4.505   1.704
  458SOL     OW 2272   0.630   6.068   5.361
  458SOL    HW1 2273   0.564   6.047   5.433
  458SOL    HW2 2274   0.617   6.162   5.330
  459SOL     OW 2275   1.290   0.570   3.562
  459SOL    HW1 2276   1.315   0.530   3.650
  459SOL    HW2 2277   1.196   0.605   3.567
  460SOL     OW 2278   6.702   2.064   3.316
  460SOL    HW1 2279   6.741   2.152   3.342
  460SOL    HW2 2280   6.602   2.070   3.313
  461SOL     OW 2281   5.705   4.935   5.738
  461SOL    HW1 2282   5.613   4.897   5.730
  461SOL    HW2 2283   5.772   4.870   5.703
  462SOL     OW 2284   2.880   2.226   6.906
  462SOL    HW1 2285   2.827   2.206   6.988
  462SOL    HW2 2286   2.940   2.304   6.923
  463SOL     OW 2287   6.160   6.062   2.364
  463SOL    HW1 2288   6.156   6.036   2.267
  463SOL    HW2 2289   6.255   6.081   2.389
  464SOL     OW 2290   1.998   1.282   5.790
  464SOL    HW1 2291   2.095   1.279   5.813
  464SOL    HW2 2292   1.967   1.377   5.788
  465SOL     OW 2293   0.360   3.421   6.548
  465SOL    HW1 2294   0.302   3.433   6.629
  465SOL    HW2 2295   0.306   3.436   6.465
  466SOL     OW 2296   2.034   0.451   3.386
  466SOL    HW1 2297   2.039   0.549   3.364
  466SOL    HW2 2298   1.939   0.423   3.395
  467SOL     OW 2299   1.761   2.050   5.378
  467SOL    HW1 2300   1.802   1.993   5.449
  467SOL    HW2 2301   1.721   1.991   5.307
  468SOL     OW 2302   3.050   3.633   3.181
  468SOL    HW1 2303   3.005   3.579   3.111
  468SOL    HW2 2304   3.018   3.604   3.272
  469SOL     OW 2305   3.620   6.669   6.782
  469SOL    HW1 2306   3.558   6.590   6.780
  469SOL    HW2 2307   3.692   6.653   6.850
  470SOL     OW 2308   4.441   6.833   3.571
  470SOL    HW1 2309   4.497   6.915   3.581
  470SOL    HW2 2310   4.486   6.756   3.618
  471SOL     OW 2311   2.683   2.261   4.097
  471SOL    HW1 2312   2.775   2.270   4.060
  471SOL    HW2 2313   2.620   2.234   4.024
  472SOL     OW 2314   3.904   4.563   5.428
  472SOL    HW1 2315   3.992   4.522   5.405
  472SOL    HW2 2316   3.852   4.501   5.487
  473SOL     OW 2317   0.455   4.493   3.850
  473SOL    HW1 2318   0.414   4.566   3.905
  473SOL    HW2 2319   0.406   4.484   3.764
  474SOL     OW 2320   5.123   4.483   5.364
  474SOL    HW1 2321   5.122   4.523   5.273
  474SOL    HW2 2322   5.130   4.383   5.356
  475SOL     OW 2323   2.572   6.309   0.094
  475SOL    HW1 2324   2.539   6.399   0.069
  475SOL    HW2 2325   2.501   6.260   0.145
  476SOL     OW 2326   6.466   5.986   3.248
  476SOL    HW1 2327   6.457   5.915   3.178
  476SOL    HW2 2328   6.529   5.956   3.319
  477SOL     OW 2329   2.091   4.381   3.967
  477SOL    HW1 2330   2.103   4.476   3.939
  477SOL    HW2 2331   2.155   4.359   4.041
  478SOL     OW 2332   1.387   5.154   3.254
  478SOL    HW1 2333   1.400   5.066   3.209
  478SOL    HW2 2334   1.297   5.191   3.231
  479SOL     OW 2335   4.328   2.011   1.712
  479SOL    HW1 2336   4.288   1.920   1.726
  479SOL    HW2 2337   4.292   2.051   1.628
  480SOL     OW 2338   1.723   6.449   3.957
  480SOL    HW1 2339   1.627   6.426   3.948
  480SOL    HW2 2340   1.738   6.498   4.043
  481SOL     OW 2341   2.110   6.948   1.069
  481SOL    HW1 2342   2.058   6.902   0.997
  481SOL    HW2 2343   2.105   6.896   1.153
  482SOL     OW 2344   5.426   5.467   0.784
  482SOL    HW1 2345   5.507   5.513   0.821
  482SOL    HW2 2346   5.387   5.522   0.710
  483SOL     OW 2347   5.639   2.116   2.935
  483SOL    HW1 2348   5.647   2.016   2.940
  483SOL    HW2 2349   5.567   2.147   2.996
  484SOL     OW 2350   6.495   2.052   4.027
  484SOL    HW1 2351   6.555   1.992   3.973
  484SOL    HW2 2352   6.446   2.113   3.965
  485SOL     OW 2353   3.402   5.912   1.239
  485SOL    HW1 2354   3.365   5.999   1.206
  485SOL    HW2 2355   3.497   5.924   1.268
  486SOL     OW 2356   0.462   0.860   5.710
  486SOL    HW1 2357   0.424   0.812   5.790
  486SOL    HW2 2358   0.390   0.912   5.665
  487SOL     OW 2359   6.639   2.912   6.567
  487SOL    HW1 2360   6.717   2.941   6.622
  487SOL    HW2 2361   6.554   2.935   6.615
  488SOL     OW 2362   1.002   4.890   2.338
  488SOL    HW1 2363   0.913   4.915   2.301
  488SOL    HW2 2364   1.040   4.813   2.288
  489SOL     OW 2365   3.171   5.644   6.350
  489SOL    HW1 2366   3.239   5.697   6.401
  489SOL    HW2 2367   3.200   5.548   6.347
  490SOL     OW 2368   5.160   0.310   4.667
  490SOL    HW1 2369   5.125   0.343   4.755
  490SOL    HW2 2370   5.257   0.335   4.659
  491SOL     OW 2371   0.660   2.422   3.561
  491SOL    HW1 2372   0.735   2.458   3.506
  491SOL    HW2 2373   0.576   2.423   3.506
  492SOL     OW 2374   1.671   1.420   4.780
  492SOL    HW1 2375   1.712   1.451   4.866
  492SOL    HW2 2376   1.734   1.439   4.705
  493SOL     OW 2377   6.780   4.097   4.438
  493SOL    HW1 2378   6.797   4.196   4.439
  493SOL    HW2 2379   6.816   4.057   4.354
  494SOL     OW 2380   6.130   1.339   6.678
  494SOL    HW1 2381   6.098   1.300   6.592
  494SOL    HW2 2382   6.097   1.284   6.754
  495SOL     OW 2383   4.851   4.427   0.363
  495SOL    HW1 2384   4.910   4.471   0.295
  495SOL    HW2 2385   4.872   4.330   0.367
  496SOL     OW 2386   5.523   3.744   2.794
  496SOL    HW1 2387   5.497   3.673   2.729
  496SOL    HW2 2388   5.584   3.810   2.750
  497SOL     OW 2389   3.933   6.534   3.904
  497SOL    HW1 2390   3.939   6.443   3.864
  497SOL    HW2 2391   4.009   6.590   3.870
  498SOL     OW 2392   1.171   2.822   1.236
  498SOL    HW1 2393   1.257   2.771   1.234
  498SOL    HW2 2394   1.099   2.768   1.192
  499SOL     OW 2395   3.567   1.299   4.872
  499SOL    HW1 2396   3.665   1.302   4.893
  499SOL    HW2 2397   3.529   1.210   4.899
  500SOL     OW 2398   1.550   4.731   2.675
  500SOL    HW1 2399   1.464   4.741   2.625
  500SOL    HW2 2400   1.612   4.805   2.650
  501SOL     OW 2401   0.478   5.349   6.330
  501SOL    HW1 2402   0.563   5.299   6.347
  501SOL    HW2 2403   0.451   5.337   6.235
  502SOL     OW 2404   2.617   4.876   6.542
  502SOL    HW1 2405   2.620   4.934   6.461
  502SOL    HW2 2406   2.662   4.922   6.618
  503SOL     OW 2407   6.261   5.122   4.593
  503SOL    HW1 2408   6.244   5.031   4.556
  503SOL    HW2 2409   6.247   5.190   4.521
  504SOL     OW 2410   1.483   5.369   4.616
  504SOL    HW1 2411   1.500   5.410   4.705
  504SOL    HW2 2412   1.406   5.306   4.622
  505SOL     OW 2413   3.398   6.709   4.975
  505SOL    HW1 2414   3.469   6.675   5.037
  505SOL    HW2 2415   3.426   6.692   4.881
  506SOL     OW 2416   1.971   3.122   0.785
  506SOL    HW1 2417   1.945   3.068   0.865
  506SOL    HW2 2418   1.924   3.087   0.704
  507SOL     OW 2419   3.885   2.144   4.230
  507SOL    HW1 2420   3.870   2.165   4.327
  507SOL    HW2 2421   3.924   2.053   4.221
  508SOL     OW 2422   6.518   5.139   4.207
  508SOL    HW1 2423   6.457   5.205   4.164
  508SOL    HW2 2424   6.472   5.050   4.215
  509SOL     OW 2425   4.448   3.188   1.479
  509SOL    HW1 2426   4.373   3.125   1.501
  509SOL    HW2 2427   4.524   3.172   1.542
  510SOL     OW 2428   1.230   4.371   4.191
  510SOL    HW1 2429   1.220   4.272   4.198
  510SOL    HW2 2430   1.279   4.406   4.271
  511SOL     OW 2431   0.495   6.233   0.907
  511SOL    HW1 2432   0.475   6.135   0.909
  511SOL    HW2 2433   0.445   6.276   0.833
  512SOL     OW 2434   1.445   3.789   5.937
  512SOL    HW1 2435   1.383   3.728   5.987
  512SOL    HW2 2436   1.539   3.772   5.966
  513SOL     OW 2437   0.980   5.017   4.121
  513SOL    HW1 2438   0.883   5.000   4.104
  513SOL    HW2 2439   1.007   4.973   4.207
  514SOL     OW 2440   5.355   1.857   3.552
  514SOL    HW1 2441   5.410   1.940   3.558
  514SOL    HW2 2442   5.362   1.806   3.637
  515SOL     OW 2443   2.936   5.643   0.092
  515SOL    HW1 2444   2.922   5.547   0.114
  515SOL    HW2 2445   2.996   5.651   0.013
  516SOL     OW 2446   1.176   4.680   3.677
  516SOL    HW1 2447   1.136   4.758   3.629
  516SOL    HW2 2448   1.113   4.603   3.672
  517SOL     OW 2449   4.462   0.353   6.092
  517SOL    HW1 2450   4.404   0.393   6.022
  517SOL    HW2 2451   4.516   0.425   6.136
  518SOL     OW 2452   2.123   1.483   0.202
  518SOL    HW1 2453   2.071   1.558   0.161
  518SOL    HW2 2454   2.061   1.410   0.229
  519SOL     OW 2455   0.708   6.545   0.510
  519SOL    HW1 2456   0.659   6.472   0.463
  519SOL    HW2 2457   0.652   6.628   0.512
  520SOL     OW 2458   6.231   4.605   4.175
  520SOL    HW1 2459   6.227   4.590   4.076
  520SOL    HW2 2460   6.164   4.675   4.201
  521SOL     OW 2461   6.486   0.748   0.553
  521SOL    HW1 2462   6.586   0.739   0.560
  521SOL    HW2 2463   6.463   0.787   0.464
  522SOL     OW 2464   3.494   3.923   5.525
  522SOL    HW1 2465   3.416   3.983   5.506
  522SOL    HW2 2466   3.493   3.896   5.621
  523SOL     OW 2467   6.264   6.679   3.751
  523SOL    HW1 2468   6.321   6.698   3.831
  523SOL    HW2 2469   6.284   6.746   3.679
  524SOL     OW 2470   3.918   0.284   5.158
  524SOL    HW1 2471   3.897   0.278   5.255
  524SOL    HW2 2472   3.851   0.342   5.113
  525SOL     OW 2473   2.938   2.597   6.719
  525SOL    HW1 2474   3.037   2.593   6.735
  525SOL    HW2 2475   2.908   2.513   6.674
  526SOL     OW 2476   4.351   5.755   4.671
  526SOL    HW1 2477   4.315   5.683   4.611
  526SOL    HW2 2478   4.349   5.843   4.623
  527SOL     OW 2479   0.279   1.914   6.973
  527SOL    HW1 2480   0.274   1.933   6.875
  527SOL    HW2 2481   0.210   1.845   6.997
  528SOL     OW 2482   1.796   1.701   5.986
  528SOL    HW1 2483   1.708   1.663   5.957
  528SOL    HW2 2484   1.839   1.749   5.910
  529SOL     OW 2485   0.130   5.204   4.261
  529SOL    HW1 2486   0.075   5.225   4.341
  529SOL    HW2 2487   0.227   5.215   4.283
  530SOL     OW 2488   6.841   2.864   5.192
  530SOL    HW1 2489   6.753   2.846   5.236
  530SOL    HW2 2490   6.845   2.961   5.167
  531SOL     OW 2491   6.802   0.765   6.985
  531SOL    HW1 2492   6.797   0.754   6.886
  531SOL    HW2 2493   6.823   0.861   7.006
  532SOL     OW 2494   2.072   0.875   5.789
  532SOL    HW1 2495   2.167   0.857   5.816
  532SOL    HW2 2496   2.070   0.928   5.705
  533SOL     OW 2497   4.483   0.479   5.090
  533SOL    HW1 2498   4.492   0.469   5.189
  533SOL    HW2 2499   4.543   0.413   5.044
  534SOL     OW 2500   3.118   5.357   3.271
  534SOL    HW1 2501   3.181   5.434   3.285
  534SOL    HW2 2502   3.170   5.272   3.270
  535SOL     OW 2503   5.979   3.779   1.506
  535SOL    HW1 2504   6.013   3.808   1.595
  535SOL    HW2 2505   6.010   3.686   1.487
  536SOL     OW 2506   1.674   6.077   1.185
  536SOL    HW1 2507   1.605   6.137   1.145
  536SOL    HW2 2508   1.763   6.122   1.183
  537SOL     OW 2509   2.383   6.731   3.082
  537SOL    HW1 2510   2.406   6.709   3.177
  537SOL    HW2 2511   2.336   6.820   3.080
  538SOL     OW 2512   1.689   4.990   4.171
  538SOL    HW1 2513   1.631   4.991   4.253
  538SOL    HW2 2514   1.669   4.908   4.117
  539SOL     OW 2515   0.974   5.629   1.661
  539SOL    HW1 2516   0.990   5.640   1.563
  539SOL    HW2 2517   1.061   5.612   1.707
  540SOL     OW 2518   1.903   3.161   1.163
  540SOL    HW1 2519   1.985   3.216   1.148
  540SOL    HW2 2520   1.823   3.222   1.172
  541SOL     OW 2521   4.484   5.359   4.887
  541SOL    HW1 2522   4.490   5.315   4.977
  541SOL    HW2 2523   4.536   5.305   4.821
  542SOL     OW 2524   5.415   6.905   6.217
  542SOL    HW1 2525   5.481   6.884   6.145
  542SOL    HW2 2526   5.421   6.836   6.289
  543SOL     OW 2527   6.037   0.118   1.501
  543SOL    HW1 2528   6.010   0.024   1.519
  543SOL    HW2 2529   5.983   0.180   1.557
  544SOL     OW 2530   0.828   5.644   0.475
  544SOL    HW1 2531   0.884   5.625   0.556
  544SOL    HW2 2532   0.780   5.731   0.488
  545SOL     OW 2533   3.059   1.805   3.463
  545SOL    HW1 2534   2.982   1.833   3.521
  545SOL    HW2 2535   3.104   1.725   3.504
  546SOL     OW 2536   2.042   2.252   6.820
  546SOL    HW1 2537   2.036   2.153   6.826
  546SOL    HW2 2538   2.139   2.280   6.824
  547SOL     OW 2539   2.960   1.786   0.213
  547SOL    HW1 2540   2.913   1.706   0.175
  547SOL    HW2 2541   2.999   1.763   0.302
  548SOL     OW 2542   3.317   3.699   5.484
  548SOL    HW1 2543   3.395   3.760   5.498
  548SOL    HW2 2544   3.235   3.753   5.463
  549SOL     OW 2545   0.556   4.339   0.822
  549SOL    HW1 2546   0.580   4.260   0.879
  549SOL    HW2 2547   0.632   4.404   0.822
  550SOL     OW 2548   6.859   4.171   0.637
  550SOL    HW1 2549   6.837   4.211   0.548
  550SOL    HW2 2550   6.858   4.242   0.706
  551SOL     OW 2551   0.104   0.940   0.255
  551SOL    HW1 2552   0.110   0.846   0.287
  551SOL    HW2 2553   0.026   0.986   0.299
  552SOL     OW 2554   4.792   4.835   0.584
  552SOL    HW1 2555   4.877   4.798   0.544
  552SOL    HW2 2556   4.730   4.759   0.605
  553SOL     OW 2557   1.020   2.130   1.437
  553SOL    HW1 2558   1.005   2.143   1.534
  553SOL    HW2 2559   0.963   2.193   1.385
  554SOL     OW 2560   4.572   4.837   4.735
  554SOL    HW1 2561   4.506   4.763   4.731
  554SOL    HW2 2562   4.544   4.903   4.805
  555SOL     OW 2563   1.649   4.792   5.347
  555SOL    HW1 2564   1.697   4.757   5.427
  555SOL    HW2 2565   1.563   4.744   5.335
  556SOL     OW 2566   6.128   4.265   2.979
  556SOL    HW1 2567   6.067   4.295   3.052
  556SOL    HW2 2568   6.215   4.236   3.018
  557SOL     OW 2569   6.439   5.993   5.557
  557SOL    HW1 2570   6.404   6.045   5.635
  557SOL    HW2 2571   6.536   6.015   5.543
  558SOL     OW 2572   4.253   3.730   5.712
  558SOL    HW1 2573   4.302   3.817   5.722
  558SOL    HW2 2574   4.180   3.725   5.780
  559SOL     OW 2575   5.971   5.065   6.393
  559SOL    HW1 2576   5.888   5.043   6.342
  559SOL    HW2 2577   6.048   5.012   6.356
  560SOL     OW 2578   4.310   6.603   0.557
  560SOL    HW1 2579   4.405   6.612   0.529
  560SOL    HW2 2580   4.280   6.688   0.600
  561SOL     OW 2581   5.491   0.227   2.102
  561SOL    HW1 2582   5.428   0.304   2.117
  561SOL    HW2 2583   5.539   0.240   2.015
  562SOL     OW 2584   6.628   0.384   0.831
  562SOL    HW1 2585   6.610   0.457   0.897
  562SOL    HW2 2586   6.574   0.303   0.855
  563SOL     OW 2587   2.741   0.578   5.292
  563SOL    HW1 2588   2.770   0.664   5.334
  563SOL    HW2 2589   2.802   0.504   5.322
  564SOL     OW 2590   0.983   1.107   5.557
  564SOL    HW1 2591   0.905   1.073   5.609
  564SOL    HW2 2592   0.962   1.198   5.521
  565SOL     OW 2593   4.569   3.724   5.602
  565SOL    HW1 2594   4.616   3.705   5.688
  565SOL    HW2 2595   4.471   3.709   5.614
  566SOL     OW 2596   6.597   4.834   2.137
  566SOL    HW1 2597   6.689   4.869   2.120
  566SOL    HW2 2598   6.590   4.740   2.103
  567SOL     OW 2599   3.887   3.642   5.559
  567SOL    HW1 2600   3.854   3.583   5.633
  567SOL    HW2 2601   3.983   3.619   5.540
  568SOL     OW 2602   2.313   1.210   6.496
  568SOL    HW1 2603   2.289   1.278   6.427
  568SOL    HW2 2604   2.388   1.153   6.463
  569SOL     OW 2605   1.923   3.935   6.605
  569SOL    HW1 2606   1.961   3.854   6.559
  569SOL    HW2 2607   1.850   3.974   6.548
  570SOL     OW 2608   6.968   5.332   0.207
  570SOL    HW1 2609   7.014   5.279   0.278
  570SOL    HW2 2610   6.980   5.287   0.119
  571SOL     OW 2611   3.973   6.407   2.374
  571SOL    HW1 2612   3.945   6.446   2.286
  571SOL    HW2 2613   3.929   6.458   2.448
  572SOL     OW 2614   1.148   4.238   3.664
  572SOL    HW1 2615   1.079   4.296   3.708
  572SOL    HW2 2616   1.230   4.292   3.645
  573SOL     OW 2617   3.632   2.452   6.627
  573SOL    HW1 2618   3.592   2.362   6.648
  573SOL    HW2 2619   3.650   2.501   6.712
  574SOL     OW 2620   2.665   2.137   3.594
  574SOL    HW1 2621   2.587   2.099   3.644
  574SOL    HW2 2622   2.692   2.224   3.635
  575SOL     OW 2623   4.392   2.353   6.302
  575SOL    HW1 2624   4.305   2.381   6.343
  575SOL    HW2 2625   4.379   2.268   6.251
  576SOL     OW 2626   1.100   3.531   2.831
  576SOL    HW1 2627   1.196   3.559   2.825
  576SOL    HW2 2628   1.070   3.535   2.926
  577SOL     OW 2629   4.211   1.964   3.784
  577SOL    HW1 2630   4.211   1.959   3.884
  577SOL    HW2 2631   4.306   1.965   3.752
  578SOL     OW 2632   0.164   4.136   4.277
  578SOL    HW1 2633   0.251   4.186   4.280
  578SOL    HW2 2634   0.094   4.189   4.324
  579SOL     OW 2635   3.710   3.455   0.383
  579SOL    HW1 2636   3.692   3.512   0.463
  579SOL    HW2 2637   3.640   3.384   0.376
  580SOL     OW 2638   0.438   6.986   0.335
  580SOL    HW1 2639   0.369   0.004   0.394
  580SOL    HW2 2640   0.430   0.000   0.242
  581SOL     OW 2641   4.140   3.378   3.323
  581SOL    HW1 2642   4.124   3.475   3.344
  581SOL    HW2 2643   4.238   3.363   3.309
  582SOL     OW 2644   6.907   4.252   0.256
  582SOL    HW1 2645   7.005   4.237   0.268
  582SOL    HW2 2646   6.887   4.261   0.158
  583SOL     OW 2647   2.624   6.680   6.337
  583SOL    HW1 2648   2.526   6.664   6.322
  583SOL    HW2 2649   2.658   6.614   6.404
  584SOL     OW 2650   1.026   4.822   4.355
  584SOL    HW1 2651   1.028   4.736   4.305
  584SOL    HW2 2652   0.945   4.824   4.414
  585SOL     OW 2653   5.420   1.185   5.329
  585SOL    HW1 2654   5.438   1.197   5.232
  585SOL    HW2 2655   5.389   1.272   5.369
  586SOL     OW 2656   2.862   5.531   0.989
  586SOL    HW1 2657   2.875   5.437   0.959
  586SOL    HW2 2658   2.928   5.590   0.943
  587SOL     OW 2659   2.307   2.659   5.995
  587SOL    HW1 2660   2.341   2.602   5.921
  587SOL    HW2 2661   2.347   2.750   5.988
  588SOL     OW 2662   2.196   0.115   1.760
  588SOL    HW1 2663   2.265   0.054   1.801
  588SOL    HW2 2664   2.115   0.061   1.737
  589SOL     OW 2665   4.743   4.805   1.401
  589SOL    HW1 2666   4.719   4.889   1.450
  589SOL    HW2 2667   4.686   4.730   1.435
  590SOL     OW 2668   6.970   3.983   1.774
  590SOL    HW1 2669   0.040   3.960   1.800
  590SOL    HW2 2670   6.951   3.950   1.682
  591SOL     OW 2671   2.409   0.012   2.996
  591SOL    HW1 2672   2.365   0.008   3.085
  591SOL    HW2 2673   2.416   0.107   2.966
  592SOL     OW 2674   5.267   7.000   6.002
  592SOL    HW1 2675   5.335   0.042   5.968
  592SOL    HW2 2676   5.305   6.950   6.079
  593SOL     OW 2677   0.195   0.845   4.764
  593SOL    HW1 2678   0.143   0.884   4.840
  593SOL    HW2 2679   0.259   0.913   4.729
  594SOL     OW 2680   5.445   2.113   1.536
  594SOL    HW1 2681   5.418   2.130   1.630
  594SOL    HW2 2682   5.478   2.019   1.527
  595SOL     OW 2683   2.983   0.228   3.742
  595SOL    HW1 2684   2.938   0.166   3.806
  595SOL    HW2 2685   3.058   0.275   3.788
  596SOL     OW 2686   0.687   4.833   1.954
  596SOL    HW1 2687   0.596   4.869   1.975
  596SOL    HW2 2688   0.721   4.782   2.033
  597SOL     OW 2689   4.953   1.851   5.620
  597SOL    HW1 2690   4.955   1.916   5.544
  597SOL    HW2 2691   5.028   1.786   5.611
  598SOL     OW 2692   3.386   3.052   1.857
  598SOL    HW1 2693   3.418   2.961   1.882
  598SOL    HW2 2694   3.286   3.051   1.849
  599SOL     OW 2695   5.731   6.237   3.704
  599SOL    HW1 2696   5.772   6.284   3.782
  599SOL    HW2 2697   5.728   6.299   3.626
  600SOL     OW 2698   2.519   1.794   0.731
  600SOL    HW1 2699   2.480   1.879   0.765
  600SOL    HW2 2700   2.595   1.814   0.668
  601SOL     OW 2701   2.139   4.800   2.572
  601SOL    HW1 2702   2.195   4.805   2.654
  601SOL    HW2 2703   2.124   4.893   2.537
  602SOL     OW 2704   0.139   0.594   2.395
  602SOL    HW1 2705   0.171   0.685   2.422
  602SOL    HW2 2706   0.063   0.603   2.331
  603SOL     OW 2707   4.329   1.581   2.924
  603SOL    HW1 2708   4.286   1.672   2.928
  603SOL    HW2 2709   4.258   1.511   2.930
  604SOL     OW 2710   1.067   3.428   5.836
  604SOL    HW1 2711   1.116   3.469   5.759
  604SOL    HW2 2712   1.020   3.345   5.805
  605SOL     OW 2713   5.415   0.384   4.580
  605SOL    HW1 2714   5.423   0.425   4.490
  605SOL    HW2 2715   5.504   0.390   4.627
  606SOL     OW 2716   2.620   6.858   1.839
  606SOL    HW1 2717   2.685   6.928   1.810
  606SOL    HW2 2718   2.642   6.771   1.793
  607SOL     OW 2719   3.632   0.515   4.631
  607SOL    HW1 2720   3.674   0.459   4.559
  607SOL    HW2 2721   3.698   0.527   4.706
  608SOL     OW 2722   5.801   2.853   1.009
  608SOL    HW1 2723   5.837   2.930   0.956
  608SOL    HW2 2724   5.794   2.773   0.950
  609SOL     OW 2725   3.584   4.114   4.920
  609SOL    HW1 2726   3.604   4.149   4.829
  609SOL    HW2 2727   3.618   4.178   4.989
  610SOL     OW 2728   6.090   1.946   4.506
  610SOL    HW1 2729   6.187   1.936   4.527
  610SOL    HW2 2730   6.042   1.863   4.533
  611SOL     OW 2731   6.140   0.081   0.524
  611SOL    HW1 2732   6.235   0.103   0.499
  611SOL    HW2 2733   6.111   7.023   0.475
  612SOL     OW 2734   1.583   4.339   6.609
  612SOL    HW1 2735   1.682   4.344   6.619
  612SOL    HW2 2736   1.539   4.341   6.699
  613SOL     OW 2737   3.635   1.650   6.662
  613SOL    HW1 2738   3.563   1.610   6.604
  613SOL    HW2 2739   3.688   1.716   6.609
  614SOL     OW 2740   5.294   2.945   0.811
  614SOL    HW1 2741   5.302   2.922   0.714
  614SOL    HW2 2742   5.366   3.010   0.836
  615SOL     OW 2743   5.944   6.243   0.248
  615SOL    HW1 2744   5.930   6.336   0.212
  615SOL    HW2 2745   6.013   6.196   0.193
  616SOL     OW 2746   4.434   1.841   4.682
  616SOL    HW1 2747   4.525   1.864   4.648
  616SOL    HW2 2748   4.375   1.922   4.677
  617SOL     OW 2749   6.641   6.687   5.181
  617SOL    HW1 2750   6.677   6.609   5.232
  617SOL    HW2 2751   6.622   6.660   5.086
  618SOL     OW 2752   5.535   4.883   0.702
  618SOL    HW1 2753   5.622   4.833   0.698
  618SOL    HW2 2754   5.507   4.908   0.610
  619SOL     OW 2755   1.713   0.601   6.763
  619SOL    HW1 2756   1.635   0.663   6.768
  619SOL    HW2 2757   1.721   0.549   6.848
  620SOL     OW 2758   4.553   1.844   1.650
  620SOL    HW1 2759   4.551   1.747   1.675
  620SOL    HW2 2760   4.470   1.889   1.682
  621SOL     OW 2761   2.153   0.143   6.226
  621SOL    HW1 2762   2.192   0.109   6.311
  621SOL    HW2 2763   2.116   0.066   6.173
  622SOL     OW 2764   0.625   3.534   6.214
  622SOL    HW1 2765   0.627   3.542   6.314
  622SOL    HW2 2766   0.563   3.460   6.188
  623SOL     OW 2767   6.679   1.623   2.737
  623SOL    HW1 2768   6.621   1.545   2.762
  623SOL    HW2 2769   6.723   1.661   2.818
  624SOL     OW 2770   6.464   0.835   5.838
  624SOL    HW1 2771   6.503   0.842   5.746
  624SOL    HW2 2772   6.524   0.779   5.896
  625SOL     OW 2773   3.256   1.116   1.611
  625SOL    HW1 2774   3.345   1.091   1.573
  625SOL    HW2 2775   3.238   1.062   1.694
  626SOL     OW 2776   0.452   6.026   3.748
  626SOL    HW1 2777   0.494   6.115   3.738
  626SOL    HW2 2778   0.435   5.986   3.658
  627SOL     OW 2779   6.582   5.059   6.453
  627SOL    HW1 2780   6.482   5.051   6.457
  627SOL    HW2 2781   6.608   5.155   6.466
  628SOL     OW 2782   4.045   4.248   6.623
  628SOL    HW1 2783   4.067   4.328   6.680
  628SOL    HW2 2784   3.976   4.193   6.669
  629SOL     OW 2785   1.934   6.993   6.858
  629SOL    HW1 2786   1.921   6.923   6.787
  629SOL    HW2 2787   1.856   0.031   6.859
  630SOL     OW 2788   5.820   2.259   0.877
  630SOL    HW1 2789   5.830   2.345   0.928
  630SOL    HW2 2790   5.905   2.240   0.828
  631SOL     OW 2791   1.824   3.421   2.494
  631SOL    HW1 2792   1.769   3.371   2.560
  631SOL    HW2 2793   1.769   3.491   2.450
  632SOL     OW 2794   3.560   4.554   1.399
  632SOL    HW1 2795   3.511   4.530   1.483
  632SOL    HW2 2796   3.639   4.611   1.421
  633SOL     OW 2797   0.907   5.672   6.636
  633SOL    HW1 2798   0.943   5.587   6.673
  633SOL    HW2 2799   0.898   5.740   6.709
  634SOL     OW 2800   2.846   3.337   5.299
  634SOL    HW1 2801   2.771   3.317   5.362
  634SOL    HW2 2802   2.855   3.263   5.233
  635SOL     OW 2803   6.502   6.872   6.478
  635SOL    HW1 2804   6.460   6.833   6.560
  635SOL    HW2 2805   6.471   6.966   6.466
  636SOL     OW 2806   1.823   1.992   4.688
  636SOL    HW1 2807   1.805   1.912   4.745
  636SOL    HW2 2808   1.904   1.976   4.632
  637SOL     OW 2809   6.601   1.991   2.243
  637SOL    HW1 2810   6.627   2.048   2.165
  637SOL    HW2 2811   6.654   1.907   2.242
  638SOL     OW 2812   6.985   3.565   5.155
  638SOL    HW1 2813   0.026   3.567   5.079
  638SOL    HW2 2814   6.941   3.655   5.164
  639SOL     OW 2815   5.858   3.363   1.712
  639SOL    HW1 2816   5.783   3.296   1.708
  639SOL    HW2 2817   5.826   3.451   1.676
  640SOL     OW 2818   6.299   3.459   2.762
  640SOL    HW1 2819   6.257   3.548   2.781
  640SOL    HW2 2820   6.394   3.460   2.791
  641SOL     OW 2821   2.604   5.262   4.269
  641SOL    HW1 2822   2.530   5.271   4.202
  641SOL    HW2 2823   2.692   5.260   4.220
  642SOL     OW 2824   0.554   4.889   4.549
  642SOL    HW1 2825   0.549   4.987   4.528
  642SOL    HW2 2826   0.515   4.837   4.473
  643SOL     OW 2827   4.546   4.727   0.382
  643SOL    HW1 2828   4.646   4.724   0.382
  643SOL    HW2 2829   4.515   4.792   0.452
  644SOL     OW 2830   6.065   0.822   4.540
  644SOL    HW1 2831   6.061   0.760   4.461
  644SOL    HW2 2832   6.108   0.774   4.617
  645SOL     OW 2833   4.465   6.495   1.952
  645SOL    HW1 2834   4.436   6.588   1.975
  645SOL    HW2 2835   4.385   6.441   1.926
  646SOL     OW 2836   3.891   2.114   5.141
  646SOL    HW1 2837   3.799   2.138   5.171
  646SOL    HW2 2838   3.887   2.034   5.081
  647SOL     OW 2839   2.632   2.325   6.802
  647SOL    HW1 2840   2.723   2.300   6.834
  647SOL    HW2 2841   2.603   2.261   6.731
  648SOL     OW 2842   5.339   1.956   4.087
  648SOL    HW1 2843   5.272   2.010   4.036
  648SOL    HW2 2844   5.316   1.859   4.080
  649SOL     OW 2845   3.515   5.753   0.093
  649SOL    HW1 2846   3.509   5.655   0.076
  649SOL    HW2 2847   3.433   5.784   0.140
  650SOL     OW 2848   2.505   3.515   1.361
  650SOL    HW1 2849   2.595   3.540   1.325
  650SOL    HW2 2850   2.485   3.570   1.442
  651SOL     OW 2851   6.937   1.429   2.959
  651SOL    HW1 2852   6.937   1.517   2.910
  651SOL    HW2 2853   6.863   1.428   3.026
  652SOL     OW 2854   4.098   6.415   0.624
  652SOL    HW1 2855   4.114   6.351   0.699
  652SOL    HW2 2856   4.179   6.473   0.613
  653SOL     OW 2857   1.489   0.290   3.162
  653SOL    HW1 2858   1.540   0.206   3.182
  653SOL    HW2 2859   1.406   0.293   3.217
  654SOL     OW 2860   1.237   0.360   5.900
  654SOL    HW1 2861   1.279   0.301   5.831
  654SOL    HW2 2862   1.309   0.412   5.947
  655SOL     OW 2863   1.421   4.395   1.403
  655SOL    HW1 2864   1.359   4.365   1.330
  655SOL    HW2 2865   1.509   4.350   1.392
  656SOL     OW 2866   2.416   0.185   6.925
  656SOL    HW1 2867   2.457   0.143   7.006
  656SOL    HW2 2868   2.333   0.234   6.951
  657SOL     OW 2869   3.724   3.338   4.337
  657SOL    HW1 2870   3.642   3.328   4.280
  657SOL    HW2 2871   3.731   3.260   4.399
  658SOL     OW 2872   2.241   0.373   4.849
  658SOL    HW1 2873   2.205   0.388   4.757
  658SOL    HW2 2874   2.168   0.382   4.916
  659SOL     OW 2875   2.208   5.662   6.915
  659SOL    HW1 2876   2.236   5.566   6.926
  659SOL    HW2 2877   2.164   5.673   6.826
  660SOL     OW 2878   5.624   4.471   2.310
  660SOL    HW1 2879   5.563   4.520   2.372
  660SOL    HW2 2880   5.591   4.482   2.216
  661SOL     OW 2881   4.443   5.932   3.981
  661SOL    HW1 2882   4.482   5.886   4.060
  661SOL    HW2 2883   4.367   5.990   4.010
  662SOL     OW 2884   6.635   3.551   6.698
  662SOL    HW1 2885   6.679   3.611   6.631
  662SOL    HW2 2886   6.545   3.588   6.722
  663SOL     OW 2887   1.429   4.329   5.864
  663SOL    HW1 2888   1.382   4.350   5.778
  663SOL    HW2 2889   1.369   4.347   5.941
  664SOL     OW 2890   1.770   0.240   5.707
  664SOL    HW1 2891   1.795   0.158   5.759
  664SOL    HW2 2892   1.852   0.283   5.670
  665SOL     OW 2893   2.341   4.484   3.102
  665SOL    HW1 2894   2.345   4.420   3.025
  665SOL    HW2 2895   2.246   4.493   3.132
  666SOL     OW 2896   3.143   0.532   0.316
  666SOL    HW1 2897   3.191   0.609   0.359
  666SOL    HW2 2898   3.072   0.567   0.255
  667SOL     OW 2899   1.413   2.811   2.376
  667SOL    HW1 2900   1.443   2.893   2.425
  667SOL    HW2 2901   1.350   2.838   2.302
  668SOL     OW 2902   5.400   6.808   0.216
  668SOL    HW1 2903   5.478   6.770   0.166
  668SOL    HW2 2904   5.427   6.827   0.310
  669SOL     OW 2905   6.694   5.747   3.191
  669SOL    HW1 2906   6.751   5.808   3.246
  669SOL    HW2 2907   6.638   5.690   3.250
  670SOL     OW 2908   3.849   3.884   3.316
  670SOL    HW1 2909   3.869   3.817   3.245
  670SOL    HW2 2910   3.806   3.964   3.275
  671SOL     OW 2911   1.542   6.931   6.508
  671SOL    HW1 2912   1.530   7.005   6.442
  671SOL    HW2 2913   1.536   6.969   6.601
  672SOL     OW 2914   1.342   2.408   2.895
  672SOL    HW1 2915   1.367   2.431   2.801
  672SOL    HW2 2916   1.324   2.492   2.946
  673SOL     OW 2917   5.085   0.599   6.760
  673SOL    HW1 2918   5.058   0.600   6.664
  673SOL    HW2 2919   5.028   0.534   6.810
  674SOL     OW 2920   6.902   2.435   4.156
  674SOL    HW1 2921   6.808   2.460   4.132
  674SOL    HW2 2922   6.910   2.427   4.255
  675SOL     OW 2923   5.566   6.737   3.458
  675SOL    HW1 2924   5.589   6.834   3.462
  675SOL    HW2 2925   5.550   6.702   3.550
  676SOL     OW 2926   3.199   4.916   4.543
  676SOL    HW1 2927   3.245   4.972   4.611
  676SOL    HW2 2928   3.206   4.820   4.569
  677SOL     OW 2929   4.819   6.652   0.940
  677SOL    HW1 2930   4.873   6.717   0.885
  677SOL    HW2 2931   4.732   6.636   0.895
  678SOL     OW 2932   2.530   1.050   6.474
  678SOL    HW1 2933   2.511   0.955   6.498
  678SOL    HW2 2934   2.614   1.080   6.520
  679SOL     OW 2935   6.503   0.182   2.764
  679SOL    HW1 2936   6.590   0.142   2.791
  679SOL    HW2 2937   6.432   0.155   2.830
  680SOL     OW 2938   6.393   3.722   4.182
  680SOL    HW1 2939   6.330   3.645   4.191
  680SOL    HW2 2940   6.351   3.792   4.124
  681SOL     OW 2941   1.415   5.355   2.538
  681SOL    HW1 2942   1.404   5.453   2.523
  681SOL    HW2 2943   1.381   5.331   2.629
  682SOL     OW 2944   0.677   0.124   5.968
  682SOL    HW1 2945   0.607   0.065   5.926
  682SOL    HW2 2946   0.653   0.141   6.063
  683SOL     OW 2947   5.355   1.633   1.780
  683SOL    HW1 2948   5.399   1.546   1.804
  683SOL    HW2 2949   5.393   1.706   1.837
  684SOL     OW 2950   6.993   5.805   6.944
  684SOL    HW1 2951   6.945   5.720   6.922
  684SOL    HW2 2952   0.067   5.792   6.933
  685SOL     OW 2953   5.990   0.334   5.082
  685SOL    HW1 2954   6.071   0.392   5.078
  685SOL    HW2 2955   6.018   0.238   5.095
  686SOL     OW 2956   5.317   4.693   1.538
  686SOL    HW1 2957   5.400   4.722   1.491
  686SOL    HW2 2958   5.237   4.728   1.489
  687SOL     OW 2959   5.541   2.242   6.634
  687SOL    HW1 2960   5.521   2.152   6.596
  687SOL    HW2 2961   5.456   2.285   6.665
  688SOL     OW 2962   6.268   3.334   5.041
  688SOL    HW1 2963   6.247   3.424   5.079
  688SOL    HW2 2964   6.330   3.345   4.964
  689SOL     OW 2965   5.461   4.258   4.401
  689SOL    HW1 2966   5.471   4.264   4.500
  689SOL    HW2 2967   5.550   4.249   4.358
  690SOL     OW 2968   6.798   2.175   4.647
  690SOL    HW1 2969   6.838   2.125   4.570
  690SOL    HW2 2970   6.781   2.269   4.621
  691SOL     OW 2971   0.559   3.088   6.973
  691SOL    HW1 2972   0.572   3.125   0.041
  691SOL    HW2 2973   0.623   3.013   6.958
  692SOL     OW 2974   2.588   0.175   3.649
  692SOL    HW1 2975   2.628   0.101   3.595
  692SOL    HW2 2976   2.646   0.256   3.644
  693SOL     OW 2977   5.891   1.796   3.389
  693SOL    HW1 2978   5.879   1.762   3.296
  693SOL    HW2 2979   5.871   1.894   3.392
  694SOL     OW 2980   1.236   0.594   2.882
  694SOL    HW1 2981   1.208   0.578   2.787
  694SOL    HW2 2982   1.156   0.592   2.942
  695SOL     OW 2983   4.969   5.396   6.494
  695SOL    HW1 2984   4.894   5.380   6.558
  695SOL    HW2 2985   4.941   5.465   6.427
  696SOL     OW 2986   4.966   5.273   2.532
  696SOL    HW1 2987   5.059   5.310   2.530
  696SOL    HW2 2988   4.913   5.319   2.603
  697SOL     OW 2989   1.179   3.955   3.348
  697SOL    HW1 2990   1.154   3.927   3.255
  697SOL    HW2 2991   1.134   3.894   3.414
  698SOL     OW 2992   4.853   6.459   3.897
  698SOL    HW1 2993   4.945   6.422   3.901
  698SOL    HW2 2994   4.857   6.557   3.876
  699SOL     OW 2995   1.751   5.234   6.128
  699SOL    HW1 2996   1.846   5.225   6.160
  699SOL    HW2 2997   1.732   5.162   6.061
  700SOL     OW 2998   1.731   2.089   4.985
  700SOL    HW1 2999   1.756   2.031   4.908
  700SOL    HW2 3000   1.681   2.035   5.053
  701SOL     OW 3001   0.984   4.808   5.262
  701SOL    HW1 3002   1.066   4.790   5.316
  701SOL    HW2 3003   1.003   4.880   5.196
  702SOL     OW 3004   5.909   6.261   5.110
  702SOL    HW1 3005   5.976   6.188   5.122
  702SOL    HW2 3006   5.883   6.266   5.013
  703SOL     OW 3007   6.061   3.939   6.166
  703SOL    HW1 3008   6.099   3.869   6.227
  703SOL    HW2 3009   6.025   4.014   6.220
  704SOL     OW 3010   2.077   6.723   1.795
  704SOL    HW1 3011   2.036   6.811   1.771
  704SOL    HW2 3012   2.156   6.737   1.855
  705SOL     OW 3013   0.925   1.557   3.666
  705SOL    HW1 3014   0.846   1.571   3.725
  705SOL    HW2 3015   1.001   1.521   3.720
  706SOL     OW 3016   5.826   3.687   3.956
  706SOL    HW1 3017   5.857   3.630   4.032
  706SOL    HW2 3018   5.880   3.664   3.874
  707SOL     OW 3019   4.849   3.095   2.753
  707SOL    HW1 3020   4.834   3.038   2.672
  707SOL    HW2 3021   4.947   3.108   2.767
  708SOL     OW 3022   5.110   1.709   1.901
  708SOL    HW1 3023   5.200   1.678   1.871
  708SOL    HW2 3024   5.068   1.763   1.828
  709SOL     OW 3025   1.262   4.759   6.798
  709SOL    HW1 3026   1.276   4.668   6.759
  709SOL    HW2 3027   1.347   4.790   6.841
  710SOL     OW 3028   2.991   3.862   3.048
  710SOL    HW1 3029   3.004   3.786   3.113
  710SOL    HW2 3030   3.066   3.927   3.057
  711SOL     OW 3031   0.777   1.078   4.369
  711SOL    HW1 3032   0.784   1.048   4.274
  711SOL    HW2 3033   0.867   1.076   4.412
  712SOL     OW 3034   7.021   3.897   3.292
  712SOL    HW1 3035   7.002   3.963   3.219
  712SOL    HW2 3036   6.943   3.835   3.301
  713SOL     OW 3037   2.694   3.836   5.267
  713SOL    HW1 3038   2.604   3.849   5.225
  713SOL    HW2 3039   2.732   3.926   5.290
  714SOL     OW 3040   4.829   4.855   4.793
  714SOL    HW1 3041   4.816   4.815   4.883
  714SOL    HW2 3042   4.741   4.881   4.755
  715SOL     OW 3043   6.512   0.143   6.420
  715SOL    HW1 3044   6.608   0.118   6.412
  715SOL    HW2 3045   6.503   0.226   6.475
  716SOL     OW 3046   6.214   5.567   0.269
  716SOL    HW1 3047   6.160   5.577   0.185
  716SOL    HW2 3048   6.153   5.546   0.345
  717SOL     OW 3049   6.260   2.770   5.851
  717SOL    HW1 3050   6.161   2.772   5.842
  717SOL    HW2 3051   6.288   2.690   5.905
  718SOL     OW 3052   3.385   2.778   0.195
  718SOL    HW1 3053   3.390   2.857   0.134
  718SOL    HW2 3054   3.423   2.698   0.149
  719SOL     OW 3055   6.055   4.758   6.759
  719SOL    HW1 3056   6.096   4.725   6.674
  719SOL    HW2 3057   6.021   4.851   6.746
  720SOL     OW 3058   3.797   1.196   5.842
  720SOL    HW1 3059   3.798   1.134   5.764
  720SOL    HW2 3060   3.842   1.151   5.920
  721SOL     OW 3061   1.331   0.133   5.184
  721SOL    HW1 3062   1.421   0.174   5.169
  721SOL    HW2 3063   1.311   0.067   5.111
  722SOL     OW 3064   4.540   0.750   4.996
  722SOL    HW1 3065   4.639   0.764   4.994
  722SOL    HW2 3066   4.521   0.655   5.022
  723SOL     OW 3067   0.479   3.491   1.726
  723SOL    HW1 3068   0.379   3.494   1.715
  723SOL    HW2 3069   0.509   3.396   1.725
  724SOL     OW 3070   0.392   2.428   4.397
  724SOL    HW1 3071   0.469   2.377   4.359
  724SOL    HW2 3072   0.308   2.405   4.347
  725SOL     OW 3073   2.389   5.197   2.560
  725SOL    HW1 3074   2.418   5.220   2.653
  725SOL    HW2 3075   2.469   5.172   2.505
  726SOL     OW 3076   5.406   5.762   5.771
  726SOL    HW1 3077   5.428   5.684   5.831
  726SOL    HW2 3078   5.488   5.790   5.722
  727SOL     OW 3079   1.721   4.674   4.332
  727SOL    HW1 3080   1.724   4.753   4.393
  727SOL    HW2 3081   1.633   4.672   4.285
  728SOL     OW 3082   6.246   2.461   5.827
  728SOL    HW1 3083   6.243   2.363   5.848
  728SOL    HW2 3084   6.278   2.511   5.908
  729SOL     OW 3085   3.951   1.524   0.817
  729SOL    HW1 3086   4.029   1.504   0.756
  729SOL    HW2 3087   3.871   1.545   0.761
  730SOL     OW 3088   6.142   1.356   4.022
  730SOL    HW1 3089   6.054   1.337   3.978
  730SOL    HW2 3090   6.172   1.275   4.072
  731SOL     OW 3091   0.130   1.847   3.706
  731SOL    HW1 3092   0.035   1.830   3.733
  731SOL    HW2 3093   0.132   1.906   3.626
  732SOL     OW 3094   0.820   3.615   2.996
  732SOL    HW1 3095   0.799   3.705   2.957
  732SOL    HW2 3096   0.908   3.618   3.042
  733SOL     OW 3097   4.559   4.462   4.350
  733SOL    HW1 3098   4.610   4.406   4.285
  733SOL    HW2 3099   4.498   4.524   4.300
  734SOL     OW 3100   0.966   6.147   6.731
  734SOL    HW1 3101   0.957   6.219   6.663
  734SOL    HW2 3102   0.883   6.092   6.734
  735SOL     OW 3103   3.347   4.309   6.542
  735SOL    HW1 3104   3.305   4.379   6.600
  735SOL    HW2 3105   3.378   4.233   6.600
  736SOL     OW 3106   6.318   1.036   2.491
  736SOL    HW1 3107   6.221   1.032   2.513
  736SOL    HW2 3108   6.333   1.097   2.414
  737SOL     OW 3109   5.573   3.666   0.545
  737SOL    HW1 3110   5.536   3.681   0.637
  737SOL    HW2 3111   5.528   3.587   0.503
  738SOL     OW 3112   0.269   4.005   3.686
  738SOL    HW1 3113   0.201   3.961   3.745
  738SOL    HW2 3114   0.292   4.095   3.724
  739SOL     OW 3115   4.828   6.268   6.307
  739SOL    HW1 3116   4.841   6.181   6.260
  739SOL    HW2 3117   4.735   6.272   6.345
  740SOL     OW 3118   5.828   6.780   0.285
  740SOL    HW1 3119   5.777   6.823   0.359
  740SOL    HW2 3120   5.924   6.769   0.312
  741SOL     OW 3121   2.210   0.416   4.014
  741SOL    HW1 3122   2.255   0.342   3.964
  741SOL    HW2 3123   2.270   0.449   4.087
  742SOL     OW 3124   1.615   6.256   2.847
  742SOL    HW1 3125   1.674   6.287   2.922
  742SOL    HW2 3126   1.599   6.332   2.784
  743SOL     OW 3127   1.803   3.788   2.972
  743SOL    HW1 3128   1.711   3.782   3.011
  743SOL    HW2 3129   1.867   3.819   3.042
  744SOL     OW 3130   6.557   5.213   0.844
  744SOL    HW1 3131   6.590   5.141   0.782
  744SOL    HW2 3132   6.458   5.221   0.836
  745SOL     OW 3133   1.451   5.783   2.225
  745SOL    HW1 3134   1.531   5.778   2.285
  745SOL    HW2 3135   1.368   5.775   2.279
  746SOL     OW 3136   3.227   6.732   3.102
  746SOL    HW1 3137   3.258   6.716   3.196
  746SOL    HW2 3138   3.224   6.645   3.053
  747SOL     OW 3139   0.026   4.003   0.478
  747SOL    HW1 3140   0.042   3.925   0.539
  747SOL    HW2 3141   6.968   4.052   0.508
  748SOL     OW 3142   3.062   3.085   3.388
  748SOL    HW1 3143   3.062   3.062   3.290
  748SOL    HW2 3144   3.060   3.185   3.398
  749SOL     OW 3145   5.547   2.515   5.191
  749SOL    HW1 3146   5.513   2.584   5.254
  749SOL    HW2 3147   5.472   2.457   5.160
  750SOL     OW 3148   3.388   3.743   1.973
  750SOL    HW1 3149   3.376   3.695   2.060
  750SOL    HW2 3150   3.326   3.821   1.968
  751SOL     OW 3151   5.702   1.780   0.010
  751SOL    HW1 3152   5.659   1.812   0.094
  751SOL    HW2 3153   5.637   1.727   6.980
  752SOL     OW 3154   4.716   0.646   2.545
  752SOL    HW1 3155   4.665   0.606   2.468
  752SOL    HW2 3156   4.766   0.726   2.513
  753SOL     OW 3157   3.797   1.407   2.041
  753SOL    HW1 3158   3.875   1.432   1.983
  753SOL    HW2 3159   3.717   1.459   2.012
  754SOL     OW 3160   5.292   5.323   6.797
  754SOL    HW1 3161   5.240   5.302   6.880
  754SOL    HW2 3162   5.312   5.420   6.794
  755SOL     OW 3163   5.927   5.249   2.061
  755SOL    HW1 3164   5.994   5.296   2.118
  755SOL    HW2 3165   5.836   5.258   2.102
  756SOL     OW 3166   2.478   6.676   3.636
  756SOL    HW1 3167   2.542   6.694   3.710
  756SOL    HW2 3168   2.414   6.752   3.628
  757SOL     OW 3169   6.819   0.585   4.240
  757SOL    HW1 3170   6.742   0.648   4.235
  757SOL    HW2 3171   6.835   0.545   4.149
  758SOL     OW 3172   4.056   1.796   0.808
  758SOL    HW1 3173   3.988   1.730   0.840
  758SOL    HW2 3174   4.086   1.853   0.884
  759SOL     OW 3175   2.300   0.455   1.964
  759SOL    HW1 3176   2.360   0.524   1.924
  759SOL    HW2 3177   2.259   0.399   1.892
  760SOL     OW 3178   4.674   1.661   6.072
  760SOL    HW1 3179   4.579   1.690   6.088
  760SOL    HW2 3180   4.736   1.732   6.106
  761SOL     OW 3181   5.586   0.296   6.903
  761SOL    HW1 3182   5.490   0.307   6.877
  761SOL    HW2 3183   5.614   0.373   6.960
  762SOL     OW 3184   2.334   4.497   5.048
  762SOL    HW1 3185   2.347   4.585   5.093
  762SOL    HW2 3186   2.348   4.506   4.950
  763SOL     OW 3187   7.008   5.229   0.573
  763SOL    HW1 3188   6.997   5.313   0.626
  763SOL    HW2 3189   0.048   5.168   0.621
  764SOL     OW 3190   5.811   1.451   2.728
  764SOL    HW1 3191   5.749   1.393   2.677
  764SOL    HW2 3192   5.830   1.410   2.817
  765SOL     OW 3193   0.739   6.902   3.083
  765SOL    HW1 3194   0.794   6.935   3.159
  765SOL    HW2 3195   0.795   6.843   3.025
  766SOL     OW 3196   0.214   6.354   0.348
  766SOL    HW1 3197   0.245   6.266   0.385
  766SOL    HW2 3198   0.262   6.374   0.263
  767SOL     OW 3199   5.495   6.130   1.252
  767SOL    HW1 3200   5.400   6.159   1.254
  767SOL    HW2 3201   5.500   6.030   1.250
  768SOL     OW 3202   2.898   6.651   4.067
  768SOL    HW1 3203   2.960   6.720   4.107
  768SOL    HW2 3204   2.810   6.655   4.113
  769SOL     OW 3205   4.054   0.663   6.920
  769SOL    HW1 3206   4.010   0.634   7.005
  769SOL    HW2 3207   4.132   0.603   6.901
  770SOL     OW 3208   3.265   5.129   4.929
  770SOL    HW1 3209   3.329   5.178   4.989
  770SOL    HW2 3210   3.186   5.187   4.909
  771SOL     OW 3211   0.496   6.709   4.512
  771SOL    HW1 3212   0.489   6.807   4.529
  771SOL    HW2 3213   0.483   6.659   4.597
  772SOL     OW 3214   0.569   3.260   6.626
  772SOL    HW1 3215   0.520   3.343   6.601
  772SOL    HW2 3216   0.515   3.180   6.601
  773SOL     OW 3217   6.501   3.464   2.032
  773SOL    HW1 3218   6.447   3.528   2.087
  773SOL    HW2 3219   6.585   3.508   2.002
  774SOL     OW 3220   1.012   1.372   1.695
  774SOL    HW1 3221   1.081   1.363   1.766
  774SOL    HW2 3222   1.004   1.286   1.644
  775SOL     OW 3223   1.790   2.768   4.100
  775SOL    HW1 3224   1.884   2.762   4.068
  775SOL    HW2 3225   1.729   2.728   4.032
  776SOL     OW 3226   1.869   0.545   5.271
  776SOL    HW1 3227   1.894   0.534   5.367
  776SOL    HW2 3228   1.943   0.591   5.222
  777SOL     OW 3229   4.221   6.833   6.630
  777SOL    HW1 3230   4.311   6.876   6.617
  777SOL    HW2 3231   4.152   6.904   6.641
  778SOL     OW 3232   4.800   5.714   4.869
  778SOL    HW1 3233   4.702   5.690   4.870
  778SOL    HW2 3234   4.834   5.716   4.963
  779SOL     OW 3235   0.563   0.218   2.014
  779SOL    HW1 3236   0.642   0.159   2.033
  779SOL    HW2 3237   0.594   0.310   1.993
  780SOL     OW 3238   5.620   2.350   4.876
  780SOL    HW1 3239   5.640   2.253   4.892
  780SOL    HW2 3240   5.621   2.399   4.962
  781SOL     OW 3241   1.488   3.711   0.102
  781SOL    HW1 3242   1.475   3.651   0.023
  781SOL    HW2 3243   1.523   3.799   0.071
  782SOL     OW 3244   0.020   4.966   0.946
  782SOL    HW1 3245   0.092   4.900   0.923
  782SOL    HW2 3246   6.955   4.929   0.919
  783SOL     OW 3247   1.983   5.713   0.199
  783SOL    HW1 3248   1.899   5.751   0.239
  783SOL    HW2 3249   1.979   5.722   0.100
  784SOL     OW 3250   5.486   5.613   3.394
  784SOL    HW1 3251   5.529   5.702   3.384
  784SOL    HW2 3252   5.493   5.581   3.488
  785SOL     OW 3253   6.588   2.496   3.488
  785SOL    HW1 3254   6.567   2.531   3.579
  785SOL    HW2 3255   6.647   2.562   3.440
  786SOL     OW 3256   5.781   6.480   1.156
  786SOL    HW1 3257   5.725   6.441   1.229
  786SOL    HW2 3258   5.765   6.579   1.150
  787SOL     OW 3259   4.438   0.955   0.301
  787SOL    HW1 3260   4.525   1.000   0.284
  787SOL    HW2 3261   4.375   0.973   0.225
  788SOL     OW 3262   0.285   4.078   3.423
  788SOL    HW1 3263   0.282   3.991   3.373
  788SOL    HW2 3264   0.286   4.060   3.521
  789SOL     OW 3265   5.815   3.025   1.238
  789SOL    HW1 3266   5.827   2.950   1.173
  789SOL    HW2 3267   5.826   2.990   1.332
  790SOL     OW 3268   3.040   0.500   4.067
  790SOL    HW1 3269   3.036   0.594   4.036
  790SOL    HW2 3270   2.951   0.456   4.052
  791SOL     OW 3271   3.575   1.235   4.612
  791SOL    HW1 3272   3.566   1.276   4.702
  791SOL    HW2 3273   3.543   1.140   4.615
  792SOL     OW 3274   5.582   0.882   3.814
  792SOL    HW1 3275   5.583   0.802   3.872
  792SOL    HW2 3276   5.556   0.856   3.721
  793SOL     OW 3277   0.106   6.991   6.685
  793SOL    HW1 3278   0.163   7.015   6.606
  793SOL    HW2 3279   0.134   6.902   6.720
  794SOL     OW 3280   3.335   4.852   5.125
  794SOL    HW1 3281   3.236   4.846   5.137
  794SOL    HW2 3282   3.356   4.889   5.034
  795SOL     OW 3283   5.018   5.067   0.296
  795SOL    HW1 3284   5.077   5.006   0.243
  795SOL    HW2 3285   4.924   5.034   0.293
  796SOL     OW 3286   1.001   1.447   5.868
  796SOL    HW1 3287   0.943   1.520   5.904
  796SOL    HW2 3288   0.964   1.358   5.894
  797SOL     OW 3289   6.041   2.983   5.365
  797SOL    HW1 3290   6.087   3.025   5.287
  797SOL    HW2 3291   6.094   2.904   5.396
  798SOL     OW 3292   6.712   1.168   4.276
  798SOL    HW1 3293   6.692   1.093   4.339
  798SOL    HW2 3294   6.628   1.197   4.230
  799SOL     OW 3295   0.169   3.779   3.468
  799SOL    HW1 3296   0.158   3.806   3.563
  799SOL    HW2 3297   0.106   3.831   3.411
  800SOL     OW 3298   6.959   2.469   2.612
  800SOL    HW1 3299   6.976   2.561   2.649
  800SOL    HW2 3300   6.866   2.441   2.633
  801SOL     OW 3301   0.542   2.792   3.456
  801SOL    HW1 3302   0.527   2.885   3.420
  801SOL    HW2 3303   0.570   2.732   3.381
  802SOL     OW 3304   6.703   1.512   0.684
  802SOL    HW1 3305   6.644   1.479   0.758
  802SOL    HW2 3306   6.658   1.588   0.636
  803SOL     OW 3307   2.220   0.390   4.373
  803SOL    HW1 3308   2.131   0.421   4.340
  803SOL    HW2 3309   2.234   0.295   4.344
  804SOL     OW 3310   5.952   6.277   0.845
  804SOL    HW1 3311   5.857   6.246   0.852
  804SOL    HW2 3312   5.978   6.323   0.930
  805SOL     OW 3313   2.022   2.855   6.250
  805SOL    HW1 3314   2.004   2.812   6.161
  805SOL    HW2 3315   2.101   2.916   6.241
  806SOL     OW 3316   4.097   6.402   0.245
  806SOL    HW1 3317   4.177   6.363   0.291
  806SOL    HW2 3318   4.014   6.359   0.281
  807SOL     OW 3319   0.866   6.712   3.434
  807SOL    HW1 3320   0.796   6.765   3.386
  807SOL    HW2 3321   0.943   6.771   3.456
  808SOL     OW 3322   5.479   3.778   4.273
  808SOL    HW1 3323   5.396   3.795   4.220
  808SOL    HW2 3324   5.488   3.847   4.344
  809SOL     OW 3325   0.499   6.255   5.972
  809SOL    HW1 3326   0.432   6.308   5.921
  809SOL    HW2 3327   0.580   6.311   5.989
  810SOL     OW 3328   5.893   5.499   6.099
  810SOL    HW1 3329   5.960   5.544   6.158
  810SOL    HW2 3330   5.842   5.431   6.152
  811SOL     OW 3331   3.144   4.917   2.817
  811SOL    HW1 3332   3.156   4.878   2.726
  811SOL    HW2 3333   3.051   4.898   2.849
  812SOL     OW 3334   0.134   0.388   2.713
  812SOL    HW1 3335   0.055   0.362   2.658
  812SOL    HW2 3336   0.164   0.479   2.687
  813SOL     OW 3337   4.810   5.020   1.785
  813SOL    HW1 3338   4.813   5.094   1.852
  813SOL    HW2 3339   4.859   4.940   1.821
  814SOL     OW 3340   4.885   5.597   1.558
  814SOL    HW1 3341   4.920   5.515   1.513
  814SOL    HW2 3342   4.848   5.571   1.648
  815SOL     OW 3343   1.197   0.912   1.022
  815SOL    HW1 3344   1.102   0.930   0.996
  815SOL    HW2 3345   1.236   0.995   1.061
  816SOL     OW 3346   6.124   0.554   1.674
  816SOL    HW1 3347   6.206   0.606   1.647
  816SOL    HW2 3348   6.079   0.602   1.749
  817SOL     OW 3349   0.638   2.296   2.224
  817SOL    HW1 3350   0.721   2.247   2.250
  817SOL    HW2 3351   0.583   2.239   2.162
  818SOL     OW 3352   5.909   1.332   2.983
  818SOL    HW1 3353   5.956   1.396   3.045
  818SOL    HW2 3354   5.972   1.259   2.958
  819SOL     OW 3355   0.417   5.488   2.443
  819SOL    HW1 3356   0.392   5.514   2.350
  819SOL    HW2 3357   0.400   5.564   2.505
  820SOL     OW 3358   2.546   2.825   5.795
  820SOL    HW1 3359   2.552   2.893   5.722
  820SOL    HW2 3360   2.637   2.791   5.816
  821SOL     OW 3361   1.101   4.567   0.713
  821SOL    HW1 3362   1.044   4.538   0.637
  821SOL    HW2 3363   1.086   4.665   0.731
  822SOL     OW 3364   0.642   3.034   5.394
  822SOL    HW1 3365   0.727   2.982   5.407
  822SOL    HW2 3366   0.564   2.972   5.400
  823SOL     OW 3367   3.893   3.835   1.526
  823SOL    HW1 3368   3.961   3.824   1.454
  823SOL    HW2 3369   3.897   3.756   1.588
  824SOL     OW 3370   6.202   3.349   6.334
  824SOL    HW1 3371   6.281   3.287   6.332
  824SOL    HW2 3372   6.118   3.295   6.332
  825SOL     OW 3373   1.675   2.875   1.549
  825SOL    HW1 3374   1.708   2.781   1.541
  825SOL    HW2 3375   1.661   2.914   1.458
  826SOL     OW 3376   1.048   2.074   6.715
  826SOL    HW1 3377   1.065   2.064   6.617
  826SOL    HW2 3378   1.134   2.059   6.764
  827SOL     OW 3379   3.556   4.510   1.045
  827SOL    HW1 3380   3.470   4.477   1.006
  827SOL    HW2 3381   3.576   4.602   1.009
  828SOL     OW 3382   5.941   0.721   5.165
  828SOL    HW1 3383   5.907   0.774   5.088
  828SOL    HW2 3384   5.891   0.634   5.170
  829SOL     OW 3385   3.911   4.108   5.504
  829SOL    HW1 3386   3.870   4.058   5.580
  829SOL    HW2 3387   3.981   4.050   5.461
  830SOL     OW 3388   4.630   3.494   6.402
  830SOL    HW1 3389   4.652   3.404   6.440
  830SOL    HW2 3390   4.715   3.543   6.380
  831SOL     OW 3391   5.231   0.330   5.603
  831SOL    HW1 3392   5.209   0.284   5.688
  831SOL    HW2 3393   5.148   0.341   5.548
  832SOL     OW 3394   2.562   1.356   6.202
  832SOL    HW1 3395   2.610   1.331   6.118
  832SOL    HW2 3396   2.611   1.319   6.281
  833SOL     OW 3397   1.236   0.476   4.711
  833SOL    HW1 3398   1.305   0.533   4.667
  833SOL    HW2 3399   1.253   0.474   4.810
  834SOL     OW 3400   2.939   4.469   5.764
  834SOL    HW1 3401   3.036   4.458   5.783
  834SOL    HW2 3402   2.927   4.501   5.670
  835SOL     OW 3403   3.844   1.480   2.383
  835SOL    HW1 3404   3.753   1.466   2.345
  835SOL    HW2 3405   3.883   1.565   2.347
  836SOL     OW 3406   2.476   0.752   6.082
  836SOL    HW1 3407   2.381   0.720   6.087
  836SOL    HW2 3408   2.527   0.717   6.161
  837SOL     OW 3409   4.060   1.932   4.209
  837SOL    HW1 3410   4.032   1.848   4.164
  837SOL    HW2 3411   4.146   1.965   4.169
  838SOL     OW 3412   0.975   6.698   2.287
  838SOL    HW1 3413   1.019   6.610   2.267
  838SOL    HW2 3414   0.944   6.699   2.382
  839SOL     OW 3415   2.111   1.728   2.019
  839SOL    HW1 3416   2.161   1.642   2.016
  839SOL    HW2 3417   2.022   1.716   1.974
  840SOL     OW 3418   1.549   0.925   5.682
  840SOL    HW1 3419   1.620   0.971   5.736
  840SOL    HW2 3420   1.530   0.835   5.722
  841SOL     OW 3421   7.012   3.560   0.766
  841SOL    HW1 3422   6.918   3.565   0.801
  841SOL    HW2 3423   0.008   3.467   0.735
  842SOL     OW 3424   4.175   4.834   4.135
  842SOL    HW1 3425   4.253   4.896   4.129
  842SOL    HW2 3426   4.127   4.832   4.047
  843SOL     OW 3427   0.207   3.481   1.702
  843SOL    HW1 3428   0.152   3.400   1.680
  843SOL    HW2 3429   0.191   3.552   1.633
  844SOL     OW 3430   5.943   4.562   6.402
  844SOL    HW1 3431   5.986   4.480   6.439
  844SOL    HW2 3432   5.843   4.550   6.400
  845SOL     OW 3433   2.263   4.883   5.360
  845SOL    HW1 3434   2.299   4.794   5.387
  845SOL    HW2 3435   2.165   4.888   5.381
  846SOL     OW 3436   4.192   2.058   0.195
  846SOL    HW1 3437   4.177   2.128   0.126
  846SOL    HW2 3438   4.118   1.990   0.190
  847SOL     OW 3439   4.927   4.771   1.825
  847SOL    HW1 3440   4.855   4.704   1.812
  847SOL    HW2 3441   4.953   4.774   1.921
  848SOL     OW 3442   5.454   6.876   5.622
  848SOL    HW1 3443   5.378   6.859   5.559
  848SOL    HW2 3444   5.438   6.826   5.707
  849SOL     OW 3445   0.585   6.031   4.125
  849SOL    HW1 3446   0.505   5.994   4.172
  849SOL    HW2 3447   0.633   6.095   4.186
  850SOL     OW 3448   2.673   0.749   3.270
  850SOL    HW1 3449   2.655   0.717   3.363
  850SOL    HW2 3450   2.755   0.704   3.235
  851SOL     OW 3451   6.622   1.050   5.738
  851SOL    HW1 3452   6.543   1.040   5.798
  851SOL    HW2 3453   6.619   0.980   5.666
  852SOL     OW 3454   2.982   5.073   5.149
  852SOL    HW1 3455   2.995   5.135   5.072
  852SOL    HW2 3456   2.886   5.072   5.176
  853SOL     OW 3457   0.899   4.352   0.607
  853SOL    HW1 3458   0.814   4.314   0.570
  853SOL    HW2 3459   0.975   4.332   0.545
  854SOL     OW 3460   6.002   5.179   0.899
  854SOL    HW1 3461   5.908   5.151   0.921
  854SOL    HW2 3462   6.041   5.228   0.977
  855SOL     OW 3463   4.625   0.287   0.703
  855SOL    HW1 3464   4.670   0.318   0.787
  855SOL    HW2 3465   4.543   0.234   0.728
  856SOL     OW 3466   1.596   0.491   4.882
  856SOL    HW1 3467   1.647   0.469   4.799
  856SOL    HW2 3468   1.530   0.418   4.902
  857SOL     OW 3469   5.711   4.326   1.626
  857SOL    HW1 3470   5.766   4.380   1.562
  857SOL    HW2 3471   5.669   4.249   1.577
  858SOL     OW 3472   3.537   4.207   1.996
  858SOL    HW1 3473   3.457   4.191   2.054
  858SOL    HW2 3474   3.606   4.258   2.046
  859SOL     OW 3475   0.168   4.755   0.865
  859SOL    HW1 3476   0.260   4.775   0.831
  859SOL    HW2 3477   0.174   4.718   0.958
  860SOL     OW 3478   1.652   4.199   5.952
  860SOL    HW1 3479   1.676   4.240   6.039
  860SOL    HW2 3480   1.563   4.232   5.922
  861SOL     OW 3481   4.527   4.476   6.335
  861SOL    HW1 3482   4.547   4.378   6.340
  861SOL    HW2 3483   4.579   4.524   6.405
  862SOL     OW 3484   4.562   4.544   3.566
  862SOL    HW1 3485   4.567   4.497   3.478
  862SOL    HW2 3486   4.549   4.477   3.639
  863SOL     OW 3487   6.334   2.714   1.802
  863SOL    HW1 3488   6.242   2.752   1.804
  863SOL    HW2 3489   6.400   2.787   1.820
  864SOL     OW 3490   0.356   5.737   2.264
  864SOL    HW1 3491   0.315   5.825   2.238
  864SOL    HW2 3492   0.419   5.750   2.340
  865SOL     OW 3493   1.795   1.138   3.850
  865SOL    HW1 3494   1.771   1.235   3.860
  865SOL    HW2 3495   1.882   1.130   3.802
  866SOL     OW 3496   4.129   1.118   1.487
  866SOL    HW1 3497   4.178   1.201   1.515
  866SOL    HW2 3498   4.108   1.123   1.390
  867SOL     OW 3499   2.546   1.831   5.904
  867SOL    HW1 3500   2.567   1.923   5.937
  867SOL    HW2 3501   2.458   1.801   5.941
  868SOL     OW 3502   5.232   2.066   3.765
  868SOL    HW1 3503   5.257   2.123   3.844
  868SOL    HW2 3504   5.184   1.984   3.798
  869SOL     OW 3505   6.635   4.052   0.756
  869SOL    HW1 3506   6.700   4.072   0.683
  869SOL    HW2 3507   6.667   4.094   0.841
  870SOL     OW 3508   6.167   1.674   0.441
  870SOL    HW1 3509   6.147   1.720   0.528
  870SOL    HW2 3510   6.255   1.627   0.448
  871SOL     OW 3511   0.032   4.838   0.639
  871SOL    HW1 3512   0.093   4.812   0.713
  871SOL    HW2 3513   0.054   4.930   0.607
  872SOL     OW 3514   7.002   1.780   1.733
  872SOL    HW1 3515   0.070   1.810   1.706
  872SOL    HW2 3516   6.963   1.844   1.799
  873SOL     OW 3517   3.854   6.786   4.187
  873SOL    HW1 3518   3.783   6.717   4.202
  873SOL    HW2 3519   3.906   6.800   4.271
  874SOL     OW 3520   1.008   4.136   6.356
  874SOL    HW1 3521   0.989   4.131   6.258
  874SOL    HW2 3522   0.921   4.141   6.407
  875SOL     OW 3523   6.446   6.175   6.622
  875SOL    HW1 3524   6.482   6.268   6.628
  875SOL    HW2 3525   6.383   6.158   6.698
  876SOL     OW 3526   2.763   1.932   1.360
  876SOL    HW1 3527   2.758   1.835   1.339
  876SOL    HW2 3528   2.717   1.984   1.288
  877SOL     OW 3529   5.669   5.769   6.044
  877SOL    HW1 3530   5.753   5.765   6.097
  877SOL    HW2 3531   5.674   5.845   5.979
  878SOL     OW 3532   3.935   3.479   1.018
  878SOL    HW1 3533   3.952   3.386   0.984
  878SOL    HW2 3534   3.837   3.493   1.027
  879SOL     OW 3535   5.238   3.438   3.552
  879SOL    HW1 3536   5.147   3.400   3.565
  879SOL    HW2 3537   5.307   3.367   3.566
  880SOL     OW 3538   4.161   6.597   1.666
  880SOL    HW1 3539   4.183   6.510   1.710
  880SOL    HW2 3540   4.245   6.645   1.642
  881SOL     OW 3541   5.272   5.365   2.989
  881SOL    HW1 3542   5.327   5.323   2.917
  881SOL    HW2 3543   5.189   5.311   3.003
  882SOL     OW 3544   0.667   2.124   5.290
  882SOL    HW1 3545   0.659   2.082   5.380
  882SOL    HW2 3546   0.629   2.217   5.292
  883SOL     OW 3547   2.988   4.928   0.201
  883SOL    HW1 3548   2.916   4.984   0.162
  883SOL    HW2 3549   3.021   4.971   0.285
  884SOL     OW 3550   3.923   4.554   1.318
  884SOL    HW1 3551   3.882   4.463   1.316
  884SOL    HW2 3552   4.018   4.548   1.347
  885SOL     OW 3553   4.438   6.359   6.177
  885SOL    HW1 3554   4.456   6.262   6.160
  885SOL    HW2 3555   4.384   6.397   6.102
  886SOL     OW 3556   4.446   2.320   6.558
  886SOL    HW1 3557   4.414   2.336   6.465
  886SOL    HW2 3558   4.433   2.224   6.581
  887SOL     OW 3559   6.324   6.159   4.603
  887SOL    HW1 3560   6.238   6.150   4.553
  887SOL    HW2 3561   6.398   6.120   4.549
  888SOL     OW 3562   6.286   0.920   3.161
  888SOL    HW1 3563   6.346   0.992   3.196
  888SOL    HW2 3564   6.237   0.954   3.081
  889SOL     OW 3565   0.644   0.610   4.802
  889SOL    HW1 3566   0.639   0.514   4.830
  889SOL    HW2 3567   0.610   0.620   4.709
  890SOL     OW 3568   2.153   3.243   1.158
  890SOL    HW1 3569   2.169   3.324   1.215
  890SOL    HW2 3570   2.241   3.206   1.127
  891SOL     OW 3571   5.973   3.141   5.567
  891SOL    HW1 3572   5.981   3.090   5.482
  891SOL    HW2 3573   6.065   3.167   5.599
  892SOL     OW 3574   1.959   4.566   1.966
  892SOL    HW1 3575   1.877   4.520   2.002
  892SOL    HW2 3576   1.949   4.581   1.868
  893SOL     OW 3577   1.852   6.920   2.310
  893SOL    HW1 3578   1.913   6.906   2.232
  893SOL    HW2 3579   1.758   6.930   2.277
  894SOL     OW 3580   1.132   5.124   4.420
  894SOL    HW1 3581   1.190   5.204   4.435
  894SOL    HW2 3582   1.090   5.131   4.329
  895SOL     OW 3583   2.483   1.089   4.435
  895SOL    HW1 3584   2.418   1.149   4.388
  895SOL    HW2 3585   2.567   1.140   4.455
  896SOL     OW 3586   4.586   0.051   3.519
  896SOL    HW1 3587   4.662   0.085   3.463
  896SOL    HW2 3588   4.518   0.123   3.531
  897SOL     OW 3589   5.881   1.141   6.248
  897SOL    HW1 3590   5.847   1.047   6.247
  897SOL    HW2 3591   5.950   1.152   6.177
  898SOL     OW 3592   5.018   6.352   3.641
  898SOL    HW1 3593   5.094   6.306   3.687
  898SOL    HW2 3594   4.944   6.286   3.625
  899SOL     OW 3595   1.048   5.216   0.311
  899SOL    HW1 3596   1.070   5.313   0.323
  899SOL    HW2 3597   0.977   5.206   0.241
  900SOL     OW 3598   0.473   5.524   3.357
  900SOL    HW1 3599   0.396   5.564   3.307
  900SOL    HW2 3600   0.481   5.427   3.333
  901SOL     OW 3601   6.322   1.841   3.227
  901SOL    HW1 3602   6.352   1.838   3.132
  901SOL    HW2 3603   6.261   1.919   3.241
  902SOL     OW 3604   1.513   5.940   0.043
  902SOL    HW1 3605   1.421   5.903   0.029
  902SOL    HW2 3606   1.580   5.866   0.040
  903SOL     OW 3607   1.112   4.857   6.558
  903SOL    HW1 3608   1.129   4.819   6.649
  903SOL    HW2 3609   1.148   4.950   6.553
  904SOL     OW 3610   1.725   1.776   4.016
  904SOL    HW1 3611   1.754   1.819   4.101
  904SOL    HW2 3612   1.786   1.805   3.942
  905SOL     OW 3613   5.799   3.234   3.295
  905SOL    HW1 3614   5.835   3.196   3.210
  905SOL    HW2 3615   5.699   3.226   3.296
  906SOL     OW 3616   6.933   3.317   5.599
  906SOL    HW1 3617   6.877   3.272   5.668
  906SOL    HW2 3618   6.876   3.374   5.541
  907SOL     OW 3619   6.634   3.838   2.439
  907SOL    HW1 3620   6.574   3.799   2.508
  907SOL    HW2 3621   6.680   3.919   2.475
  908SOL     OW 3622   2.769   1.313   3.690
  908SOL    HW1 3623   2.689   1.282   3.742
  908SOL    HW2 3624   2.775   1.412   3.693
  909SOL     OW 3625   3.432   6.796   2.360
  909SOL    HW1 3626   3.424   6.849   2.444
  909SOL    HW2 3627   3.347   6.746   2.344
  910SOL     OW 3628   1.064   0.922   1.754
  910SOL    HW1 3629   1.135   0.931   1.824
  910SOL    HW2 3630   1.080   0.989   1.681
  911SOL     OW 3631   0.820   2.584   0.816
  911SOL    HW1 3632   0.880   2.624   0.746
  911SOL    HW2 3633   0.776   2.657   0.868
  912SOL     OW 3634   2.008   0.974   0.405
  912SOL    HW1 3635   1.981   0.908   0.476
  912SOL    HW2 3636   1.987   0.935   0.315
  913SOL     OW 3637   1.935   1.057   1.992
  913SOL    HW1 3638   1.929   0.959   1.974
  913SOL    HW2 3639   1.844   1.098   1.986
  914SOL     OW 3640   2.948   4.773   2.328
  914SOL    HW1 3641   2.878   4.828   2.282
  914SOL    HW2 3642   2.905   4.720   2.401
  915SOL     OW 3643   2.765   2.109   0.893
  915SOL    HW1 3644   2.856   2.136   0.925
  915SOL    HW2 3645   2.715   2.190   0.864
  916SOL     OW 3646   0.415   3.721   2.316
  916SOL    HW1 3647   0.403   3.748   2.412
  916SOL    HW2 3648   0.488   3.654   2.309
  917SOL     OW 3649   3.719   0.761   6.001
  917SOL    HW1 3650   3.815   0.741   6.021
  917SOL    HW2 3651   3.662   0.727   6.076
  918SOL     OW 3652   6.976   2.251   4.873
  918SOL    HW1 3653   7.022   2.166   4.903
  918SOL    HW2 3654   6.889   2.228   4.830
  919SOL     OW 3655   0.574   0.699   1.085
  919SOL    HW1 3656   0.668   0.707   1.117
  919SOL    HW2 3657   0.536   0.790   1.070
  920SOL     OW 3658   1.343   1.886   2.171
  920SOL    HW1 3659   1.312   1.792   2.189
  920SOL    HW2 3660   1.291   1.924   2.094
  921SOL     OW 3661   4.090   4.531   0.420
  921SOL    HW1 3662   4.050   4.456   0.472
  921SOL    HW2 3663   4.029   4.554   0.344
  922SOL     OW 3664   2.319   5.905   6.971
  922SOL    HW1 3665   2.350   5.947   6.886
  922SOL    HW2 3666   2.295   5.809   6.953
  923SOL     OW 3667   4.022   1.307   6.910
  923SOL    HW1 3668   3.962   1.339   6.837
  923SOL    HW2 3669   3.998   1.212   6.933
  924SOL     OW 3670   5.605   4.992   1.918
  924SOL    HW1 3671   5.597   4.931   1.997
  924SOL    HW2 3672   5.546   4.960   1.844
  925SOL     OW 3673   5.920   2.582   1.783
  925SOL    HW1 3674   5.966   2.516   1.843
  925SOL    HW2 3675   5.835   2.542   1.748
  926SOL     OW 3676   3.918   5.809   1.818
  926SOL    HW1 3677   3.834   5.761   1.843
  926SOL    HW2 3678   3.966   5.756   1.748
  927SOL     OW 3679   4.970   5.456   5.088
  927SOL    HW1 3680   4.907   5.429   5.015
  927SOL    HW2 3681   5.051   5.398   5.086
  928SOL     OW 3682   0.271   1.555   1.611
  928SOL    HW1 3683   0.188   1.528   1.561
  928SOL    HW2 3684   0.262   1.529   1.707
  929SOL     OW 3685   0.194   2.632   1.997
  929SOL    HW1 3686   0.267   2.641   2.065
  929SOL    HW2 3687   0.110   2.672   2.033
  930SOL     OW 3688   6.294   5.210   2.556
  930SOL    HW1 3689   6.367   5.142   2.558
  930SOL    HW2 3690   6.291   5.253   2.466
  931SOL     OW 3691   0.914   2.942   1.651
  931SOL    HW1 3692   0.893   2.950   1.554
  931SOL    HW2 3693   0.987   2.875   1.665
  932SOL     OW 3694   4.156   6.382   1.194
  932SOL    HW1 3695   4.252   6.400   1.173
  932SOL    HW2 3696   4.121   6.453   1.254
  933SOL     OW 3697   0.873   6.390   3.607
  933SOL    HW1 3698   0.964   6.417   3.637
  933SOL    HW2 3699   0.807   6.459   3.638
  934SOL     OW 3700   4.046   1.650   5.113
  934SOL    HW1 3701   4.027   1.580   5.181
  934SOL    HW2 3702   4.134   1.632   5.070
  935SOL     OW 3703   1.182   3.785   4.118
  935SOL    HW1 3704   1.102   3.735   4.085
  935SOL    HW2 3705   1.265   3.746   4.078
  936SOL     OW 3706   0.672   1.166   1.942
  936SOL    HW1 3707   0.759   1.191   1.986
  936SOL    HW2 3708   0.690   1.140   1.847
  937SOL     OW 3709   4.888   2.434   3.374
  937SOL    HW1 3710   4.902   2.470   3.282
  937SOL    HW2 3711   4.895   2.334   3.372
  938SOL     OW 3712   0.883   0.741   6.352
  938SOL    HW1 3713   0.971   0.724   6.308
  938SOL    HW2 3714   0.891   0.729   6.451
  939SOL     OW 3715   6.525   0.741   4.689
  939SOL    HW1 3716   6.535   0.762   4.786
  939SOL    HW2 3717   6.428   0.724   4.668
  940SOL     OW 3718   6.272   7.005   3.361
  940SOL    HW1 3719   6.229   0.071   3.349
  940SOL    HW2 3720   6.204   6.933   3.349
  941SOL     OW 3721   5.508   3.068   4.920
  941SOL    HW1 3722   5.588   3.009   4.911
  941SOL    HW2 3723   5.446   3.053   4.843
  942SOL     OW 3724   4.798   6.560   5.497
  942SOL    HW1 3725   4.762   6.614   5.573
  942SOL    HW2 3726   4.798   6.614   5.414
  943SOL     OW 3727   5.168   2.122   0.422
  943SOL    HW1 3728   5.252   2.071   0.440
  943SOL    HW2 3729   5.189   2.202   0.367
  944SOL     OW 3730   5.066   4.869   4.430
  944SOL    HW1 3731   5.030   4.923   4.507
  944SOL    HW2 3732   4.990   4.838   4.373
  945SOL     OW 3733   5.616   2.776   6.779
  945SOL    HW1 3734   5.638   2.814   6.689
  945SOL    HW2 3735   5.530   2.725   6.773
  946SOL     OW 3736   6.352   3.102   5.975
  946SOL    HW1 3737   6.330   3.186   6.026
  946SOL    HW2 3738   6.384   3.032   6.038
  947SOL     OW 3739   0.839   2.378   6.337
  947SOL    HW1 3740   0.887   2.465   6.347
  947SOL    HW2 3741   0.742   2.390   6.360
  948SOL     OW 3742   3.215   1.946   0.161
  948SOL    HW1 3743   3.121   1.952   0.128
  948SOL    HW2 3744   3.226   1.864   0.217
  949SOL     OW 3745   5.496   5.576   5.978
  949SOL    HW1 3746   5.563   5.512   5.940
  949SOL    HW2 3747   5.542   5.661   6.004
  950SOL     OW 3748   3.675   5.167   1.050
  950SOL    HW1 3749   3.764   5.177   1.005
  950SOL    HW2 3750   3.603   5.171   0.981
  951SOL     OW 3751   1.114   2.573   3.764
  951SOL    HW1 3752   1.195   2.593   3.710
  951SOL    HW2 3753   1.112   2.476   3.788
  952SOL     OW 3754   4.951   1.321   1.273
  952SOL    HW1 3755   4.942   1.398   1.336
  952SOL    HW2 3756   4.902   1.242   1.311
  953SOL     OW 3757   3.741   6.482   5.758
  953SOL    HW1 3758   3.808   6.432   5.813
  953SOL    HW2 3759   3.775   6.492   5.664
  954SOL     OW 3760   6.143   6.614   1.256
  954SOL    HW1 3761   6.069   6.621   1.322
  954SOL    HW2 3762   6.230   6.600   1.304
  955SOL     OW 3763   1.397   6.209   3.530
  955SOL    HW1 3764   1.380   6.305   3.510
  955SOL    HW2 3765   1.337   6.179   3.604
  956SOL     OW 3766   1.829   2.967   0.983
  956SOL    HW1 3767   1.748   3.000   0.934
  956SOL    HW2 3768   1.856   3.034   1.052
  957SOL     OW 3769   1.891   5.902   4.635
  957SOL    HW1 3770   1.894   6.001   4.623
  957SOL    HW2 3771   1.804   5.876   4.678
  958SOL     OW 3772   4.505   2.668   6.656
  958SOL    HW1 3773   4.574   2.734   6.685
  958SOL    HW2 3774   4.542   2.610   6.583
  959SOL     OW 3775   1.521   4.282   0.578
  959SOL    HW1 3776   1.606   4.239   0.546
  959SOL    HW2 3777   1.506   4.368   0.528
  960SOL     OW 3778   1.768   3.836   5.930
  960SOL    HW1 3779   1.808   3.912   5.880
  960SOL    HW2 3780   1.771   3.754   5.873
  961SOL     OW 3781   3.218   6.649   6.660
  961SOL    HW1 3782   3.268   6.662   6.574
  961SOL    HW2 3783   3.242   6.560   6.699
  962SOL     OW 3784   0.887   0.071   3.237
  962SOL    HW1 3785   0.856   0.161   3.208
  962SOL    HW2 3786   0.981   0.057   3.205
  963SOL     OW 3787   5.751   0.123   2.477
  963SOL    HW1 3788   5.682   0.150   2.544
  963SOL    HW2 3789   5.719   0.146   2.385
  964SOL     OW 3790   5.894   4.520   1.482
  964SOL    HW1 3791   5.981   4.548   1.524
  964SOL    HW2 3792   5.904   4.518   1.383
  965SOL     OW 3793   2.034   1.557   0.655
  965SOL    HW1 3794   2.069   1.529   0.566
  965SOL    HW2 3795   2.071   1.646   0.679
  966SOL     OW 3796   6.085   2.775   1.934
  966SOL    HW1 3797   6.015   2.759   1.865
  966SOL    HW2 3798   6.069   2.864   1.977
  967SOL     OW 3799   1.117   5.188   2.792
  967SOL    HW1 3800   1.119   5.117   2.863
  967SOL    HW2 3801   1.171   5.266   2.823
  968SOL     OW 3802   0.475   4.385   0.365
  968SOL    HW1 3803   0.434   4.467   0.405
  968SOL    HW2 3804   0.424   4.305   0.396
  969SOL     OW 3805   3.667   6.855   6.588
  969SOL    HW1 3806   3.728   6.933   6.602
  969SOL    HW2 3807   3.674   6.793   6.666
  970SOL     OW 3808   5.486   3.469   6.229
  970SOL    HW1 3809   5.403   3.467   6.174
  970SOL    HW2 3810   5.466   3.512   6.317
  971SOL     OW 3811   0.339   2.649   6.774
  971SOL    HW1 3812   0.314   2.596   6.855
  971SOL    HW2 3813   0.381   2.735   6.802
  972SOL     OW 3814   4.664   6.794   6.352
  972SOL    HW1 3815   4.731   6.866   6.369
  972SOL    HW2 3816   4.611   6.817   6.270
  973SOL     OW 3817   6.780   3.182   6.013
  973SOL    HW1 3818   6.756   3.274   6.044
  973SOL    HW2 3819   6.773   3.119   6.090
  974SOL     OW 3820   2.301   0.143   4.270
  974SOL    HW1 3821   2.322   0.148   4.172
  974SOL    HW2 3822   2.296   0.047   4.297
  975SOL     OW 3823   2.970   6.831   4.758
  975SOL    HW1 3824   2.875   6.856   4.777
  975SOL    HW2 3825   2.975   6.782   4.671
  976SOL     OW 3826   0.290   4.762   3.781
  976SOL    HW1 3827   0.349   4.816   3.719
  976SOL    HW2 3828   0.328   4.765   3.873
  977SOL     OW 3829   1.331   1.928   1.883
  977SOL    HW1 3830   1.428   1.932   1.861
  977SOL    HW2 3831   1.282   1.882   1.809
  978SOL     OW 3832   5.949   3.060   3.910
  978SOL    HW1 3833   5.871   3.013   3.868
  978SOL    HW2 3834   5.940   3.158   3.895
  979SOL     OW 3835   6.204   1.463   2.892
  979SOL    HW1 3836   6.216   1.379   2.840
  979SOL    HW2 3837   6.210   1.443   2.990
  980SOL     OW 3838   6.310   0.068   5.424
  980SOL    HW1 3839   6.240   0.015   5.471
  980SOL    HW2 3840   6.396   0.015   5.422
  981SOL     OW 3841   6.551   3.479   0.084
  981SOL    HW1 3842   6.568   3.557   0.023
  981SOL    HW2 3843   6.464   3.493   0.131
  982SOL     OW 3844   1.464   4.514   0.457
  982SOL    HW1 3845   1.408   4.579   0.405
  982SOL    HW2 3846   1.479   4.549   0.549
  983SOL     OW 3847   5.295   1.375   3.296
  983SOL    HW1 3848   5.375   1.397   3.240
  983SOL    HW2 3849   5.315   1.396   3.392
  984SOL     OW 3850   5.187   3.139   5.329
  984SOL    HW1 3851   5.130   3.074   5.381
  984SOL    HW2 3852   5.267   3.092   5.294
  985SOL     OW 3853   1.781   4.261   0.468
  985SOL    HW1 3854   1.786   4.358   0.443
  985SOL    HW2 3855   1.872   4.226   0.489
  986SOL     OW 3856   5.125   3.963   4.897
  986SOL    HW1 3857   5.055   3.900   4.864
  986SOL    HW2 3858   5.099   4.057   4.872
  987SOL     OW 3859   2.874   0.702   2.952
  987SOL    HW1 3860   2.825   0.787   2.933
  987SOL    HW2 3861   2.907   0.704   3.047
  988SOL     OW 3862   3.586   3.067   1.358
  988SOL    HW1 3863   3.654   3.093   1.289
  988SOL    HW2 3864   3.630   3.068   1.448
  989SOL     OW 3865   0.580   1.557   4.529
  989SOL    HW1 3866   0.630   1.635   4.566
  989SOL    HW2 3867   0.640   1.505   4.468
  990SOL     OW 3868   4.517   6.444   2.342
  990SOL    HW1 3869   4.582   6.510   2.379
  990SOL    HW2 3870   4.432   6.490   2.318
  991SOL     OW 3871   6.051   1.902   5.707
  991SOL    HW1 3872   6.069   1.915   5.609
  991SOL    HW2 3873   6.137   1.884   5.754
  992SOL     OW 3874   0.110   2.318   0.756
  992SOL    HW1 3875   0.055   2.380   0.812
  992SOL    HW2 3876   0.201   2.308   0.797
  993SOL     OW 3877   4.561   0.072   4.337
  993SOL    HW1 3878   4.503   0.086   4.417
  993SOL    HW2 3879   4.507   0.085   4.254
  994SOL     OW 3880   2.928   3.725   3.833
  994SOL    HW1 3881   2.893   3.810   3.793
  994SOL    HW2 3882   3.027   3.732   3.846
  995SOL     OW 3883   1.103   1.608   5.339
  995SOL    HW1 3884   1.038   1.627   5.413
  995SOL    HW2 3885   1.067   1.643   5.253
  996SOL     OW 3886   1.389   3.336   6.684
  996SOL    HW1 3887   1.453   3.332   6.608
  996SOL    HW2 3888   1.303   3.379   6.654
  997SOL     OW 3889   6.949   1.470   0.557
  997SOL    HW1 3890   7.000   1.388   0.586
  997SOL    HW2 3891   6.863   1.475   0.608
  998SOL     OW 3892   4.840   0.355   3.206
  998SOL    HW1 3893   4.921   0.388   3.254
  998SOL    HW2 3894   4.846   0.376   3.109
  999SOL     OW 3895   6.751   5.480   0.332
  999SOL    HW1 3896   6.837   5.438   0.303
  999SOL    HW2 3897   6.761   5.515   0.425
 1000SOL     OW 3898   3.876   1.837   4.756
 1000SOL    HW1 3899   3.878   1.862   4.853
 1000SOL    HW2 3900   3.838   1.913   4.703
 1001SOL     OW 3901   4.891   1.090   4.876
 1001SOL    HW1 3902   4.826   1.155   4.836
 1001SOL    HW2 3903   4.842   1.006   4.901
 1002SOL     OW 3904   0.458   1.244   0.247
 1002SOL    HW1 3905   0.408   1.169   0.291
 1002SOL    HW2 3906   0.441   1.329   0.297
 1003SOL     OW 3907   4.190   5.201   2.731
 1003SOL    HW1 3908   4.241   5.193   2.645
 1003SOL    HW2 3909   4.099   5.238   2.712
 1004SOL     OW 3910   5.816   6.019   0.104
 1004SOL    HW1 3911   5.724   5.991   0.080
 1004SOL    HW2 3912   5.814   6.073   0.188
 1005SOL     OW 3913   5.963   6.465   3.048
 1005SOL    HW1 3914   5.959   6.541   2.984
 1005SOL    HW2 3915   5.920   6.384   3.006
 1006SOL     OW 3916   1.683   5.061   0.267
 1006SOL    HW1 3917   1.689   5.139   0.206
 1006SOL    HW2 3918   1.602   5.070   0.326
 1007SOL     OW 3919   6.193   1.859   2.864
 1007SOL    HW1 3920   6.286   1.841   2.896
 1007SOL    HW2 3921   6.195   1.888   2.768
 1008SOL     OW 3922   3.368   1.747   5.087
 1008SOL    HW1 3923   3.280   1.723   5.045
 1008SOL    HW2 3924   3.428   1.787   5.018
 1009SOL     OW 3925   3.137   6.349   5.682
 1009SOL    HW1 3926   3.048   6.368   5.641
 1009SOL    HW2 3927   3.209   6.371   5.616
 1010SOL     OW 3928   5.153   6.668   5.395
 1010SOL    HW1 3929   5.118   6.597   5.456
 1010SOL    HW2 3930   5.079   6.699   5.334
 1011SOL     OW 3931   3.066   5.397   4.522
 1011SOL    HW1 3932   3.045   5.399   4.425
 1011SOL    HW2 3933   2.980   5.399   4.575
 1012SOL     OW 3934   3.840   6.597   1.500
 1012SOL    HW1 3935   3.792   6.580   1.586
 1012SOL    HW2 3936   3.773   6.619   1.429
 1013SOL     OW 3937   0.583   0.372   0.350
 1013SOL    HW1 3938   0.592   0.441   0.423
 1013SOL    HW2 3939   0.642   0.294   0.371
 1014SOL     OW 3940   5.984   0.061   6.156
 1014SOL    HW1 3941   6.069   0.035   6.201
 1014SOL    HW2 3942   5.954   0.151   6.189
 1015SOL     OW 3943   2.679   0.542   4.892
 1015SOL    HW1 3944   2.666   0.640   4.910
 1015SOL    HW2 3945   2.593   0.502   4.861
 1016SOL     OW 3946   3.928   3.231   0.943
 1016SOL    HW1 3947   3.868   3.193   0.872
 1016SOL    HW2 3948   4.011   3.176   0.949
 1017SOL     OW 3949   4.569   6.641   5.979
 1017SOL    HW1 3950   4.629   6.585   6.036
 1017SOL    HW2 3951   4.502   6.582   5.933
 1018SOL     OW 3952   1.244   1.820   1.665
 1018SOL    HW1 3953   1.222   1.726   1.638
 1018SOL    HW2 3954   1.292   1.865   1.590
 1019SOL     OW 3955   5.335   1.182   0.653
 1019SOL    HW1 3956   5.398   1.106   0.636
 1019SOL    HW2 3957   5.384   1.268   0.651
 1020SOL     OW 3958   3.669   2.047   1.726
 1020SOL    HW1 3959   3.656   2.113   1.801
 1020SOL    HW2 3960   3.687   2.096   1.641
 1021SOL     OW 3961   6.759   1.817   0.991
 1021SOL    HW1 3962   6.694   1.748   1.025
 1021SOL    HW2 3963   6.712   1.904   0.980
 1022SOL     OW 3964   3.442   3.106   0.170
 1022SOL    HW1 3965   3.382   3.066   0.101
 1022SOL    HW2 3966   3.400   3.098   0.260
 1023SOL     OW 3967   6.490   0.968   4.496
 1023SOL    HW1 3968   6.469   1.045   4.556
 1023SOL    HW2 3969   6.532   0.895   4.549
 1024SOL     OW 3970   6.454   2.423   3.245
 1024SOL    HW1 3971   6.470   2.447   3.341
 1024SOL    HW2 3972   6.502   2.488   3.186
 1025SOL     OW 3973   2.379   4.537   1.709
 1025SOL    HW1 3974   2.342   4.448   1.735
 1025SOL    HW2 3975   2.478   4.532   1.701
 1026SOL     OW 3976   0.712   2.679   6.477
 1026SOL    HW1 3977   0.803   2.641   6.467
 1026SOL    HW2 3978   0.685   2.678   6.574
 1027SOL     OW 3979   1.913   4.945   1.063
 1027SOL    HW1 3980   1.969   4.885   1.121
 1027SOL    HW2 3981   1.913   4.910   0.969
 1028SOL     OW 3982   0.549   5.214   6.880
 1028SOL    HW1 3983   0.472   5.274   6.902
 1028SOL    HW2 3984   0.515   5.134   6.830
 1029SOL     OW 3985   3.890   0.493   4.771
 1029SOL    HW1 3986   3.927   0.585   4.763
 1029SOL    HW2 3987   3.902   0.460   4.865
 1030SOL     OW 3988   4.510   5.008   4.942
 1030SOL    HW1 3989   4.429   5.051   4.982
 1030SOL    HW2 3990   4.589   5.069   4.955
 1031SOL     OW 3991   2.539   6.349   1.053
 1031SOL    HW1 3992   2.467   6.283   1.075
 1031SOL    HW2 3993   2.611   6.303   1.001
 1032SOL     OW 3994   1.006   1.796   5.648
 1032SOL    HW1 3995   0.939   1.866   5.624
 1032SOL    HW2 3996   1.096   1.821   5.611
 1033SOL     OW 3997   3.329   6.849   1.648
 1033SOL    HW1 3998   3.314   6.775   1.583
 1033SOL    HW2 3999   3.311   6.937   1.603
 1034SOL     OW 4000   6.986   5.972   2.534
 1034SOL    HW1 4001   0.029   6.038   2.499
 1034SOL    HW2 4002   6.895   5.998   2.504
 1035SOL     OW 4003   3.497   2.106   3.122
 1035SOL    HW1 4004   3.399   2.114   3.101
 1035SOL    HW2 4005   3.549   2.103   3.036
 1036SOL     OW 4006   4.812   0.008   6.369
 1036SOL    HW1 4007   4.738   0.070   6.342
 1036SOL    HW2 4008   4.899   0.057   6.367
 1037SOL     OW 4009   4.119   1.090   6.047
 1037SOL    HW1 4010   4.213   1.057   6.039
 1037SOL    HW2 4011   4.118   1.174   6.101
 1038SOL     OW 4012   2.806   1.970   5.160
 1038SOL    HW1 4013   2.898   1.999   5.134
 1038SOL    HW2 4014   2.798   1.871   5.149
 1039SOL     OW 4015   5.192   1.630   2.654
 1039SOL    HW1 4016   5.102   1.622   2.696
 1039SOL    HW2 4017   5.239   1.711   2.690
 1040SOL     OW 4018   6.115   4.531   4.424
 1040SOL    HW1 4019   6.018   4.544   4.404
 1040SOL    HW2 4020   6.170   4.567   4.348
 1041SOL     OW 4021   1.724   6.680   4.524
 1041SOL    HW1 4022   1.739   6.752   4.593
 1041SOL    HW2 4023   1.805   6.623   4.518
 1042SOL     OW 4024   4.549   4.000   0.732
 1042SOL    HW1 4025   4.563   4.002   0.831
 1042SOL    HW2 4026   4.481   3.931   0.709
 1043SOL     OW 4027   3.888   0.377   6.350
 1043SOL    HW1 4028   3.826   0.337   6.418
 1043SOL    HW2 4029   3.943   0.448   6.394
 1044SOL     OW 4030   3.667   4.140   3.707
 1044SOL    HW1 4031   3.584   4.140   3.651
 1044SOL    HW2 4032   3.697   4.234   3.721
 1045SOL     OW 4033   2.469   1.090   2.546
 1045SOL    HW1 4034   2.455   1.073   2.643
 1045SOL    HW2 4035   2.563   1.118   2.530
 1046SOL     OW 4036   2.820   0.748   2.082
 1046SOL    HW1 4037   2.747   0.801   2.125
 1046SOL    HW2 4038   2.804   0.650   2.099
 1047SOL     OW 4039   0.090   6.678   2.181
 1047SOL    HW1 4040   0.116   6.594   2.228
 1047SOL    HW2 4041   0.133   6.680   2.090
 1048SOL     OW 4042   6.425   3.849   4.938
 1048SOL    HW1 4043   6.423   3.930   4.880
 1048SOL    HW2 4044   6.512   3.802   4.927
 1049SOL     OW 4045   0.538   3.581   5.566
 1049SOL    HW1 4046   0.441   3.583   5.594
 1049SOL    HW2 4047   0.592   3.539   5.639
 1050SOL     OW 4048   3.041   0.318   1.410
 1050SOL    HW1 4049   3.016   0.242   1.470
 1050SOL    HW2 4050   3.070   0.396   1.466
 1051SOL     OW 4051   4.732   4.553   1.810
 1051SOL    HW1 4052   4.793   4.475   1.828
 1051SOL    HW2 4053   4.663   4.525   1.743
 1052SOL     OW 4054   2.819   0.084   3.929
 1052SOL    HW1 4055   2.755   0.019   3.969
 1052SOL    HW2 4056   2.903   0.086   3.984
 1053SOL     OW 4057   3.811   5.321   3.703
 1053SOL    HW1 4058   3.786   5.225   3.689
 1053SOL    HW2 4059   3.765   5.378   3.636
 1054SOL     OW 4060   4.090   6.099   5.219
 1054SOL    HW1 4061   4.045   6.059   5.299
 1054SOL    HW2 4062   4.136   6.027   5.167
 1055SOL     OW 4063   4.016   4.851   4.364
 1055SOL    HW1 4064   4.001   4.774   4.427
 1055SOL    HW2 4065   4.072   4.821   4.287
 1056SOL     OW 4066   3.136   5.522   0.543
 1056SOL    HW1 4067   3.103   5.610   0.577
 1056SOL    HW2 4068   3.146   5.458   0.620
 1057SOL     OW 4069   3.495   4.022   1.469
 1057SOL    HW1 4070   3.396   4.036   1.483
 1057SOL    HW2 4071   3.518   3.927   1.488
 1058SOL     OW 4072   2.893   0.329   2.009
 1058SOL    HW1 4073   2.823   0.399   2.008
 1058SOL    HW2 4074   2.852   0.240   2.033
 1059SOL     OW 4075   4.388   0.129   0.657
 1059SOL    HW1 4076   4.390   0.064   0.734
 1059SOL    HW2 4077   4.404   0.080   0.572
 1060SOL     OW 4078   3.691   1.716   4.014
 1060SOL    HW1 4079   3.639   1.736   3.931
 1060SOL    HW2 4080   3.671   1.786   4.083
 1061SOL     OW 4081   2.346   5.796   1.091
 1061SOL    HW1 4082   2.395   5.742   1.158
 1061SOL    HW2 4083   2.249   5.802   1.117
 1062SOL     OW 4084   5.228   4.140   4.620
 1062SOL    HW1 4085   5.156   4.088   4.574
 1062SOL    HW2 4086   5.187   4.220   4.664
 1063SOL     OW 4087   3.708   2.286   5.822
 1063SOL    HW1 4088   3.710   2.386   5.824
 1063SOL    HW2 4089   3.613   2.255   5.812
 1064SOL     OW 4090   0.442   3.825   2.921
 1064SOL    HW1 4091   0.349   3.826   2.958
 1064SOL    HW2 4092   0.460   3.735   2.882
 1065SOL     OW 4093   3.897   5.140   6.940
 1065SOL    HW1 4094   3.843   5.114   6.859
 1065SOL    HW2 4095   3.994   5.136   6.917
 1066SOL     OW 4096   5.123   0.475   3.629
 1066SOL    HW1 4097   5.164   0.384   3.624
 1066SOL    HW2 4098   5.096   0.494   3.724
 1067SOL     OW 4099   3.143   4.001   0.535
 1067SOL    HW1 4100   3.046   3.988   0.556
 1067SOL    HW2 4101   3.158   4.096   0.508
 1068SOL     OW 4102   1.232   5.560   1.789
 1068SOL    HW1 4103   1.251   5.535   1.884
 1068SOL    HW2 4104   1.310   5.535   1.731
 1069SOL     OW 4105   3.730   3.410   2.892
 1069SOL    HW1 4106   3.657   3.460   2.937
 1069SOL    HW2 4107   3.699   3.317   2.871
 1070SOL     OW 4108   1.731   6.591   0.240
 1070SOL    HW1 4109   1.745   6.639   0.153
 1070SOL    HW2 4110   1.792   6.512   0.245
 1071SOL     OW 4111   5.114   5.833   3.537
 1071SOL    HW1 4112   5.154   5.923   3.522
 1071SOL    HW2 4113   5.090   5.822   3.634
 1072SOL     OW 4114   4.110   5.866   3.625
 1072SOL    HW1 4115   4.167   5.942   3.592
 1072SOL    HW2 4116   4.094   5.802   3.551
 1073SOL     OW 4117   2.882   5.679   3.223
 1073SOL    HW1 4118   2.843   5.762   3.183
 1073SOL    HW2 4119   2.808   5.613   3.240
 1074SOL     OW 4120   2.233   4.812   3.738
 1074SOL    HW1 4121   2.160   4.848   3.797
 1074SOL    HW2 4122   2.303   4.882   3.726
 1075SOL     OW 4123   0.631   4.572   2.519
 1075SOL    HW1 4124   0.629   4.557   2.421
 1075SOL    HW2 4125   0.701   4.514   2.561
 1076SOL     OW 4126   6.006   3.607   3.055
 1076SOL    HW1 4127   5.929   3.665   3.030
 1076SOL    HW2 4128   6.024   3.617   3.153
 1077SOL     OW 4129   4.240   0.503   1.950
 1077SOL    HW1 4130   4.225   0.564   2.027
 1077SOL    HW2 4131   4.316   0.442   1.970
 1078SOL     OW 4132   6.848   2.531   2.162
 1078SOL    HW1 4133   6.860   2.432   2.165
 1078SOL    HW2 4134   6.773   2.558   2.221
 1079SOL     OW 4135   1.940   4.563   3.468
 1079SOL    HW1 4136   1.945   4.587   3.565
 1079SOL    HW2 4137   1.923   4.464   3.459
 1080SOL     OW 4138   2.119   5.391   4.204
 1080SOL    HW1 4139   2.028   5.371   4.166
 1080SOL    HW2 4140   2.137   5.489   4.196
 1081SOL     OW 4141   1.701   0.380   6.953
 1081SOL    HW1 4142   1.785   0.344   6.994
 1081SOL    HW2 4143   1.667   0.456   7.009
 1082SOL     OW 4144   2.098   0.199   1.098
 1082SOL    HW1 4145   2.096   0.101   1.080
 1082SOL    HW2 4146   2.179   0.222   1.151
 1083SOL     OW 4147   3.885   2.923   1.846
 1083SOL    HW1 4148   3.902   3.003   1.904
 1083SOL    HW2 4149   3.964   2.907   1.787
 1084SOL     OW 4150   5.941   3.988   1.209
 1084SOL    HW1 4151   6.036   3.967   1.232
 1084SOL    HW2 4152   5.879   3.936   1.268
 1085SOL     OW 4153   1.395   5.559   3.960
 1085SOL    HW1 4154   1.310   5.507   3.971
 1085SOL    HW2 4155   1.380   5.653   3.991
 1086SOL     OW 4156   2.743   5.698   2.614
 1086SOL    HW1 4157   2.812   5.700   2.687
 1086SOL    HW2 4158   2.670   5.635   2.640
 1087SOL     OW 4159   3.955   3.014   5.340
 1087SOL    HW1 4160   3.907   3.061   5.414
 1087SOL    HW2 4161   3.964   3.076   5.262
 1088SOL     OW 4162   0.250   4.557   2.482
 1088SOL    HW1 4163   0.281   4.490   2.550
 1088SOL    HW2 4164   0.197   4.510   2.412
 1089SOL     OW 4165   6.684   0.211   3.108
 1089SOL    HW1 4166   6.627   0.188   3.187
 1089SOL    HW2 4167   6.715   0.127   3.063
 1090SOL     OW 4168   2.857   2.353   6.584
 1090SOL    HW1 4169   2.852   2.407   6.500
 1090SOL    HW2 4170   2.767   2.311   6.601
 1091SOL     OW 4171   1.553   2.040   5.925
 1091SOL    HW1 4172   1.490   1.992   5.864
 1091SOL    HW2 4173   1.506   2.119   5.965
 1092SOL     OW 4174   3.195   4.786   1.441
 1092SOL    HW1 4175   3.242   4.759   1.525
 1092SOL    HW2 4176   3.229   4.730   1.364
 1093SOL     OW 4177   0.473   2.417   1.431
 1093SOL    HW1 4178   0.539   2.471   1.484
 1093SOL    HW2 4179   0.382   2.457   1.443
 1094SOL     OW 4180   0.993   6.019   2.738
 1094SOL    HW1 4181   0.944   6.058   2.660
 1094SOL    HW2 4182   0.933   5.955   2.787
 1095SOL     OW 4183   1.216   3.051   6.025
 1095SOL    HW1 4184   1.162   3.105   6.090
 1095SOL    HW2 4185   1.260   3.112   5.959
 1096SOL     OW 4186   3.685   2.907   2.721
 1096SOL    HW1 4187   3.615   2.864   2.664
 1096SOL    HW2 4188   3.654   2.998   2.749
 1097SOL     OW 4189   2.855   5.320   5.554
 1097SOL    HW1 4190   2.832   5.322   5.457
 1097SOL    HW2 4191   2.849   5.413   5.591
 1098SOL     OW 4192   3.025   0.656   2.743
 1098SOL    HW1 4193   2.965   0.676   2.821
 1098SOL    HW2 4194   3.010   0.562   2.713
 1099SOL     OW 4195   3.160   0.396   2.212
 1099SOL    HW1 4196   3.229   0.467   2.196
 1099SOL    HW2 4197   3.104   0.384   2.130
 1100SOL     OW 4198   6.512   0.868   0.285
 1100SOL    HW1 4199   6.511   0.855   0.186
 1100SOL    HW2 4200   6.603   0.847   0.321
 1101SOL     OW 4201   5.786   4.117   1.019
 1101SOL    HW1 4202   5.691   4.099   1.045
 1101SOL    HW2 4203   5.847   4.061   1.076
 1102SOL     OW 4204   0.044   3.997   4.099
 1102SOL    HW1 4205   0.087   4.055   4.169
 1102SOL    HW2 4206   0.056   3.901   4.124
 1103SOL     OW 4207   0.618   2.692   0.089
 1103SOL    HW1 4208   0.570   2.613   0.051
 1103SOL    HW2 4209   0.620   2.685   0.189
 1104SOL     OW 4210   2.820   5.553   5.672
 1104SOL    HW1 4211   2.801   5.650   5.656
 1104SOL    HW2 4212   2.752   5.516   5.735
 1105SOL     OW 4213   4.050   5.812   0.503
 1105SOL    HW1 4214   4.136   5.780   0.465
 1105SOL    HW2 4215   3.975   5.785   0.443
 1106SOL     OW 4216   0.594   1.719   6.795
 1106SOL    HW1 4217   0.640   1.709   6.707
 1106SOL    HW2 4218   0.562   1.630   6.826
 1107SOL     OW 4219   6.800   0.207   1.367
 1107SOL    HW1 4220   6.836   0.300   1.369
 1107SOL    HW2 4221   6.702   0.210   1.346
 1108SOL     OW 4222   1.602   1.330   0.575
 1108SOL    HW1 4223   1.510   1.308   0.544
 1108SOL    HW2 4224   1.599   1.366   0.668
 1109SOL     OW 4225   4.138   1.457   3.516
 1109SOL    HW1 4226   4.148   1.548   3.556
 1109SOL    HW2 4227   4.153   1.387   3.586
 1110SOL     OW 4228   3.954   3.319   3.125
 1110SOL    HW1 4229   4.020   3.319   3.200
 1110SOL    HW2 4230   3.878   3.258   3.148
 1111SOL     OW 4231   4.083   6.510   6.481
 1111SOL    HW1 4232   4.097   6.523   6.579
 1111SOL    HW2 4233   4.118   6.589   6.431
 1112SOL     OW 4234   0.910   1.249   2.879
 1112SOL    HW1 4235   0.934   1.325   2.938
 1112SOL    HW2 4236   0.810   1.237   2.878
 1113SOL     OW 4237   6.590   4.346   1.967
 1113SOL    HW1 4238   6.539   4.265   1.938
 1113SOL    HW2 4239   6.686   4.321   1.983
 1114SOL     OW 4240   5.787   1.229   5.719
 1114SOL    HW1 4241   5.791   1.160   5.791
 1114SOL    HW2 4242   5.870   1.223   5.663
 1115SOL     OW 4243   2.266   5.082   0.488
 1115SOL    HW1 4244   2.202   5.005   0.497
 1115SOL    HW2 4245   2.249   5.147   0.562
 1116SOL     OW 4246   3.642   6.427   6.322
 1116SOL    HW1 4247   3.586   6.346   6.304
 1116SOL    HW2 4248   3.582   6.503   6.347
 1117SOL     OW 4249   2.539   2.983   0.496
 1117SOL    HW1 4250   2.469   3.048   0.524
 1117SOL    HW2 4251   2.507   2.931   0.416
 1118SOL     OW 4252   1.507   2.640   1.294
 1118SOL    HW1 4253   1.597   2.611   1.261
 1118SOL    HW2 4254   1.446   2.562   1.297
 1119SOL     OW 4255   3.102   3.373   3.787
 1119SOL    HW1 4256   3.009   3.379   3.822
 1119SOL    HW2 4257   3.100   3.345   3.691
 1120SOL     OW 4258   3.552   1.067   3.673
 1120SOL    HW1 4259   3.467   1.109   3.642
 1120SOL    HW2 4260   3.533   1.003   3.747
 1121SOL     OW 4261   4.772   4.082   3.117
 1121SOL    HW1 4262   4.789   4.003   3.175
 1121SOL    HW2 4263   4.842   4.152   3.135
 1122SOL     OW 4264   4.403   4.859   6.539
 1122SOL    HW1 4265   4.457   4.904   6.610
 1122SOL    HW2 4266   4.451   4.777   6.509
 1123SOL     OW 4267   3.582   0.421   2.233
 1123SOL    HW1 4268   3.504   0.369   2.199
 1123SOL    HW2 4269   3.550   0.509   2.268
 1124SOL     OW 4270   2.405   5.192   3.545
 1124SOL    HW1 4271   2.306   5.201   3.542
 1124SOL    HW2 4272   2.444   5.215   3.456
 1125SOL     OW 4273   3.471   4.374   5.275
 1125SOL    HW1 4274   3.390   4.321   5.250
 1125SOL    HW2 4275   3.451   4.471   5.266
 1126SOL     OW 4276   6.313   0.336   1.846
 1126SOL    HW1 4277   6.407   0.320   1.816
 1126SOL    HW2 4278   6.271   0.404   1.786
 1127SOL     OW 4279   2.390   5.508   5.962
 1127SOL    HW1 4280   2.335   5.437   5.918
 1127SOL    HW2 4281   2.331   5.580   5.997
 1128SOL     OW 4282   2.126   2.552   4.963
 1128SOL    HW1 4283   2.137   2.647   4.993
 1128SOL    HW2 4284   2.063   2.505   5.024
 1129SOL     OW 4285   4.382   5.418   6.349
 1129SOL    HW1 4286   4.357   5.490   6.284
 1129SOL    HW2 4287   4.480   5.421   6.366
 1130SOL     OW 4288   1.336   5.418   5.508
 1130SOL    HW1 4289   1.350   5.319   5.520
 1130SOL    HW2 4290   1.356   5.464   5.595
 1131SOL     OW 4291   0.072   4.536   6.260
 1131SOL    HW1 4292   0.033   4.445   6.246
 1131SOL    HW2 4293   0.164   4.540   6.221
 1132SOL     OW 4294   5.327   6.903   5.169
 1132SOL    HW1 4295   5.292   6.994   5.147
 1132SOL    HW2 4296   5.363   6.861   5.085
 1133SOL     OW 4297   6.601   1.676   6.562
 1133SOL    HW1 4298   6.577   1.579   6.572
 1133SOL    HW2 4299   6.521   1.728   6.532
 1134SOL     OW 4300   0.188   3.270   5.080
 1134SOL    HW1 4301   0.102   3.266   5.131
 1134SOL    HW2 4302   0.265   3.269   5.144
 1135SOL     OW 4303   7.007   1.854   4.209
 1135SOL    HW1 4304   0.018   1.794   4.138
 1135SOL    HW2 4305   6.949   1.925   4.168
 1136SOL     OW 4306   3.685   5.231   4.011
 1136SOL    HW1 4307   3.715   5.163   3.944
 1136SOL    HW2 4308   3.612   5.192   4.067
 1137SOL     OW 4309   0.740   0.411   0.141
 1137SOL    HW1 4310   0.647   0.432   0.173
 1137SOL    HW2 4311   0.752   0.312   0.138
 1138SOL     OW 4312   0.812   2.955   5.693
 1138SOL    HW1 4313   0.885   2.887   5.693
 1138SOL    HW2 4314   0.851   3.047   5.689
 1139SOL     OW 4315   0.402   0.371   2.651
 1139SOL    HW1 4316   0.472   0.321   2.702
 1139SOL    HW2 4317   0.317   0.371   2.702
 1140SOL     OW 4318   4.188   1.979   3.301
 1140SOL    HW1 4319   4.091   2.002   3.312
 1140SOL    HW2 4320   4.199   1.880   3.305
 1141SOL     OW 4321   0.172   6.660   5.912
 1141SOL    HW1 4322   0.207   6.729   5.976
 1141SOL    HW2 4323   0.152   6.704   5.825
 1142SOL     OW 4324   6.247   6.828   5.152
 1142SOL    HW1 4325   6.300   6.785   5.226
 1142SOL    HW2 4326   6.307   6.887   5.098
 1143SOL     OW 4327   5.347   2.865   1.405
 1143SOL    HW1 4328   5.278   2.829   1.468
 1143SOL    HW2 4329   5.309   2.871   1.313
 1144SOL     OW 4330   1.100   6.507   4.752
 1144SOL    HW1 4331   1.109   6.421   4.801
 1144SOL    HW2 4332   1.015   6.507   4.699
 1145SOL     OW 4333   2.635   5.265   4.885
 1145SOL    HW1 4334   2.637   5.221   4.974
 1145SOL    HW2 4335   2.684   5.208   4.819
 1146SOL     OW 4336   5.761   1.861   2.050
 1146SOL    HW1 4337   5.678   1.813   2.077
 1146SOL    HW2 4338   5.801   1.816   1.970
 1147SOL     OW 4339   6.392   4.131   2.037
 1147SOL    HW1 4340   6.452   4.074   2.093
 1147SOL    HW2 4341   6.312   4.077   2.009
 1148SOL     OW 4342   6.215   6.911   6.172
 1148SOL    HW1 4343   6.201   6.923   6.073
 1148SOL    HW2 4344   6.306   6.873   6.188
 1149SOL     OW 4345   4.899   3.563   2.849
 1149SOL    HW1 4346   4.880   3.567   2.751
 1149SOL    HW2 4347   4.855   3.640   2.894
 1150SOL     OW 4348   1.944   6.365   5.427
 1150SOL    HW1 4349   1.857   6.409   5.405
 1150SOL    HW2 4350   2.000   6.359   5.344
 1151SOL     OW 4351   2.439   5.382   0.068
 1151SOL    HW1 4352   2.390   5.386   0.155
 1151SOL    HW2 4353   2.379   5.344   7.021
 1152SOL     OW 4354   6.441   0.627   3.572
 1152SOL    HW1 4355   6.364   0.654   3.630
 1152SOL    HW2 4356   6.495   0.708   3.549
 1153SOL     OW 4357   2.214   4.309   2.656
 1153SOL    HW1 4358   2.146   4.312   2.729
 1153SOL    HW2 4359   2.183   4.366   2.579
 1154SOL     OW 4360   1.684   4.221   2.179
 1154SOL    HW1 4361   1.710   4.246   2.272
 1154SOL    HW2 4362   1.616   4.286   2.144
 1155SOL     OW 4363   5.015   0.358   2.315
 1155SOL    HW1 4364   4.991   0.406   2.400
 1155SOL    HW2 4365   5.102   0.310   2.328
 1156SOL     OW 4366   2.322   0.668   4.574
 1156SOL    HW1 4367   2.385   0.745   4.571
 1156SOL    HW2 4368   2.370   0.586   4.604
 1157SOL     OW 4369   1.372   3.340   3.681
 1157SOL    HW1 4370   1.397   3.256   3.728
 1157SOL    HW2 4371   1.296   3.384   3.729
 1158SOL     OW 4372   4.647   5.337   5.765
 1158SOL    HW1 4373   4.557   5.294   5.763
 1158SOL    HW2 4374   4.659   5.386   5.851
 1159SOL     OW 4375   6.106   4.396   2.739
 1159SOL    HW1 4376   6.119   4.317   2.798
 1159SOL    HW2 4377   6.132   4.479   2.789
 1160SOL     OW 4378   2.800   2.392   1.368
 1160SOL    HW1 4379   2.802   2.456   1.445
 1160SOL    HW2 4380   2.723   2.413   1.308
 1161SOL     OW 4381   3.936   1.070   3.571
 1161SOL    HW1 4382   3.961   1.151   3.624
 1161SOL    HW2 4383   3.975   1.077   3.480
 1162SOL     OW 4384   3.480   5.408   1.791
 1162SOL    HW1 4385   3.432   5.421   1.878
 1162SOL    HW2 4386   3.457   5.482   1.728
 1163SOL     OW 4387   5.015   6.741   2.609
 1163SOL    HW1 4388   5.068   6.754   2.693
 1163SOL    HW2 4389   5.057   6.669   2.555
 1164SOL     OW 4390   6.753   4.408   4.502
 1164SOL    HW1 4391   6.793   4.498   4.483
 1164SOL    HW2 4392   6.701   4.377   4.422
 1165SOL     OW 4393   0.474   5.266   1.825
 1165SOL    HW1 4394   0.452   5.341   1.764
 1165SOL    HW2 4395   0.475   5.180   1.774
 1166SOL     OW 4396   3.650   0.506   6.660
 1166SOL    HW1 4397   3.693   0.570   6.724
 1166SOL    HW2 4398   3.553   0.528   6.651
 1167SOL     OW 4399   4.680   1.604   5.397
 1167SOL    HW1 4400   4.744   1.567   5.465
 1167SOL    HW2 4401   4.588   1.570   5.417
 1168SOL     OW 4402   5.538   1.117   3.937
 1168SOL    HW1 4403   5.566   1.028   3.900
 1168SOL    HW2 4404   5.566   1.190   3.875
 1169SOL     OW 4405   1.791   2.377   0.735
 1169SOL    HW1 4406   1.819   2.435   0.658
 1169SOL    HW2 4407   1.872   2.344   0.783
 1170SOL     OW 4408   2.656   0.965   1.683
 1170SOL    HW1 4409   2.654   1.049   1.737
 1170SOL    HW2 4410   2.724   0.973   1.611
 1171SOL     OW 4411   4.441   0.843   0.881
 1171SOL    HW1 4412   4.426   0.813   0.975
 1171SOL    HW2 4413   4.362   0.820   0.825
 1172SOL     OW 4414   3.401   3.304   5.817
 1172SOL    HW1 4415   3.431   3.310   5.721
 1172SOL    HW2 4416   3.471   3.255   5.869
 1173SOL     OW 4417   5.674   6.284   6.221
 1173SOL    HW1 4418   5.654   6.288   6.319
 1173SOL    HW2 4419   5.596   6.243   6.173
 1174SOL     OW 4420   3.775   5.927   6.675
 1174SOL    HW1 4421   3.697   5.877   6.712
 1174SOL    HW2 4422   3.745   5.985   6.600
 1175SOL     OW 4423   0.414   5.282   4.729
 1175SOL    HW1 4424   0.317   5.279   4.752
 1175SOL    HW2 4425   0.465   5.321   4.806
 1176SOL     OW 4426   6.172   3.603   1.746
 1176SOL    HW1 4427   6.232   3.621   1.668
 1176SOL    HW2 4428   6.170   3.505   1.766
 1177SOL     OW 4429   6.496   3.092   5.671
 1177SOL    HW1 4430   6.455   3.092   5.762
 1177SOL    HW2 4431   6.427   3.117   5.603
 1178SOL     OW 4432   4.199   5.362   2.438
 1178SOL    HW1 4433   4.243   5.412   2.363
 1178SOL    HW2 4434   4.136   5.294   2.401
 1179SOL     OW 4435   1.432   5.126   6.178
 1179SOL    HW1 4436   1.428   5.030   6.152
 1179SOL    HW2 4437   1.467   5.134   6.272
 1180SOL     OW 4438   2.071   1.099   4.058
 1180SOL    HW1 4439   2.040   1.176   4.002
 1180SOL    HW2 4440   2.157   1.063   4.021
 1181SOL     OW 4441   1.557   4.531   2.482
 1181SOL    HW1 4442   1.581   4.582   2.565
 1181SOL    HW2 4443   1.471   4.567   2.444
 1182SOL     OW 4444   0.497   3.542   4.272
 1182SOL    HW1 4445   0.550   3.501   4.197
 1182SOL    HW2 4446   0.550   3.614   4.315
 1183SOL     OW 4447   4.150   5.818   0.758
 1183SOL    HW1 4448   4.105   5.820   0.668
 1183SOL    HW2 4449   4.085   5.787   0.827
 1184SOL     OW 4450   3.659   2.883   6.502
 1184SOL    HW1 4451   3.698   2.864   6.412
 1184SOL    HW2 4452   3.567   2.845   6.507
 1185SOL     OW 4453   3.081   1.374   6.438
 1185SOL    HW1 4454   3.133   1.349   6.356
 1185SOL    HW2 4455   3.090   1.472   6.456
 1186SOL     OW 4456   3.895   0.167   4.886
 1186SOL    HW1 4457   3.982   0.217   4.894
 1186SOL    HW2 4458   3.839   0.184   4.967
 1187SOL     OW 4459   0.479   2.396   4.657
 1187SOL    HW1 4460   0.493   2.421   4.561
 1187SOL    HW2 4461   0.423   2.465   4.701
 1188SOL     OW 4462   1.983   1.221   5.479
 1188SOL    HW1 4463   1.976   1.122   5.467
 1188SOL    HW2 4464   1.942   1.247   5.566
 1189SOL     OW 4465   0.979   1.174   1.178
 1189SOL    HW1 4466   1.003   1.259   1.226
 1189SOL    HW2 4467   0.935   1.111   1.242
 1190SOL     OW 4468   3.636   6.052   2.252
 1190SOL    HW1 4469   3.626   6.039   2.153
 1190SOL    HW2 4470   3.634   5.963   2.298
 1191SOL     OW 4471   2.082   4.240   1.802
 1191SOL    HW1 4472   2.070   4.302   1.725
 1191SOL    HW2 4473   2.005   4.250   1.865
 1192SOL     OW 4474   3.571   5.532   2.737
 1192SOL    HW1 4475   3.476   5.545   2.765
 1192SOL    HW2 4476   3.621   5.618   2.748
 1193SOL     OW 4477   3.009   1.625   3.697
 1193SOL    HW1 4478   2.992   1.637   3.795
 1193SOL    HW2 4479   3.107   1.622   3.681
 1194SOL     OW 4480   6.407   2.081   2.812
 1194SOL    HW1 4481   6.430   1.997   2.764
 1194SOL    HW2 4482   6.328   2.124   2.769
 1195SOL     OW 4483   3.628   0.257   0.114
 1195SOL    HW1 4484   3.549   0.217   0.161
 1195SOL    HW2 4485   3.712   0.217   0.150
 1196SOL     OW 4486   1.770   5.361   3.504
 1196SOL    HW1 4487   1.761   5.442   3.562
 1196SOL    HW2 4488   1.794   5.390   3.411
 1197SOL     OW 4489   3.338   5.042   6.807
 1197SOL    HW1 4490   3.415   5.104   6.792
 1197SOL    HW2 4491   3.273   5.084   6.870
 1198SOL     OW 4492   3.038   1.079   3.422
 1198SOL    HW1 4493   2.956   1.086   3.366
 1198SOL    HW2 4494   3.070   0.985   3.423
 1199SOL     OW 4495   3.514   3.982   3.950
 1199SOL    HW1 4496   3.543   4.041   3.874
 1199SOL    HW2 4497   3.437   4.024   3.998
 1200SOL     OW 4498   4.797   3.990   1.313
 1200SOL    HW1 4499   4.852   4.044   1.249
 1200SOL    HW2 4500   4.706   3.973   1.274
 1201SOL     OW 4501   1.936   2.189   5.180
 1201SOL    HW1 4502   1.868   2.148   5.118
 1201SOL    HW2 4503   1.906   2.177   5.274
 1202SOL     OW 4504   6.093   6.358   4.512
 1202SOL    HW1 4505   6.031   6.437   4.509
 1202SOL    HW2 4506   6.086   6.307   4.426
 1203SOL     OW 4507   6.009   0.163   2.277
 1203SOL    HW1 4508   5.987   0.163   2.375
 1203SOL    HW2 4509   6.104   0.191   2.264
 1204SOL     OW 4510   2.130   6.860   0.480
 1204SOL    HW1 4511   2.225   6.830   0.471
 1204SOL    HW2 4512   2.117   6.901   0.570
 1205SOL     OW 4513   0.746   3.517   5.964
 1205SOL    HW1 4514   0.706   3.515   6.055
 1205SOL    HW2 4515   0.818   3.586   5.960
 1206SOL     OW 4516   6.167   1.294   5.401
 1206SOL    HW1 4517   6.182   1.375   5.457
 1206SOL    HW2 4518   6.254   1.253   5.376
 1207SOL     OW 4519   6.321   6.087   6.401
 1207SOL    HW1 4520   6.382   6.115   6.327
 1207SOL    HW2 4521   6.361   6.111   6.489
 1208SOL     OW 4522   3.610   3.709   2.482
 1208SOL    HW1 4523   3.564   3.767   2.550
 1208SOL    HW2 4524   3.703   3.742   2.468
 1209SOL     OW 4525   6.985   3.846   4.953
 1209SOL    HW1 4526   0.058   3.845   4.927
 1209SOL    HW2 4527   6.935   3.781   4.896
 1210SOL     OW 4528   2.320   0.150   3.497
 1210SOL    HW1 4529   2.273   0.183   3.414
 1210SOL    HW2 4530   2.417   0.171   3.491
 1211SOL     OW 4531   6.794   3.580   3.409
 1211SOL    HW1 4532   6.721   3.511   3.412
 1211SOL    HW2 4533   6.882   3.536   3.425
 1212SOL     OW 4534   0.924   4.624   3.226
 1212SOL    HW1 4535   0.840   4.674   3.242
 1212SOL    HW2 4536   0.920   4.579   3.136
 1213SOL     OW 4537   5.794   3.830   5.209
 1213SOL    HW1 4538   5.838   3.900   5.153
 1213SOL    HW2 4539   5.843   3.744   5.202
 1214SOL     OW 4540   0.744   1.874   1.250
 1214SOL    HW1 4541   0.671   1.926   1.294
 1214SOL    HW2 4542   0.705   1.807   1.188
 1215SOL     OW 4543   0.879   5.889   2.235
 1215SOL    HW1 4544   0.977   5.908   2.238
 1215SOL    HW2 4545   0.842   5.919   2.147
 1216SOL     OW 4546   2.323   6.431   1.407
 1216SOL    HW1 4547   2.322   6.508   1.343
 1216SOL    HW2 4548   2.305   6.464   1.500
 1217SOL     OW 4549   1.622   2.722   3.251
 1217SOL    HW1 4550   1.628   2.677   3.162
 1217SOL    HW2 4551   1.710   2.764   3.273
 1218SOL     OW 4552   0.428   4.060   3.117
 1218SOL    HW1 4553   0.425   3.984   3.051
 1218SOL    HW2 4554   0.467   4.028   3.203
 1219SOL     OW 4555   2.110   6.015   3.378
 1219SOL    HW1 4556   2.174   6.070   3.432
 1219SOL    HW2 4557   2.043   6.076   3.335
 1220SOL     OW 4558   6.508   5.014   2.583
 1220SOL    HW1 4559   6.529   4.941   2.518
 1220SOL    HW2 4560   6.539   4.988   2.674
 1221SOL     OW 4561   4.822   4.689   6.672
 1221SOL    HW1 4562   4.800   4.753   6.746
 1221SOL    HW2 4563   4.920   4.692   6.653
 1222SOL     OW 4564   6.751   4.662   1.413
 1222SOL    HW1 4565   6.662   4.619   1.422
 1222SOL    HW2 4566   6.823   4.593   1.418
 1223SOL     OW 4567   0.370   4.725   4.400
 1223SOL    HW1 4568   0.373   4.651   4.467
 1223SOL    HW2 4569   0.347   4.688   4.310
 1224SOL     OW 4570   4.299   4.280   1.268
 1224SOL    HW1 4571   4.221   4.221   1.291
 1224SOL    HW2 4572   4.303   4.357   1.331
 1225SOL     OW 4573   5.201   1.330   6.655
 1225SOL    HW1 4574   5.187   1.292   6.746
 1225SOL    HW2 4575   5.279   1.286   6.612
 1226SOL     OW 4576   5.783   5.624   0.604
 1226SOL    HW1 4577   5.745   5.564   0.534
 1226SOL    HW2 4578   5.829   5.569   0.674
 1227SOL     OW 4579   5.455   4.434   0.018
 1227SOL    HW1 4580   5.497   4.512   0.064
 1227SOL    HW2 4581   5.525   4.381   6.995
 1228SOL     OW 4582   4.069   3.911   4.856
 1228SOL    HW1 4583   4.099   3.842   4.921
 1228SOL    HW2 4584   4.147   3.963   4.823
 1229SOL     OW 4585   2.304   5.425   1.902
 1229SOL    HW1 4586   2.288   5.465   1.992
 1229SOL    HW2 4587   2.251   5.341   1.893
 1230SOL     OW 4588   5.035   4.467   7.020
 1230SOL    HW1 4589   5.062   4.523   0.075
 1230SOL    HW2 4590   5.053   4.518   6.936
 1231SOL     OW 4591   1.840   0.298   0.635
 1231SOL    HW1 4592   1.930   0.257   0.619
 1231SOL    HW2 4593   1.798   0.319   0.547
 1232SOL     OW 4594   2.506   1.604   5.641
 1232SOL    HW1 4595   2.582   1.558   5.595
 1232SOL    HW2 4596   2.492   1.564   5.732
 1233SOL     OW 4597   0.337   5.549   4.634
 1233SOL    HW1 4598   0.244   5.538   4.598
 1233SOL    HW2 4599   0.371   5.459   4.663
 1234SOL     OW 4600   6.871   4.529   5.318
 1234SOL    HW1 4601   6.875   4.515   5.417
 1234SOL    HW2 4602   6.947   4.482   5.274
 1235SOL     OW 4603   6.248   5.515   0.844
 1235SOL    HW1 4604   6.160   5.535   0.887
 1235SOL    HW2 4605   6.264   5.416   0.846
 1236SOL     OW 4606   0.249   0.661   2.697
 1236SOL    HW1 4607   0.246   0.672   2.796
 1236SOL    HW2 4608   0.343   0.639   2.668
 1237SOL     OW 4609   0.465   0.558   4.186
 1237SOL    HW1 4610   0.402   0.554   4.264
 1237SOL    HW2 4611   0.554   0.523   4.213
 1238SOL     OW 4612   0.494   1.068   4.314
 1238SOL    HW1 4613   0.470   1.031   4.225
 1238SOL    HW2 4614   0.592   1.057   4.330
 1239SOL     OW 4615   5.152   4.940   3.758
 1239SOL    HW1 4616   5.080   4.875   3.731
 1239SOL    HW2 4617   5.219   4.948   3.685
 1240SOL     OW 4618   0.831   4.607   1.541
 1240SOL    HW1 4619   0.803   4.638   1.450
 1240SOL    HW2 4620   0.763   4.637   1.608
 1241SOL     OW 4621   3.785   5.229   6.276
 1241SOL    HW1 4622   3.705   5.192   6.322
 1241SOL    HW2 4623   3.867   5.204   6.327
 1242SOL     OW 4624   2.172   5.613   0.932
 1242SOL    HW1 4625   2.160   5.548   0.857
 1242SOL    HW2 4626   2.265   5.604   0.969
 1243SOL     OW 4627   0.506   3.735   3.868
 1243SOL    HW1 4628   0.502   3.777   3.777
 1243SOL    HW2 4629   0.527   3.805   3.936
 1244SOL     OW 4630   6.897   6.861   4.854
 1244SOL    HW1 4631   6.934   6.864   4.947
 1244SOL    HW2 4632   6.913   6.948   4.809
 1245SOL     OW 4633   4.410   0.692   1.418
 1245SOL    HW1 4634   4.384   0.600   1.389
 1245SOL    HW2 4635   4.435   0.690   1.515
 1246SOL     OW 4636   4.969   2.692   2.202
 1246SOL    HW1 4637   5.032   2.677   2.126
 1246SOL    HW2 4638   5.002   2.642   2.283
 1247SOL     OW 4639   5.024   6.988   2.460
 1247SOL    HW1 4640   5.005   0.035   2.528
 1247SOL    HW2 4641   5.046   6.902   2.505
 1248SOL     OW 4642   0.458   0.373   4.723
 1248SOL    HW1 4643   0.477   0.338   4.815
 1248SOL    HW2 4644   0.370   0.421   4.723
 1249SOL     OW 4645   6.664   7.023   6.757
 1249SOL    HW1 4646   6.707   0.084   6.787
 1249SOL    HW2 4647   6.714   6.945   6.795
 1250SOL     OW 4648   0.585   4.264   5.199
 1250SOL    HW1 4649   0.607   4.271   5.102
 1250SOL    HW2 4650   0.606   4.351   5.245
 1251SOL     OW 4651   2.292   0.606   3.246
 1251SOL    HW1 4652   2.348   0.687   3.226
 1251SOL    HW2 4653   2.205   0.614   3.199
 1252SOL     OW 4654   2.119   4.924   6.423
 1252SOL    HW1 4655   2.174   4.931   6.506
 1252SOL    HW2 4656   2.179   4.931   6.343
 1253SOL     OW 4657   2.994   5.736   0.845
 1253SOL    HW1 4658   3.084   5.722   0.887
 1253SOL    HW2 4659   3.005   5.756   0.748
 1254SOL     OW 4660   6.527   0.709   3.862
 1254SOL    HW1 4661   6.431   0.729   3.881
 1254SOL    HW2 4662   6.582   0.788   3.885
 1255SOL     OW 4663   6.318   2.137   6.194
 1255SOL    HW1 4664   6.370   2.062   6.234
 1255SOL    HW2 4665   6.346   2.223   6.237
 1256SOL     OW 4666   0.087   5.897   6.285
 1256SOL    HW1 4667   0.156   5.969   6.275
 1256SOL    HW2 4668   0.116   5.832   6.356
 1257SOL     OW 4669   6.986   6.534   3.053
 1257SOL    HW1 4670   6.889   6.553   3.036
 1257SOL    HW2 4671   0.019   6.598   3.001
 1258SOL     OW 4672   5.299   5.632   6.427
 1258SOL    HW1 4673   5.260   5.563   6.366
 1258SOL    HW2 4674   5.311   5.593   6.519
 1259SOL     OW 4675   6.085   6.430   4.771
 1259SOL    HW1 4676   6.130   6.400   4.687
 1259SOL    HW2 4677   6.059   6.527   4.762
 1260SOL     OW 4678   3.450   1.164   0.747
 1260SOL    HW1 4679   3.498   1.184   0.833
 1260SOL    HW2 4680   3.385   1.090   0.762
 1261SOL     OW 4681   0.498   4.432   4.797
 1261SOL    HW1 4682   0.503   4.507   4.863
 1261SOL    HW2 4683   0.512   4.345   4.844
 1262SOL     OW 4684   4.332   6.631   1.363
 1262SOL    HW1 4685   4.232   6.629   1.357
 1262SOL    HW2 4686   4.359   6.693   1.437
 1263SOL     OW 4687   7.009   1.475   1.202
 1263SOL    HW1 4688   6.925   1.524   1.226
 1263SOL    HW2 4689   0.059   1.541   1.186
 1264SOL     OW 4690   5.959   2.939   4.858
 1264SOL    HW1 4691   5.980   3.029   4.819
 1264SOL    HW2 4692   5.863   2.936   4.883
 1265SOL     OW 4693   5.572   4.901   4.778
 1265SOL    HW1 4694   5.479   4.914   4.744
 1265SOL    HW2 4695   5.636   4.902   4.701
 1266SOL     OW 4696   2.523   0.423   3.919
 1266SOL    HW1 4697   2.451   0.489   3.943
 1266SOL    HW2 4698   2.516   0.400   3.822
 1267SOL     OW 4699   0.454   4.669   2.192
 1267SOL    HW1 4700   0.420   4.732   2.262
 1267SOL    HW2 4701   0.405   4.684   2.106
 1268SOL     OW 4702   6.298   4.758   6.950
 1268SOL    HW1 4703   6.212   4.798   6.921
 1268SOL    HW2 4704   6.290   4.724   0.020
 1269SOL     OW 4705   1.212   4.328   6.059
 1269SOL    HW1 4706   1.113   4.331   6.041
 1269SOL    HW2 4707   1.241   4.233   6.070
 1270SOL     OW 4708   1.701   2.472   4.052
 1270SOL    HW1 4709   1.688   2.505   4.146
 1270SOL    HW2 4710   1.775   2.404   4.051
 1271SOL     OW 4711   5.736   3.723   3.056
 1271SOL    HW1 4712   5.639   3.707   3.042
 1271SOL    HW2 4713   5.756   3.724   3.154
 1272SOL     OW 4714   5.904   6.555   6.934
 1272SOL    HW1 4715   5.904   6.655   6.937
 1272SOL    HW2 4716   5.943   6.519   7.018
 1273SOL     OW 4717   3.127   6.738   4.983
 1273SOL    HW1 4718   3.081   6.760   4.896
 1273SOL    HW2 4719   3.226   6.741   4.970
 1274SOL     OW 4720   5.240   2.668   2.054
 1274SOL    HW1 4721   5.294   2.749   2.076
 1274SOL    HW2 4722   5.188   2.685   1.971
 1275SOL     OW 4723   3.389   0.889   3.854
 1275SOL    HW1 4724   3.370   0.833   3.935
 1275SOL    HW2 4725   3.303   0.926   3.818
 1276SOL     OW 4726   5.160   6.799   2.843
 1276SOL    HW1 4727   5.205   6.713   2.866
 1276SOL    HW2 4728   5.145   6.852   2.927
 1277SOL     OW 4729   0.637   2.013   4.631
 1277SOL    HW1 4730   0.659   2.061   4.716
 1277SOL    HW2 4731   0.636   2.079   4.555
 1278SOL     OW 4732   3.088   1.576   4.645
 1278SOL    HW1 4733   3.148   1.527   4.708
 1278SOL    HW2 4734   3.088   1.673   4.668
 1279SOL     OW 4735   1.690   5.152   0.664
 1279SOL    HW1 4736   1.647   5.085   0.723
 1279SOL    HW2 4737   1.710   5.235   0.716
 1280SOL     OW 4738   1.333   5.931   3.436
 1280SOL    HW1 4739   1.353   6.017   3.482
 1280SOL    HW2 4740   1.300   5.864   3.502
 1281SOL     OW 4741   0.631   6.608   4.008
 1281SOL    HW1 4742   0.601   6.516   3.984
 1281SOL    HW2 4743   0.663   6.609   4.103
 1282SOL     OW 4744   1.524   6.954   2.691
 1282SOL    HW1 4745   1.569   6.878   2.738
 1282SOL    HW2 4746   1.516   6.933   2.593
 1283SOL     OW 4747   5.400   4.142   5.490
 1283SOL    HW1 4748   5.308   4.174   5.467
 1283SOL    HW2 4749   5.395   4.050   5.528
 1284SOL     OW 4750   2.902   1.822   3.080
 1284SOL    HW1 4751   2.832   1.790   3.145
 1284SOL    HW2 4752   2.993   1.797   3.114
 1285SOL     OW 4753   6.104   2.609   5.642
 1285SOL    HW1 4754   6.148   2.591   5.730
 1285SOL    HW2 4755   6.043   2.533   5.619
 1286SOL     OW 4756   5.416   5.875   1.009
 1286SOL    HW1 4757   5.508   5.912   0.997
 1286SOL    HW2 4758   5.350   5.936   0.965
 1287SOL     OW 4759   5.957   3.636   5.766
 1287SOL    HW1 4760   5.986   3.714   5.823
 1287SOL    HW2 4761   5.858   3.626   5.771
 1288SOL     OW 4762   0.006   3.317   3.738
 1288SOL    HW1 4763   0.091   3.317   3.687
 1288SOL    HW2 4764   7.012   3.408   3.775
 1289SOL     OW 4765   0.454   5.293   2.996
 1289SOL    HW1 4766   0.501   5.216   2.953
 1289SOL    HW2 4767   0.392   5.336   2.930
 1290SOL     OW 4768   6.432   6.678   2.083
 1290SOL    HW1 4769   6.337   6.653   2.065
 1290SOL    HW2 4770   6.435   6.762   2.137
 1291SOL     OW 4771   1.605   6.165   1.562
 1291SOL    HW1 4772   1.644   6.121   1.643
 1291SOL    HW2 4773   1.661   6.143   1.482
 1292SOL     OW 4774   1.817   6.177   0.624
 1292SOL    HW1 4775   1.825   6.229   0.709
 1292SOL    HW2 4776   1.742   6.111   0.631
 1293SOL     OW 4777   6.159   1.605   6.615
 1293SOL    HW1 4778   6.069   1.647   6.600
 1293SOL    HW2 4779   6.148   1.507   6.628
 1294SOL     OW 4780   0.688   1.938   3.833
 1294SOL    HW1 4781   0.634   2.007   3.785
 1294SOL    HW2 4782   0.683   1.955   3.931
 1295SOL     OW 4783   4.861   4.394   0.955
 1295SOL    HW1 4784   4.936   4.432   1.010
 1295SOL    HW2 4785   4.899   4.347   0.876
 1296SOL     OW 4786   3.679   1.603   0.717
 1296SOL    HW1 4787   3.638   1.600   0.808
 1296SOL    HW2 4788   3.716   1.694   0.700
 1297SOL     OW 4789   6.217   0.969   6.235
 1297SOL    HW1 4790   6.188   0.877   6.263
 1297SOL    HW2 4791   6.157   1.002   6.162
 1298SOL     OW 4792   6.317   2.799   3.254
 1298SOL    HW1 4793   6.258   2.857   3.197
 1298SOL    HW2 4794   6.260   2.735   3.306
 1299SOL     OW 4795   1.475   3.398   4.644
 1299SOL    HW1 4796   1.478   3.388   4.743
 1299SOL    HW2 4797   1.422   3.480   4.620
 1300SOL     OW 4798   3.591   2.955   3.423
 1300SOL    HW1 4799   3.619   2.941   3.518
 1300SOL    HW2 4800   3.567   3.051   3.410
 1301SOL     OW 4801   1.236   1.566   1.604
 1301SOL    HW1 4802   1.171   1.512   1.549
 1301SOL    HW2 4803   1.325   1.564   1.559
 1302SOL     OW 4804   2.840   6.040   5.525
 1302SOL    HW1 4805   2.921   6.096   5.506
 1302SOL    HW2 4806   2.758   6.093   5.508
 1303SOL     OW 4807   3.189   0.204   1.225
 1303SOL    HW1 4808   3.145   0.227   1.312
 1303SOL    HW2 4809   3.170   0.109   1.202
 1304SOL     OW 4810   3.300   0.707   5.917
 1304SOL    HW1 4811   3.363   0.702   5.994
 1304SOL    HW2 4812   3.315   0.629   5.856
 1305SOL     OW 4813   6.009   6.900   4.036
 1305SOL    HW1 4814   5.928   6.843   4.030
 1305SOL    HW2 4815   6.073   6.862   4.102
 1306SOL     OW 4816   1.591   5.128   3.896
 1306SOL    HW1 4817   1.592   5.195   3.970
 1306SOL    HW2 4818   1.575   5.174   3.809
 1307SOL     OW 4819   1.209   1.444   4.827
 1307SOL    HW1 4820   1.178   1.357   4.866
 1307SOL    HW2 4821   1.137   1.482   4.769
 1308SOL     OW 4822   4.614   6.207   3.060
 1308SOL    HW1 4823   4.671   6.146   3.005
 1308SOL    HW2 4824   4.604   6.294   3.013
 1309SOL     OW 4825   6.324   3.036   4.329
 1309SOL    HW1 4826   6.260   3.100   4.287
 1309SOL    HW2 4827   6.283   2.999   4.412
 1310SOL     OW 4828   5.426   3.510   5.743
 1310SOL    HW1 4829   5.343   3.471   5.705
 1310SOL    HW2 4830   5.474   3.441   5.797
 1311SOL     OW 4831   4.893   4.800   0.097
 1311SOL    HW1 4832   4.948   4.732   0.145
 1311SOL    HW2 4833   4.807   4.759   0.068
 1312SOL     OW 4834   6.957   0.679   1.739
 1312SOL    HW1 4835   0.027   0.664   1.769
 1312SOL    HW2 4836   6.896   0.684   1.818
 1313SOL     OW 4837   3.646   5.020   4.761
 1313SOL    HW1 4838   3.742   5.022   4.733
 1313SOL    HW2 4839   3.640   5.038   4.859
 1314SOL     OW 4840   0.068   1.079   5.812
 1314SOL    HW1 4841   0.150   1.135   5.809
 1314SOL    HW2 4842   7.011   1.136   5.797
 1315SOL     OW 4843   1.787   6.803   3.972
 1315SOL    HW1 4844   1.732   6.846   4.044
 1315SOL    HW2 4845   1.876   6.778   4.009
 1316SOL     OW 4846   3.069   5.994   4.108
 1316SOL    HW1 4847   3.004   6.061   4.071
 1316SOL    HW2 4848   3.072   5.915   4.047
 1317SOL     OW 4849   0.041   3.232   4.132
 1317SOL    HW1 4850   0.093   3.216   4.216
 1317SOL    HW2 4851   0.004   3.145   4.099
 1318SOL     OW 4852   0.755   6.725   1.743
 1318SOL    HW1 4853   0.781   6.634   1.776
 1318SOL    HW2 4854   0.657   6.726   1.723
 1319SOL     OW 4855   0.233   6.487   0.876
 1319SOL    HW1 4856   0.134   6.480   0.882
 1319SOL    HW2 4857   0.266   6.425   0.805
 1320SOL     OW 4858   5.276   5.393   5.018
 1320SOL    HW1 4859   5.261   5.325   5.089
 1320SOL    HW2 4860   5.309   5.478   5.059
 1321SOL     OW 4861   3.510   1.256   1.011
 1321SOL    HW1 4862   3.487   1.354   1.014
 1321SOL    HW2 4863   3.606   1.244   1.037
 1322SOL     OW 4864   5.096   0.874   6.404
 1322SOL    HW1 4865   5.054   0.965   6.398
 1322SOL    HW2 4866   5.111   0.839   6.311
 1323SOL     OW 4867   6.637   0.958   4.029
 1323SOL    HW1 4868   6.561   1.022   4.021
 1323SOL    HW2 4869   6.619   0.892   4.102
 1324SOL     OW 4870   1.297   2.653   0.266
 1324SOL    HW1 4871   1.281   2.557   0.242
 1324SOL    HW2 4872   1.294   2.662   0.366
 1325SOL     OW 4873   4.466   5.418   4.179
 1325SOL    HW1 4874   4.378   5.373   4.164
 1325SOL    HW2 4875   4.452   5.516   4.189
 1326SOL     OW 4876   5.695   4.220   4.267
 1326SOL    HW1 4877   5.791   4.218   4.293
 1326SOL    HW2 4878   5.683   4.174   4.179
 1327SOL     OW 4879   2.880   6.170   4.021
 1327SOL    HW1 4880   2.848   6.218   4.103
 1327SOL    HW2 4881   2.876   6.232   3.943
 1328SOL     OW 4882   2.717   1.654   1.405
 1328SOL    HW1 4883   2.622   1.624   1.402
 1328SOL    HW2 4884   2.741   1.681   1.498
 1329SOL     OW 4885   1.195   6.113   1.662
 1329SOL    HW1 4886   1.110   6.061   1.671
 1329SOL    HW2 4887   1.195   6.189   1.726
 1330SOL     OW 4888   5.496   6.793   1.532
 1330SOL    HW1 4889   5.435   6.801   1.454
 1330SOL    HW2 4890   5.444   6.808   1.617
 1331SOL     OW 4891   0.466   2.299   1.887
 1331SOL    HW1 4892   0.558   2.307   1.849
 1331SOL    HW2 4893   0.462   2.219   1.947
 1332SOL     OW 4894   4.719   2.165   0.710
 1332SOL    HW1 4895   4.800   2.200   0.663
 1332SOL    HW2 4896   4.687   2.082   0.665
 1333SOL     OW 4897   4.223   3.357   5.690
 1333SOL    HW1 4898   4.312   3.355   5.645
 1333SOL    HW2 4899   4.151   3.355   5.622
 1334SOL     OW 4900   1.609   3.499   4.258
 1334SOL    HW1 4901   1.601   3.595   4.284
 1334SOL    HW2 4902   1.648   3.447   4.333
 1335SOL     OW 4903   2.139   5.187   3.583
 1335SOL    HW1 4904   2.053   5.144   3.554
 1335SOL    HW2 4905   2.132   5.213   3.679
 1336SOL     OW 4906   0.441   6.449   4.990
 1336SOL    HW1 4907   0.508   6.387   4.949
 1336SOL    HW2 4908   0.405   6.408   5.074
 1337SOL     OW 4909   3.640   6.833   6.297
 1337SOL    HW1 4910   3.671   6.920   6.257
 1337SOL    HW2 4911   3.673   6.827   6.391
 1338SOL     OW 4912   3.743   5.022   0.760
 1338SOL    HW1 4913   3.771   4.929   0.737
 1338SOL    HW2 4914   3.795   5.054   0.839
 1339SOL     OW 4915   7.021   3.822   6.802
 1339SOL    HW1 4916   7.020   3.920   6.819
 1339SOL    HW2 4917   6.934   3.782   6.829
 1340SOL     OW 4918   2.829   1.624   6.112
 1340SOL    HW1 4919   2.889   1.557   6.067
 1340SOL    HW2 4920   2.855   1.716   6.082
 1341SOL     OW 4921   5.721   1.949   4.375
 1341SOL    HW1 4922   5.739   1.971   4.470
 1341SOL    HW2 4923   5.734   1.850   4.361
 1342SOL     OW 4924   0.462   6.764   0.963
 1342SOL    HW1 4925   0.387   6.717   1.010
 1342SOL    HW2 4926   0.530   6.793   1.030
 1343SOL     OW 4927   3.015   6.036   3.378
 1343SOL    HW1 4928   2.970   5.947   3.392
 1343SOL    HW2 4929   3.102   6.022   3.332
 1344SOL     OW 4930   5.304   1.970   2.397
 1344SOL    HW1 4931   5.274   1.934   2.309
 1344SOL    HW2 4932   5.286   1.902   2.469
 1345SOL     OW 4933   6.433   6.134   2.373
 1345SOL    HW1 4934   6.475   6.217   2.409
 1345SOL    HW2 4935   6.488   6.099   2.297
 1346SOL     OW 4936   6.727   1.870   2.969
 1346SOL    HW1 4937   6.772   1.932   2.904
 1346SOL    HW2 4938   6.783   1.864   3.052
 1347SOL     OW 4939   4.458   1.333   3.521
 1347SOL    HW1 4940   4.496   1.300   3.607
 1347SOL    HW2 4941   4.433   1.255   3.464
 1348SOL     OW 4942   4.937   6.051   4.899
 1348SOL    HW1 4943   4.946   6.038   4.800
 1348SOL    HW2 4944   5.001   5.989   4.946
 1349SOL     OW 4945   4.949   2.049   0.099
 1349SOL    HW1 4946   4.991   1.974   0.151
 1349SOL    HW2 4947   4.866   2.078   0.145
 1350SOL     OW 4948   3.254   1.102   4.361
 1350SOL    HW1 4949   3.207   1.157   4.430
 1350SOL    HW2 4950   3.276   1.159   4.282
 1351SOL     OW 4951   1.479   1.617   3.743
 1351SOL    HW1 4952   1.442   1.529   3.774
 1351SOL    HW2 4953   1.488   1.679   3.821
 1352SOL     OW 4954   1.245   6.058   4.616
 1352SOL    HW1 4955   1.230   6.041   4.713
 1352SOL    HW2 4956   1.338   6.094   4.602
 1353SOL     OW 4957   2.593   3.019   5.600
 1353SOL    HW1 4958   2.663   2.966   5.551
 1353SOL    HW2 4959   2.552   3.085   5.537
 1354SOL     OW 4960   0.170   6.735   6.750
 1354SOL    HW1 4961   0.092   6.680   6.719
 1354SOL    HW2 4962   0.228   6.680   6.810
 1355SOL     OW 4963   4.305   3.246   6.986
 1355SOL    HW1 4964   4.240   3.187   6.939
 1355SOL    HW2 4965   4.264   3.280   0.047
 1356SOL     OW 4966   3.449   2.787   2.029
 1356SOL    HW1 4967   3.383   2.713   2.045
 1356SOL    HW2 4968   3.519   2.755   1.966
 1357SOL     OW 4969   3.550   2.164   5.492
 1357SOL    HW1 4970   3.466   2.166   5.438
 1357SOL    HW2 4971   3.527   2.152   5.589
 1358SOL     OW 4972   1.990   3.205   5.879
 1358SOL    HW1 4973   1.962   3.246   5.966
 1358SOL    HW2 4974   1.909   3.187   5.822
 1359SOL     OW 4975   0.223   1.669   6.710
 1359SOL    HW1 4976   0.281   1.748   6.690
 1359SOL    HW2 4977   0.154   1.659   6.638
 1360SOL     OW 4978   3.417   3.418   4.246
 1360SOL    HW1 4979   3.318   3.431   4.237
 1360SOL    HW2 4980   3.436   3.331   4.290
 1361SOL     OW 4981   0.963   6.586   0.807
 1361SOL    HW1 4982   0.942   6.573   0.903
 1361SOL    HW2 4983   1.007   6.504   0.770
 1362SOL     OW 4984   3.381   1.321   6.814
 1362SOL    HW1 4985   3.417   1.279   6.731
 1362SOL    HW2 4986   3.369   1.419   6.799
 1363SOL     OW 4987   6.621   6.409   0.950
 1363SOL    HW1 4988   6.603   6.451   0.861
 1363SOL    HW2 4989   6.547   6.430   1.013
 1364SOL     OW 4990   1.062   3.353   1.186
 1364SOL    HW1 4991   1.073   3.450   1.166
 1364SOL    HW2 4992   1.150   3.307   1.177
 1365SOL     OW 4993   1.443   3.487   6.410
 1365SOL    HW1 4994   1.516   3.548   6.440
 1365SOL    HW2 4995   1.354   3.527   6.432
 1366SOL     OW 4996   3.747   0.708   1.309
 1366SOL    HW1 4997   3.647   0.708   1.317
 1366SOL    HW2 4998   3.788   0.728   1.398
 1367SOL     OW 4999   0.930   6.833   4.389
 1367SOL    HW1 5000   1.011   6.830   4.330
 1367SOL    HW2 5001   0.900   6.928   4.399
 1368SOL     OW 5002   1.434   6.172   4.848
 1368SOL    HW1 5003   1.462   6.263   4.878
 1368SOL    HW2 5004   1.504   6.133   4.789
 1369SOL     OW 5005   2.314   5.816   3.542
 1369SOL    HW1 5006   2.291   5.905   3.501
 1369SOL    HW2 5007   2.237   5.754   3.533
 1370SOL     OW 5008   0.198   2.964   2.894
 1370SOL    HW1 5009   0.232   2.966   2.800
 1370SOL    HW2 5010   0.238   3.040   2.945
 1371SOL     OW 5011   5.994   1.749   6.392
 1371SOL    HW1 5012   6.050   1.826   6.361
 1371SOL    HW2 5013   5.962   1.767   6.485
 1372SOL     OW 5014   5.067   2.593   1.817
 1372SOL    HW1 5015   5.029   2.681   1.844
 1372SOL    HW2 5016   5.000   2.542   1.762
 1373SOL     OW 5017   5.002   2.379   1.290
 1373SOL    HW1 5018   5.040   2.467   1.262
 1373SOL    HW2 5019   4.911   2.368   1.249
 1374SOL     OW 5020   4.011   3.861   2.782
 1374SOL    HW1 5021   4.031   3.845   2.878
 1374SOL    HW2 5022   4.003   3.774   2.734
 1375SOL     OW 5023   5.272   4.269   5.145
 1375SOL    HW1 5024   5.173   4.257   5.155
 1375SOL    HW2 5025   5.291   4.320   5.061
 1376SOL     OW 5026   3.197   4.534   5.792
 1376SOL    HW1 5027   3.218   4.631   5.775
 1376SOL    HW2 5028   3.260   4.498   5.861
 1377SOL     OW 5029   1.151   1.844   3.385
 1377SOL    HW1 5030   1.063   1.797   3.380
 1377SOL    HW2 5031   1.219   1.784   3.427
 1378SOL     OW 5032   4.388   2.035   4.326
 1378SOL    HW1 5033   4.488   2.042   4.328
 1378SOL    HW2 5034   4.361   1.975   4.251
 1379SOL     OW 5035   4.901   5.824   6.714
 1379SOL    HW1 5036   4.894   5.883   6.634
 1379SOL    HW2 5037   4.809   5.796   6.743
 1380SOL     OW 5038   6.857   6.296   3.714
 1380SOL    HW1 5039   6.875   6.274   3.810
 1380SOL    HW2 5040   6.931   6.261   3.658
 1381SOL     OW 5041   6.779   2.847   6.033
 1381SOL    HW1 5042   6.781   2.823   6.130
 1381SOL    HW2 5043   6.708   2.915   6.016
 1382SOL     OW 5044   4.413   1.761   6.079
 1382SOL    HW1 5045   4.403   1.815   5.996
 1382SOL    HW2 5046   4.324   1.757   6.126
 1383SOL     OW 5047   6.265   0.370   0.880
 1383SOL    HW1 5048   6.281   0.453   0.826
 1383SOL    HW2 5049   6.288   0.388   0.976
 1384SOL     OW 5050   5.873   2.477   2.367
 1384SOL    HW1 5051   5.790   2.514   2.324
 1384SOL    HW2 5052   5.890   2.385   2.333
 1385SOL     OW 5053   6.585   6.353   1.786
 1385SOL    HW1 5054   6.646   6.402   1.724
 1385SOL    HW2 5055   6.508   6.315   1.735
 1386SOL     OW 5056   2.105   0.046   3.925
 1386SOL    HW1 5057   2.054   0.040   4.011
 1386SOL    HW2 5058   2.186   7.012   3.930
 1387SOL     OW 5059   1.146   5.851   1.794
 1387SOL    HW1 5060   1.114   5.809   1.878
 1387SOL    HW2 5061   1.208   5.790   1.746
 1388SOL     OW 5062   6.550   0.960   1.850
 1388SOL    HW1 5063   6.589   0.938   1.760
 1388SOL    HW2 5064   6.505   0.879   1.887
 1389SOL     OW 5065   6.236   1.302   1.655
 1389SOL    HW1 5066   6.166   1.310   1.726
 1389SOL    HW2 5067   6.322   1.338   1.690
 1390SOL     OW 5068   1.158   1.606   4.369
 1390SOL    HW1 5069   1.188   1.525   4.418
 1390SOL    HW2 5070   1.157   1.684   4.432
 1391SOL     OW 5071   0.909   2.730   3.262
 1391SOL    HW1 5072   0.820   2.695   3.231
 1391SOL    HW2 5073   0.929   2.816   3.216
 1392SOL     OW 5074   5.475   4.917   4.312
 1392SOL    HW1 5075   5.487   4.861   4.395
 1392SOL    HW2 5076   5.497   4.861   4.232
 1393SOL     OW 5077   3.732   4.708   6.886
 1393SOL    HW1 5078   3.727   4.714   6.986
 1393SOL    HW2 5079   3.653   4.753   6.846
 1394SOL     OW 5080   1.163   6.395   6.951
 1394SOL    HW1 5081   1.238   6.460   6.943
 1394SOL    HW2 5082   1.164   6.333   6.872
 1395SOL     OW 5083   4.084   4.774   6.338
 1395SOL    HW1 5084   4.100   4.822   6.425
 1395SOL    HW2 5085   4.125   4.683   6.342
 1396SOL     OW 5086   5.452   5.889   3.763
 1396SOL    HW1 5087   5.493   5.834   3.691
 1396SOL    HW2 5088   5.450   5.985   3.735
 1397SOL     OW 5089   5.522   6.213   5.109
 1397SOL    HW1 5090   5.443   6.250   5.058
 1397SOL    HW2 5091   5.552   6.279   5.177
 1398SOL     OW 5092   1.563   0.189   4.886
 1398SOL    HW1 5093   1.572   0.205   4.984
 1398SOL    HW2 5094   1.653   0.192   4.843
 1399SOL     OW 5095   3.813   5.184   2.472
 1399SOL    HW1 5096   3.795   5.184   2.374
 1399SOL    HW2 5097   3.797   5.092   2.509
 1400SOL     OW 5098   1.076   0.287   2.999
 1400SOL    HW1 5099   1.134   0.352   2.951
 1400SOL    HW2 5100   1.087   0.196   2.959
 1401SOL     OW 5101   6.495   2.336   4.271
 1401SOL    HW1 5102   6.515   2.243   4.302
 1401SOL    HW2 5103   6.396   2.352   4.277
 1402SOL     OW 5104   5.634   2.462   0.095
 1402SOL    HW1 5105   5.660   2.513   0.176
 1402SOL    HW2 5106   5.688   2.493   0.017
 1403SOL     OW 5107   3.514   0.528   1.919
 1403SOL    HW1 5108   3.544   0.499   2.010
 1403SOL    HW2 5109   3.435   0.588   1.928
 1404SOL     OW 5110   4.946   1.278   0.223
 1404SOL    HW1 5111   4.944   1.294   0.124
 1404SOL    HW2 5112   5.036   1.305   0.259
 1405SOL     OW 5113   3.533   2.667   1.297
 1405SOL    HW1 5114   3.626   2.693   1.323
 1405SOL    HW2 5115   3.528   2.658   1.197
 1406SOL     OW 5116   0.776   3.733   2.455
 1406SOL    HW1 5117   0.862   3.731   2.506
 1406SOL    HW2 5118   0.710   3.791   2.503
 1407SOL     OW 5119   0.107   2.930   2.406
 1407SOL    HW1 5120   0.070   3.023   2.395
 1407SOL    HW2 5121   0.039   2.864   2.374
 1408SOL     OW 5122   6.467   5.814   6.287
 1408SOL    HW1 5123   6.381   5.777   6.323
 1408SOL    HW2 5124   6.514   5.866   6.358
 1409SOL     OW 5125   0.224   1.468   3.983
 1409SOL    HW1 5126   0.175   1.386   4.015
 1409SOL    HW2 5127   0.254   1.521   4.062
 1410SOL     OW 5128   6.414   1.733   6.813
 1410SOL    HW1 5129   6.465   1.659   6.769
 1410SOL    HW2 5130   6.322   1.700   6.835
 1411SOL     OW 5131   1.894   0.696   1.432
 1411SOL    HW1 5132   1.953   0.641   1.491
 1411SOL    HW2 5133   1.849   0.636   1.365
 1412SOL     OW 5134   1.558   2.595   0.001
 1412SOL    HW1 5135   1.638   2.544   0.035
 1412SOL    HW2 5136   1.500   2.535   6.972
 1413SOL     OW 5137   2.988   6.796   3.330
 1413SOL    HW1 5138   3.012   6.792   3.427
 1413SOL    HW2 5139   3.057   6.746   3.277
 1414SOL     OW 5140   1.358   1.113   2.402
 1414SOL    HW1 5141   1.317   1.090   2.490
 1414SOL    HW2 5142   1.411   1.197   2.410
 1415SOL     OW 5143   5.612   6.611   4.936
 1415SOL    HW1 5144   5.633   6.591   5.032
 1415SOL    HW2 5145   5.591   6.527   4.888
 1416SOL     OW 5146   4.854   5.530   3.532
 1416SOL    HW1 5147   4.889   5.609   3.583
 1416SOL    HW2 5148   4.754   5.531   3.535
 1417SOL     OW 5149   3.726   2.878   5.855
 1417SOL    HW1 5150   3.637   2.905   5.892
 1417SOL    HW2 5151   3.799   2.920   5.909
 1418SOL     OW 5152   3.406   3.956   3.391
 1418SOL    HW1 5153   3.340   3.899   3.341
 1418SOL    HW2 5154   3.498   3.940   3.355
 1419SOL     OW 5155   3.453   6.482   3.920
 1419SOL    HW1 5156   3.541   6.530   3.925
 1419SOL    HW2 5157   3.387   6.527   3.980
 1420SOL     OW 5158   0.719   5.943   2.647
 1420SOL    HW1 5159   0.635   5.983   2.683
 1420SOL    HW2 5160   0.737   5.856   2.691
 1421SOL     OW 5161   3.948   0.970   2.960
 1421SOL    HW1 5162   3.952   0.978   2.861
 1421SOL    HW2 5163   3.972   0.877   2.988
 1422SOL     OW 5164   2.646   6.188   0.824
 1422SOL    HW1 5165   2.672   6.150   0.736
 1422SOL    HW2 5166   2.559   6.237   0.815
 1423SOL     OW 5167   5.170   0.949   2.315
 1423SOL    HW1 5168   5.251   0.951   2.257
 1423SOL    HW2 5169   5.090   0.981   2.264
 1424SOL     OW 5170   6.671   5.293   2.507
 1424SOL    HW1 5171   6.678   5.352   2.588
 1424SOL    HW2 5172   6.648   5.200   2.536
 1425SOL     OW 5173   1.883   0.607   4.549
 1425SOL    HW1 5174   1.956   0.660   4.593
 1425SOL    HW2 5175   1.909   0.585   4.456
 1426SOL     OW 5176   1.677   1.313   5.679
 1426SOL    HW1 5177   1.581   1.296   5.660
 1426SOL    HW2 5178   1.695   1.411   5.678
 1427SOL     OW 5179   5.429   1.903   6.015
 1427SOL    HW1 5180   5.350   1.955   6.049
 1427SOL    HW2 5181   5.470   1.951   5.938
 1428SOL     OW 5182   5.516   0.991   0.561
 1428SOL    HW1 5183   5.546   0.916   0.502
 1428SOL    HW2 5184   5.544   1.078   0.520
 1429SOL     OW 5185   5.432   6.026   0.095
 1429SOL    HW1 5186   5.483   6.018   0.181
 1429SOL    HW2 5187   5.478   5.973   0.024
 1430SOL     OW 5188   2.863   4.753   2.618
 1430SOL    HW1 5189   2.863   4.737   2.717
 1430SOL    HW2 5190   2.770   4.741   2.583
 1431SOL     OW 5191   1.588   6.986   0.929
 1431SOL    HW1 5192   1.595   0.056   0.965
 1431SOL    HW2 5193   1.645   6.925   0.984
 1432SOL     OW 5194   3.311   0.262   1.685
 1432SOL    HW1 5195   3.383   0.318   1.726
 1432SOL    HW2 5196   3.237   0.250   1.751
 1433SOL     OW 5197   5.183   0.075   3.854
 1433SOL    HW1 5198   5.147   7.016   3.896
 1433SOL    HW2 5199   5.217   0.137   3.925
 1434SOL     OW 5200   1.233   1.129   5.060
 1434SOL    HW1 5201   1.261   1.056   5.122
 1434SOL    HW2 5202   1.133   1.133   5.056
 1435SOL     OW 5203   0.042   2.292   3.399
 1435SOL    HW1 5204   0.051   2.282   3.299
 1435SOL    HW2 5205   0.024   2.387   3.422
 1436SOL     OW 5206   4.972   3.487   0.976
 1436SOL    HW1 5207   4.877   3.519   0.977
 1436SOL    HW2 5208   5.006   3.487   0.882
 1437SOL     OW 5209   4.364   1.121   2.456
 1437SOL    HW1 5210   4.313   1.113   2.371
 1437SOL    HW2 5211   4.359   1.036   2.507
 1438SOL     OW 5212   2.581   0.405   1.912
 1438SOL    HW1 5213   2.590   0.486   1.970
 1438SOL    HW2 5214   2.538   0.331   1.965
 1439SOL     OW 5215   0.393   5.649   1.813
 1439SOL    HW1 5216   0.454   5.598   1.752
 1439SOL    HW2 5217   0.410   5.747   1.802
 1440SOL     OW 5218   2.433   2.790   1.486
 1440SOL    HW1 5219   2.379   2.865   1.448
 1440SOL    HW2 5220   2.462   2.812   1.579
 1441SOL     OW 5221   5.169   5.771   6.686
 1441SOL    HW1 5222   5.071   5.775   6.668
 1441SOL    HW2 5223   5.205   5.864   6.692
 1442SOL     OW 5224   5.057   5.478   1.320
 1442SOL    HW1 5225   5.103   5.452   1.235
 1442SOL    HW2 5226   4.961   5.452   1.315
 1443SOL     OW 5227   6.992   2.745   2.091
 1443SOL    HW1 5228   6.962   2.666   2.143
 1443SOL    HW2 5229   6.945   2.827   2.124
 1444SOL     OW 5230   0.725   6.272   5.736
 1444SOL    HW1 5231   0.739   6.220   5.820
 1444SOL    HW2 5232   0.799   6.340   5.726
 1445SOL     OW 5233   0.729   2.749   1.012
 1445SOL    HW1 5234   0.757   2.845   1.000
 1445SOL    HW2 5235   0.640   2.746   1.058
 1446SOL     OW 5236   6.715   5.357   1.324
 1446SOL    HW1 5237   6.636   5.349   1.262
 1446SOL    HW2 5238   6.793   5.308   1.286
 1447SOL     OW 5239   6.627   6.550   4.054
 1447SOL    HW1 5240   6.598   6.476   3.993
 1447SOL    HW2 5241   6.672   6.621   4.000
 1448SOL     OW 5242   1.292   0.996   5.795
 1448SOL    HW1 5243   1.223   0.988   5.722
 1448SOL    HW2 5244   1.383   0.992   5.754
 1449SOL     OW 5245   1.879   3.120   2.775
 1449SOL    HW1 5246   1.931   3.071   2.706
 1449SOL    HW2 5247   1.851   3.056   2.847
 1450SOL     OW 5248   3.384   1.896   3.266
 1450SOL    HW1 5249   3.465   1.922   3.319
 1450SOL    HW2 5250   3.378   1.953   3.184
 1451SOL     OW 5251   3.802   1.129   2.408
 1451SOL    HW1 5252   3.770   1.152   2.500
 1451SOL    HW2 5253   3.756   1.186   2.340
 1452SOL     OW 5254   4.366   2.665   6.287
 1452SOL    HW1 5255   4.353   2.569   6.311
 1452SOL    HW2 5256   4.350   2.678   6.189
 1453SOL     OW 5257   1.180   3.451   5.243
 1453SOL    HW1 5258   1.172   3.429   5.146
 1453SOL    HW2 5259   1.157   3.548   5.257
 1454SOL     OW 5260   3.083   2.130   2.816
 1454SOL    HW1 5261   3.055   2.067   2.743
 1454SOL    HW2 5262   3.183   2.134   2.819
 1455SOL     OW 5263   0.187   5.367   2.196
 1455SOL    HW1 5264   0.198   5.451   2.144
 1455SOL    HW2 5265   0.107   5.375   2.256
 1456SOL     OW 5266   6.858   5.668   4.406
 1456SOL    HW1 5267   6.831   5.700   4.315
 1456SOL    HW2 5268   6.777   5.661   4.464
 1457SOL     OW 5269   1.209   5.442   5.801
 1457SOL    HW1 5270   1.257   5.528   5.783
 1457SOL    HW2 5271   1.260   5.390   5.870
 1458SOL     OW 5272   6.637   4.987   4.994
 1458SOL    HW1 5273   6.575   4.912   4.967
 1458SOL    HW2 5274   6.598   5.035   5.072
 1459SOL     OW 5275   6.460   5.848   5.151
 1459SOL    HW1 5276   6.410   5.916   5.204
 1459SOL    HW2 5277   6.554   5.842   5.186
 1460SOL     OW 5278   1.940   5.975   5.147
 1460SOL    HW1 5279   1.857   5.997   5.197
 1460SOL    HW2 5280   1.936   6.014   5.055
 1461SOL     OW 5281   6.006   3.544   3.578
 1461SOL    HW1 5282   5.968   3.453   3.561
 1461SOL    HW2 5283   6.099   3.536   3.614
 1462SOL     OW 5284   0.139   1.733   2.076
 1462SOL    HW1 5285   0.170   1.661   2.138
 1462SOL    HW2 5286   0.073   1.791   2.123
 1463SOL     OW 5287   1.512   4.831   6.866
 1463SOL    HW1 5288   1.544   4.807   6.957
 1463SOL    HW2 5289   1.538   4.925   6.844
 1464SOL     OW 5290   1.655   4.771   4.877
 1464SOL    HW1 5291   1.668   4.680   4.917
 1464SOL    HW2 5292   1.565   4.806   4.903
 1465SOL     OW 5293   1.490   2.454   5.921
 1465SOL    HW1 5294   1.528   2.400   5.847
 1465SOL    HW2 5295   1.390   2.452   5.916
 1466SOL     OW 5296   5.646   1.053   2.809
 1466SOL    HW1 5297   5.556   1.017   2.783
 1466SOL    HW2 5298   5.717   0.991   2.776
 1467SOL     OW 5299   0.156   0.184   3.731
 1467SOL    HW1 5300   0.253   0.192   3.707
 1467SOL    HW2 5301   0.148   0.165   3.829
 1468SOL     OW 5302   3.460   6.395   3.135
 1468SOL    HW1 5303   3.367   6.361   3.151
 1468SOL    HW2 5304   3.476   6.403   3.037
 1469SOL     OW 5305   5.949   3.991   3.377
 1469SOL    HW1 5306   5.936   4.072   3.434
 1469SOL    HW2 5307   5.861   3.960   3.343
 1470SOL     OW 5308   6.499   2.543   2.459
 1470SOL    HW1 5309   6.535   2.601   2.385
 1470SOL    HW2 5310   6.494   2.448   2.428
 1471SOL     OW 5311   4.819   0.389   6.539
 1471SOL    HW1 5312   4.864   0.336   6.467
 1471SOL    HW2 5313   4.756   0.330   6.589
 1472SOL     OW 5314   2.300   0.449   6.491
 1472SOL    HW1 5315   2.257   0.537   6.475
 1472SOL    HW2 5316   2.298   0.395   6.407
 1473SOL     OW 5317   1.880   5.710   3.342
 1473SOL    HW1 5318   1.870   5.785   3.277
 1473SOL    HW2 5319   1.975   5.705   3.373
 1474SOL     OW 5320   1.908   4.030   2.146
 1474SOL    HW1 5321   1.905   3.975   2.063
 1474SOL    HW2 5322   1.825   4.085   2.153
 1475SOL     OW 5323   6.211   6.943   6.494
 1475SOL    HW1 5324   6.242   6.850   6.474
 1475SOL    HW2 5325   6.226   6.962   6.591
 1476SOL     OW 5326   5.647   0.323   6.631
 1476SOL    HW1 5327   5.639   0.331   6.730
 1476SOL    HW2 5328   5.560   0.350   6.588
 1477SOL     OW 5329   3.302   4.227   1.796
 1477SOL    HW1 5330   3.320   4.266   1.705
 1477SOL    HW2 5331   3.387   4.228   1.849
 1478SOL     OW 5332   5.163   4.190   6.046
 1478SOL    HW1 5333   5.231   4.263   6.046
 1478SOL    HW2 5334   5.206   4.105   6.077
 1479SOL     OW 5335   4.688   4.712   1.164
 1479SOL    HW1 5336   4.722   4.744   1.252
 1479SOL    HW2 5337   4.725   4.769   1.091
 1480SOL     OW 5338   2.472   1.391   4.084
 1480SOL    HW1 5339   2.494   1.485   4.060
 1480SOL    HW2 5340   2.522   1.365   4.166
 1481SOL     OW 5341   4.224   1.583   5.917
 1481SOL    HW1 5342   4.306   1.635   5.943
 1481SOL    HW2 5343   4.164   1.641   5.862
 1482SOL     OW 5344   6.768   1.173   1.792
 1482SOL    HW1 5345   6.825   1.214   1.721
 1482SOL    HW2 5346   6.743   1.080   1.766
 1483SOL     OW 5347   6.453   0.223   0.162
 1483SOL    HW1 5348   6.520   0.149   0.148
 1483SOL    HW2 5349   6.501   0.305   0.192
 1484SOL     OW 5350   3.028   5.943   4.790
 1484SOL    HW1 5351   2.949   5.899   4.833
 1484SOL    HW2 5352   3.075   5.877   4.731
 1485SOL     OW 5353   5.140   3.835   3.105
 1485SOL    HW1 5354   5.059   3.853   3.162
 1485SOL    HW2 5355   5.162   3.917   3.052
 1486SOL     OW 5356   5.607   6.108   4.376
 1486SOL    HW1 5357   5.649   6.053   4.304
 1486SOL    HW2 5358   5.670   6.180   4.405
 1487SOL     OW 5359   6.216   0.857   0.085
 1487SOL    HW1 5360   6.312   0.854   0.111
 1487SOL    HW2 5361   6.186   0.952   0.077
 1488SOL     OW 5362   0.050   2.752   2.654
 1488SOL    HW1 5363   0.033   2.780   2.748
 1488SOL    HW2 5364   0.135   2.792   2.622
 1489SOL     OW 5365   3.126   5.282   6.599
 1489SOL    HW1 5366   3.071   5.366   6.595
 1489SOL    HW2 5367   3.066   5.204   6.615
 1490SOL     OW 5368   6.118   2.998   2.108
 1490SOL    HW1 5369   6.109   2.976   2.205
 1490SOL    HW2 5370   6.200   3.054   2.094
 1491SOL     OW 5371   5.179   2.926   4.384
 1491SOL    HW1 5372   5.147   2.858   4.450
 1491SOL    HW2 5373   5.279   2.923   4.381
 1492SOL     OW 5374   0.713   2.551   2.060
 1492SOL    HW1 5375   0.633   2.568   2.003
 1492SOL    HW2 5376   0.692   2.477   2.125
 1493SOL     OW 5377   6.118   2.228   6.706
 1493SOL    HW1 5378   6.156   2.158   6.646
 1493SOL    HW2 5379   6.140   2.206   6.801
 1494SOL     OW 5380   1.196   4.222   6.586
 1494SOL    HW1 5381   1.118   4.160   6.578
 1494SOL    HW2 5382   1.213   4.265   6.497
 1495SOL     OW 5383   6.598   4.218   3.724
 1495SOL    HW1 5384   6.681   4.273   3.726
 1495SOL    HW2 5385   6.534   4.252   3.793
 1496SOL     OW 5386   6.539   6.338   5.382
 1496SOL    HW1 5387   6.588   6.425   5.392
 1496SOL    HW2 5388   6.476   6.326   5.458
 1497SOL     OW 5389   4.858   2.510   2.646
 1497SOL    HW1 5390   4.787   2.556   2.592
 1497SOL    HW2 5391   4.819   2.431   2.693
 1498SOL     OW 5392   3.684   4.038   0.657
 1498SOL    HW1 5393   3.619   3.965   0.677
 1498SOL    HW2 5394   3.758   4.035   0.724
 1499SOL     OW 5395   0.834   4.488   4.079
 1499SOL    HW1 5396   0.911   4.537   4.120
 1499SOL    HW2 5397   0.865   4.398   4.048
 1500SOL     OW 5398   2.594   5.333   1.886
 1500SOL    HW1 5399   2.507   5.381   1.876
 1500SOL    HW2 5400   2.669   5.395   1.864
 1501SOL     OW 5401   5.669   1.175   0.870
 1501SOL    HW1 5402   5.595   1.232   0.833
 1501SOL    HW2 5403   5.653   1.159   0.967
 1502SOL     OW 5404   0.694   6.067   6.601
 1502SOL    HW1 5405   0.767   6.016   6.555
 1502SOL    HW2 5406   0.605   6.030   6.572
 1503SOL     OW 5407   6.905   5.691   1.552
 1503SOL    HW1 5408   6.847   5.657   1.626
 1503SOL    HW2 5409   6.962   5.616   1.518
 1504SOL     OW 5410   1.834   0.063   3.098
 1504SOL    HW1 5411   1.865   7.015   3.160
 1504SOL    HW2 5412   1.864   0.152   3.132
 1505SOL     OW 5413   7.014   4.775   4.945
 1505SOL    HW1 5414   0.071   4.741   4.994
 1505SOL    HW2 5415   6.931   4.739   4.988
 1506SOL     OW 5416   1.487   0.812   1.129
 1506SOL    HW1 5417   1.572   0.764   1.107
 1506SOL    HW2 5418   1.476   0.890   1.068
 1507SOL     OW 5419   2.539   2.159   3.169
 1507SOL    HW1 5420   2.559   2.102   3.089
 1507SOL    HW2 5421   2.441   2.157   3.186
 1508SOL     OW 5422   1.648   0.735   2.241
 1508SOL    HW1 5423   1.575   0.668   2.226
 1508SOL    HW2 5424   1.609   0.827   2.241
 1509SOL     OW 5425   4.509   1.627   4.371
 1509SOL    HW1 5426   4.569   1.549   4.354
 1509SOL    HW2 5427   4.453   1.609   4.452
 1510SOL     OW 5428   3.071   6.841   5.246
 1510SOL    HW1 5429   3.115   6.809   5.162
 1510SOL    HW2 5430   3.014   6.768   5.284
 1511SOL     OW 5431   3.804   4.345   5.555
 1511SOL    HW1 5432   3.704   4.342   5.562
 1511SOL    HW2 5433   3.836   4.261   5.512
 1512SOL     OW 5434   5.028   6.363   0.820
 1512SOL    HW1 5435   4.966   6.313   0.881
 1512SOL    HW2 5436   5.004   6.460   0.820
 1513SOL     OW 5437   2.875   0.329   5.704
 1513SOL    HW1 5438   2.944   0.381   5.653
 1513SOL    HW2 5439   2.785   0.347   5.665
 1514SOL     OW 5440   3.062   1.768   6.800
 1514SOL    HW1 5441   3.058   1.863   6.770
 1514SOL    HW2 5442   3.107   1.763   6.889
 1515SOL     OW 5443   3.565   0.902   2.591
 1515SOL    HW1 5444   3.545   0.956   2.673
 1515SOL    HW2 5445   3.509   0.819   2.592
 1516SOL     OW 5446   6.440   6.797   6.236
 1516SOL    HW1 5447   6.445   6.777   6.334
 1516SOL    HW2 5448   6.496   6.877   6.215
 1517SOL     OW 5449   2.549   6.175   3.066
 1517SOL    HW1 5450   2.457   6.196   3.032
 1517SOL    HW2 5451   2.609   6.253   3.050
 1518SOL     OW 5452   1.122   2.920   6.793
 1518SOL    HW1 5453   1.120   2.960   6.885
 1518SOL    HW2 5454   1.191   2.968   6.738
 1519SOL     OW 5455   0.664   4.209   6.756
 1519SOL    HW1 5456   0.712   4.296   6.747
 1519SOL    HW2 5457   0.574   4.215   6.713
 1520SOL     OW 5458   6.854   6.878   3.438
 1520SOL    HW1 5459   6.931   6.831   3.396
 1520SOL    HW2 5460   6.770   6.854   3.390
 1521SOL     OW 5461   1.922   4.967   6.740
 1521SOL    HW1 5462   1.948   5.013   6.655
 1521SOL    HW2 5463   1.891   5.035   6.807
 1522SOL     OW 5464   5.579   6.472   4.163
 1522SOL    HW1 5465   5.530   6.557   4.146
 1522SOL    HW2 5466   5.518   6.406   4.207
 1523SOL     OW 5467   2.564   5.968   0.545
 1523SOL    HW1 5468   2.485   5.981   0.604
 1523SOL    HW2 5469   2.542   5.903   0.473
 1524SOL     OW 5470   1.908   2.618   4.415
 1524SOL    HW1 5471   1.972   2.607   4.339
 1524SOL    HW2 5472   1.897   2.715   4.435
 1525SOL     OW 5473   5.565   4.122   6.686
 1525SOL    HW1 5474   5.604   4.170   6.608
 1525SOL    HW2 5475   5.631   4.057   6.722
 1526SOL     OW 5476   0.525   1.464   0.967
 1526SOL    HW1 5477   0.511   1.366   0.977
 1526SOL    HW2 5478   0.508   1.509   1.055
 1527SOL     OW 5479   5.103   1.216   4.220
 1527SOL    HW1 5480   5.025   1.173   4.266
 1527SOL    HW2 5481   5.077   1.307   4.188
 1528SOL     OW 5482   3.918   2.987   2.644
 1528SOL    HW1 5483   3.978   2.926   2.594
 1528SOL    HW2 5484   3.843   2.935   2.685
 1529SOL     OW 5485   4.087   1.064   5.388
 1529SOL    HW1 5486   4.170   1.116   5.370
 1529SOL    HW2 5487   4.022   1.079   5.313
 1530SOL     OW 5488   2.814   0.036   1.744
 1530SOL    HW1 5489   2.833   0.068   1.836
 1530SOL    HW2 5490   2.751   0.099   1.699
 1531SOL     OW 5491   5.159   6.410   4.687
 1531SOL    HW1 5492   5.175   6.364   4.600
 1531SOL    HW2 5493   5.211   6.495   4.689
 1532SOL     OW 5494   2.643   5.248   2.192
 1532SOL    HW1 5495   2.603   5.280   2.106
 1532SOL    HW2 5496   2.739   5.225   2.176
 1533SOL     OW 5497   5.624   6.367   1.359
 1533SOL    HW1 5498   5.555   6.411   1.301
 1533SOL    HW2 5499   5.606   6.269   1.364
 1534SOL     OW 5500   2.211   4.714   6.873
 1534SOL    HW1 5501   2.223   4.642   6.803
 1534SOL    HW2 5502   2.203   4.672   6.963
 1535SOL     OW 5503   4.997   4.492   3.594
 1535SOL    HW1 5504   5.053   4.567   3.557
 1535SOL    HW2 5505   4.921   4.530   3.646
 1536SOL     OW 5506   4.196   3.749   6.556
 1536SOL    HW1 5507   4.290   3.716   6.546
 1536SOL    HW2 5508   4.140   3.716   6.480
 1537SOL     OW 5509   3.231   5.340   2.436
 1537SOL    HW1 5510   3.173   5.313   2.513
 1537SOL    HW2 5511   3.327   5.329   2.461
 1538SOL     OW 5512   2.277   1.020   0.455
 1538SOL    HW1 5513   2.184   0.987   0.444
 1538SOL    HW2 5514   2.312   1.053   0.367
 1539SOL     OW 5515   6.875   3.091   0.792
 1539SOL    HW1 5516   6.922   3.002   0.798
 1539SOL    HW2 5517   6.899   3.147   0.871
 1540SOL     OW 5518   3.307   6.149   3.662
 1540SOL    HW1 5519   3.321   6.112   3.754
 1540SOL    HW2 5520   3.244   6.226   3.666
 1541SOL     OW 5521   4.536   2.352   5.753
 1541SOL    HW1 5522   4.536   2.448   5.783
 1541SOL    HW2 5523   4.628   2.326   5.724
 1542SOL     OW 5524   0.147   4.801   2.545
 1542SOL    HW1 5525   0.199   4.716   2.533
 1542SOL    HW2 5526   0.074   4.786   2.611
 1543SOL     OW 5527   3.172   5.330   0.766
 1543SOL    HW1 5528   3.094   5.331   0.828
 1543SOL    HW2 5529   3.178   5.241   0.721
 1544SOL     OW 5530   4.143   3.308   4.121
 1544SOL    HW1 5531   4.141   3.225   4.177
 1544SOL    HW2 5532   4.112   3.286   4.029
 1545SOL     OW 5533   6.080   5.301   1.109
 1545SOL    HW1 5534   6.171   5.329   1.141
 1545SOL    HW2 5535   6.013   5.317   1.181
 1546SOL     OW 5536   6.435   6.748   5.398
 1546SOL    HW1 5537   6.505   6.734   5.328
 1546SOL    HW2 5538   6.477   6.788   5.480
 1547SOL     OW 5539   1.375   3.312   6.222
 1547SOL    HW1 5540   1.451   3.303   6.159
 1547SOL    HW2 5541   1.399   3.375   6.296
 1548SOL     OW 5542   6.390   2.097   0.310
 1548SOL    HW1 5543   6.420   2.173   0.252
 1548SOL    HW2 5544   6.294   2.078   0.293
 1549SOL     OW 5545   5.039   0.961   4.561
 1549SOL    HW1 5546   4.941   0.950   4.578
 1549SOL    HW2 5547   5.084   0.994   4.644
 1550SOL     OW 5548   2.896   3.757   4.294
 1550SOL    HW1 5549   2.912   3.773   4.391
 1550SOL    HW2 5550   2.801   3.776   4.272
 1551SOL     OW 5551   6.908   5.617   5.776
 1551SOL    HW1 5552   6.938   5.712   5.767
 1551SOL    HW2 5553   6.916   5.587   5.871
 1552SOL     OW 5554   1.702   4.300   1.435
 1552SOL    HW1 5555   1.799   4.281   1.421
 1552SOL    HW2 5556   1.676   4.273   1.527
 1553SOL     OW 5557   1.931   1.884   5.498
 1553SOL    HW1 5558   1.946   1.799   5.448
 1553SOL    HW2 5559   2.013   1.942   5.491
 1554SOL     OW 5560   4.456   1.830   3.107
 1554SOL    HW1 5561   4.401   1.839   3.024
 1554SOL    HW2 5562   4.532   1.768   3.089
 1555SOL     OW 5563   5.917   5.618   5.616
 1555SOL    HW1 5564   5.966   5.537   5.585
 1555SOL    HW2 5565   5.907   5.616   5.716
 1556SOL     OW 5566   1.777   1.021   5.792
 1556SOL    HW1 5567   1.785   1.121   5.801
 1556SOL    HW2 5568   1.866   0.983   5.766
 1557SOL     OW 5569   0.909   1.874   5.983
 1557SOL    HW1 5570   0.891   1.846   6.078
 1557SOL    HW2 5571   0.868   1.807   5.921
 1558SOL     OW 5572   6.845   6.614   4.902
 1558SOL    HW1 5573   6.859   6.712   4.895
 1558SOL    HW2 5574   6.750   6.592   4.878
 1559SOL     OW 5575   1.871   1.203   6.234
 1559SOL    HW1 5576   1.820   1.236   6.314
 1559SOL    HW2 5577   1.831   1.242   6.151
 1560SOL     OW 5578   0.117   0.735   0.443
 1560SOL    HW1 5579   0.074   0.754   0.531
 1560SOL    HW2 5580   0.181   0.659   0.454
 1561SOL     OW 5581   5.772   6.027   1.686
 1561SOL    HW1 5582   5.699   5.971   1.725
 1561SOL    HW2 5583   5.856   6.012   1.738
 1562SOL     OW 5584   5.487   0.402   4.315
 1562SOL    HW1 5585   5.579   0.378   4.284
 1562SOL    HW2 5586   5.430   0.320   4.320
 1563SOL     OW 5587   3.058   0.032   6.033
 1563SOL    HW1 5588   3.078   6.964   6.068
 1563SOL    HW2 5589   2.961   0.039   6.010
 1564SOL     OW 5590   1.689   2.419   2.520
 1564SOL    HW1 5591   1.761   2.383   2.578
 1564SOL    HW2 5592   1.730   2.462   2.439
 1565SOL     OW 5593   6.024   4.746   1.061
 1565SOL    HW1 5594   5.943   4.792   1.024
 1565SOL    HW2 5595   6.072   4.809   1.123
 1566SOL     OW 5596   6.171   4.915   2.440
 1566SOL    HW1 5597   6.077   4.943   2.418
 1566SOL    HW2 5598   6.234   4.955   2.374
 1567SOL     OW 5599   6.916   5.852   5.300
 1567SOL    HW1 5600   6.943   5.806   5.215
 1567SOL    HW2 5601   6.832   5.810   5.335
 1568SOL     OW 5602   0.190   6.881   0.717
 1568SOL    HW1 5603   0.102   6.841   0.742
 1568SOL    HW2 5604   0.263   6.832   0.764
 1569SOL     OW 5605   3.178   6.049   5.102
 1569SOL    HW1 5606   3.209   6.136   5.064
 1569SOL    HW2 5607   3.207   5.975   5.042
 1570SOL     OW 5608   3.130   2.075   1.995
 1570SOL    HW1 5609   3.077   2.159   2.008
 1570SOL    HW2 5610   3.072   1.996   2.014
 1571SOL     OW 5611   7.013   3.124   0.552
 1571SOL    HW1 5612   6.944   3.093   0.618
 1571SOL    HW2 5613   0.039   3.045   0.517
 1572SOL     OW 5614   0.455   5.690   3.578
 1572SOL    HW1 5615   0.473   5.616   3.513
 1572SOL    HW2 5616   0.427   5.651   3.666
 1573SOL     OW 5617   4.698   6.804   0.315
 1573SOL    HW1 5618   4.759   6.878   0.342
 1573SOL    HW2 5619   4.606   6.840   0.299
 1574SOL     OW 5620   5.323   3.555   1.888
 1574SOL    HW1 5621   5.283   3.465   1.906
 1574SOL    HW2 5622   5.263   3.626   1.925
 1575SOL     OW 5623   3.676   2.301   0.311
 1575SOL    HW1 5624   3.607   2.278   0.379
 1575SOL    HW2 5625   3.702   2.218   0.261
 1576SOL     OW 5626   6.271   5.106   3.051
 1576SOL    HW1 5627   6.245   5.047   3.128
 1576SOL    HW2 5628   6.193   5.165   3.027
 1577SOL     OW 5629   1.527   0.543   0.620
 1577SOL    HW1 5630   1.558   0.537   0.525
 1577SOL    HW2 5631   1.569   0.622   0.664
 1578SOL     OW 5632   5.943   5.964   4.457
 1578SOL    HW1 5633   5.868   5.901   4.437
 1578SOL    HW2 5634   5.993   5.984   4.373
 1579SOL     OW 5635   6.799   0.729   3.189
 1579SOL    HW1 5636   6.843   0.762   3.105
 1579SOL    HW2 5637   6.776   0.632   3.178
 1580SOL     OW 5638   3.544   4.373   5.594
 1580SOL    HW1 5639   3.476   4.364   5.521
 1580SOL    HW2 5640   3.530   4.459   5.642
 1581SOL     OW 5641   6.100   3.386   4.519
 1581SOL    HW1 5642   6.031   3.379   4.446
 1581SOL    HW2 5643   6.119   3.483   4.536
 1582SOL     OW 5644   5.842   6.542   4.150
 1582SOL    HW1 5645   5.752   6.498   4.155
 1582SOL    HW2 5646   5.831   6.641   4.159
 1583SOL     OW 5647   1.920   2.941   1.614
 1583SOL    HW1 5648   1.834   2.899   1.586
 1583SOL    HW2 5649   1.965   2.981   1.533
 1584SOL     OW 5650   2.611   6.992   6.387
 1584SOL    HW1 5651   2.594   6.976   6.484
 1584SOL    HW2 5652   2.677   6.924   6.353
 1585SOL     OW 5653   5.572   1.102   6.363
 1585SOL    HW1 5654   5.628   1.167   6.415
 1585SOL    HW2 5655   5.625   1.018   6.347
 1586SOL     OW 5656   4.008   3.092   2.963
 1586SOL    HW1 5657   4.031   3.012   2.908
 1586SOL    HW2 5658   4.006   3.067   3.060
 1587SOL     OW 5659   1.724   6.688   5.984
 1587SOL    HW1 5660   1.668   6.636   6.048
 1587SOL    HW2 5661   1.673   6.769   5.954
 1588SOL     OW 5662   6.010   4.234   0.313
 1588SOL    HW1 5663   5.950   4.172   0.364
 1588SOL    HW2 5664   5.957   4.311   0.277
 1589SOL     OW 5665   5.180   4.481   3.213
 1589SOL    HW1 5666   5.256   4.417   3.219
 1589SOL    HW2 5667   5.209   4.563   3.164
 1590SOL     OW 5668   2.290   5.955   4.581
 1590SOL    HW1 5669   2.293   5.964   4.481
 1590SOL    HW2 5670   2.339   5.872   4.608
 1591SOL     OW 5671   2.174   3.389   0.203
 1591SOL    HW1 5672   2.201   3.441   0.122
 1591SOL    HW2 5673   2.133   3.303   0.174
 1592SOL     OW 5674   3.778   3.616   4.039
 1592SOL    HW1 5675   3.686   3.638   4.070
 1592SOL    HW2 5676   3.819   3.548   4.101
 1593SOL     OW 5677   1.582   4.206   4.158
 1593SOL    HW1 5678   1.679   4.219   4.180
 1593SOL    HW2 5679   1.574   4.138   4.085
 1594SOL     OW 5680   0.397   5.668   2.714
 1594SOL    HW1 5681   0.482   5.681   2.663
 1594SOL    HW2 5682   0.410   5.701   2.808
 1595SOL     OW 5683   6.824   3.700   4.678
 1595SOL    HW1 5684   6.810   3.742   4.588
 1595SOL    HW2 5685   6.842   3.602   4.667
 1596SOL     OW 5686   2.880   4.836   6.705
 1596SOL    HW1 5687   2.935   4.755   6.682
 1596SOL    HW2 5688   2.839   4.825   6.795
 1597SOL     OW 5689   2.730   6.917   0.958
 1597SOL    HW1 5690   2.693   6.850   0.894
 1597SOL    HW2 5691   2.825   6.937   0.933
 1598SOL     OW 5692   6.777   5.905   1.654
 1598SOL    HW1 5693   6.809   5.951   1.737
 1598SOL    HW2 5694   6.847   5.840   1.623
 1599SOL     OW 5695   2.853   5.443   0.456
 1599SOL    HW1 5696   2.948   5.420   0.433
 1599SOL    HW2 5697   2.841   5.438   0.555
 1600SOL     OW 5698   3.576   1.746   4.867
 1600SOL    HW1 5699   3.629   1.679   4.918
 1600SOL    HW2 5700   3.537   1.703   4.786
 1601SOL     OW 5701   2.007   5.236   4.919
 1601SOL    HW1 5702   2.016   5.150   4.869
 1601SOL    HW2 5703   2.060   5.307   4.873
 1602SOL     OW 5704   0.163   3.512   1.980
 1602SOL    HW1 5705   0.191   3.528   1.885
 1602SOL    HW2 5706   0.171   3.415   2.001
 1603SOL     OW 5707   6.085   6.797   0.419
 1603SOL    HW1 5708   6.180   6.795   0.450
 1603SOL    HW2 5709   6.024   6.793   0.498
 1604SOL     OW 5710   0.851   5.308   4.516
 1604SOL    HW1 5711   0.859   5.332   4.419
 1604SOL    HW2 5712   0.811   5.385   4.566
 1605SOL     OW 5713   4.629   5.242   2.592
 1605SOL    HW1 5714   4.689   5.322   2.592
 1605SOL    HW2 5715   4.671   5.168   2.645
 1606SOL     OW 5716   5.858   5.585   4.571
 1606SOL    HW1 5717   5.798   5.578   4.651
 1606SOL    HW2 5718   5.840   5.671   4.523
 1607SOL     OW 5719   4.976   3.465   1.697
 1607SOL    HW1 5720   5.028   3.469   1.612
 1607SOL    HW2 5721   4.935   3.374   1.707
 1608SOL     OW 5722   2.615   6.942   1.199
 1608SOL    HW1 5723   2.660   6.907   1.117
 1608SOL    HW2 5724   2.527   6.982   1.175
 1609SOL     OW 5725   5.553   1.487   4.972
 1609SOL    HW1 5726   5.645   1.472   4.935
 1609SOL    HW2 5727   5.559   1.510   5.069
 1610SOL     OW 5728   4.690   6.525   3.230
 1610SOL    HW1 5729   4.664   6.621   3.244
 1610SOL    HW2 5730   4.659   6.495   3.140
 1611SOL     OW 5731   4.212   4.043   1.443
 1611SOL    HW1 5732   4.121   4.078   1.418
 1611SOL    HW2 5733   4.213   4.023   1.541
 1612SOL     OW 5734   3.184   0.539   4.587
 1612SOL    HW1 5735   3.114   0.546   4.659
 1612SOL    HW2 5736   3.141   0.510   4.502
 1613SOL     OW 5737   2.136   0.499   1.513
 1613SOL    HW1 5738   2.166   0.427   1.451
 1613SOL    HW2 5739   2.209   0.566   1.525
 1614SOL     OW 5740   6.866   2.142   5.255
 1614SOL    HW1 5741   6.782   2.170   5.208
 1614SOL    HW2 5742   6.874   2.043   5.253
 1615SOL     OW 5743   6.701   5.700   5.361
 1615SOL    HW1 5744   6.615   5.726   5.405
 1615SOL    HW2 5745   6.716   5.602   5.373
 1616SOL     OW 5746   2.340   1.978   6.329
 1616SOL    HW1 5747   2.391   1.902   6.289
 1616SOL    HW2 5748   2.403   2.051   6.354
 1617SOL     OW 5749   3.013   1.217   3.648
 1617SOL    HW1 5750   2.932   1.273   3.663
 1617SOL    HW2 5751   3.025   1.198   3.551
 1618SOL     OW 5752   5.246   2.870   2.317
 1618SOL    HW1 5753   5.296   2.793   2.357
 1618SOL    HW2 5754   5.307   2.948   2.305
 1619SOL     OW 5755   1.530   2.777   4.932
 1619SOL    HW1 5756   1.610   2.788   4.873
 1619SOL    HW2 5757   1.505   2.865   4.972
 1620SOL     OW 5758   3.463   5.886   1.644
 1620SOL    HW1 5759   3.479   5.954   1.716
 1620SOL    HW2 5760   3.421   5.930   1.565
 1621SOL     OW 5761   2.124   2.739   1.658
 1621SOL    HW1 5762   2.127   2.724   1.559
 1621SOL    HW2 5763   2.063   2.816   1.678
 1622SOL     OW 5764   2.223   2.225   5.175
 1622SOL    HW1 5765   2.243   2.216   5.272
 1622SOL    HW2 5766   2.126   2.204   5.159
 1623SOL     OW 5767   2.301   2.099   4.574
 1623SOL    HW1 5768   2.308   2.146   4.486
 1623SOL    HW2 5769   2.207   2.069   4.588
 1624SOL     OW 5770   2.049   0.662   0.452
 1624SOL    HW1 5771   1.977   0.669   0.522
 1624SOL    HW2 5772   2.125   0.723   0.476
 1625SOL     OW 5773   1.017   6.826   1.148
 1625SOL    HW1 5774   0.976   6.843   1.238
 1625SOL    HW2 5775   0.961   6.760   1.098
 1626SOL     OW 5776   2.661   3.153   6.076
 1626SOL    HW1 5777   2.687   3.101   5.995
 1626SOL    HW2 5778   2.737   3.156   6.141
 1627SOL     OW 5779   4.771   4.301   3.493
 1627SOL    HW1 5780   4.684   4.326   3.450
 1627SOL    HW2 5781   4.782   4.351   3.578
 1628SOL     OW 5782   3.377   3.700   0.281
 1628SOL    HW1 5783   3.365   3.640   0.360
 1628SOL    HW2 5784   3.466   3.681   0.239
 1629SOL     OW 5785   2.868   2.305   2.811
 1629SOL    HW1 5786   2.818   2.291   2.896
 1629SOL    HW2 5787   2.962   2.275   2.823
 1630SOL     OW 5788   5.943   4.858   4.122
 1630SOL    HW1 5789   6.015   4.913   4.165
 1630SOL    HW2 5790   5.856   4.908   4.126
 1631SOL     OW 5791   1.111   0.213   6.083
 1631SOL    HW1 5792   1.047   0.264   6.141
 1631SOL    HW2 5793   1.163   0.276   6.026
 1632SOL     OW 5794   4.149   6.588   6.733
 1632SOL    HW1 5795   4.164   6.685   6.715
 1632SOL    HW2 5796   4.100   6.577   6.819
 1633SOL     OW 5797   6.413   4.124   2.824
 1633SOL    HW1 5798   6.456   4.213   2.811
 1633SOL    HW2 5799   6.355   4.127   2.905
 1634SOL     OW 5800   3.417   0.997   1.152
 1634SOL    HW1 5801   3.435   1.006   1.250
 1634SOL    HW2 5802   3.432   1.085   1.107
 1635SOL     OW 5803   1.633   4.315   3.304
 1635SOL    HW1 5804   1.561   4.249   3.328
 1635SOL    HW2 5805   1.592   4.394   3.259
 1636SOL     OW 5806   3.093   6.152   0.748
 1636SOL    HW1 5807   3.064   6.114   0.660
 1636SOL    HW2 5808   3.187   6.124   0.768
 1637SOL     OW 5809   0.906   3.080   2.797
 1637SOL    HW1 5810   1.005   3.085   2.784
 1637SOL    HW2 5811   0.879   2.985   2.814
 1638SOL     OW 5812   1.214   2.372   6.110
 1638SOL    HW1 5813   1.120   2.343   6.130
 1638SOL    HW2 5814   1.217   2.418   6.022
 1639SOL     OW 5815   4.135   4.926   2.710
 1639SOL    HW1 5816   4.139   5.025   2.722
 1639SOL    HW2 5817   4.161   4.881   2.795
 1640SOL     OW 5818   5.966   0.256   1.004
 1640SOL    HW1 5819   6.012   0.250   1.092
 1640SOL    HW2 5820   6.026   0.220   0.933
 1641SOL     OW 5821   6.599   2.709   4.625
 1641SOL    HW1 5822   6.659   2.663   4.690
 1641SOL    HW2 5823   6.627   2.684   4.532
 1642SOL     OW 5824   0.722   2.364   1.844
 1642SOL    HW1 5825   0.760   2.407   1.762
 1642SOL    HW2 5826   0.737   2.422   1.923
 1643SOL     OW 5827   3.761   0.426   5.958
 1643SOL    HW1 5828   3.773   0.449   5.862
 1643SOL    HW2 5829   3.738   0.329   5.966
 1644SOL     OW 5830   4.074   1.233   1.167
 1644SOL    HW1 5831   3.995   1.279   1.127
 1644SOL    HW2 5832   4.118   1.177   1.097
 1645SOL     OW 5833   2.171   5.955   6.093
 1645SOL    HW1 5834   2.174   5.941   6.192
 1645SOL    HW2 5835   2.159   5.866   6.048
 1646SOL     OW 5836   2.536   3.472   0.251
 1646SOL    HW1 5837   2.549   3.570   0.262
 1646SOL    HW2 5838   2.460   3.442   0.310
 1647SOL     OW 5839   5.484   3.603   2.385
 1647SOL    HW1 5840   5.448   3.571   2.473
 1647SOL    HW2 5841   5.446   3.693   2.364
 1648SOL     OW 5842   2.944   0.711   3.207
 1648SOL    HW1 5843   3.034   0.752   3.220
 1648SOL    HW2 5844   2.949   0.612   3.218
 1649SOL     OW 5845   2.701   0.213   4.246
 1649SOL    HW1 5846   2.755   0.180   4.323
 1649SOL    HW2 5847   2.753   0.283   4.197
 1650SOL     OW 5848   2.874   0.074   4.420
 1650SOL    HW1 5849   2.785   0.051   4.459
 1650SOL    HW2 5850   2.940   0.088   4.494
 1651SOL     OW 5851   1.360   6.899   2.395
 1651SOL    HW1 5852   1.283   6.906   2.459
 1651SOL    HW2 5853   1.358   6.810   2.350
 1652SOL     OW 5854   3.649   3.395   1.875
 1652SOL    HW1 5855   3.716   3.469   1.883
 1652SOL    HW2 5856   3.558   3.434   1.862
 1653SOL     OW 5857   0.875   4.422   1.205
 1653SOL    HW1 5858   0.907   4.417   1.111
 1653SOL    HW2 5859   0.800   4.488   1.211
 1654SOL     OW 5860   0.761   2.171   4.033
 1654SOL    HW1 5861   0.739   2.184   3.936
 1654SOL    HW2 5862   0.715   2.089   4.067
 1655SOL     OW 5863   4.438   4.238   5.304
 1655SOL    HW1 5864   4.368   4.178   5.344
 1655SOL    HW2 5865   4.393   4.308   5.248
 1656SOL     OW 5866   0.375   3.364   2.332
 1656SOL    HW1 5867   0.309   3.437   2.350
 1656SOL    HW2 5868   0.457   3.380   2.387
 1657SOL     OW 5869   1.300   0.910   5.231
 1657SOL    HW1 5870   1.371   0.933   5.297
 1657SOL    HW2 5871   1.210   0.915   5.275
 1658SOL     OW 5872   5.780   7.010   2.793
 1658SOL    HW1 5873   5.750   6.923   2.753
 1658SOL    HW2 5874   5.879   7.009   2.804
 1659SOL     OW 5875   5.300   2.365   6.763
 1659SOL    HW1 5876   5.226   2.389   6.700
 1659SOL    HW2 5877   5.262   2.347   6.854
 1660SOL     OW 5878   2.285   5.874   3.972
 1660SOL    HW1 5879   2.330   5.962   3.957
 1660SOL    HW2 5880   2.316   5.808   3.904
 1661SOL     OW 5881   2.265   0.606   3.541
 1661SOL    HW1 5882   2.240   0.554   3.460
 1661SOL    HW2 5883   2.246   0.703   3.527
 1662SOL     OW 5884   6.830   0.433   3.201
 1662SOL    HW1 5885   6.902   0.427   3.132
 1662SOL    HW2 5886   6.760   0.364   3.182
 1663SOL     OW 5887   1.764   0.327   3.371
 1663SOL    HW1 5888   1.698   0.398   3.398
 1663SOL    HW2 5889   1.779   0.265   3.448
 1664SOL     OW 5890   2.152   5.580   4.525
 1664SOL    HW1 5891   2.201   5.507   4.478
 1664SOL    HW2 5892   2.109   5.544   4.607
 1665SOL     OW 5893   6.794   1.097   3.827
 1665SOL    HW1 5894   6.813   1.194   3.841
 1665SOL    HW2 5895   6.739   1.063   3.903
 1666SOL     OW 5896   5.668   2.379   6.416
 1666SOL    HW1 5897   5.633   2.370   6.509
 1666SOL    HW2 5898   5.694   2.475   6.400
 1667SOL     OW 5899   0.081   0.271   1.156
 1667SOL    HW1 5900   0.122   0.273   1.247
 1667SOL    HW2 5901   7.013   0.230   1.162
 1668SOL     OW 5902   2.104   0.394   4.596
 1668SOL    HW1 5903   2.047   0.476   4.598
 1668SOL    HW2 5904   2.171   0.403   4.522
 1669SOL     OW 5905   5.288   5.960   5.927
 1669SOL    HW1 5906   5.351   5.959   6.005
 1669SOL    HW2 5907   5.322   5.899   5.856
 1670SOL     OW 5908   6.943   3.119   6.277
 1670SOL    HW1 5909   6.959   3.062   6.357
 1670SOL    HW2 5910   0.003   3.126   6.223
 1671SOL     OW 5911   5.352   5.516   0.221
 1671SOL    HW1 5912   5.306   5.605   0.221
 1671SOL    HW2 5913   5.326   5.465   0.303
 1672SOL     OW 5914   1.902   4.572   2.705
 1672SOL    HW1 5915   1.980   4.594   2.764
 1672SOL    HW2 5916   1.932   4.509   2.633
 1673SOL     OW 5917   6.440   2.984   3.575
 1673SOL    HW1 5918   6.350   2.988   3.530
 1673SOL    HW2 5919   6.508   2.954   3.509
 1674SOL     OW 5920   2.560   5.522   0.505
 1674SOL    HW1 5921   2.653   5.515   0.468
 1674SOL    HW2 5922   2.564   5.522   0.605
 1675SOL     OW 5923   4.968   1.515   6.608
 1675SOL    HW1 5924   5.062   1.487   6.631
 1675SOL    HW2 5925   4.938   1.584   6.674
 1676SOL     OW 5926   2.833   2.036   3.837
 1676SOL    HW1 5927   2.816   2.115   3.896
 1676SOL    HW2 5928   2.925   2.001   3.854
 1677SOL     OW 5929   5.503   0.091   5.851
 1677SOL    HW1 5930   5.501   0.041   5.764
 1677SOL    HW2 5931   5.590   0.140   5.858
 1678SOL     OW 5932   4.934   6.699   2.169
 1678SOL    HW1 5933   4.908   6.681   2.074
 1678SOL    HW2 5934   4.891   6.783   2.201
 1679SOL     OW 5935   6.130   4.802   0.256
 1679SOL    HW1 5936   6.166   4.713   0.229
 1679SOL    HW2 5937   6.164   4.825   0.347
 1680SOL     OW 5938   0.367   2.181   5.715
 1680SOL    HW1 5939   0.417   2.267   5.723
 1680SOL    HW2 5940   0.268   2.200   5.718
 1681SOL     OW 5941   4.310   5.510   0.023
 1681SOL    HW1 5942   4.241   5.557   0.078
 1681SOL    HW2 5943   4.348   5.573   6.979
 1682SOL     OW 5944   0.132   2.799   6.101
 1682SOL    HW1 5945   0.094   2.707   6.112
 1682SOL    HW2 5946   0.093   2.841   6.019
 1683SOL     OW 5947   5.591   5.151   5.859
 1683SOL    HW1 5948   5.523   5.149   5.785
 1683SOL    HW2 5949   5.648   5.069   5.853
 1684SOL     OW 5950   0.366   6.722   4.282
 1684SOL    HW1 5951   0.408   6.704   4.371
 1684SOL    HW2 5952   0.358   6.637   4.231
 1685SOL     OW 5953   1.189   1.745   0.318
 1685SOL    HW1 5954   1.218   1.792   0.234
 1685SOL    HW2 5955   1.101   1.701   0.303
 1686SOL     OW 5956   1.578   6.555   6.193
 1686SOL    HW1 5957   1.568   6.481   6.260
 1686SOL    HW2 5958   1.488   6.576   6.154
 1687SOL     OW 5959   3.112   6.368   2.309
 1687SOL    HW1 5960   3.154   6.301   2.247
 1687SOL    HW2 5961   3.063   6.319   2.381
 1688SOL     OW 5962   0.550   1.477   3.812
 1688SOL    HW1 5963   0.456   1.492   3.780
 1688SOL    HW2 5964   0.604   1.559   3.795
 1689SOL     OW 5965   3.038   1.396   1.537
 1689SOL    HW1 5966   2.983   1.423   1.458
 1689SOL    HW2 5967   3.029   1.298   1.552
 1690SOL     OW 5968   1.111   2.258   0.697
 1690SOL    HW1 5969   1.012   2.241   0.692
 1690SOL    HW2 5970   1.132   2.306   0.782
 1691SOL     OW 5971   4.573   4.378   3.802
 1691SOL    HW1 5972   4.639   4.312   3.840
 1691SOL    HW2 5973   4.499   4.393   3.868
 1692SOL     OW 5974   1.121   0.091   3.722
 1692SOL    HW1 5975   1.195   0.090   3.654
 1692SOL    HW2 5976   1.033   0.102   3.676
 1693SOL     OW 5977   3.652   2.133   4.086
 1693SOL    HW1 5978   3.679   2.152   3.992
 1693SOL    HW2 5979   3.719   2.173   4.149
 1694SOL     OW 5980   6.201   5.941   4.841
 1694SOL    HW1 5981   6.249   5.857   4.815
 1694SOL    HW2 5982   6.258   6.020   4.819
 1695SOL     OW 5983   3.722   1.448   6.333
 1695SOL    HW1 5984   3.809   1.454   6.284
 1695SOL    HW2 5985   3.698   1.538   6.369
 1696SOL     OW 5986   3.663   5.714   1.665
 1696SOL    HW1 5987   3.644   5.681   1.757
 1696SOL    HW2 5988   3.606   5.794   1.646
 1697SOL     OW 5989   1.243   1.648   2.298
 1697SOL    HW1 5990   1.204   1.585   2.231
 1697SOL    HW2 5991   1.302   1.597   2.361
 1698SOL     OW 5992   4.787   1.744   0.081
 1698SOL    HW1 5993   4.874   1.794   0.082
 1698SOL    HW2 5994   4.751   1.739   0.174
 1699SOL     OW 5995   2.349   4.683   1.283
 1699SOL    HW1 5996   2.431   4.627   1.271
 1699SOL    HW2 5997   2.376   4.779   1.291
 1700SOL     OW 5998   6.257   2.935   4.602
 1700SOL    HW1 5999   6.263   2.858   4.666
 1700SOL    HW2 6000   6.203   3.008   4.643
 1701SOL     OW 6001   6.226   3.089   4.881
 1701SOL    HW1 6002   6.162   3.107   4.807
 1701SOL    HW2 6003   6.197   3.138   4.963
 1702SOL     OW 6004   5.357   2.551   1.497
 1702SOL    HW1 6005   5.361   2.651   1.494
 1702SOL    HW2 6006   5.345   2.516   1.404
 1703SOL     OW 6007   2.005   3.529   0.834
 1703SOL    HW1 6008   2.052   3.460   0.780
 1703SOL    HW2 6009   1.907   3.526   0.815
 1704SOL     OW 6010   6.902   1.940   2.609
 1704SOL    HW1 6011   6.933   1.860   2.558
 1704SOL    HW2 6012   6.837   1.991   2.553
 1705SOL     OW 6013   3.998   3.253   2.681
 1705SOL    HW1 6014   4.012   3.291   2.589
 1705SOL    HW2 6015   3.984   3.155   2.675
 1706SOL     OW 6016   2.271   0.972   6.093
 1706SOL    HW1 6017   2.292   1.070   6.084
 1706SOL    HW2 6018   2.348   0.926   6.137
 1707SOL     OW 6019   5.174   1.709   2.383
 1707SOL    HW1 6020   5.177   1.667   2.474
 1707SOL    HW2 6021   5.222   1.650   2.319
 1708SOL     OW 6022   0.612   4.184   1.482
 1708SOL    HW1 6023   0.598   4.188   1.581
 1708SOL    HW2 6024   0.525   4.166   1.437
 1709SOL     OW 6025   3.686   5.419   3.464
 1709SOL    HW1 6026   3.596   5.375   3.472
 1709SOL    HW2 6027   3.679   5.496   3.400
 1710SOL     OW 6028   6.640   4.729   4.633
 1710SOL    HW1 6029   6.642   4.828   4.651
 1710SOL    HW2 6030   6.725   4.702   4.589
 1711SOL     OW 6031   1.218   4.866   5.378
 1711SOL    HW1 6032   1.254   4.951   5.339
 1711SOL    HW2 6033   1.283   4.792   5.361
 1712SOL     OW 6034   1.743   4.631   2.227
 1712SOL    HW1 6035   1.754   4.549   2.283
 1712SOL    HW2 6036   1.799   4.705   2.265
 1713SOL     OW 6037   2.592   3.187   0.937
 1713SOL    HW1 6038   2.500   3.206   0.971
 1713SOL    HW2 6039   2.648   3.270   0.941
 1714SOL     OW 6040   4.311   1.304   1.595
 1714SOL    HW1 6041   4.259   1.389   1.602
 1714SOL    HW2 6042   4.331   1.268   1.686
 1715SOL     OW 6043   1.055   3.075   3.296
 1715SOL    HW1 6044   1.016   3.030   3.216
 1715SOL    HW2 6045   0.982   3.101   3.359
 1716SOL     OW 6046   0.287   0.010   6.473
 1716SOL    HW1 6047   0.294   0.048   6.381
 1716SOL    HW2 6048   0.372   0.029   6.523
 1717SOL     OW 6049   3.038   0.510   6.669
 1717SOL    HW1 6050   3.034   0.609   6.654
 1717SOL    HW2 6051   3.040   0.463   6.581
 1718SOL     OW 6052   2.086   4.003   5.647
 1718SOL    HW1 6053   2.176   4.015   5.688
 1718SOL    HW2 6054   2.061   3.906   5.648
 1719SOL     OW 6055   2.025   3.587   1.110
 1719SOL    HW1 6056   2.032   3.535   1.025
 1719SOL    HW2 6057   2.096   3.555   1.174
 1720SOL     OW 6058   0.002   2.289   2.410
 1720SOL    HW1 6059   6.992   2.367   2.461
 1720SOL    HW2 6060   0.097   2.304   2.384
 1721SOL     OW 6061   1.239   6.610   4.287
 1721SOL    HW1 6062   1.279   6.571   4.369
 1721SOL    HW2 6063   1.302   6.599   4.210
 1722SOL     OW 6064   5.636   0.175   1.865
 1722SOL    HW1 6065   5.733   0.150   1.872
 1722SOL    HW2 6066   5.616   0.204   1.771
 1723SOL     OW 6067   5.743   1.548   3.287
 1723SOL    HW1 6068   5.743   1.534   3.188
 1723SOL    HW2 6069   5.677   1.487   3.330
 1724SOL     OW 6070   4.926   0.580   0.200
 1724SOL    HW1 6071   5.004   0.641   0.216
 1724SOL    HW2 6072   4.845   0.635   0.180
 1725SOL     OW 6073   3.671   5.766   2.353
 1725SOL    HW1 6074   3.762   5.802   2.336
 1725SOL    HW2 6075   3.674   5.666   2.347
 1726SOL     OW 6076   6.566   3.946   4.493
 1726SOL    HW1 6077   6.597   3.878   4.426
 1726SOL    HW2 6078   6.625   4.026   4.490
 1727SOL     OW 6079   2.744   4.147   5.578
 1727SOL    HW1 6080   2.759   4.129   5.675
 1727SOL    HW2 6081   2.680   4.224   5.568
 1728SOL     OW 6082   4.859   5.759   3.696
 1728SOL    HW1 6083   4.800   5.706   3.755
 1728SOL    HW2 6084   4.885   5.844   3.741
 1729SOL     OW 6085   0.461   3.103   2.405
 1729SOL    HW1 6086   0.419   3.186   2.367
 1729SOL    HW2 6087   0.481   3.117   2.502
 1730SOL     OW 6088   5.031   2.109   4.674
 1730SOL    HW1 6089   5.116   2.140   4.717
 1730SOL    HW2 6090   5.052   2.065   4.587
 1731SOL     OW 6091   0.689   6.858   0.020
 1731SOL    HW1 6092   0.768   6.875   6.985
 1731SOL    HW2 6093   0.716   6.800   0.097
 1732SOL     OW 6094   0.953   4.374   0.280
 1732SOL    HW1 6095   1.047   4.405   0.293
 1732SOL    HW2 6096   0.951   4.274   0.276
 1733SOL     OW 6097   1.286   4.505   6.704
 1733SOL    HW1 6098   1.287   4.456   6.617
 1733SOL    HW2 6099   1.361   4.473   6.762
 1734SOL     OW 6100   4.995   4.482   0.613
 1734SOL    HW1 6101   4.935   4.451   0.540
 1734SOL    HW2 6102   5.049   4.404   0.646
 1735SOL     OW 6103   4.815   5.264   6.952
 1735SOL    HW1 6104   4.843   5.322   0.005
 1735SOL    HW2 6105   4.809   5.318   6.869
 1736SOL     OW 6106   3.312   3.066   0.455
 1736SOL    HW1 6107   3.402   3.035   0.487
 1736SOL    HW2 6108   3.246   3.062   0.530
 1737SOL     OW 6109   1.225   5.937   3.043
 1737SOL    HW1 6110   1.184   5.854   3.082
 1737SOL    HW2 6111   1.157   6.010   3.041
 1738SOL     OW 6112   0.631   1.449   2.281
 1738SOL    HW1 6113   0.723   1.473   2.313
 1738SOL    HW2 6114   0.563   1.484   2.346
 1739SOL     OW 6115   4.044   1.686   6.212
 1739SOL    HW1 6116   4.061   1.596   6.172
 1739SOL    HW2 6117   3.946   1.697   6.227
 1740SOL     OW 6118   0.605   2.345   6.812
 1740SOL    HW1 6119   0.674   2.276   6.829
 1740SOL    HW2 6120   0.649   2.432   6.791
 1741SOL     OW 6121   0.930   0.713   2.475
 1741SOL    HW1 6122   0.965   0.637   2.531
 1741SOL    HW2 6123   0.995   0.731   2.401
 1742SOL     OW 6124   5.883   6.172   4.136
 1742SOL    HW1 6125   5.876   6.211   4.044
 1742SOL    HW2 6126   5.944   6.228   4.191
 1743SOL     OW 6127   4.670   1.005   0.472
 1743SOL    HW1 6128   4.644   0.911   0.494
 1743SOL    HW2 6129   4.737   1.038   0.539
 1744SOL     OW 6130   3.764   6.095   1.506
 1744SOL    HW1 6131   3.819   6.012   1.510
 1744SOL    HW2 6132   3.825   6.175   1.505
 1745SOL     OW 6133   7.014   2.646   5.263
 1745SOL    HW1 6134   6.950   2.703   5.212
 1745SOL    HW2 6135   7.000   2.550   5.236
 1746SOL     OW 6136   2.824   1.086   6.227
 1746SOL    HW1 6137   2.898   1.095   6.294
 1746SOL    HW2 6138   2.820   0.992   6.194
 1747SOL     OW 6139   4.233   6.931   5.218
 1747SOL    HW1 6140   4.207   6.980   5.134
 1747SOL    HW2 6141   4.166   6.860   5.237
 1748SOL     OW 6142   5.669   1.042   1.972
 1748SOL    HW1 6143   5.605   1.092   1.914
 1748SOL    HW2 6144   5.637   0.948   1.983
 1749SOL     OW 6145   4.934   0.506   6.228
 1749SOL    HW1 6146   4.958   0.412   6.256
 1749SOL    HW2 6147   4.836   0.519   6.237
 1750SOL     OW 6148   3.425   0.639   3.352
 1750SOL    HW1 6149   3.484   0.719   3.342
 1750SOL    HW2 6150   3.478   0.556   3.332
 1751SOL     OW 6151   1.963   5.773   4.404
 1751SOL    HW1 6152   1.912   5.817   4.478
 1751SOL    HW2 6153   2.046   5.731   4.440
 1752SOL     OW 6154   6.922   1.874   6.457
 1752SOL    HW1 6155   7.007   1.889   6.405
 1752SOL    HW2 6156   6.929   1.790   6.509
 1753SOL     OW 6157   1.898   6.235   2.563
 1753SOL    HW1 6158   1.845   6.275   2.638
 1753SOL    HW2 6159   1.941   6.151   2.593
 1754SOL     OW 6160   3.117   3.202   2.910
 1754SOL    HW1 6161   3.082   3.177   2.820
 1754SOL    HW2 6162   3.187   3.135   2.938
 1755SOL     OW 6163   6.575   4.436   0.109
 1755SOL    HW1 6164   6.516   4.404   0.182
 1755SOL    HW2 6165   6.557   4.384   0.025
 1756SOL     OW 6166   6.096   4.455   5.301
 1756SOL    HW1 6167   6.043   4.532   5.337
 1756SOL    HW2 6168   6.174   4.438   5.361
 1757SOL     OW 6169   3.875   0.629   5.149
 1757SOL    HW1 6170   3.934   0.682   5.210
 1757SOL    HW2 6171   3.799   0.687   5.118
 1758SOL     OW 6172   2.808   1.324   3.244
 1758SOL    HW1 6173   2.874   1.392   3.277
 1758SOL    HW2 6174   2.723   1.369   3.220
 1759SOL     OW 6175   6.841   6.019   6.196
 1759SOL    HW1 6176   6.802   5.945   6.142
 1759SOL    HW2 6177   6.937   5.999   6.215
 1760SOL     OW 6178   4.491   6.344   2.727
 1760SOL    HW1 6179   4.554   6.319   2.654
 1760SOL    HW2 6180   4.415   6.279   2.730
 1761SOL     OW 6181   5.472   3.094   1.501
 1761SOL    HW1 6182   5.516   3.159   1.439
 1761SOL    HW2 6183   5.449   3.011   1.451
 1762SOL     OW 6184   5.927   3.139   0.321
 1762SOL    HW1 6185   5.847   3.151   0.379
 1762SOL    HW2 6186   6.006   3.183   0.364
 1763SOL     OW 6187   2.307   2.921   4.499
 1763SOL    HW1 6188   2.400   2.912   4.463
 1763SOL    HW2 6189   2.306   2.990   4.571
 1764SOL     OW 6190   6.842   3.669   3.039
 1764SOL    HW1 6191   6.816   3.685   2.944
 1764SOL    HW2 6192   6.923   3.610   3.042
 1765SOL     OW 6193   1.609   3.517   5.678
 1765SOL    HW1 6194   1.656   3.503   5.591
 1765SOL    HW2 6195   1.532   3.579   5.665
 1766SOL     OW 6196   6.104   4.024   5.393
 1766SOL    HW1 6197   6.004   4.020   5.398
 1766SOL    HW2 6198   6.130   4.079   5.313
 1767SOL     OW 6199   6.409   5.046   1.306
 1767SOL    HW1 6200   6.463   5.116   1.259
 1767SOL    HW2 6201   6.445   4.955   1.284
 1768SOL     OW 6202   6.183   6.731   2.826
 1768SOL    HW1 6203   6.160   6.639   2.795
 1768SOL    HW2 6204   6.224   6.726   2.917
 1769SOL     OW 6205   4.484   1.138   3.730
 1769SOL    HW1 6206   4.387   1.120   3.717
 1769SOL    HW2 6207   4.538   1.077   3.672
 1770SOL     OW 6208   3.441   6.042   5.348
 1770SOL    HW1 6209   3.469   6.060   5.443
 1770SOL    HW2 6210   3.438   6.129   5.298
 1771SOL     OW 6211   4.567   6.065   6.783
 1771SOL    HW1 6212   4.613   6.152   6.799
 1771SOL    HW2 6213   4.485   6.059   6.841
 1772SOL     OW 6214   2.259   5.899   2.791
 1772SOL    HW1 6215   2.251   5.984   2.739
 1772SOL    HW2 6216   2.263   5.919   2.889
 1773SOL     OW 6217   1.278   6.837   0.159
 1773SOL    HW1 6218   1.290   6.751   0.208
 1773SOL    HW2 6219   1.310   6.826   0.064
 1774SOL     OW 6220   2.578   5.073   1.926
 1774SOL    HW1 6221   2.636   5.043   1.850
 1774SOL    HW2 6222   2.561   5.172   1.918
 1775SOL     OW 6223   0.762   5.153   0.756
 1775SOL    HW1 6224   0.811   5.233   0.724
 1775SOL    HW2 6225   0.727   5.170   0.848
 1776SOL     OW 6226   3.127   5.596   4.988
 1776SOL    HW1 6227   3.039   5.640   5.005
 1776SOL    HW2 6228   3.170   5.573   5.075
 1777SOL     OW 6229   3.876   6.325   0.390
 1777SOL    HW1 6230   3.919   6.401   0.438
 1777SOL    HW2 6231   3.885   6.242   0.445
 1778SOL     OW 6232   0.276   3.571   5.619
 1778SOL    HW1 6233   0.230   3.536   5.538
 1778SOL    HW2 6234   0.230   3.536   5.701
 1779SOL     OW 6235   3.779   6.964   5.628
 1779SOL    HW1 6236   3.844   6.993   5.699
 1779SOL    HW2 6237   3.733   0.021   5.591
 1780SOL     OW 6238   4.193   2.487   0.106
 1780SOL    HW1 6239   4.289   2.512   0.121
 1780SOL    HW2 6240   4.134   2.549   0.158
 1781SOL     OW 6241   2.076   5.679   3.529
 1781SOL    HW1 6242   2.141   5.606   3.507
 1781SOL    HW2 6243   2.034   5.661   3.618
 1782SOL     OW 6244   3.046   1.615   4.342
 1782SOL    HW1 6245   3.024   1.539   4.281
 1782SOL    HW2 6246   3.043   1.583   4.437
 1783SOL     OW 6247   1.884   5.636   0.483
 1783SOL    HW1 6248   1.863   5.634   0.385
 1783SOL    HW2 6249   1.965   5.691   0.498
 1784SOL     OW 6250   2.000   6.941   6.157
 1784SOL    HW1 6251   1.996   6.875   6.082
 1784SOL    HW2 6252   1.940   6.912   6.231
 1785SOL     OW 6253   6.684   5.349   2.224
 1785SOL    HW1 6254   6.765   5.295   2.203
 1785SOL    HW2 6255   6.650   5.325   2.315
 1786SOL     OW 6256   3.781   2.719   1.377
 1786SOL    HW1 6257   3.823   2.666   1.451
 1786SOL    HW2 6258   3.831   2.805   1.365
 1787SOL     OW 6259   3.392   0.307   5.360
 1787SOL    HW1 6260   3.344   0.325   5.446
 1787SOL    HW2 6261   3.394   0.208   5.344
 1788SOL     OW 6262   1.512   5.213   5.134
 1788SOL    HW1 6263   1.588   5.222   5.070
 1788SOL    HW2 6264   1.493   5.116   5.150
 1789SOL     OW 6265   5.439   6.278   0.020
 1789SOL    HW1 6266   5.445   6.185   0.055
 1789SOL    HW2 6267   5.507   6.335   0.067
 1790SOL     OW 6268   2.238   6.736   2.373
 1790SOL    HW1 6269   2.264   6.833   2.377
 1790SOL    HW2 6270   2.139   6.727   2.375
 1791SOL     OW 6271   0.413   6.677   3.559
 1791SOL    HW1 6272   0.426   6.767   3.602
 1791SOL    HW2 6273   0.377   6.689   3.466
 1792SOL     OW 6274   0.852   3.358   4.497
 1792SOL    HW1 6275   0.905   3.384   4.416
 1792SOL    HW2 6276   0.756   3.382   4.483
 1793SOL     OW 6277   0.228   0.563   3.830
 1793SOL    HW1 6278   0.162   0.492   3.853
 1793SOL    HW2 6279   0.181   0.639   3.784
 1794SOL     OW 6280   4.862   6.054   6.501
 1794SOL    HW1 6281   4.954   6.050   6.463
 1794SOL    HW2 6282   4.844   6.146   6.537
 1795SOL     OW 6283   1.396   3.617   6.863
 1795SOL    HW1 6284   1.362   3.565   6.942
 1795SOL    HW2 6285   1.478   3.573   6.827
 1796SOL     OW 6286   4.056   0.354   5.627
 1796SOL    HW1 6287   4.044   0.275   5.567
 1796SOL    HW2 6288   3.993   0.427   5.600
 1797SOL     OW 6289   0.232   1.539   1.884
 1797SOL    HW1 6290   0.329   1.515   1.898
 1797SOL    HW2 6291   0.213   1.626   1.929
 1798SOL     OW 6292   5.971   1.760   3.016
 1798SOL    HW1 6293   6.044   1.824   2.992
 1798SOL    HW2 6294   6.010   1.681   3.062
 1799SOL     OW 6295   2.601   0.731   0.055
 1799SOL    HW1 6296   2.643   0.656   0.005
 1799SOL    HW2 6297   2.503   0.735   0.032
 1800SOL     OW 6298   3.111   5.121   2.314
 1800SOL    HW1 6299   3.068   5.095   2.401
 1800SOL    HW2 6300   3.148   5.214   2.323
 1801SOL     OW 6301   5.667   6.893   0.485
 1801SOL    HW1 6302   5.623   6.807   0.509
 1801SOL    HW2 6303   5.646   6.961   0.555
 1802SOL     OW 6304   6.070   5.064   4.267
 1802SOL    HW1 6305   6.021   5.071   4.354
 1802SOL    HW2 6306   6.025   5.120   4.198
 1803SOL     OW 6307   6.216   4.884   0.524
 1803SOL    HW1 6308   6.143   4.934   0.571
 1803SOL    HW2 6309   6.267   4.830   0.590
 1804SOL     OW 6310   3.159   3.414   6.137
 1804SOL    HW1 6311   3.087   3.367   6.087
 1804SOL    HW2 6312   3.201   3.351   6.202
 1805SOL     OW 6313   6.228   2.853   6.940
 1805SOL    HW1 6314   6.307   2.914   6.929
 1805SOL    HW2 6315   6.170   2.886   7.015
 1806SOL     OW 6316   6.505   6.771   0.157
 1806SOL    HW1 6317   6.542   6.689   0.201
 1806SOL    HW2 6318   6.543   6.779   0.065
 1807SOL     OW 6319   6.910   2.071   5.559
 1807SOL    HW1 6320   6.852   2.127   5.500
 1807SOL    HW2 6321   7.000   2.058   5.516
 1808SOL     OW 6322   2.544   4.645   4.439
 1808SOL    HW1 6323   2.467   4.663   4.500
 1808SOL    HW2 6324   2.627   4.686   4.476
 1809SOL     OW 6325   3.830   0.254   6.594
 1809SOL    HW1 6326   3.810   0.182   6.660
 1809SOL    HW2 6327   3.772   0.334   6.614
 1810SOL     OW 6328   2.635   6.320   2.759
 1810SOL    HW1 6329   2.638   6.375   2.676
 1810SOL    HW2 6330   2.547   6.333   2.805
 1811SOL     OW 6331   5.855   5.671   3.156
 1811SOL    HW1 6332   5.951   5.693   3.137
 1811SOL    HW2 6333   5.801   5.755   3.155
 1812SOL     OW 6334   4.478   4.999   5.331
 1812SOL    HW1 6335   4.477   4.924   5.397
 1812SOL    HW2 6336   4.443   4.967   5.243
 1813SOL     OW 6337   6.702   6.052   5.542
 1813SOL    HW1 6338   6.743   6.051   5.451
 1813SOL    HW2 6339   6.748   6.120   5.599
 1814SOL     OW 6340   5.061   6.986   3.012
 1814SOL    HW1 6341   4.964   6.974   2.991
 1814SOL    HW2 6342   5.076   0.052   3.053
 1815SOL     OW 6343   0.153   1.328   2.949
 1815SOL    HW1 6344   0.060   1.365   2.957
 1815SOL    HW2 6345   0.216   1.386   2.999
 1816SOL     OW 6346   1.059   5.572   0.684
 1816SOL    HW1 6347   1.126   5.546   0.753
 1816SOL    HW2 6348   1.105   5.623   0.611
 1817SOL     OW 6349   1.832   4.921   1.987
 1817SOL    HW1 6350   1.878   4.916   1.898
 1817SOL    HW2 6351   1.899   4.944   2.057
 1818SOL     OW 6352   0.912   1.391   3.142
 1818SOL    HW1 6353   0.995   1.421   3.187
 1818SOL    HW2 6354   0.892   1.451   3.064
 1819SOL     OW 6355   1.176   4.202   2.705
 1819SOL    HW1 6356   1.150   4.295   2.731
 1819SOL    HW2 6357   1.221   4.157   2.783
 1820SOL     OW 6358   5.898   6.707   2.903
 1820SOL    HW1 6359   5.861   6.691   2.811
 1820SOL    HW2 6360   5.987   6.752   2.896
 1821SOL     OW 6361   1.811   1.849   3.087
 1821SOL    HW1 6362   1.724   1.800   3.096
 1821SOL    HW2 6363   1.798   1.927   3.025
 1822SOL     OW 6364   3.385   3.188   2.489
 1822SOL    HW1 6365   3.434   3.199   2.403
 1822SOL    HW2 6366   3.422   3.249   2.558
 1823SOL     OW 6367   4.243   0.148   2.263
 1823SOL    HW1 6368   4.245   0.151   2.163
 1823SOL    HW2 6369   4.335   0.127   2.297
 1824SOL     OW 6370   5.206   1.613   1.541
 1824SOL    HW1 6371   5.199   1.704   1.500
 1824SOL    HW2 6372   5.237   1.622   1.636
 1825SOL     OW 6373   0.744   6.993   1.839
 1825SOL    HW1 6374   0.828   0.013   1.808
 1825SOL    HW2 6375   0.744   6.897   1.809
 1826SOL     OW 6376   2.784   5.737   5.924
 1826SOL    HW1 6377   2.791   5.767   5.829
 1826SOL    HW2 6378   2.863   5.769   5.976
 1827SOL     OW 6379   5.538   0.127   0.691
 1827SOL    HW1 6380   5.614   0.088   0.743
 1827SOL    HW2 6381   5.565   0.214   0.652
 1828SOL     OW 6382   2.349   3.196   0.529
 1828SOL    HW1 6383   2.315   3.274   0.476
 1828SOL    HW2 6384   2.430   3.225   0.581
 1829SOL     OW 6385   5.366   5.122   2.434
 1829SOL    HW1 6386   5.354   5.204   2.490
 1829SOL    HW2 6387   5.315   5.046   2.476
 1830SOL     OW 6388   4.996   6.811   4.659
 1830SOL    HW1 6389   4.982   6.729   4.604
 1830SOL    HW2 6390   4.949   6.802   4.746
 1831SOL     OW 6391   5.063   1.220   3.293
 1831SOL    HW1 6392   4.980   1.243   3.243
 1831SOL    HW2 6393   5.128   1.296   3.286
 1832SOL     OW 6394   5.241   2.781   6.941
 1832SOL    HW1 6395   5.291   2.698   6.916
 1832SOL    HW2 6396   5.238   2.789   0.017
 1833SOL     OW 6397   5.786   1.946   5.797
 1833SOL    HW1 6398   5.777   2.045   5.788
 1833SOL    HW2 6399   5.879   1.918   5.774
 1834SOL     OW 6400   2.553   4.191   0.253
 1834SOL    HW1 6401   2.465   4.143   0.251
 1834SOL    HW2 6402   2.624   4.131   0.216
 1835SOL     OW 6403   1.923   4.797   0.045
 1835SOL    HW1 6404   1.903   4.828   0.138
 1835SOL    HW2 6405   1.982   4.863   7.023
 1836SOL     OW 6406   0.830   6.856   0.550
 1836SOL    HW1 6407   0.754   6.808   0.594
 1836SOL    HW2 6408   0.824   6.844   0.451
 1837SOL     OW 6409   0.398   2.657   4.744
 1837SOL    HW1 6410   0.315   2.713   4.745
 1837SOL    HW2 6411   0.463   2.695   4.678
 1838SOL     OW 6412   0.692   2.865   4.834
 1838SOL    HW1 6413   0.676   2.923   4.754
 1838SOL    HW2 6414   0.736   2.780   4.806
 1839SOL     OW 6415   1.190   1.484   6.857
 1839SOL    HW1 6416   1.181   1.430   6.773
 1839SOL    HW2 6417   1.101   1.521   6.882
 1840SOL     OW 6418   1.128   5.143   1.679
 1840SOL    HW1 6419   1.081   5.076   1.736
 1840SOL    HW2 6420   1.074   5.227   1.676
 1841SOL     OW 6421   1.326   2.878   3.733
 1841SOL    HW1 6422   1.347   2.781   3.721
 1841SOL    HW2 6423   1.249   2.888   3.796
 1842SOL     OW 6424   1.419   6.214   6.190
 1842SOL    HW1 6425   1.400   6.126   6.232
 1842SOL    HW2 6426   1.480   6.200   6.112
 1843SOL     OW 6427   4.411   1.847   5.573
 1843SOL    HW1 6428   4.422   1.784   5.496
 1843SOL    HW2 6429   4.456   1.933   5.552
 1844SOL     OW 6430   5.904   4.516   3.608
 1844SOL    HW1 6431   5.811   4.522   3.572
 1844SOL    HW2 6432   5.902   4.481   3.701
 1845SOL     OW 6433   4.604   6.472   0.913
 1845SOL    HW1 6434   4.527   6.529   0.941
 1845SOL    HW2 6435   4.622   6.404   0.983
 1846SOL     OW 6436   3.800   1.420   5.490
 1846SOL    HW1 6437   3.886   1.452   5.451
 1846SOL    HW2 6438   3.798   1.442   5.588
 1847SOL     OW 6439   1.634   5.934   6.535
 1847SOL    HW1 6440   1.695   5.965   6.462
 1847SOL    HW2 6441   1.660   5.978   6.621
 1848SOL     OW 6442   2.123   0.854   3.738
 1848SOL    HW1 6443   2.080   0.764   3.725
 1848SOL    HW2 6444   2.164   0.884   3.652
 1849SOL     OW 6445   2.453   0.741   6.502
 1849SOL    HW1 6446   2.358   0.738   6.472
 1849SOL    HW2 6447   2.466   0.677   6.578
 1850SOL     OW 6448   5.483   1.853   1.919
 1850SOL    HW1 6449   5.461   1.825   2.012
 1850SOL    HW2 6450   5.538   1.937   1.921
 1851SOL     OW 6451   6.644   4.318   2.257
 1851SOL    HW1 6452   6.721   4.372   2.289
 1851SOL    HW2 6453   6.610   4.356   2.171
 1852SOL     OW 6454   5.269   1.706   5.714
 1852SOL    HW1 6455   5.261   1.735   5.809
 1852SOL    HW2 6456   5.326   1.623   5.709
 1853SOL     OW 6457   0.912   5.025   0.983
 1853SOL    HW1 6458   0.936   5.122   0.988
 1853SOL    HW2 6459   0.988   4.973   0.945
 1854SOL     OW 6460   2.462   4.848   4.198
 1854SOL    HW1 6461   2.388   4.902   4.238
 1854SOL    HW2 6462   2.446   4.751   4.218
 1855SOL     OW 6463   6.099   4.665   1.621
 1855SOL    HW1 6464   6.158   4.614   1.683
 1855SOL    HW2 6465   6.036   4.722   1.674
 1856SOL     OW 6466   5.530   2.908   0.019
 1856SOL    HW1 6467   5.433   2.902   0.040
 1856SOL    HW2 6468   5.552   2.845   6.968
 1857SOL     OW 6469   5.492   1.440   3.134
 1857SOL    HW1 6470   5.503   1.494   3.051
 1857SOL    HW2 6471   5.545   1.355   3.126
 1858SOL     OW 6472   5.296   4.608   2.990
 1858SOL    HW1 6473   5.317   4.547   2.914
 1858SOL    HW2 6474   5.364   4.598   3.062
 1859SOL     OW 6475   6.072   1.568   3.176
 1859SOL    HW1 6476   6.090   1.650   3.230
 1859SOL    HW2 6477   6.092   1.486   3.231
 1860SOL     OW 6478   4.028   2.171   4.710
 1860SOL    HW1 6479   4.020   2.188   4.809
 1860SOL    HW2 6480   4.120   2.138   4.690
 1861SOL     OW 6481   4.946   5.689   2.215
 1861SOL    HW1 6482   4.866   5.746   2.195
 1861SOL    HW2 6483   4.916   5.607   2.265
 1862SOL     OW 6484   2.569   1.487   0.703
 1862SOL    HW1 6485   2.584   1.534   0.790
 1862SOL    HW2 6486   2.487   1.431   0.708
 1863SOL     OW 6487   2.066   1.797   1.319
 1863SOL    HW1 6488   2.146   1.772   1.266
 1863SOL    HW2 6489   1.984   1.785   1.264
 1864SOL     OW 6490   0.264   6.575   3.325
 1864SOL    HW1 6491   0.303   6.611   3.239
 1864SOL    HW2 6492   0.236   6.480   3.312
 1865SOL     OW 6493   5.280   3.354   6.488
 1865SOL    HW1 6494   5.347   3.329   6.417
 1865SOL    HW2 6495   5.198   3.297   6.478
 1866SOL     OW 6496   5.509   5.499   1.839
 1866SOL    HW1 6497   5.553   5.409   1.840
 1866SOL    HW2 6498   5.541   5.550   1.759
 1867SOL     OW 6499   1.215   4.627   6.083
 1867SOL    HW1 6500   1.216   4.528   6.097
 1867SOL    HW2 6501   1.159   4.671   6.154
 1868SOL     OW 6502   0.181   4.498   5.485
 1868SOL    HW1 6503   0.199   4.432   5.412
 1868SOL    HW2 6504   0.084   4.521   5.486
 1869SOL     OW 6505   5.955   1.297   4.414
 1869SOL    HW1 6506   5.927   1.236   4.340
 1869SOL    HW2 6507   6.013   1.247   4.478
 1870SOL     OW 6508   2.225   4.038   4.755
 1870SOL    HW1 6509   2.308   4.027   4.700
 1870SOL    HW2 6510   2.245   4.014   4.850
 1871SOL     OW 6511   1.656   0.614   0.988
 1871SOL    HW1 6512   1.562   0.639   0.965
 1871SOL    HW2 6513   1.672   0.519   0.961
 1872SOL     OW 6514   2.021   5.589   6.422
 1872SOL    HW1 6515   1.976   5.509   6.460
 1872SOL    HW2 6516   2.088   5.624   6.487
 1873SOL     OW 6517   5.086   6.931   6.689
 1873SOL    HW1 6518   5.145   6.993   6.636
 1873SOL    HW2 6519   5.041   6.983   6.762
 1874SOL     OW 6520   0.600   3.865   2.602
 1874SOL    HW1 6521   0.619   3.908   2.690
 1874SOL    HW2 6522   0.502   3.865   2.585
 1875SOL     OW 6523   0.558   6.690   2.308
 1875SOL    HW1 6524   0.472   6.656   2.345
 1875SOL    HW2 6525   0.553   6.790   2.301
 1876SOL     OW 6526   1.779   6.176   4.212
 1876SOL    HW1 6527   1.699   6.228   4.241
 1876SOL    HW2 6528   1.782   6.173   4.112
 1877SOL     OW 6529   0.426   7.001   3.940
 1877SOL    HW1 6530   0.413   6.902   3.936
 1877SOL    HW2 6531   0.338   0.022   3.960
 1878SOL     OW 6532   6.479   2.964   6.204
 1878SOL    HW1 6533   6.551   3.015   6.252
 1878SOL    HW2 6534   6.457   2.881   6.255
 1879SOL     OW 6535   2.128   5.204   6.172
 1879SOL    HW1 6536   2.204   5.203   6.106
 1879SOL    HW2 6537   2.057   5.140   6.142
 1880SOL     OW 6538   6.680   0.486   4.664
 1880SOL    HW1 6539   6.685   0.577   4.623
 1880SOL    HW2 6540   6.678   0.494   4.764
 1881SOL     OW 6541   6.880   2.319   6.582
 1881SOL    HW1 6542   6.850   2.262   6.505
 1881SOL    HW2 6543   6.975   2.295   6.605
 1882SOL     OW 6544   1.075   6.756   0.554
 1882SOL    HW1 6545   1.063   6.657   0.566
 1882SOL    HW2 6546   0.986   6.801   0.559
 1883SOL     OW 6547   0.458   2.082   3.742
 1883SOL    HW1 6548   0.393   2.132   3.685
 1883SOL    HW2 6549   0.412   2.049   3.824
 1884SOL     OW 6550   5.900   2.398   1.489
 1884SOL    HW1 6551   5.841   2.319   1.470
 1884SOL    HW2 6552   5.859   2.454   1.560
 1885SOL     OW 6553   3.173   1.215   4.598
 1885SOL    HW1 6554   3.165   1.314   4.609
 1885SOL    HW2 6555   3.202   1.174   4.685
 1886SOL     OW 6556   0.467   6.250   3.235
 1886SOL    HW1 6557   0.433   6.296   3.317
 1886SOL    HW2 6558   0.391   6.200   3.191
 1887SOL     OW 6559   2.727   5.503   6.441
 1887SOL    HW1 6560   2.647   5.464   6.486
 1887SOL    HW2 6561   2.700   5.580   6.384
 1888SOL     OW 6562   1.857   6.946   2.721
 1888SOL    HW1 6563   1.848   0.021   2.727
 1888SOL    HW2 6564   1.946   6.923   2.680
 1889SOL     OW 6565   0.021   3.695   2.678
 1889SOL    HW1 6566   0.034   3.710   2.580
 1889SOL    HW2 6567   6.947   3.705   2.700
 1890SOL     OW 6568   1.501   5.895   4.969
 1890SOL    HW1 6569   1.433   5.964   4.943
 1890SOL    HW2 6570   1.457   5.806   4.975
 1891SOL     OW 6571   4.088   3.204   3.551
 1891SOL    HW1 6572   4.069   3.108   3.530
 1891SOL    HW2 6573   4.098   3.255   3.466
 1892SOL     OW 6574   0.245   0.654   2.966
 1892SOL    HW1 6575   0.323   0.593   2.975
 1892SOL    HW2 6576   0.175   0.630   3.033
 1893SOL     OW 6577   4.000   3.129   4.267
 1893SOL    HW1 6578   3.977   3.093   4.176
 1893SOL    HW2 6579   3.933   3.094   4.333
 1894SOL     OW 6580   3.031   3.292   4.317
 1894SOL    HW1 6581   3.047   3.335   4.406
 1894SOL    HW2 6582   3.085   3.339   4.247
 1895SOL     OW 6583   1.024   6.003   1.378
 1895SOL    HW1 6584   1.094   6.060   1.335
 1895SOL    HW2 6585   1.007   6.036   1.470
 1896SOL     OW 6586   6.043   2.751   1.357
 1896SOL    HW1 6587   5.997   2.775   1.443
 1896SOL    HW2 6588   6.116   2.817   1.339
 1897SOL     OW 6589   1.878   4.286   3.455
 1897SOL    HW1 6590   1.865   4.243   3.544
 1897SOL    HW2 6591   1.790   4.300   3.411
 1898SOL     OW 6592   1.623   6.034   2.527
 1898SOL    HW1 6593   1.637   5.935   2.517
 1898SOL    HW2 6594   1.623   6.058   2.624
 1899SOL     OW 6595   6.957   0.865   2.206
 1899SOL    HW1 6596   6.896   0.921   2.151
 1899SOL    HW2 6597   0.005   0.923   2.246
 1900SOL     OW 6598   2.887   6.449   6.605
 1900SOL    HW1 6599   2.924   6.381   6.542
 1900SOL    HW2 6600   2.790   6.463   6.586
 1901SOL     OW 6601   3.342   2.884   2.795
 1901SOL    HW1 6602   3.381   2.875   2.703
 1901SOL    HW2 6603   3.279   2.809   2.811
 1902SOL     OW 6604   1.436   6.748   5.263
 1902SOL    HW1 6605   1.394   6.711   5.346
 1902SOL    HW2 6606   1.449   6.674   5.196
 1903SOL     OW 6607   1.294   1.616   4.088
 1903SOL    HW1 6608   1.244   1.633   4.172
 1903SOL    HW2 6609   1.327   1.702   4.050
 1904SOL     OW 6610   5.915   5.398   1.560
 1904SOL    HW1 6611   5.977   5.475   1.548
 1904SOL    HW2 6612   5.929   5.357   1.649
 1905SOL     OW 6613   0.560   2.991   4.083
 1905SOL    HW1 6614   0.554   2.939   3.998
 1905SOL    HW2 6615   0.475   3.041   4.098
 1906SOL     OW 6616   0.257   6.050   3.966
 1906SOL    HW1 6617   0.326   6.054   3.894
 1906SOL    HW2 6618   0.264   5.964   4.015
 1907SOL     OW 6619   5.957   3.043   0.889
 1907SOL    HW1 6620   6.014   2.968   0.855
 1907SOL    HW2 6621   5.964   3.121   0.827
 1908SOL     OW 6622   3.748   0.773   1.564
 1908SOL    HW1 6623   3.670   0.773   1.627
 1908SOL    HW2 6624   3.814   0.842   1.593
 1909SOL     OW 6625   6.327   5.570   5.334
 1909SOL    HW1 6626   6.369   5.624   5.408
 1909SOL    HW2 6627   6.373   5.592   5.248
 1910SOL     OW 6628   0.350   6.356   5.212
 1910SOL    HW1 6629   0.265   6.355   5.266
 1910SOL    HW2 6630   0.428   6.365   5.273
 1911SOL     OW 6631   5.551   6.184   4.048
 1911SOL    HW1 6632   5.608   6.266   4.047
 1911SOL    HW2 6633   5.610   6.103   4.057
 1912SOL     OW 6634   3.117   4.930   2.134
 1912SOL    HW1 6635   3.127   4.841   2.179
 1912SOL    HW2 6636   3.128   5.003   2.201
 1913SOL     OW 6637   3.139   4.215   6.354
 1913SOL    HW1 6638   3.200   4.271   6.410
 1913SOL    HW2 6639   3.084   4.275   6.295
 1914SOL     OW 6640   3.867   4.252   0.247
 1914SOL    HW1 6641   3.923   4.249   0.165
 1914SOL    HW2 6642   3.845   4.159   0.276
 1915SOL     OW 6643   3.874   2.340   6.881
 1915SOL    HW1 6644   3.855   2.271   6.811
 1915SOL    HW2 6645   3.935   2.301   6.950
 1916SOL     OW 6646   4.049   1.004   2.697
 1916SOL    HW1 6647   4.054   1.044   2.605
 1916SOL    HW2 6648   4.091   1.067   2.763
 1917SOL     OW 6649   2.332   3.816   1.404
 1917SOL    HW1 6650   2.257   3.810   1.470
 1917SOL    HW2 6651   2.407   3.869   1.443
 1918SOL     OW 6652   5.079   2.606   4.195
 1918SOL    HW1 6653   5.076   2.554   4.109
 1918SOL    HW2 6654   5.024   2.688   4.186
 1919SOL     OW 6655   6.442   1.903   6.265
 1919SOL    HW1 6656   6.530   1.857   6.259
 1919SOL    HW2 6657   6.384   1.856   6.331
 1920SOL     OW 6658   4.802   3.542   0.653
 1920SOL    HW1 6659   4.793   3.638   0.679
 1920SOL    HW2 6660   4.812   3.536   0.553
 1921SOL     OW 6661   3.032   2.435   7.007
 1921SOL    HW1 6662   3.030   2.535   7.012
 1921SOL    HW2 6663   3.113   2.401   0.032
 1922SOL     OW 6664   3.584   3.454   4.678
 1922SOL    HW1 6665   3.581   3.361   4.714
 1922SOL    HW2 6666   3.517   3.463   4.604
 1923SOL     OW 6667   3.277   0.625   3.669
 1923SOL    HW1 6668   3.363   0.659   3.709
 1923SOL    HW2 6669   3.212   0.700   3.661
 1924SOL     OW 6670   5.414   0.830   0.773
 1924SOL    HW1 6671   5.314   0.843   0.774
 1924SOL    HW2 6672   5.455   0.893   0.707
 1925SOL     OW 6673   1.162   4.193   0.957
 1925SOL    HW1 6674   1.114   4.121   1.007
 1925SOL    HW2 6675   1.229   4.152   0.895
 1926SOL     OW 6676   3.191   6.676   1.437
 1926SOL    HW1 6677   3.139   6.654   1.519
 1926SOL    HW2 6678   3.213   6.592   1.387
 1927SOL     OW 6679   2.199   5.484   0.708
 1927SOL    HW1 6680   2.112   5.441   0.683
 1927SOL    HW2 6681   2.272   5.416   0.706
 1928SOL     OW 6682   0.136   4.690   2.901
 1928SOL    HW1 6683   0.073   4.754   2.858
 1928SOL    HW2 6684   0.096   4.598   2.898
 1929SOL     OW 6685   3.829   0.671   3.419
 1929SOL    HW1 6686   3.849   0.574   3.432
 1929SOL    HW2 6687   3.803   0.711   3.507
 1930SOL     OW 6688   3.644   3.645   0.198
 1930SOL    HW1 6689   3.670   3.573   0.262
 1930SOL    HW2 6690   3.651   3.611   0.104
 1931SOL     OW 6691   6.704   3.771   3.262
 1931SOL    HW1 6692   6.727   3.700   3.329
 1931SOL    HW2 6693   6.743   3.746   3.173
 1932SOL     OW 6694   4.922   0.573   2.178
 1932SOL    HW1 6695   4.959   0.509   2.245
 1932SOL    HW2 6696   4.906   0.524   2.092
 1933SOL     OW 6697   1.807   1.102   1.308
 1933SOL    HW1 6698   1.762   1.091   1.396
 1933SOL    HW2 6699   1.879   1.171   1.315
 1934SOL     OW 6700   6.475   0.915   7.012
 1934SOL    HW1 6701   6.427   1.002   7.007
 1934SOL    HW2 6702   6.482   0.875   6.921
 1935SOL     OW 6703   6.016   5.096   3.913
 1935SOL    HW1 6704   5.927   5.053   3.927
 1935SOL    HW2 6705   6.087   5.041   3.956
 1936SOL     OW 6706   5.529   3.212   6.298
 1936SOL    HW1 6707   5.545   3.149   6.222
 1936SOL    HW2 6708   5.506   3.302   6.263
 1937SOL     OW 6709   0.795   4.793   6.637
 1937SOL    HW1 6710   0.831   4.700   6.623
 1937SOL    HW2 6711   0.738   4.794   6.720
 1938SOL     OW 6712   6.624   2.151   6.731
 1938SOL    HW1 6713   6.541   2.109   6.767
 1938SOL    HW2 6714   6.699   2.084   6.730
 1939SOL     OW 6715   0.171   0.358   4.411
 1939SOL    HW1 6716   0.115   0.414   4.471
 1939SOL    HW2 6717   0.266   0.359   4.443
 1940SOL     OW 6718   0.880   5.330   1.662
 1940SOL    HW1 6719   0.858   5.310   1.757
 1940SOL    HW2 6720   0.900   5.428   1.652
 1941SOL     OW 6721   5.939   0.549   4.210
 1941SOL    HW1 6722   6.016   0.601   4.246
 1941SOL    HW2 6723   5.853   0.596   4.232
 1942SOL     OW 6724   0.759   5.316   1.909
 1942SOL    HW1 6725   0.774   5.401   1.960
 1942SOL    HW2 6726   0.662   5.294   1.909
 1943SOL     OW 6727   1.220   3.268   4.118
 1943SOL    HW1 6728   1.312   3.282   4.155
 1943SOL    HW2 6729   1.226   3.216   4.034
 1944SOL     OW 6730   0.326   3.419   4.103
 1944SOL    HW1 6731   0.394   3.450   4.170
 1944SOL    HW2 6732   0.239   3.465   4.120
 1945SOL     OW 6733   5.316   1.533   2.249
 1945SOL    HW1 6734   5.392   1.469   2.260
 1945SOL    HW2 6735   5.270   1.515   2.162
 1946SOL     OW 6736   5.789   5.523   6.890
 1946SOL    HW1 6737   5.743   5.436   6.876
 1946SOL    HW2 6738   5.732   5.583   6.947
 1947SOL     OW 6739   5.679   5.604   2.443
 1947SOL    HW1 6740   5.688   5.590   2.542
 1947SOL    HW2 6741   5.582   5.615   2.420
 1948SOL     OW 6742   5.421   3.491   3.309
 1948SOL    HW1 6743   5.405   3.557   3.236
 1948SOL    HW2 6744   5.347   3.495   3.376
 1949SOL     OW 6745   3.566   4.174   6.375
 1949SOL    HW1 6746   3.644   4.208   6.427
 1949SOL    HW2 6747   3.536   4.245   6.311
 1950SOL     OW 6748   3.960   3.906   3.580
 1950SOL    HW1 6749   3.912   3.903   3.493
 1950SOL    HW2 6750   4.014   3.822   3.591
 1951SOL     OW 6751   6.899   5.590   6.047
 1951SOL    HW1 6752   6.883   5.508   6.101
 1951SOL    HW2 6753   6.986   5.632   6.073
 1952SOL     OW 6754   6.062   3.888   0.059
 1952SOL    HW1 6755   6.046   3.986   0.052
 1952SOL    HW2 6756   6.135   3.871   0.125
 1953SOL     OW 6757   0.151   0.778   6.885
 1953SOL    HW1 6758   0.240   0.738   6.906
 1953SOL    HW2 6759   0.079   0.730   6.935
 1954SOL     OW 6760   3.605   6.616   2.533
 1954SOL    HW1 6761   3.525   6.599   2.590
 1954SOL    HW2 6762   3.576   6.653   2.445
 1955SOL     OW 6763   6.522   3.474   4.368
 1955SOL    HW1 6764   6.499   3.504   4.461
 1955SOL    HW2 6765   6.619   3.452   4.364
 1956SOL     OW 6766   4.335   1.791   1.418
 1956SOL    HW1 6767   4.336   1.749   1.509
 1956SOL    HW2 6768   4.416   1.762   1.368
 1957SOL     OW 6769   6.780   2.960   4.546
 1957SOL    HW1 6770   6.734   2.908   4.617
 1957SOL    HW2 6771   6.715   3.023   4.503
 1958SOL     OW 6772   4.908   2.552   6.977
 1958SOL    HW1 6773   4.908   2.651   6.966
 1958SOL    HW2 6774   4.844   2.527   0.027
 1959SOL     OW 6775   1.547   1.477   6.073
 1959SOL    HW1 6776   1.541   1.521   5.983
 1959SOL    HW2 6777   1.531   1.379   6.063
 1960SOL     OW 6778   4.888   4.634   2.097
 1960SOL    HW1 6779   4.946   4.572   2.044
 1960SOL    HW2 6780   4.909   4.625   2.194
 1961SOL     OW 6781   0.574   3.789   4.376
 1961SOL    HW1 6782   0.671   3.801   4.396
 1961SOL    HW2 6783   0.520   3.824   4.452
 1962SOL     OW 6784   0.554   6.955   2.298
 1962SOL    HW1 6785   0.619   6.992   2.233
 1962SOL    HW2 6786   0.495   0.004   2.333
 1963SOL     OW 6787   1.003   1.673   7.015
 1963SOL    HW1 6788   1.088   1.710   0.030
 1963SOL    HW2 6789   0.985   1.583   0.032
 1964SOL     OW 6790   5.285   3.189   0.571
 1964SOL    HW1 6791   5.261   3.198   0.474
 1964SOL    HW2 6792   5.275   3.094   0.599
 1965SOL     OW 6793   5.388   4.696   5.047
 1965SOL    HW1 6794   5.347   4.614   5.007
 1965SOL    HW2 6795   5.328   4.775   5.031
 1966SOL     OW 6796   1.440   5.072   6.462
 1966SOL    HW1 6797   1.429   4.972   6.461
 1966SOL    HW2 6798   1.380   5.111   6.532
 1967SOL     OW 6799   6.709   2.390   4.499
 1967SOL    HW1 6800   6.758   2.477   4.498
 1967SOL    HW2 6801   6.625   2.399   4.446
 1968SOL     OW 6802   2.718   1.224   6.011
 1968SOL    HW1 6803   2.759   1.177   6.090
 1968SOL    HW2 6804   2.733   1.169   5.928
 1969SOL     OW 6805   0.131   6.106   2.004
 1969SOL    HW1 6806   0.126   6.186   1.945
 1969SOL    HW2 6807   0.106   6.131   2.098
 1970SOL     OW 6808   5.349   4.386   2.822
 1970SOL    HW1 6809   5.394   4.401   2.733
 1970SOL    HW2 6810   5.377   4.297   2.859
 1971SOL     OW 6811   1.415   5.237   4.368
 1971SOL    HW1 6812   1.465   5.151   4.382
 1971SOL    HW2 6813   1.443   5.303   4.437
 1972SOL     OW 6814   5.285   1.943   3.032
 1972SOL    HW1 6815   5.307   1.906   3.122
 1972SOL    HW2 6816   5.345   1.902   2.963
 1973SOL     OW 6817   4.528   2.225   0.474
 1973SOL    HW1 6818   4.502   2.320   0.492
 1973SOL    HW2 6819   4.524   2.172   0.559
 1974SOL     OW 6820   2.176   6.216   4.591
 1974SOL    HW1 6821   2.076   6.207   4.591
 1974SOL    HW2 6822   2.218   6.125   4.598
 1975SOL     OW 6823   2.271   2.570   2.474
 1975SOL    HW1 6824   2.271   2.670   2.481
 1975SOL    HW2 6825   2.360   2.535   2.503
 1976SOL     OW 6826   2.055   0.818   4.676
 1976SOL    HW1 6827   2.149   0.784   4.673
 1976SOL    HW2 6828   2.042   0.877   4.755
 1977SOL     OW 6829   1.098   4.177   6.871
 1977SOL    HW1 6830   1.064   4.270   6.881
 1977SOL    HW2 6831   1.060   4.136   6.788
 1978SOL     OW 6832   2.702   0.465   2.542
 1978SOL    HW1 6833   2.725   0.505   2.630
 1978SOL    HW2 6834   2.784   0.460   2.484
 1979SOL     OW 6835   5.578   3.466   6.710
 1979SOL    HW1 6836   5.510   3.528   6.749
 1979SOL    HW2 6837   5.618   3.411   6.783
 1980SOL     OW 6838   4.197   0.500   1.504
 1980SOL    HW1 6839   4.132   0.456   1.443
 1980SOL    HW2 6840   4.149   0.563   1.565
 1981SOL     OW 6841   4.335   2.427   1.979
 1981SOL    HW1 6842   4.301   2.342   1.938
 1981SOL    HW2 6843   4.293   2.505   1.934
 1982SOL     OW 6844   2.019   2.523   6.770
 1982SOL    HW1 6845   2.119   2.530   6.769
 1982SOL    HW2 6846   1.993   2.428   6.784
 1983SOL     OW 6847   0.058   2.172   1.570
 1983SOL    HW1 6848   0.079   2.098   1.506
 1983SOL    HW2 6849   6.986   2.166   1.598
 1984SOL     OW 6850   4.947   3.365   5.554
 1984SOL    HW1 6851   4.903   3.368   5.464
 1984SOL    HW2 6852   4.876   3.363   5.625
 1985SOL     OW 6853   5.616   5.284   4.432
 1985SOL    HW1 6854   5.709   5.302   4.402
 1985SOL    HW2 6855   5.613   5.277   4.532
 1986SOL     OW 6856   2.988   3.110   2.691
 1986SOL    HW1 6857   3.034   3.077   2.609
 1986SOL    HW2 6858   2.891   3.122   2.673
 1987SOL     OW 6859   1.962   1.587   2.231
 1987SOL    HW1 6860   2.015   1.575   2.315
 1987SOL    HW2 6861   2.017   1.636   2.163
 1988SOL     OW 6862   0.980   1.847   3.095
 1988SOL    HW1 6863   0.889   1.874   3.061
 1988SOL    HW2 6864   1.049   1.877   3.029
 1989SOL     OW 6865   3.102   5.379   3.799
 1989SOL    HW1 6866   3.143   5.462   3.760
 1989SOL    HW2 6867   3.172   5.309   3.810
 1990SOL     OW 6868   4.254   6.862   0.587
 1990SOL    HW1 6869   4.329   6.890   0.527
 1990SOL    HW2 6870   4.166   6.886   0.545
 1991SOL     OW 6871   2.943   5.507   2.046
 1991SOL    HW1 6872   2.933   5.415   2.084
 1991SOL    HW2 6873   2.982   5.502   1.954
 1992SOL     OW 6874   1.332   6.940   3.460
 1992SOL    HW1 6875   1.326   0.007   3.501
 1992SOL    HW2 6876   1.417   6.896   3.489
 1993SOL     OW 6877   1.447   1.124   1.782
 1993SOL    HW1 6878   1.489   1.110   1.692
 1993SOL    HW2 6879   1.455   1.220   1.808
 1994SOL     OW 6880   2.722   3.170   1.748
 1994SOL    HW1 6881   2.654   3.243   1.747
 1994SOL    HW2 6882   2.787   3.184   1.674
 1995SOL     OW 6883   6.137   0.726   4.260
 1995SOL    HW1 6884   6.183   0.809   4.291
 1995SOL    HW2 6885   6.103   0.740   4.167
 1996SOL     OW 6886   4.835   0.173   1.408
 1996SOL    HW1 6887   4.857   0.115   1.329
 1996SOL    HW2 6888   4.740   0.202   1.403
 1997SOL     OW 6889   3.299   1.605   2.947
 1997SOL    HW1 6890   3.219   1.592   3.005
 1997SOL    HW2 6891   3.379   1.561   2.989
 1998SOL     OW 6892   2.406   3.277   1.446
 1998SOL    HW1 6893   2.433   3.373   1.434
 1998SOL    HW2 6894   2.382   3.261   1.542
 1999SOL     OW 6895   0.862   0.204   5.777
 1999SOL    HW1 6896   0.788   0.203   5.845
 1999SOL    HW2 6897   0.923   0.127   5.794
 2000SOL     OW 6898   4.553   4.197   6.425
 2000SOL    HW1 6899   4.469   4.229   6.468
 2000SOL    HW2 6900   4.621   4.179   6.496
 2001SOL     OW 6901   1.507   2.128   0.880
 2001SOL    HW1 6902   1.543   2.123   0.786
 2001SOL    HW2 6903   1.498   2.224   0.906
 2002SOL     OW 6904   6.249   5.028   6.950
 2002SOL    HW1 6905   6.291   4.939   6.968
 2002SOL    HW2 6906   6.317   5.089   6.908
 2003SOL     OW 6907   6.332   5.408   1.124
 2003SOL    HW1 6908   6.344   5.472   1.048
 2003SOL    HW2 6909   6.357   5.453   1.210
 2004SOL     OW 6910   3.747   0.683   2.704
 2004SOL    HW1 6911   3.711   0.768   2.665
 2004SOL    HW2 6912   3.738   0.610   2.637
 2005SOL     OW 6913   1.615   6.028   0.296
 2005SOL    HW1 6914   1.538   6.057   0.354
 2005SOL    HW2 6915   1.584   6.020   0.201
 2006SOL     OW 6916   6.072   6.996   1.983
 2006SOL    HW1 6917   6.039   6.930   1.916
 2006SOL    HW2 6918   6.171   7.005   1.974
 2007SOL     OW 6919   5.704   5.410   5.885
 2007SOL    HW1 6920   5.667   5.318   5.892
 2007SOL    HW2 6921   5.791   5.416   5.933
 2008SOL     OW 6922   1.651   3.221   2.640
 2008SOL    HW1 6923   1.592   3.159   2.587
 2008SOL    HW2 6924   1.714   3.167   2.696
 2009SOL     OW 6925   5.936   0.425   3.443
 2009SOL    HW1 6926   5.947   0.474   3.529
 2009SOL    HW2 6927   5.939   0.326   3.460
 2010SOL     OW 6928   0.049   1.366   1.440
 2010SOL    HW1 6929   7.023   1.413   1.367
 2010SOL    HW2 6930   0.141   1.343   1.409
 2011SOL     OW 6931   0.974   0.425   5.005
 2011SOL    HW1 6932   1.006   0.330   5.011
 2011SOL    HW2 6933   1.051   0.484   4.981
 2012SOL     OW 6934   6.901   2.284   0.312
 2012SOL    HW1 6935   6.835   2.262   0.383
 2012SOL    HW2 6936   6.861   2.268   0.222
 2013SOL     OW 6937   0.795   2.770   2.244
 2013SOL    HW1 6938   0.845   2.829   2.179
 2013SOL    HW2 6939   0.778   2.682   2.201
 2014SOL     OW 6940   3.938   1.767   3.719
 2014SOL    HW1 6941   3.989   1.692   3.761
 2014SOL    HW2 6942   3.927   1.841   3.786
 2015SOL     OW 6943   3.865   6.094   1.816
 2015SOL    HW1 6944   3.843   6.124   1.724
 2015SOL    HW2 6945   3.894   5.998   1.814
 2016SOL     OW 6946   1.944   1.020   4.548
 2016SOL    HW1 6947   1.969   0.934   4.594
 2016SOL    HW2 6948   1.919   1.088   4.617
 2017SOL     OW 6949   1.749   6.924   4.679
 2017SOL    HW1 6950   1.664   6.905   4.729
 2017SOL    HW2 6951   1.733   6.996   4.612
 2018SOL     OW 6952   0.275   1.007   4.464
 2018SOL    HW1 6953   0.303   1.029   4.558
 2018SOL    HW2 6954   0.347   1.034   4.401
 2019SOL     OW 6955   0.621   4.855   6.858
 2019SOL    HW1 6956   0.648   4.821   6.948
 2019SOL    HW2 6957   0.532   4.901   6.865
 2020SOL     OW 6958   1.549   6.780   1.769
 2020SOL    HW1 6959   1.614   6.856   1.763
 2020SOL    HW2 6960   1.587   6.699   1.724
 2021SOL     OW 6961   0.075   5.260   3.726
 2021SOL    HW1 6962   0.099   5.277   3.822
 2021SOL    HW2 6963   0.057   5.162   3.714
 2022SOL     OW 6964   2.227   3.004   4.055
 2022SOL    HW1 6965   2.207   3.100   4.037
 2022SOL    HW2 6966   2.190   2.978   4.144
 2023SOL     OW 6967   0.694   5.439   6.810
 2023SOL    HW1 6968   0.650   5.470   6.726
 2023SOL    HW2 6969   0.650   5.354   6.842
 2024SOL     OW 6970   6.523   6.105   3.723
 2024SOL    HW1 6971   6.425   6.122   3.736
 2024SOL    HW2 6972   6.546   6.115   3.626
 2025SOL     OW 6973   1.824   0.308   4.341
 2025SOL    HW1 6974   1.906   0.304   4.284
 2025SOL    HW2 6975   1.774   0.392   4.320
 2026SOL     OW 6976   1.504   0.086   5.461
 2026SOL    HW1 6977   1.462   0.071   5.372
 2026SOL    HW2 6978   1.603   0.068   5.455
 2027SOL     OW 6979   6.134   6.483   2.715
 2027SOL    HW1 6980   6.163   6.387   2.708
 2027SOL    HW2 6981   6.047   6.496   2.669
 2028SOL     OW 6982   2.177   6.193   4.872
 2028SOL    HW1 6983   2.206   6.238   4.787
 2028SOL    HW2 6984   2.119   6.115   4.850
 2029SOL     OW 6985   6.787   2.241   0.069
 2029SOL    HW1 6986   6.816   2.288   7.009
 2029SOL    HW2 6987   6.784   2.143   0.052
 2030SOL     OW 6988   1.473   6.022   2.752
 2030SOL    HW1 6989   1.516   6.102   2.794
 2030SOL    HW2 6990   1.510   5.939   2.794
 2031SOL     OW 6991   0.156   7.013   5.375
 2031SOL    HW1 6992   0.195   6.961   5.298
 2031SOL    HW2 6993   0.104   0.066   5.339
 2032SOL     OW 6994   2.798   2.965   6.284
 2032SOL    HW1 6995   2.880   3.014   6.312
 2032SOL    HW2 6996   2.824   2.885   6.230
 2033SOL     OW 6997   2.609   6.583   1.396
 2033SOL    HW1 6998   2.617   6.544   1.304
 2033SOL    HW2 6999   2.534   6.650   1.398
 2034SOL     OW 7000   0.836   3.770   4.817
 2034SOL    HW1 7001   0.746   3.763   4.859
 2034SOL    HW2 7002   0.907   3.769   4.888
 2035SOL     OW 7003   5.280   5.931   3.218
 2035SOL    HW1 7004   5.287   5.834   3.194
 2035SOL    HW2 7005   5.283   5.986   3.134
 2036SOL     OW 7006   0.150   3.198   6.168
 2036SOL    HW1 7007   0.227   3.136   6.177
 2036SOL    HW2 7008   0.149   3.262   6.245
 2037SOL     OW 7009   1.572   2.233   0.072
 2037SOL    HW1 7010   1.543   2.178   0.151
 2037SOL    HW2 7011   1.667   2.212   0.050
 2038SOL     OW 7012   1.684   0.798   5.981
 2038SOL    HW1 7013   1.627   0.753   5.913
 2038SOL    HW2 7014   1.724   0.881   5.941
 2039SOL     OW 7015   5.316   6.082   4.386
 2039SOL    HW1 7016   5.308   5.986   4.410
 2039SOL    HW2 7017   5.410   6.103   4.360
 2040SOL     OW 7018   2.545   1.562   1.022
 2040SOL    HW1 7019   2.564   1.659   1.035
 2040SOL    HW2 7020   2.448   1.550   1.000
 2041SOL     OW 7021   3.178   0.248   0.244
 2041SOL    HW1 7022   3.112   0.234   0.170
 2041SOL    HW2 7023   3.173   0.343   0.276
 2042SOL     OW 7024   0.130   0.175   4.931
 2042SOL    HW1 7025   0.172   0.107   4.990
 2042SOL    HW2 7026   0.073   0.237   4.987
 2043SOL     OW 7027   1.096   3.443   0.238
 2043SOL    HW1 7028   0.997   3.448   0.254
 2043SOL    HW2 7029   1.122   3.348   0.222
 2044SOL     OW 7030   3.906   0.673   2.399
 2044SOL    HW1 7031   3.840   0.748   2.401
 2044SOL    HW2 7032   3.997   0.708   2.375
 2045SOL     OW 7033   1.801   5.459   3.246
 2045SOL    HW1 7034   1.827   5.441   3.151
 2045SOL    HW2 7035   1.844   5.544   3.276
 2046SOL     OW 7036   0.562   2.536   6.113
 2046SOL    HW1 7037   0.643   2.587   6.085
 2046SOL    HW2 7038   0.519   2.580   6.191
 2047SOL     OW 7039   6.785   0.147   2.218
 2047SOL    HW1 7040   6.833   0.104   2.294
 2047SOL    HW2 7041   6.842   0.220   2.179
 2048SOL     OW 7042   1.519   1.016   3.427
 2048SOL    HW1 7043   1.483   1.036   3.336
 2048SOL    HW2 7044   1.490   0.925   3.456
 2049SOL     OW 7045   4.150   1.889   5.501
 2049SOL    HW1 7046   4.169   1.917   5.407
 2049SOL    HW2 7047   4.236   1.882   5.552
 2050SOL     OW 7048   0.400   1.024   2.349
 2050SOL    HW1 7049   0.464   1.088   2.392
 2050SOL    HW2 7050   0.415   0.932   2.386
 2051SOL     OW 7051   3.463   0.079   6.556
 2051SOL    HW1 7052   3.484   7.005   6.558
 2051SOL    HW2 7053   3.493   0.121   6.641
 2052SOL     OW 7054   0.200   4.553   0.683
 2052SOL    HW1 7055   0.234   4.641   0.715
 2052SOL    HW2 7056   0.100   4.553   0.685
 2053SOL     OW 7057   4.464   5.169   1.688
 2053SOL    HW1 7058   4.417   5.239   1.743
 2053SOL    HW2 7059   4.492   5.094   1.748
 2054SOL     OW 7060   3.206   3.752   3.600
 2054SOL    HW1 7061   3.193   3.746   3.698
 2054SOL    HW2 7062   3.234   3.845   3.575
 2055SOL     OW 7063   3.550   3.226   5.559
 2055SOL    HW1 7064   3.468   3.179   5.525
 2055SOL    HW2 7065   3.554   3.318   5.520
 2056SOL     OW 7066   2.618   5.438   2.386
 2056SOL    HW1 7067   2.618   5.360   2.324
 2056SOL    HW2 7068   2.708   5.481   2.385
 2057SOL     OW 7069   6.468   3.218   3.692
 2057SOL    HW1 7070   6.521   3.273   3.627
 2057SOL    HW2 7071   6.455   3.126   3.656
 2058SOL     OW 7072   5.507   0.162   3.853
 2058SOL    HW1 7073   5.435   0.222   3.886
 2058SOL    HW2 7074   5.555   0.205   3.776
 2059SOL     OW 7075   2.559   1.243   5.738
 2059SOL    HW1 7076   2.554   1.306   5.816
 2059SOL    HW2 7077   2.468   1.231   5.699
 2060SOL     OW 7078   1.351   2.586   6.233
 2060SOL    HW1 7079   1.325   2.510   6.174
 2060SOL    HW2 7080   1.425   2.638   6.191
 2061SOL     OW 7081   2.061   2.781   3.961
 2061SOL    HW1 7082   2.098   2.874   3.963
 2061SOL    HW2 7083   2.075   2.737   4.050
 2062SOL     OW 7084   5.233   5.261   3.848
 2062SOL    HW1 7085   5.169   5.211   3.906
 2062SOL    HW2 7086   5.218   5.360   3.858
 2063SOL     OW 7087   1.136   1.806   4.569
 2063SOL    HW1 7088   1.101   1.884   4.519
 2063SOL    HW2 7089   1.197   1.838   4.642
 2064SOL     OW 7090   0.804   3.890   4.554
 2064SOL    HW1 7091   0.818   3.847   4.643
 2064SOL    HW2 7092   0.867   3.849   4.487
 2065SOL     OW 7093   3.520   3.776   6.052
 2065SOL    HW1 7094   3.563   3.807   6.137
 2065SOL    HW2 7095   3.429   3.740   6.073
 2066SOL     OW 7096   2.250   2.435   4.327
 2066SOL    HW1 7097   2.283   2.341   4.332
 2066SOL    HW2 7098   2.213   2.462   4.416
 2067SOL     OW 7099   6.628   4.839   2.399
 2067SOL    HW1 7100   6.586   4.833   2.308
 2067SOL    HW2 7101   6.714   4.890   2.392
 2068SOL     OW 7102   3.348   0.113   3.993
 2068SOL    HW1 7103   3.370   0.042   4.061
 2068SOL    HW2 7104   3.391   0.199   4.020
 2069SOL     OW 7105   5.880   2.157   3.088
 2069SOL    HW1 7106   5.968   2.171   3.042
 2069SOL    HW2 7107   5.809   2.146   3.019
 2070SOL     OW 7108   0.231   5.471   1.696
 2070SOL    HW1 7109   0.260   5.560   1.730
 2070SOL    HW2 7110   0.157   5.484   1.629
 2071SOL     OW 7111   6.788   2.402   3.718
 2071SOL    HW1 7112   6.762   2.410   3.814
 2071SOL    HW2 7113   6.742   2.323   3.677
 2072SOL     OW 7114   5.151   3.153   5.697
 2072SOL    HW1 7115   5.069   3.110   5.735
 2072SOL    HW2 7116   5.126   3.203   5.614
 2073SOL     OW 7117   3.394   5.355   6.575
 2073SOL    HW1 7118   3.299   5.348   6.604
 2073SOL    HW2 7119   3.454   5.345   6.655
 2074SOL     OW 7120   3.716   4.776   5.472
 2074SOL    HW1 7121   3.772   4.701   5.439
 2074SOL    HW2 7122   3.748   4.804   5.562
 2075SOL     OW 7123   5.132   0.799   0.829
 2075SOL    HW1 7124   5.092   0.881   0.871
 2075SOL    HW2 7125   5.091   0.718   0.871
 2076SOL     OW 7126   6.810   6.981   4.124
 2076SOL    HW1 7127   6.905   6.967   4.151
 2076SOL    HW2 7128   6.768   0.026   4.185
 2077SOL     OW 7129   0.992   4.107   0.699
 2077SOL    HW1 7130   1.084   4.098   0.739
 2077SOL    HW2 7131   0.967   4.204   0.695
 2078SOL     OW 7132   0.947   2.341   0.239
 2078SOL    HW1 7133   0.935   2.296   0.150
 2078SOL    HW2 7134   0.909   2.282   0.310
 2079SOL     OW 7135   5.461   2.112   3.596
 2079SOL    HW1 7136   5.543   2.140   3.645
 2079SOL    HW2 7137   5.382   2.118   3.658
 2080SOL     OW 7138   2.213   2.801   5.346
 2080SOL    HW1 7139   2.193   2.888   5.300
 2080SOL    HW2 7140   2.311   2.796   5.365
 2081SOL     OW 7141   0.187   5.918   3.082
 2081SOL    HW1 7142   0.151   5.836   3.037
 2081SOL    HW2 7143   0.202   5.900   3.179
 2082SOL     OW 7144   6.524   6.556   3.782
 2082SOL    HW1 7145   6.492   6.462   3.794
 2082SOL    HW2 7146   6.621   6.555   3.759
 2083SOL     OW 7147   1.165   5.688   3.123
 2083SOL    HW1 7148   1.098   5.626   3.084
 2083SOL    HW2 7149   1.157   5.688   3.223
 2084SOL     OW 7150   5.698   2.517   1.655
 2084SOL    HW1 7151   5.615   2.499   1.708
 2084SOL    HW2 7152   5.674   2.560   1.568
 2085SOL     OW 7153   6.455   5.673   0.299
 2085SOL    HW1 7154   6.359   5.645   0.293
 2085SOL    HW2 7155   6.511   5.595   0.329
 2086SOL     OW 7156   5.345   0.305   5.940
 2086SOL    HW1 7157   5.407   0.230   5.915
 2086SOL    HW2 7158   5.255   0.289   5.899
 2087SOL     OW 7159   5.155   1.269   6.359
 2087SOL    HW1 7160   5.165   1.306   6.451
 2087SOL    HW2 7161   5.244   1.271   6.312
 2088SOL     OW 7162   0.385   3.191   5.368
 2088SOL    HW1 7163   0.431   3.266   5.322
 2088SOL    HW2 7164   0.329   3.227   5.443
 2089SOL     OW 7165   2.895   4.923   4.472
 2089SOL    HW1 7166   2.985   4.957   4.501
 2089SOL    HW2 7167   2.866   4.849   4.533
 2090SOL     OW 7168   4.994   2.446   6.114
 2090SOL    HW1 7169   5.043   2.397   6.186
 2090SOL    HW2 7170   4.982   2.386   6.035
 2091SOL     OW 7171   5.570   6.454   0.938
 2091SOL    HW1 7172   5.665   6.461   0.906
 2091SOL    HW2 7173   5.510   6.502   0.875
 2092SOL     OW 7174   3.553   2.939   3.005
 2092SOL    HW1 7175   3.628   2.876   2.984
 2092SOL    HW2 7176   3.487   2.939   2.930
 2093SOL     OW 7177   4.703   0.043   0.058
 2093SOL    HW1 7178   4.789   0.065   0.104
 2093SOL    HW2 7179   4.716   0.048   6.982
 2094SOL     OW 7180   4.362   2.715   1.570
 2094SOL    HW1 7181   4.393   2.696   1.477
 2094SOL    HW2 7182   4.375   2.634   1.627
 2095SOL     OW 7183   4.595   5.599   3.474
 2095SOL    HW1 7184   4.597   5.683   3.528
 2095SOL    HW2 7185   4.586   5.621   3.377
 2096SOL     OW 7186   3.819   0.122   2.889
 2096SOL    HW1 7187   3.834   0.023   2.898
 2096SOL    HW2 7188   3.850   0.152   2.799
 2097SOL     OW 7189   2.465   5.752   5.502
 2097SOL    HW1 7190   2.447   5.678   5.437
 2097SOL    HW2 7191   2.449   5.720   5.595
 2098SOL     OW 7192   1.851   0.011   3.814
 2098SOL    HW1 7193   1.934   0.057   3.846
 2098SOL    HW2 7194   1.815   6.975   3.885
 2099SOL     OW 7195   4.233   1.583   6.825
 2099SOL    HW1 7196   4.224   1.494   6.780
 2099SOL    HW2 7197   4.329   1.612   6.821
 2100SOL     OW 7198   4.257   0.450   1.010
 2100SOL    HW1 7199   4.218   0.359   0.996
 2100SOL    HW2 7200   4.277   0.491   0.921
 2101SOL     OW 7201   1.347   0.506   2.491
 2101SOL    HW1 7202   1.442   0.486   2.466
 2101SOL    HW2 7203   1.289   0.498   2.410
 2102SOL     OW 7204   3.598   2.915   2.281
 2102SOL    HW1 7205   3.677   2.951   2.231
 2102SOL    HW2 7206   3.537   2.868   2.217
 2103SOL     OW 7207   1.703   7.022   1.727
 2103SOL    HW1 7208   1.661   0.009   1.637
 2103SOL    HW2 7209   1.673   0.074   1.786
 2104SOL     OW 7210   1.057   4.001   2.562
 2104SOL    HW1 7211   0.964   3.982   2.595
 2104SOL    HW2 7212   1.095   4.079   2.611
 2105SOL     OW 7213   5.117   6.253   5.071
 2105SOL    HW1 7214   5.138   6.220   5.163
 2105SOL    HW2 7215   5.110   6.176   5.008
 2106SOL     OW 7216   3.316   2.531   0.908
 2106SOL    HW1 7217   3.319   2.522   1.007
 2106SOL    HW2 7218   3.255   2.607   0.883
 2107SOL     OW 7219   6.274   4.582   4.917
 2107SOL    HW1 7220   6.243   4.573   4.823
 2107SOL    HW2 7221   6.370   4.554   4.923
 2108SOL     OW 7222   4.555   6.273   5.535
 2108SOL    HW1 7223   4.556   6.372   5.523
 2108SOL    HW2 7224   4.573   6.251   5.631
 2109SOL     OW 7225   2.531   5.782   2.082
 2109SOL    HW1 7226   2.626   5.749   2.087
 2109SOL    HW2 7227   2.483   5.759   2.166
 2110SOL     OW 7228   3.855   5.580   6.859
 2110SOL    HW1 7229   3.908   5.546   6.782
 2110SOL    HW2 7230   3.879   5.676   6.876
 2111SOL     OW 7231   0.632   2.492   0.494
 2111SOL    HW1 7232   0.692   2.433   0.440
 2111SOL    HW2 7233   0.612   2.575   0.443
 2112SOL     OW 7234   0.687   0.695   6.706
 2112SOL    HW1 7235   0.619   0.703   6.633
 2112SOL    HW2 7236   0.756   0.628   6.680
 2113SOL     OW 7237   6.544   2.070   4.294
 2113SOL    HW1 7238   6.517   1.983   4.336
 2113SOL    HW2 7239   6.524   2.067   4.196
 2114SOL     OW 7240   3.080   1.051   5.398
 2114SOL    HW1 7241   3.000   1.105   5.425
 2114SOL    HW2 7242   3.052   0.982   5.332
 2115SOL     OW 7243   6.853   6.870   3.714
 2115SOL    HW1 7244   6.838   6.881   3.616
 2115SOL    HW2 7245   6.855   6.960   3.758
 2116SOL     OW 7246   1.943   0.619   5.773
 2116SOL    HW1 7247   1.985   0.708   5.786
 2116SOL    HW2 7248   1.871   0.606   5.841
 2117SOL     OW 7249   5.668   3.251   1.288
 2117SOL    HW1 7250   5.640   3.285   1.199
 2117SOL    HW2 7251   5.713   3.161   1.278
 2118SOL     OW 7252   0.058   3.443   2.443
 2118SOL    HW1 7253   0.111   3.469   2.524
 2118SOL    HW2 7254   7.008   3.508   2.429
 2119SOL     OW 7255   2.284   2.300   6.890
 2119SOL    HW1 7256   2.317   2.391   6.862
 2119SOL    HW2 7257   2.341   2.230   6.846
 2120SOL     OW 7258   5.902   1.523   0.579
 2120SOL    HW1 7259   5.975   1.525   0.510
 2120SOL    HW2 7260   5.892   1.430   0.614
 2121SOL     OW 7261   3.048   5.351   1.474
 2121SOL    HW1 7262   2.992   5.414   1.419
 2121SOL    HW2 7263   2.990   5.277   1.508
 2122SOL     OW 7264   0.573   0.749   5.047
 2122SOL    HW1 7265   0.570   0.843   5.081
 2122SOL    HW2 7266   0.605   0.749   4.952
 2123SOL     OW 7267   1.148   4.598   3.385
 2123SOL    HW1 7268   1.148   4.576   3.482
 2123SOL    HW2 7269   1.065   4.648   3.362
 2124SOL     OW 7270   5.261   3.445   6.083
 2124SOL    HW1 7271   5.292   3.378   6.016
 2124SOL    HW2 7272   5.178   3.411   6.128
 2125SOL     OW 7273   2.624   5.567   6.061
 2125SOL    HW1 7274   2.681   5.634   6.014
 2125SOL    HW2 7275   2.533   5.566   6.019
 2126SOL     OW 7276   2.777   5.262   1.629
 2126SOL    HW1 7277   2.733   5.350   1.644
 2126SOL    HW2 7278   2.730   5.214   1.555
 2127SOL     OW 7279   1.210   3.992   4.309
 2127SOL    HW1 7280   1.294   4.036   4.340
 2127SOL    HW2 7281   1.231   3.925   4.237
 2128SOL     OW 7282   5.368   2.997   1.137
 2128SOL    HW1 7283   5.412   3.053   1.066
 2128SOL    HW2 7284   5.405   2.904   1.132
 2129SOL     OW 7285   6.031   4.280   4.045
 2129SOL    HW1 7286   6.031   4.380   4.050
 2129SOL    HW2 7287   6.069   4.242   4.129
 2130SOL     OW 7288   1.822   0.190   2.849
 2130SOL    HW1 7289   1.851   0.279   2.885
 2130SOL    HW2 7290   1.793   0.131   2.925
 2131SOL     OW 7291   5.972   0.259   6.719
 2131SOL    HW1 7292   5.905   0.266   6.645
 2131SOL    HW2 7293   6.064   0.271   6.682
 2132SOL     OW 7294   3.411   1.617   0.134
 2132SOL    HW1 7295   3.391   1.589   0.228
 2132SOL    HW2 7296   3.327   1.650   0.091
 2133SOL     OW 7297   4.291   3.192   1.820
 2133SOL    HW1 7298   4.306   3.241   1.907
 2133SOL    HW2 7299   4.353   3.115   1.814
 2134SOL     OW 7300   2.511   0.322   4.955
 2134SOL    HW1 7301   2.521   0.225   4.979
 2134SOL    HW2 7302   2.424   0.335   4.907
 2135SOL     OW 7303   0.085   6.141   4.376
 2135SOL    HW1 7304   0.042   6.217   4.326
 2135SOL    HW2 7305   0.048   6.137   4.469
 2136SOL     OW 7306   0.521   4.684   3.629
 2136SOL    HW1 7307   0.586   4.683   3.553
 2136SOL    HW2 7308   0.452   4.613   3.615
 2137SOL     OW 7309   0.036   0.499   4.610
 2137SOL    HW1 7310   7.015   0.588   4.611
 2137SOL    HW2 7311   0.124   0.505   4.658
 2138SOL     OW 7312   1.224   2.131   0.029
 2138SOL    HW1 7313   1.297   2.093   6.996
 2138SOL    HW2 7314   1.207   2.071   0.107
 2139SOL     OW 7315   3.719   6.191   4.340
 2139SOL    HW1 7316   3.761   6.119   4.284
 2139SOL    HW2 7317   3.761   6.279   4.317
 2140SOL     OW 7318   1.538   5.542   3.361
 2140SOL    HW1 7319   1.495   5.616   3.310
 2140SOL    HW2 7320   1.605   5.495   3.303
 2141SOL     OW 7321   6.575   0.415   6.485
 2141SOL    HW1 7322   6.524   0.499   6.504
 2141SOL    HW2 7323   6.564   0.390   6.389
 2142SOL     OW 7324   4.061   0.825   3.317
 2142SOL    HW1 7325   4.139   0.771   3.284
 2142SOL    HW2 7326   3.986   0.763   3.340
 2143SOL     OW 7327   3.749   5.931   0.119
 2143SOL    HW1 7328   3.735   6.019   0.165
 2143SOL    HW2 7329   3.665   5.877   0.123
 2144SOL     OW 7330   0.516   1.481   2.000
 2144SOL    HW1 7331   0.569   1.438   2.073
 2144SOL    HW2 7332   0.556   1.569   1.977
 2145SOL     OW 7333   2.374   5.693   3.763
 2145SOL    HW1 7334   2.374   5.593   3.758
 2145SOL    HW2 7335   2.361   5.730   3.671
 2146SOL     OW 7336   3.083   2.180   1.200
 2146SOL    HW1 7337   3.040   2.219   1.282
 2146SOL    HW2 7338   3.099   2.082   1.215
 2147SOL     OW 7339   6.818   0.319   4.372
 2147SOL    HW1 7340   6.855   0.319   4.464
 2147SOL    HW2 7341   6.829   0.411   4.332
 2148SOL     OW 7342   6.595   3.789   3.621
 2148SOL    HW1 7343   6.586   3.883   3.590
 2148SOL    HW2 7344   6.643   3.736   3.551
 2149SOL     OW 7345   2.432   0.925   2.341
 2149SOL    HW1 7346   2.441   0.960   2.434
 2149SOL    HW2 7347   2.345   0.877   2.331
 2150SOL     OW 7348   5.414   0.568   3.188
 2150SOL    HW1 7349   5.420   0.576   3.287
 2150SOL    HW2 7350   5.505   0.577   3.148
 2151SOL     OW 7351   4.400   4.355   5.551
 2151SOL    HW1 7352   4.426   4.340   5.456
 2151SOL    HW2 7353   4.301   4.368   5.557
 2152SOL     OW 7354   6.929   6.068   3.126
 2152SOL    HW1 7355   6.878   6.104   3.048
 2152SOL    HW2 7356   7.017   6.032   3.095
 2153SOL     OW 7357   4.524   1.535   3.966
 2153SOL    HW1 7358   4.451   1.535   3.899
 2153SOL    HW2 7359   4.556   1.442   3.981
 2154SOL     OW 7360   4.306   0.031   4.206
 2154SOL    HW1 7361   4.347   0.023   4.115
 2154SOL    HW2 7362   4.301   6.965   4.248
 2155SOL     OW 7363   5.717   3.912   0.693
 2155SOL    HW1 7364   5.724   3.833   0.632
 2155SOL    HW2 7365   5.648   3.894   0.763
 2156SOL     OW 7366   6.032   5.893   2.536
 2156SOL    HW1 7367   6.083   5.944   2.467
 2156SOL    HW2 7368   5.935   5.896   2.515
 2157SOL     OW 7369   5.543   1.504   4.027
 2157SOL    HW1 7370   5.500   1.431   3.973
 2157SOL    HW2 7371   5.602   1.559   3.968
 2158SOL     OW 7372   4.115   0.779   3.613
 2158SOL    HW1 7373   4.081   0.857   3.559
 2158SOL    HW2 7374   4.212   0.767   3.596
 2159SOL     OW 7375   2.499   1.682   5.123
 2159SOL    HW1 7376   2.448   1.691   5.038
 2159SOL    HW2 7377   2.596   1.701   5.106
 2160SOL     OW 7378   2.584   3.777   0.902
 2160SOL    HW1 7379   2.646   3.736   0.835
 2160SOL    HW2 7380   2.491   3.747   0.885
 2161SOL     OW 7381   4.623   2.668   2.789
 2161SOL    HW1 7382   4.663   2.735   2.851
 2161SOL    HW2 7383   4.671   2.671   2.702
 2162SOL     OW 7384   2.480   1.789   2.389
 2162SOL    HW1 7385   2.443   1.786   2.296
 2162SOL    HW2 7386   2.536   1.871   2.399
 2163SOL     OW 7387   4.434   1.703   1.100
 2163SOL    HW1 7388   4.427   1.609   1.135
 2163SOL    HW2 7389   4.425   1.702   1.001
 2164SOL     OW 7390   6.469   0.834   1.393
 2164SOL    HW1 7391   6.518   0.920   1.399
 2164SOL    HW2 7392   6.531   0.761   1.364
 2165SOL     OW 7393   2.138   0.554   2.151
 2165SOL    HW1 7394   2.189   0.505   2.080
 2165SOL    HW2 7395   2.043   0.565   2.122
 2166SOL     OW 7396   5.441   2.789   4.720
 2166SOL    HW1 7397   5.447   2.691   4.737
 2166SOL    HW2 7398   5.365   2.828   4.772
 2167SOL     OW 7399   3.554   1.914   1.395
 2167SOL    HW1 7400   3.644   1.939   1.360
 2167SOL    HW2 7401   3.544   1.815   1.391
 2168SOL     OW 7402   5.496   6.840   4.601
 2168SOL    HW1 7403   5.482   6.938   4.608
 2168SOL    HW2 7404   5.411   6.792   4.624
 2169SOL     OW 7405   5.269   2.055   5.730
 2169SOL    HW1 7406   5.347   2.051   5.792
 2169SOL    HW2 7407   5.184   2.055   5.783
 2170SOL     OW 7408   4.767   5.664   4.359
 2170SOL    HW1 7409   4.692   5.607   4.392
 2170SOL    HW2 7410   4.792   5.730   4.430
 2171SOL     OW 7411   0.509   3.331   0.148
 2171SOL    HW1 7412   0.471   3.303   0.237
 2171SOL    HW2 7413   0.435   3.348   0.084
 2172SOL     OW 7414   2.183   0.292   3.042
 2172SOL    HW1 7415   2.106   0.236   3.011
 2172SOL    HW2 7416   2.256   0.290   2.974
 2173SOL     OW 7417   4.303   2.096   4.607
 2173SOL    HW1 7418   4.367   2.140   4.670
 2173SOL    HW2 7419   4.345   2.090   4.516
 2174SOL     OW 7420   0.925   5.703   5.011
 2174SOL    HW1 7421   0.896   5.798   5.019
 2174SOL    HW2 7422   0.854   5.643   5.047
 2175SOL     OW 7423   1.166   0.201   6.981
 2175SOL    HW1 7424   1.100   0.274   6.964
 2175SOL    HW2 7425   1.256   0.228   6.947
 2176SOL     OW 7426   2.226   2.892   2.247
 2176SOL    HW1 7427   2.250   2.810   2.196
 2176SOL    HW2 7428   2.268   2.887   2.338
 2177SOL     OW 7429   1.097   1.572   2.078
 2177SOL    HW1 7430   1.028   1.639   2.051
 2177SOL    HW2 7431   1.087   1.489   2.023
 2178SOL     OW 7432   6.810   6.018   0.204
 2178SOL    HW1 7433   6.894   6.073   0.199
 2178SOL    HW2 7434   6.833   5.923   0.226
 2179SOL     OW 7435   2.125   3.618   4.269
 2179SOL    HW1 7436   2.126   3.526   4.309
 2179SOL    HW2 7437   2.117   3.612   4.170
 2180SOL     OW 7438   3.111   3.127   2.431
 2180SOL    HW1 7439   3.183   3.156   2.493
 2180SOL    HW2 7440   3.151   3.080   2.353
 2181SOL     OW 7441   3.582   0.148   1.000
 2181SOL    HW1 7442   3.514   0.193   1.057
 2181SOL    HW2 7443   3.541   0.122   0.913
 2182SOL     OW 7444   3.993   3.432   0.373
 2182SOL    HW1 7445   4.019   3.423   0.469
 2182SOL    HW2 7446   3.895   3.452   0.367
 2183SOL     OW 7447   4.646   2.949   1.471
 2183SOL    HW1 7448   4.722   2.939   1.535
 2183SOL    HW2 7449   4.637   2.865   1.417
 2184SOL     OW 7450   4.673   2.743   6.072
 2184SOL    HW1 7451   4.613   2.821   6.091
 2184SOL    HW2 7452   4.667   2.678   6.147
 2185SOL     OW 7453   6.834   6.703   2.327
 2185SOL    HW1 7454   6.925   6.694   2.287
 2185SOL    HW2 7455   6.787   6.781   2.285
 2186SOL     OW 7456   6.900   4.276   3.078
 2186SOL    HW1 7457   6.970   4.217   3.119
 2186SOL    HW2 7458   6.832   4.219   3.031
 2187SOL     OW 7459   6.263   0.550   6.654
 2187SOL    HW1 7460   6.277   0.455   6.681
 2187SOL    HW2 7461   6.333   0.576   6.588
 2188SOL     OW 7462   4.646   2.088   3.496
 2188SOL    HW1 7463   4.557   2.135   3.490
 2188SOL    HW2 7464   4.648   2.012   3.431
 2189SOL     OW 7465   4.027   6.074   6.645
 2189SOL    HW1 7466   3.948   6.019   6.670
 2189SOL    HW2 7467   4.060   6.124   6.725
 2190SOL     OW 7468   5.619   3.408   1.062
 2190SOL    HW1 7469   5.669   3.483   1.017
 2190SOL    HW2 7470   5.522   3.414   1.038
 2191SOL     OW 7471   3.678   0.579   0.098
 2191SOL    HW1 7472   3.637   0.488   0.100
 2191SOL    HW2 7473   3.624   0.641   0.156
 2192SOL     OW 7474   4.245   6.376   1.847
 2192SOL    HW1 7475   4.168   6.355   1.907
 2192SOL    HW2 7476   4.279   6.291   1.806
 2193SOL     OW 7477   0.003   6.194   4.631
 2193SOL    HW1 7478   0.074   6.192   4.701
 2193SOL    HW2 7479   6.989   6.287   4.623
 2194SOL     OW 7480   2.469   0.168   2.113
 2194SOL    HW1 7481   2.372   0.168   2.135
 2194SOL    HW2 7482   2.522   0.153   2.196
 2195SOL     OW 7483   0.344   5.266   2.564
 2195SOL    HW1 7484   0.424   5.216   2.599
 2195SOL    HW2 7485   0.374   5.338   2.502
 2196SOL     OW 7486   4.350   3.798   0.695
 2196SOL    HW1 7487   4.277   3.791   0.763
 2196SOL    HW2 7488   4.388   3.707   0.677
 2197SOL     OW 7489   5.035   3.315   6.957
 2197SOL    HW1 7490   5.066   3.314   6.862
 2197SOL    HW2 7491   5.052   3.405   6.996
 2198SOL     OW 7492   0.534   4.782   6.385
 2198SOL    HW1 7493   0.568   4.876   6.383
 2198SOL    HW2 7494   0.574   4.733   6.462
 2199SOL     OW 7495   3.828   1.620   2.898
 2199SOL    HW1 7496   3.871   1.696   2.947
 2199SOL    HW2 7497   3.753   1.583   2.953
 2200SOL     OW 7498   4.025   0.156   3.818
 2200SOL    HW1 7499   3.959   0.101   3.767
 2200SOL    HW2 7500   4.026   0.127   3.914
 2201SOL     OW 7501   5.203   4.664   4.300
 2201SOL    HW1 7502   5.200   4.741   4.363
 2201SOL    HW2 7503   5.232   4.582   4.348
 2202SOL     OW 7504   4.853   6.230   4.064
 2202SOL    HW1 7505   4.853   6.218   3.964
 2202SOL    HW2 7506   4.798   6.310   4.088
 2203SOL     OW 7507   1.916   1.189   2.383
 2203SOL    HW1 7508   1.862   1.271   2.401
 2203SOL    HW2 7509   1.936   1.183   2.286
 2204SOL     OW 7510   3.544   2.386   1.166
 2204SOL    HW1 7511   3.613   2.408   1.235
 2204SOL    HW2 7512   3.465   2.343   1.210
 2205SOL     OW 7513   3.498   0.631   2.391
 2205SOL    HW1 7514   3.426   0.579   2.438
 2205SOL    HW2 7515   3.467   0.725   2.379
 2206SOL     OW 7516   1.392   4.015   0.404
 2206SOL    HW1 7517   1.329   4.024   0.482
 2206SOL    HW2 7518   1.340   3.993   0.322
 2207SOL     OW 7519   6.452   4.713   5.441
 2207SOL    HW1 7520   6.445   4.654   5.521
 2207SOL    HW2 7521   6.548   4.734   5.424
 2208SOL     OW 7522   6.473   5.357   1.851
 2208SOL    HW1 7523   6.415   5.289   1.808
 2208SOL    HW2 7524   6.524   5.315   1.926
 2209SOL     OW 7525   6.604   7.007   1.904
 2209SOL    HW1 7526   6.641   6.918   1.933
 2209SOL    HW2 7527   6.598   7.009   1.804
 2210SOL     OW 7528   2.430   4.570   3.913
 2210SOL    HW1 7529   2.332   4.585   3.923
 2210SOL    HW2 7530   2.469   4.539   4.000
 2211SOL     OW 7531   5.959   0.842   6.060
 2211SOL    HW1 7532   5.918   0.903   5.992
 2211SOL    HW2 7533   5.899   0.763   6.074
 2212SOL     OW 7534   2.353   6.577   6.296
 2212SOL    HW1 7535   2.293   6.649   6.262
 2212SOL    HW2 7536   2.298   6.500   6.328
 2213SOL     OW 7537   4.707   0.974   3.639
 2213SOL    HW1 7538   4.774   0.952   3.710
 2213SOL    HW2 7539   4.743   1.049   3.582
 2214SOL     OW 7540   3.563   0.299   4.407
 2214SOL    HW1 7541   3.662   0.294   4.394
 2214SOL    HW2 7542   3.531   0.220   4.459
 2215SOL     OW 7543   6.004   2.160   6.034
 2215SOL    HW1 7544   6.090   2.171   6.083
 2215SOL    HW2 7545   5.969   2.067   6.047
 2216SOL     OW 7546   3.009   1.232   2.204
 2216SOL    HW1 7547   3.088   1.292   2.211
 2216SOL    HW2 7548   3.026   1.148   2.257
 2217SOL     OW 7549   3.235   6.892   1.055
 2217SOL    HW1 7550   3.246   6.893   1.155
 2217SOL    HW2 7551   3.180   6.812   1.028
 2218SOL     OW 7552   6.730   0.991   2.057
 2218SOL    HW1 7553   6.762   1.086   2.058
 2218SOL    HW2 7554   6.647   0.984   2.002
 2219SOL     OW 7555   2.501   1.945   2.958
 2219SOL    HW1 7556   2.552   1.980   2.880
 2219SOL    HW2 7557   2.407   1.925   2.930
 2220SOL     OW 7558   1.889   6.579   2.971
 2220SOL    HW1 7559   1.818   6.518   3.006
 2220SOL    HW2 7560   1.970   6.574   3.030
 2221SOL     OW 7561   0.160   6.419   4.898
 2221SOL    HW1 7562   0.164   6.332   4.849
 2221SOL    HW2 7563   0.251   6.443   4.930
 2222SOL     OW 7564   5.729   5.038   4.173
 2222SOL    HW1 7565   5.781   5.119   4.200
 2222SOL    HW2 7566   5.663   5.063   4.101
 2223SOL     OW 7567   6.725   6.626   2.576
 2223SOL    HW1 7568   6.774   6.666   2.499
 2223SOL    HW2 7569   6.630   6.608   2.550
 2224SOL     OW 7570   1.073   5.720   1.398
 2224SOL    HW1 7571   1.034   5.810   1.419
 2224SOL    HW2 7572   1.170   5.731   1.374
 2225SOL     OW 7573   0.591   4.331   0.108
 2225SOL    HW1 7574   0.538   4.364   0.030
 2225SOL    HW2 7575   0.556   4.371   0.193
 2226SOL     OW 7576   3.530   3.706   3.143
 2226SOL    HW1 7577   3.451   3.766   3.150
 2226SOL    HW2 7578   3.596   3.730   3.215
 2227SOL     OW 7579   1.621   1.951   5.177
 2227SOL    HW1 7580   1.535   2.001   5.173
 2227SOL    HW2 7581   1.609   1.859   5.139
 2228SOL     OW 7582   1.803   4.487   4.721
 2228SOL    HW1 7583   1.760   4.401   4.693
 2228SOL    HW2 7584   1.894   4.493   4.681
 2229SOL     OW 7585   5.672   5.544   2.718
 2229SOL    HW1 7586   5.593   5.603   2.733
 2229SOL    HW2 7587   5.712   5.518   2.806
 2230SOL     OW 7588   1.872   5.617   2.799
 2230SOL    HW1 7589   1.912   5.607   2.708
 2230SOL    HW2 7590   1.853   5.526   2.837
 2231SOL     OW 7591   1.726   5.647   1.046
 2231SOL    HW1 7592   1.711   5.729   0.991
 2231SOL    HW2 7593   1.692   5.567   0.997
 2232SOL     OW 7594   5.899   2.311   3.516
 2232SOL    HW1 7595   5.932   2.405   3.528
 2232SOL    HW2 7596   5.954   2.249   3.572
 2233SOL     OW 7597   3.695   1.210   0.619
 2233SOL    HW1 7598   3.623   1.219   0.688
 2233SOL    HW2 7599   3.780   1.183   0.664
 2234SOL     OW 7600   4.497   2.297   1.090
 2234SOL    HW1 7601   4.456   2.207   1.076
 2234SOL    HW2 7602   4.592   2.287   1.118
 2235SOL     OW 7603   1.953   2.561   2.171
 2235SOL    HW1 7604   1.919   2.608   2.252
 2235SOL    HW2 7605   2.040   2.517   2.191
 2236SOL     OW 7606   0.573   3.866   5.446
 2236SOL    HW1 7607   0.567   3.785   5.504
 2236SOL    HW2 7608   0.660   3.913   5.463
 2237SOL     OW 7609   6.183   3.078   3.332
 2237SOL    HW1 7610   6.090   3.052   3.357
 2237SOL    HW2 7611   6.198   3.060   3.235
 2238SOL     OW 7612   5.344   5.998   6.744
 2238SOL    HW1 7613   5.329   6.087   6.788
 2238SOL    HW2 7614   5.440   5.990   6.717
 2239SOL     OW 7615   0.366   5.739   1.495
 2239SOL    HW1 7616   0.347   5.690   1.410
 2239SOL    HW2 7617   0.284   5.789   1.524
 2240SOL     OW 7618   6.419   3.578   1.224
 2240SOL    HW1 7619   6.479   3.641   1.273
 2240SOL    HW2 7620   6.329   3.577   1.268
 2241SOL     OW 7621   0.729   0.250   3.973
 2241SOL    HW1 7622   0.735   0.150   3.978
 2241SOL    HW2 7623   0.634   0.279   3.979
 2242SOL     OW 7624   2.026   1.879   3.217
 2242SOL    HW1 7625   1.942   1.888   3.162
 2242SOL    HW2 7626   2.092   1.949   3.189
 2243SOL     OW 7627   1.668   0.142   4.528
 2243SOL    HW1 7628   1.707   0.193   4.452
 2243SOL    HW2 7629   1.580   0.103   4.500
 2244SOL     OW 7630   3.434   0.377   5.049
 2244SOL    HW1 7631   3.395   0.369   4.958
 2244SOL    HW2 7632   3.376   0.328   5.115
 2245SOL     OW 7633   0.971   2.495   1.994
 2245SOL    HW1 7634   1.037   2.535   2.058
 2245SOL    HW2 7635   0.879   2.519   2.023
 2246SOL     OW 7636   0.501   3.998   4.981
 2246SOL    HW1 7637   0.537   3.905   4.983
 2246SOL    HW2 7638   0.416   4.003   5.034
 2247SOL     OW 7639   1.900   2.244   4.093
 2247SOL    HW1 7640   1.954   2.221   4.174
 2247SOL    HW2 7641   1.945   2.208   4.011
 2248SOL     OW 7642   5.666   3.640   6.095
 2248SOL    HW1 7643   5.614   3.711   6.048
 2248SOL    HW2 7644   5.607   3.592   6.159
 2249SOL     OW 7645   5.517   5.601   4.929
 2249SOL    HW1 7646   5.506   5.700   4.919
 2249SOL    HW2 7647   5.521   5.578   5.026
 2250SOL     OW 7648   4.388   4.645   1.859
 2250SOL    HW1 7649   4.387   4.548   1.838
 2250SOL    HW2 7650   4.375   4.697   1.774
 2251SOL     OW 7651   0.696   1.054   5.392
 2251SOL    HW1 7652   0.741   1.002   5.465
 2251SOL    HW2 7653   0.634   1.121   5.433
 2252SOL     OW 7654   3.448   1.525   6.478
 2252SOL    HW1 7655   3.356   1.529   6.517
 2252SOL    HW2 7656   3.449   1.460   6.402
 2253SOL     OW 7657   0.573   3.970   0.594
 2253SOL    HW1 7658   0.502   3.902   0.609
 2253SOL    HW2 7659   0.651   3.950   0.653
 2254SOL     OW 7660   1.527   4.840   6.157
 2254SOL    HW1 7661   1.621   4.821   6.188
 2254SOL    HW2 7662   1.462   4.810   6.228
 2255SOL     OW 7663   6.727   3.849   6.702
 2255SOL    HW1 7664   6.662   3.913   6.661
 2255SOL    HW2 7665   6.791   3.816   6.632
 2256SOL     OW 7666   3.352   5.387   2.192
 2256SOL    HW1 7667   3.403   5.302   2.201
 2256SOL    HW2 7668   3.291   5.398   2.270
 2257SOL     OW 7669   1.381   4.661   5.340
 2257SOL    HW1 7670   1.332   4.628   5.260
 2257SOL    HW2 7671   1.411   4.583   5.396
 2258SOL     OW 7672   2.263   6.725   5.947
 2258SOL    HW1 7673   2.306   6.815   5.954
 2258SOL    HW2 7674   2.332   6.657   5.926
 2259SOL     OW 7675   6.164   1.779   6.009
 2259SOL    HW1 7676   6.072   1.818   6.015
 2259SOL    HW2 7677   6.181   1.721   6.089
 2260SOL     OW 7678   4.309   3.257   0.563
 2260SOL    HW1 7679   4.301   3.186   0.493
 2260SOL    HW2 7680   4.383   3.320   0.539
 2261SOL     OW 7681   2.584   0.052   5.098
 2261SOL    HW1 7682   2.672   0.024   5.134
 2261SOL    HW2 7683   2.511   7.023   5.142
 2262SOL     OW 7684   2.843   1.893   3.578
 2262SOL    HW1 7685   2.843   1.974   3.637
 2262SOL    HW2 7686   2.752   1.881   3.538
 2263SOL     OW 7687   0.883   4.529   5.489
 2263SOL    HW1 7688   0.884   4.611   5.546
 2263SOL    HW2 7689   0.799   4.527   5.433
 2264SOL     OW 7690   3.574   3.403   3.621
 2264SOL    HW1 7691   3.645   3.465   3.655
 2264SOL    HW2 7692   3.501   3.456   3.577
 2265SOL     OW 7693   1.050   5.803   4.281
 2265SOL    HW1 7694   1.066   5.890   4.326
 2265SOL    HW2 7695   0.954   5.797   4.253
 2266SOL     OW 7696   6.877   0.456   5.407
 2266SOL    HW1 7697   6.874   0.395   5.486
 2266SOL    HW2 7698   6.836   0.544   5.432
 2267SOL     OW 7699   6.097   1.913   5.444
 2267SOL    HW1 7700   6.118   1.815   5.444
 2267SOL    HW2 7701   6.109   1.949   5.351
 2268SOL     OW 7702   0.107   6.937   0.411
 2268SOL    HW1 7703   0.174   6.994   0.459
 2268SOL    HW2 7704   0.155   6.871   0.353
 2269SOL     OW 7705   6.459   6.166   2.750
 2269SOL    HW1 7706   6.547   6.119   2.752
 2269SOL    HW2 7707   6.462   6.239   2.682
 2270SOL     OW 7708   3.298   2.993   3.505
 2270SOL    HW1 7709   3.234   3.032   3.438
 2270SOL    HW2 7710   3.340   2.911   3.466
 2271SOL     OW 7711   1.939   4.021   2.773
 2271SOL    HW1 7712   1.931   3.932   2.817
 2271SOL    HW2 7713   2.024   4.025   2.721
 2272SOL     OW 7714   5.269   0.866   5.645
 2272SOL    HW1 7715   5.296   0.929   5.718
 2272SOL    HW2 7716   5.172   0.879   5.624
 2273SOL     OW 7717   0.340   1.347   2.328
 2273SOL    HW1 7718   0.365   1.291   2.249
 2273SOL    HW2 7719   0.408   1.336   2.400
 2274SOL     OW 7720   0.271   4.716   3.149
 2274SOL    HW1 7721   0.254   4.716   3.051
 2274SOL    HW2 7722   0.215   4.645   3.193
 2275SOL     OW 7723   4.626   6.451   3.500
 2275SOL    HW1 7724   4.630   6.494   3.409
 2275SOL    HW2 7725   4.613   6.352   3.489
 2276SOL     OW 7726   3.545   6.177   2.568
 2276SOL    HW1 7727   3.608   6.240   2.613
 2276SOL    HW2 7728   3.580   6.083   2.576
 2277SOL     OW 7729   3.418   2.910   2.511
 2277SOL    HW1 7730   3.388   3.005   2.514
 2277SOL    HW2 7731   3.494   2.901   2.446
 2278SOL     OW 7732   4.409   4.852   1.160
 2278SOL    HW1 7733   4.502   4.823   1.139
 2278SOL    HW2 7734   4.359   4.867   1.074
 2279SOL     OW 7735   5.826   4.030   5.468
 2279SOL    HW1 7736   5.764   4.035   5.390
 2279SOL    HW2 7737   5.823   3.937   5.506
 2280SOL     OW 7738   5.603   1.054   6.052
 2280SOL    HW1 7739   5.644   1.144   6.041
 2280SOL    HW2 7740   5.569   1.045   6.146
 2281SOL     OW 7741   2.485   0.308   0.653
 2281SOL    HW1 7742   2.568   0.251   0.656
 2281SOL    HW2 7743   2.509   0.399   0.622
 2282SOL     OW 7744   3.645   0.232   2.500
 2282SOL    HW1 7745   3.560   0.236   2.553
 2282SOL    HW2 7746   3.681   0.325   2.489
 2283SOL     OW 7747   0.792   3.261   1.494
 2283SOL    HW1 7748   0.795   3.352   1.453
 2283SOL    HW2 7749   0.762   3.269   1.589
 2284SOL     OW 7750   2.134   3.341   0.686
 2284SOL    HW1 7751   2.080   3.371   0.607
 2284SOL    HW2 7752   2.085   3.270   0.736
 2285SOL     OW 7753   2.514   2.717   6.964
 2285SOL    HW1 7754   2.514   2.642   0.007
 2285SOL    HW2 7755   2.604   2.724   6.921
 2286SOL     OW 7756   6.545   6.314   3.894
 2286SOL    HW1 7757   6.546   6.276   3.987
 2286SOL    HW2 7758   6.562   6.240   3.828
 2287SOL     OW 7759   2.486   1.452   0.410
 2287SOL    HW1 7760   2.525   1.485   0.496
 2287SOL    HW2 7761   2.556   1.404   0.358
 2288SOL     OW 7762   2.683   5.658   4.248
 2288SOL    HW1 7763   2.769   5.631   4.291
 2288SOL    HW2 7764   2.702   5.706   4.162
 2289SOL     OW 7765   3.741   0.089   6.209
 2289SOL    HW1 7766   3.824   0.125   6.250
 2289SOL    HW2 7767   3.730   0.127   6.117
 2290SOL     OW 7768   2.542   3.676   5.518
 2290SOL    HW1 7769   2.580   3.610   5.453
 2290SOL    HW2 7770   2.480   3.738   5.470
 2291SOL     OW 7771   3.132   1.737   0.464
 2291SOL    HW1 7772   3.086   1.695   0.542
 2291SOL    HW2 7773   3.148   1.834   0.482
 2292SOL     OW 7774   5.085   2.056   2.885
 2292SOL    HW1 7775   5.085   2.156   2.889
 2292SOL    HW2 7776   5.141   2.020   2.960
 2293SOL     OW 7777   0.630   0.862   0.119
 2293SOL    HW1 7778   0.724   0.832   0.134
 2293SOL    HW2 7779   0.601   0.921   0.195
 2294SOL     OW 7780   6.692   2.914   5.595
 2294SOL    HW1 7781   6.746   2.941   5.675
 2294SOL    HW2 7782   6.668   2.995   5.542
 2295SOL     OW 7783   5.669   5.708   0.134
 2295SOL    HW1 7784   5.607   5.746   0.203
 2295SOL    HW2 7785   5.739   5.652   0.178
 2296SOL     OW 7786   3.858   6.014   4.177
 2296SOL    HW1 7787   3.929   6.077   4.209
 2296SOL    HW2 7788   3.899   5.944   4.120
 2297SOL     OW 7789   6.510   2.717   6.858
 2297SOL    HW1 7790   6.456   2.702   6.941
 2297SOL    HW2 7791   6.450   2.751   6.785
 2298SOL     OW 7792   2.375   3.805   5.377
 2298SOL    HW1 7793   2.406   3.850   5.293
 2298SOL    HW2 7794   2.286   3.763   5.361
 2299SOL     OW 7795   5.976   3.722   4.818
 2299SOL    HW1 7796   5.910   3.780   4.768
 2299SOL    HW2 7797   6.033   3.672   4.753
 2300SOL     OW 7798   4.023   0.397   3.315
 2300SOL    HW1 7799   4.040   0.430   3.222
 2300SOL    HW2 7800   4.091   0.436   3.378
 2301SOL     OW 7801   4.143   3.122   5.822
 2301SOL    HW1 7802   4.133   3.217   5.794
 2301SOL    HW2 7803   4.156   3.117   5.921
 2302SOL     OW 7804   0.226   2.955   4.996
 2302SOL    HW1 7805   0.325   2.969   4.999
 2302SOL    HW2 7806   0.181   3.025   5.051
 2303SOL     OW 7807   2.877   2.046   6.485
 2303SOL    HW1 7808   2.924   2.012   6.567
 2303SOL    HW2 7809   2.781   2.020   6.488
 2304SOL     OW 7810   4.056   6.652   3.023
 2304SOL    HW1 7811   4.091   6.567   3.064
 2304SOL    HW2 7812   3.994   6.629   2.948
 2305SOL     OW 7813   2.786   5.874   4.918
 2305SOL    HW1 7814   2.823   5.815   4.989
 2305SOL    HW2 7815   2.740   5.952   4.959
 2306SOL     OW 7816   0.904   5.019   5.449
 2306SOL    HW1 7817   0.941   4.933   5.413
 2306SOL    HW2 7818   0.874   5.006   5.543
 2307SOL     OW 7819   5.948   4.041   5.049
 2307SOL    HW1 7820   5.887   4.068   4.975
 2307SOL    HW2 7821   6.029   3.996   5.010
 2308SOL     OW 7822   1.306   6.597   2.744
 2308SOL    HW1 7823   1.316   6.674   2.807
 2308SOL    HW2 7824   1.221   6.548   2.765
 2309SOL     OW 7825   2.131   1.093   4.897
 2309SOL    HW1 7826   2.092   1.163   4.836
 2309SOL    HW2 7827   2.077   1.087   4.980
 2310SOL     OW 7828   5.251   5.943   0.419
 2310SOL    HW1 7829   5.279   5.993   0.501
 2310SOL    HW2 7830   5.244   6.007   0.342
 2311SOL     OW 7831   2.351   5.746   0.668
 2311SOL    HW1 7832   2.319   5.666   0.718
 2311SOL    HW2 7833   2.395   5.810   0.731
 2312SOL     OW 7834   2.642   4.641   2.544
 2312SOL    HW1 7835   2.565   4.701   2.522
 2312SOL    HW2 7836   2.653   4.574   2.471
 2313SOL     OW 7837   4.897   5.252   1.609
 2313SOL    HW1 7838   4.853   5.210   1.529
 2313SOL    HW2 7839   4.910   5.183   1.680
 2314SOL     OW 7840   2.407   4.372   2.840
 2314SOL    HW1 7841   2.478   4.302   2.850
 2314SOL    HW2 7842   2.327   4.332   2.795
 2315SOL     OW 7843   3.772   1.822   6.534
 2315SOL    HW1 7844   3.863   1.826   6.492
 2315SOL    HW2 7845   3.738   1.915   6.547
 2316SOL     OW 7846   5.334   4.019   1.270
 2316SOL    HW1 7847   5.274   3.951   1.311
 2316SOL    HW2 7848   5.280   4.096   1.236
 2317SOL     OW 7849   0.262   6.456   3.631
 2317SOL    HW1 7850   0.318   6.535   3.607
 2317SOL    HW2 7851   0.251   6.452   3.731
 2318SOL     OW 7852   0.041   1.694   3.410
 2318SOL    HW1 7853   0.105   1.722   3.482
 2318SOL    HW2 7854   6.981   1.747   3.418
 2319SOL     OW 7855   1.068   5.614   2.815
 2319SOL    HW1 7856   1.155   5.662   2.824
 2319SOL    HW2 7857   1.079   5.520   2.847
 2320SOL     OW 7858   6.775   4.843   3.357
 2320SOL    HW1 7859   6.786   4.769   3.290
 2320SOL    HW2 7860   6.824   4.924   3.324
 2321SOL     OW 7861   3.267   4.941   3.883
 2321SOL    HW1 7862   3.262   5.037   3.857
 2321SOL    HW2 7863   3.191   4.891   3.842
 2322SOL     OW 7864   2.050   1.952   4.565
 2322SOL    HW1 7865   2.103   1.876   4.603
 2322SOL    HW2 7866   2.044   1.942   4.466
 2323SOL     OW 7867   5.331   3.986   1.619
 2323SOL    HW1 7868   5.256   4.051   1.629
 2323SOL    HW2 7869   5.410   4.017   1.672
 2324SOL     OW 7870   0.606   5.570   4.206
 2324SOL    HW1 7871   0.571   5.572   4.112
 2324SOL    HW2 7872   0.530   5.586   4.270
 2325SOL     OW 7873   5.972   1.951   0.894
 2325SOL    HW1 7874   5.928   1.862   0.881
 2325SOL    HW2 7875   5.995   1.964   0.990
 2326SOL     OW 7876   0.323   5.403   0.441
 2326SOL    HW1 7877   0.380   5.366   0.368
 2326SOL    HW2 7878   0.233   5.426   0.404
 2327SOL     OW 7879   4.613   1.603   3.047
 2327SOL    HW1 7880   4.681   1.556   2.991
 2327SOL    HW2 7881   4.522   1.586   3.009
 2328SOL     OW 7882   6.235   4.999   4.053
 2328SOL    HW1 7883   6.269   4.906   4.043
 2328SOL    HW2 7884   6.237   5.025   4.150
 2329SOL     OW 7885   1.346   6.479   3.479
 2329SOL    HW1 7886   1.336   6.494   3.381
 2329SOL    HW2 7887   1.396   6.556   3.519
 2330SOL     OW 7888   1.595   4.150   0.265
 2330SOL    HW1 7889   1.522   4.107   0.319
 2330SOL    HW2 7890   1.671   4.175   0.325
 2331SOL     OW 7891   1.991   4.948   4.511
 2331SOL    HW1 7892   2.023   5.038   4.542
 2331SOL    HW2 7893   1.997   4.883   4.586
 2332SOL     OW 7894   6.960   3.533   6.142
 2332SOL    HW1 7895   0.024   3.491   6.166
 2332SOL    HW2 7896   6.967   3.574   6.051
 2333SOL     OW 7897   2.444   4.520   4.194
 2333SOL    HW1 7898   2.346   4.505   4.208
 2333SOL    HW2 7899   2.495   4.491   4.275
 2334SOL     OW 7900   2.604   0.259   5.719
 2334SOL    HW1 7901   2.585   0.187   5.653
 2334SOL    HW2 7902   2.633   0.218   5.806
 2335SOL     OW 7903   4.861   4.809   4.259
 2335SOL    HW1 7904   4.784   4.771   4.310
 2335SOL    HW2 7905   4.829   4.888   4.205
 2336SOL     OW 7906   4.634   1.128   5.406
 2336SOL    HW1 7907   4.637   1.157   5.310
 2336SOL    HW2 7908   4.706   1.175   5.457
 2337SOL     OW 7909   5.556   0.733   5.165
 2337SOL    HW1 7910   5.627   0.664   5.150
 2337SOL    HW2 7911   5.578   0.785   5.248
 2338SOL     OW 7912   1.747   0.162   6.756
 2338SOL    HW1 7913   1.728   0.242   6.813
 2338SOL    HW2 7914   1.679   0.090   6.774
 2339SOL     OW 7915   3.820   4.593   6.552
 2339SOL    HW1 7916   3.840   4.520   6.617
 2339SOL    HW2 7917   3.721   4.602   6.542
 2340SOL     OW 7918   4.381   5.004   4.114
 2340SOL    HW1 7919   4.342   5.091   4.083
 2340SOL    HW2 7920   4.398   5.008   4.212
 2341SOL     OW 7921   0.340   4.179   6.191
 2341SOL    HW1 7922   0.371   4.113   6.123
 2341SOL    HW2 7923   0.338   4.135   6.281
 2342SOL     OW 7924   5.791   0.957   5.892
 2342SOL    HW1 7925   5.760   0.880   5.836
 2342SOL    HW2 7926   5.716   0.988   5.950
 2343SOL     OW 7927   1.610   5.740   1.648
 2343SOL    HW1 7928   1.529   5.683   1.660
 2343SOL    HW2 7929   1.673   5.695   1.585
 2344SOL     OW 7930   2.081   0.921   2.679
 2344SOL    HW1 7931   2.098   1.018   2.696
 2344SOL    HW2 7932   2.067   0.907   2.581
 2345SOL     OW 7933   0.840   2.153   2.324
 2345SOL    HW1 7934   0.811   2.107   2.407
 2345SOL    HW2 7935   0.940   2.153   2.319
 2346SOL     OW 7936   5.019   3.005   5.082
 2346SOL    HW1 7937   5.114   3.001   5.112
 2346SOL    HW2 7938   5.015   3.029   4.985
 2347SOL     OW 7939   1.303   4.151   0.689
 2347SOL    HW1 7940   1.399   4.166   0.665
 2347SOL    HW2 7941   1.244   4.186   0.616
 2348SOL     OW 7942   2.969   6.852   1.197
 2348SOL    HW1 7943   2.919   6.818   1.277
 2348SOL    HW2 7944   3.059   6.884   1.225
 2349SOL     OW 7945   5.698   3.359   6.923
 2349SOL    HW1 7946   5.794   3.332   6.933
 2349SOL    HW2 7947   5.641   3.303   6.984
 2350SOL     OW 7948   2.324   6.127   5.412
 2350SOL    HW1 7949   2.241   6.097   5.459
 2350SOL    HW2 7950   2.299   6.168   5.325
 2351SOL     OW 7951   1.821   5.113   3.577
 2351SOL    HW1 7952   1.865   5.095   3.665
 2351SOL    HW2 7953   1.825   5.211   3.557
 2352SOL     OW 7954   5.854   6.079   6.465
 2352SOL    HW1 7955   5.831   6.030   6.380
 2352SOL    HW2 7956   5.924   6.148   6.446
 2353SOL     OW 7957   3.377   2.764   5.873
 2353SOL    HW1 7958   3.311   2.822   5.825
 2353SOL    HW2 7959   3.399   2.805   5.961
 2354SOL     OW 7960   3.562   1.636   2.318
 2354SOL    HW1 7961   3.495   1.697   2.275
 2354SOL    HW2 7962   3.517   1.554   2.352
 2355SOL     OW 7963   0.021   1.730   2.474
 2355SOL    HW1 7964   7.001   1.644   2.500
 2355SOL    HW2 7965   0.086   1.713   2.400
 2356SOL     OW 7966   3.809   4.987   4.274
 2356SOL    HW1 7967   3.739   4.970   4.343
 2356SOL    HW2 7968   3.893   4.940   4.299
 2357SOL     OW 7969   1.120   5.323   1.342
 2357SOL    HW1 7970   1.131   5.227   1.320
 2357SOL    HW2 7971   1.191   5.351   1.407
 2358SOL     OW 7972   2.113   0.717   5.395
 2358SOL    HW1 7973   2.054   0.658   5.451
 2358SOL    HW2 7974   2.146   0.667   5.315
 2359SOL     OW 7975   2.976   2.571   5.921
 2359SOL    HW1 7976   2.956   2.552   5.825
 2359SOL    HW2 7977   3.074   2.560   5.938
 2360SOL     OW 7978   3.229   4.825   0.882
 2360SOL    HW1 7979   3.173   4.765   0.826
 2360SOL    HW2 7980   3.298   4.869   0.825
 2361SOL     OW 7981   3.660   4.841   1.197
 2361SOL    HW1 7982   3.682   4.791   1.281
 2361SOL    HW2 7983   3.693   4.935   1.205
 2362SOL     OW 7984   2.792   4.712   4.589
 2362SOL    HW1 7985   2.732   4.701   4.668
 2362SOL    HW2 7986   2.815   4.622   4.552
 2363SOL     OW 7987   2.364   4.220   1.386
 2363SOL    HW1 7988   2.300   4.189   1.316
 2363SOL    HW2 7989   2.320   4.288   1.444
 2364SOL     OW 7990   5.413   0.982   2.687
 2364SOL    HW1 7991   5.425   0.902   2.628
 2364SOL    HW2 7992   5.336   1.037   2.653
 2365SOL     OW 7993   5.704   4.434   2.648
 2365SOL    HW1 7994   5.695   4.413   2.745
 2365SOL    HW2 7995   5.796   4.409   2.617
 2366SOL     OW 7996   3.604   5.120   5.014
 2366SOL    HW1 7997   3.551   5.170   5.082
 2366SOL    HW2 7998   3.646   5.185   4.951
 2367SOL     OW 7999   5.931   4.753   5.715
 2367SOL    HW1 8000   5.940   4.779   5.619
 2367SOL    HW2 8001   5.973   4.664   5.729
 2368SOL     OW 8002   5.011   0.347   5.384
 2368SOL    HW1 8003   4.954   0.417   5.342
 2368SOL    HW2 8004   5.027   0.273   5.318
 2369SOL     OW 8005   3.961   1.737   4.013
 2369SOL    HW1 8006   3.865   1.708   4.017
 2369SOL    HW2 8007   4.010   1.681   3.946
 2370SOL     OW 8008   3.945   2.269   0.943
 2370SOL    HW1 8009   3.998   2.251   0.860
 2370SOL    HW2 8010   3.989   2.342   0.995
 2371SOL     OW 8011   2.105   6.506   2.588
 2371SOL    HW1 8012   2.118   6.599   2.554
 2371SOL    HW2 8013   2.016   6.499   2.633
 2372SOL     OW 8014   6.317   6.932   5.914
 2372SOL    HW1 8015   6.251   6.864   5.882
 2372SOL    HW2 8016   6.394   6.886   5.958
 2373SOL     OW 8017   6.299   4.033   5.822
 2373SOL    HW1 8018   6.300   4.114   5.764
 2373SOL    HW2 8019   6.345   3.957   5.775
 2374SOL     OW 8020   6.675   5.992   2.716
 2374SOL    HW1 8021   6.614   5.915   2.734
 2374SOL    HW2 8022   6.701   5.993   2.620
 2375SOL     OW 8023   1.951   0.186   4.617
 2375SOL    HW1 8024   2.026   0.251   4.602
 2375SOL    HW2 8025   1.887   0.192   4.540
 2376SOL     OW 8026   5.537   3.357   3.768
 2376SOL    HW1 8027   5.576   3.301   3.695
 2376SOL    HW2 8028   5.483   3.431   3.729
 2377SOL     OW 8029   3.780   4.483   5.780
 2377SOL    HW1 8030   3.698   4.541   5.778
 2377SOL    HW2 8031   3.781   4.424   5.699
 2378SOL     OW 8032   0.928   0.923   0.931
 2378SOL    HW1 8033   0.956   0.898   0.838
 2378SOL    HW2 8034   0.868   1.002   0.928
 2379SOL     OW 8035   0.761   4.884   2.514
 2379SOL    HW1 8036   0.848   4.836   2.528
 2379SOL    HW2 8037   0.694   4.851   2.581
 2380SOL     OW 8038   4.451   5.245   6.573
 2380SOL    HW1 8039   4.379   5.250   6.642
 2380SOL    HW2 8040   4.433   5.313   6.501
 2381SOL     OW 8041   2.183   3.713   3.772
 2381SOL    HW1 8042   2.174   3.812   3.757
 2381SOL    HW2 8043   2.191   3.667   3.683
 2382SOL     OW 8044   6.136   6.243   2.574
 2382SOL    HW1 8045   6.152   6.164   2.514
 2382SOL    HW2 8046   6.049   6.286   2.548
 2383SOL     OW 8047   5.359   4.026   6.177
 2383SOL    HW1 8048   5.429   4.097   6.183
 2383SOL    HW2 8049   5.330   3.999   6.269
 2384SOL     OW 8050   0.743   2.273   3.217
 2384SOL    HW1 8051   0.775   2.338   3.286
 2384SOL    HW2 8052   0.792   2.187   3.228
 2385SOL     OW 8053   0.445   1.185   0.752
 2385SOL    HW1 8054   0.382   1.257   0.779
 2385SOL    HW2 8055   0.495   1.213   0.670
 2386SOL     OW 8056   6.631   4.950   5.854
 2386SOL    HW1 8057   6.552   4.992   5.810
 2386SOL    HW2 8058   6.631   4.972   5.951
 2387SOL     OW 8059   6.850   0.435   3.495
 2387SOL    HW1 8060   6.897   0.361   3.446
 2387SOL    HW2 8061   6.852   0.518   3.439
 2388SOL     OW 8062   1.788   3.696   4.548
 2388SOL    HW1 8063   1.877   3.741   4.560
 2388SOL    HW2 8064   1.719   3.765   4.526
 2389SOL     OW 8065   3.602   0.272   2.993
 2389SOL    HW1 8066   3.615   0.368   2.968
 2389SOL    HW2 8067   3.676   0.217   2.954
 2390SOL     OW 8068   5.080   2.916   5.422
 2390SOL    HW1 8069   5.099   2.845   5.354
 2390SOL    HW2 8070   4.984   2.913   5.448
 2391SOL     OW 8071   2.713   3.823   6.260
 2391SOL    HW1 8072   2.692   3.769   6.178
 2391SOL    HW2 8073   2.811   3.818   6.279
 2392SOL     OW 8074   4.405   5.204   5.874
 2392SOL    HW1 8075   4.315   5.241   5.898
 2392SOL    HW2 8076   4.452   5.176   5.957
 2393SOL     OW 8077   4.333   4.250   0.315
 2393SOL    HW1 8078   4.406   4.182   0.315
 2393SOL    HW2 8079   4.371   4.340   0.335
 2394SOL     OW 8080   0.128   2.735   3.120
 2394SOL    HW1 8081   0.034   2.707   3.103
 2394SOL    HW2 8082   0.188   2.697   3.049
 2395SOL     OW 8083   1.605   2.372   3.700
 2395SOL    HW1 8084   1.537   2.373   3.773
 2395SOL    HW2 8085   1.574   2.312   3.627
 2396SOL     OW 8086   0.268   0.387   6.348
 2396SOL    HW1 8087   0.312   0.469   6.384
 2396SOL    HW2 8088   0.207   0.348   6.417
 2397SOL     OW 8089   2.356   4.440   5.997
 2397SOL    HW1 8090   2.267   4.484   6.009
 2397SOL    HW2 8091   2.377   4.433   5.899
 2398SOL     OW 8092   3.937   6.218   4.595
 2398SOL    HW1 8093   3.960   6.187   4.503
 2398SOL    HW2 8094   3.839   6.203   4.612
 2399SOL     OW 8095   3.188   1.486   2.433
 2399SOL    HW1 8096   3.113   1.426   2.459
 2399SOL    HW2 8097   3.267   1.430   2.407
 2400SOL     OW 8098   1.189   2.356   6.744
 2400SOL    HW1 8099   1.149   2.265   6.745
 2400SOL    HW2 8100   1.127   2.422   6.786
 2401SOL     OW 8101   1.290   6.610   0.876
 2401SOL    HW1 8102   1.231   6.591   0.797
 2401SOL    HW2 8103   1.298   6.709   0.887
 2402SOL     OW 8104   0.749   3.117   2.011
 2402SOL    HW1 8105   0.799   3.031   2.017
 2402SOL    HW2 8106   0.651   3.099   2.006
 2403SOL     OW 8107   3.103   4.460   5.314
 2403SOL    HW1 8108   3.029   4.460   5.247
 2403SOL    HW2 8109   3.165   4.536   5.295
 2404SOL     OW 8110   6.363   2.138   1.983
 2404SOL    HW1 8111   6.336   2.160   1.889
 2404SOL    HW2 8112   6.320   2.052   2.010
 2405SOL     OW 8113   2.083   2.944   0.426
 2405SOL    HW1 8114   2.155   3.003   0.463
 2405SOL    HW2 8115   1.994   2.978   0.456
 2406SOL     OW 8116   4.167   5.852   5.005
 2406SOL    HW1 8117   4.257   5.878   4.970
 2406SOL    HW2 8118   4.177   5.808   5.094
 2407SOL     OW 8119   2.076   1.811   3.475
 2407SOL    HW1 8120   2.060   1.824   3.378
 2407SOL    HW2 8121   2.171   1.782   3.489
 2408SOL     OW 8122   4.638   6.788   4.770
 2408SOL    HW1 8123   4.554   6.751   4.809
 2408SOL    HW2 8124   4.716   6.739   4.808
 2409SOL     OW 8125   1.072   3.052   6.525
 2409SOL    HW1 8126   1.028   3.136   6.557
 2409SOL    HW2 8127   1.171   3.067   6.518
 2410SOL     OW 8128   6.884   3.869   4.329
 2410SOL    HW1 8129   6.953   3.809   4.289
 2410SOL    HW2 8130   6.793   3.840   4.296
 2411SOL     OW 8131   3.271   1.518   0.817
 2411SOL    HW1 8132   3.273   1.539   0.719
 2411SOL    HW2 8133   3.346   1.566   0.863
 2412SOL     OW 8134   3.252   2.328   6.822
 2412SOL    HW1 8135   3.240   2.422   6.853
 2412SOL    HW2 8136   3.245   2.265   6.900
 2413SOL     OW 8137   6.787   3.930   6.320
 2413SOL    HW1 8138   6.779   3.847   6.376
 2413SOL    HW2 8139   6.884   3.946   6.300
 2414SOL     OW 8140   6.451   1.643   4.801
 2414SOL    HW1 8141   6.434   1.674   4.895
 2414SOL    HW2 8142   6.531   1.690   4.765
 2415SOL     OW 8143   3.265   4.073   5.492
 2415SOL    HW1 8144   3.201   4.031   5.556
 2415SOL    HW2 8145   3.254   4.172   5.493
 2416SOL     OW 8146   7.013   3.594   3.853
 2416SOL    HW1 8147   6.948   3.640   3.793
 2416SOL    HW2 8148   0.048   3.661   3.898
 2417SOL     OW 8149   3.589   2.506   1.734
 2417SOL    HW1 8150   3.553   2.491   1.642
 2417SOL    HW2 8151   3.610   2.418   1.776
 2418SOL     OW 8152   6.348   3.577   6.416
 2418SOL    HW1 8153   6.327   3.577   6.513
 2418SOL    HW2 8154   6.319   3.490   6.375
 2419SOL     OW 8155   3.554   1.047   2.808
 2419SOL    HW1 8156   3.569   1.041   2.907
 2419SOL    HW2 8157   3.630   1.095   2.765
 2420SOL     OW 8158   0.933   3.200   1.732
 2420SOL    HW1 8159   0.927   3.100   1.741
 2420SOL    HW2 8160   0.964   3.223   1.640
 2421SOL     OW 8161   2.391   0.304   2.867
 2421SOL    HW1 8162   2.415   0.391   2.911
 2421SOL    HW2 8163   2.458   0.283   2.796
 2422SOL     OW 8164   3.436   6.854   0.324
 2422SOL    HW1 8165   3.529   6.817   0.316
 2422SOL    HW2 8166   3.405   6.846   0.418
 2423SOL     OW 8167   4.077   4.912   4.820
 2423SOL    HW1 8168   4.153   4.853   4.848
 2423SOL    HW2 8169   4.013   4.922   4.896
 2424SOL     OW 8170   5.385   0.407   6.208
 2424SOL    HW1 8171   5.342   0.400   6.118
 2424SOL    HW2 8172   5.389   0.317   6.251
 2425SOL     OW 8173   4.421   5.327   5.171
 2425SOL    HW1 8174   4.494   5.388   5.204
 2425SOL    HW2 8175   4.350   5.320   5.241
 2426SOL     OW 8176   3.000   2.285   5.308
 2426SOL    HW1 8177   2.936   2.278   5.231
 2426SOL    HW2 8178   3.076   2.344   5.283
 2427SOL     OW 8179   4.556   2.123   7.004
 2427SOL    HW1 8180   4.527   2.164   0.067
 2427SOL    HW2 8181   4.560   2.194   6.933
 2428SOL     OW 8182   1.711   1.957   2.373
 2428SOL    HW1 8183   1.771   2.026   2.332
 2428SOL    HW2 8184   1.620   1.996   2.388
 2429SOL     OW 8185   5.158   5.902   1.553
 2429SOL    HW1 8186   5.060   5.890   1.566
 2429SOL    HW2 8187   5.175   5.991   1.510
 2430SOL     OW 8188   6.704   0.331   0.214
 2430SOL    HW1 8189   6.698   0.232   0.198
 2430SOL    HW2 8190   6.797   0.354   0.240
 2431SOL     OW 8191   1.779   2.611   1.502
 2431SOL    HW1 8192   1.738   2.586   1.414
 2431SOL    HW2 8193   1.866   2.562   1.514
 2432SOL     OW 8194   3.245   6.194   2.158
 2432SOL    HW1 8195   3.337   6.213   2.192
 2432SOL    HW2 8196   3.224   6.097   2.174
 2433SOL     OW 8197   0.576   4.454   4.227
 2433SOL    HW1 8198   0.606   4.460   4.322
 2433SOL    HW2 8199   0.655   4.457   4.166
 2434SOL     OW 8200   4.076   1.774   2.496
 2434SOL    HW1 8201   4.159   1.830   2.497
 2434SOL    HW2 8202   4.003   1.823   2.544
 2435SOL     OW 8203   5.399   0.013   6.550
 2435SOL    HW1 8204   5.485   0.007   6.500
 2435SOL    HW2 8205   5.411   7.000   6.642
 2436SOL     OW 8206   0.048   2.631   0.638
 2436SOL    HW1 8207   7.004   2.705   0.649
 2436SOL    HW2 8208   0.000   2.546   0.616
 2437SOL     OW 8209   1.151   4.527   1.381
 2437SOL    HW1 8210   1.060   4.501   1.347
 2437SOL    HW2 8211   1.181   4.461   1.449
 2438SOL     OW 8212   3.621   1.894   4.228
 2438SOL    HW1 8213   3.631   1.965   4.158
 2438SOL    HW2 8214   3.605   1.938   4.317
 2439SOL     OW 8215   0.534   5.763   0.176
 2439SOL    HW1 8216   0.511   5.678   0.224
 2439SOL    HW2 8217   0.547   5.743   0.079
 2440SOL     OW 8218   6.418   2.658   5.268
 2440SOL    HW1 8219   6.327   2.671   5.306
 2440SOL    HW2 8220   6.412   2.612   5.180
 2441SOL     OW 8221   6.592   0.574   0.184
 2441SOL    HW1 8222   6.594   0.474   0.186
 2441SOL    HW2 8223   6.652   0.607   0.112
 2442SOL     OW 8224   5.605   3.155   2.361
 2442SOL    HW1 8225   5.597   3.231   2.426
 2442SOL    HW2 8226   5.651   3.078   2.406
 2443SOL     OW 8227   0.389   3.051   1.170
 2443SOL    HW1 8228   0.345   2.962   1.165
 2443SOL    HW2 8229   0.325   3.118   1.207
 2444SOL     OW 8230   3.604   4.979   2.761
 2444SOL    HW1 8231   3.575   5.030   2.681
 2444SOL    HW2 8232   3.700   4.953   2.752
 2445SOL     OW 8233   0.557   2.039   1.328
 2445SOL    HW1 8234   0.459   2.057   1.334
 2445SOL    HW2 8235   0.604   2.084   1.404
 2446SOL     OW 8236   6.486   5.592   0.955
 2446SOL    HW1 8237   6.542   5.674   0.947
 2446SOL    HW2 8238   6.430   5.581   0.873
 2447SOL     OW 8239   1.971   6.750   0.288
 2447SOL    HW1 8240   2.032   6.809   0.341
 2447SOL    HW2 8241   1.880   6.752   0.330
 2448SOL     OW 8242   5.758   0.921   4.164
 2448SOL    HW1 8243   5.683   0.948   4.104
 2448SOL    HW2 8244   5.725   0.855   4.232
 2449SOL     OW 8245   2.194   4.070   1.202
 2449SOL    HW1 8246   2.277   4.035   1.157
 2449SOL    HW2 8247   2.130   3.995   1.218
 2450SOL     OW 8248   0.045   6.668   5.288
 2450SOL    HW1 8249   0.040   6.597   5.217
 2450SOL    HW2 8250   0.138   6.670   5.326
 2451SOL     OW 8251   1.344   6.616   6.935
 2451SOL    HW1 8252   1.381   6.560   7.008
 2451SOL    HW2 8253   1.418   6.664   6.888
 2452SOL     OW 8254   2.368   2.051   3.452
 2452SOL    HW1 8255   2.395   1.964   3.412
 2452SOL    HW2 8256   2.426   2.070   3.532
 2453SOL     OW 8257   1.493   1.942   6.190
 2453SOL    HW1 8258   1.481   2.020   6.252
 2453SOL    HW2 8259   1.534   1.973   6.105
 2454SOL     OW 8260   2.479   6.824   6.948
 2454SOL    HW1 8261   2.420   6.859   6.875
 2454SOL    HW2 8262   2.575   6.842   6.924
 2455SOL     OW 8263   4.922   2.324   0.285
 2455SOL    HW1 8264   4.992   2.266   0.242
 2455SOL    HW2 8265   4.899   2.288   0.375
 2456SOL     OW 8266   0.535   2.903   6.237
 2456SOL    HW1 8267   0.555   2.990   6.282
 2456SOL    HW2 8268   0.618   2.868   6.193
 2457SOL     OW 8269   5.221   1.503   6.104
 2457SOL    HW1 8270   5.136   1.492   6.154
 2457SOL    HW2 8271   5.247   1.415   6.063
 2458SOL     OW 8272   0.998   0.093   2.309
 2458SOL    HW1 8273   1.004   0.079   2.210
 2458SOL    HW2 8274   1.035   0.183   2.333
 2459SOL     OW 8275   1.513   6.417   1.625
 2459SOL    HW1 8276   1.517   6.317   1.634
 2459SOL    HW2 8277   1.477   6.440   1.534
 2460SOL     OW 8278   0.191   0.372   4.137
 2460SOL    HW1 8279   0.160   0.356   4.230
 2460SOL    HW2 8280   0.217   0.468   4.126
 2461SOL     OW 8281   2.367   1.092   3.356
 2461SOL    HW1 8282   2.334   1.163   3.294
 2461SOL    HW2 8283   2.454   1.119   3.396
 2462SOL     OW 8284   7.000   6.470   0.941
 2462SOL    HW1 8285   6.987   6.378   0.978
 2462SOL    HW2 8286   6.970   6.537   1.009
 2463SOL     OW 8287   6.966   6.766   0.767
 2463SOL    HW1 8288   6.911   6.690   0.732
 2463SOL    HW2 8289   6.970   6.761   0.867
 2464SOL     OW 8290   0.983   2.393   5.000
 2464SOL    HW1 8291   0.896   2.429   4.968
 2464SOL    HW2 8292   1.032   2.464   5.051
 2465SOL     OW 8293   6.348   1.500   0.294
 2465SOL    HW1 8294   6.438   1.523   0.330
 2465SOL    HW2 8295   6.305   1.583   0.257
 2466SOL     OW 8296   0.840   2.251   1.279
 2466SOL    HW1 8297   0.895   2.332   1.258
 2466SOL    HW2 8298   0.749   2.262   1.240
 2467SOL     OW 8299   5.149   2.232   5.305
 2467SOL    HW1 8300   5.202   2.165   5.357
 2467SOL    HW2 8301   5.059   2.194   5.282
 2468SOL     OW 8302   3.022   0.255   4.879
 2468SOL    HW1 8303   3.034   0.178   4.816
 2468SOL    HW2 8304   3.109   0.278   4.922
 2469SOL     OW 8305   2.871   1.901   6.047
 2469SOL    HW1 8306   2.906   1.905   5.954
 2469SOL    HW2 8307   2.914   1.972   6.102
 2470SOL     OW 8308   2.235   5.238   6.461
 2470SOL    HW1 8309   2.248   5.229   6.362
 2470SOL    HW2 8310   2.138   5.228   6.482
 2471SOL     OW 8311   3.292   5.458   2.870
 2471SOL    HW1 8312   3.207   5.493   2.909
 2471SOL    HW2 8313   3.302   5.361   2.893
 2472SOL     OW 8314   4.986   1.380   3.062
 2472SOL    HW1 8315   4.951   1.392   2.969
 2472SOL    HW2 8316   5.039   1.460   3.088
 2473SOL     OW 8317   0.790   4.152   4.538
 2473SOL    HW1 8318   0.802   4.054   4.528
 2473SOL    HW2 8319   0.793   4.176   4.636
 2474SOL     OW 8320   1.709   6.329   0.864
 2474SOL    HW1 8321   1.682   6.371   0.777
 2474SOL    HW2 8322   1.628   6.316   0.921
 2475SOL     OW 8323   5.611   1.887   0.964
 2475SOL    HW1 8324   5.652   1.804   1.001
 2475SOL    HW2 8325   5.529   1.910   1.017
 2476SOL     OW 8326   4.706   0.050   6.806
 2476SOL    HW1 8327   4.750   0.137   6.785
 2476SOL    HW2 8328   4.745   7.001   6.749
 2477SOL     OW 8329   3.721   1.276   3.564
 2477SOL    HW1 8330   3.783   1.215   3.613
 2477SOL    HW2 8331   3.638   1.290   3.618
 2478SOL     OW 8332   3.440   0.402   4.184
 2478SOL    HW1 8333   3.475   0.367   4.271
 2478SOL    HW2 8334   3.344   0.426   4.194
 2479SOL     OW 8335   5.553   4.148   1.466
 2479SOL    HW1 8336   5.584   4.055   1.485
 2479SOL    HW2 8337   5.479   4.146   1.398
 2480SOL     OW 8338   3.041   2.273   1.464
 2480SOL    HW1 8339   3.125   2.325   1.450
 2480SOL    HW2 8340   2.963   2.336   1.468
 2481SOL     OW 8341   3.308   6.808   1.942
 2481SOL    HW1 8342   3.319   6.833   1.846
 2481SOL    HW2 8343   3.397   6.792   1.984
 2482SOL     OW 8344   6.955   2.957   0.143
 2482SOL    HW1 8345   6.996   2.873   0.180
 2482SOL    HW2 8346   6.888   2.932   0.073
 2483SOL     OW 8347   2.517   2.410   1.640
 2483SOL    HW1 8348   2.556   2.391   1.730
 2483SOL    HW2 8349   2.472   2.328   1.605
 2484SOL     OW 8350   4.331   0.306   6.359
 2484SOL    HW1 8351   4.314   0.346   6.269
 2484SOL    HW2 8352   4.352   0.379   6.424
 2485SOL     OW 8353   0.356   1.506   6.444
 2485SOL    HW1 8354   0.273   1.456   6.472
 2485SOL    HW2 8355   0.428   1.441   6.421
 2486SOL     OW 8356   6.644   5.939   3.448
 2486SOL    HW1 8357   6.652   6.032   3.485
 2486SOL    HW2 8358   6.734   5.906   3.419
 2487SOL     OW 8359   4.572   6.483   0.266
 2487SOL    HW1 8360   4.506   6.537   0.214
 2487SOL    HW2 8361   4.661   6.528   0.264
 2488SOL     OW 8362   6.989   4.004   0.904
 2488SOL    HW1 8363   0.044   4.060   0.876
 2488SOL    HW2 8364   6.919   4.062   0.945
 2489SOL     OW 8365   6.273   5.348   4.439
 2489SOL    HW1 8366   6.270   5.379   4.344
 2489SOL    HW2 8367   6.242   5.422   4.499
 2490SOL     OW 8368   2.543   5.719   1.801
 2490SOL    HW1 8369   2.554   5.723   1.900
 2490SOL    HW2 8370   2.479   5.791   1.772
 2491SOL     OW 8371   3.942   4.677   1.726
 2491SOL    HW1 8372   4.009   4.693   1.652
 2491SOL    HW2 8373   3.917   4.580   1.727
 2492SOL     OW 8374   6.995   5.839   1.334
 2492SOL    HW1 8375   6.967   5.780   1.410
 2492SOL    HW2 8376   6.914   5.867   1.282
 2493SOL     OW 8377   5.802   6.589   0.794
 2493SOL    HW1 8378   5.840   6.526   0.726
 2493SOL    HW2 8379   5.862   6.591   0.874
 2494SOL     OW 8380   6.815   4.249   0.968
 2494SOL    HW1 8381   6.820   4.285   1.061
 2494SOL    HW2 8382   6.755   4.307   0.912
 2495SOL     OW 8383   0.036   3.311   2.145
 2495SOL    HW1 8384   0.028   3.339   2.240
 2495SOL    HW2 8385   6.972   3.323   2.099
 2496SOL     OW 8386   5.894   4.071   6.326
 2496SOL    HW1 8387   5.958   4.098   6.398
 2496SOL    HW2 8388   5.853   3.983   6.348
 2497SOL     OW 8389   0.400   0.000   3.360
 2497SOL    HW1 8390   0.370   6.995   3.451
 2497SOL    HW2 8391   0.402   0.100   3.356
 2498SOL     OW 8392   1.898   3.355   4.710
 2498SOL    HW1 8393   1.943   3.377   4.797
 2498SOL    HW2 8394   1.861   3.439   4.670
 2499SOL     OW 8395   6.075   3.665   2.228
 2499SOL    HW1 8396   6.159   3.612   2.211
 2499SOL    HW2 8397   5.999   3.620   2.182
 2500SOL     OW 8398   3.563   3.251   2.296
 2500SOL    HW1 8399   3.565   3.240   2.196
 2500SOL    HW2 8400   3.512   3.335   2.319
 2501SOL     OW 8401   6.078   5.513   5.240
 2501SOL    HW1 8402   6.151   5.548   5.299
 2501SOL    HW2 8403   6.046   5.425   5.274
 2502SOL     OW 8404   2.624   5.442   3.917
 2502SOL    HW1 8405   2.722   5.458   3.930
 2502SOL    HW2 8406   2.574   5.481   3.994
 2503SOL     OW 8407   2.323   0.228   5.243
 2503SOL    HW1 8408   2.376   0.310   5.261
 2503SOL    HW2 8409   2.372   0.148   5.279
 2504SOL     OW 8410   3.907   0.165   3.300
 2504SOL    HW1 8411   3.946   0.256   3.309
 2504SOL    HW2 8412   3.837   0.152   3.370
 2505SOL     OW 8413   5.829   4.632   4.038
 2505SOL    HW1 8414   5.753   4.676   3.990
 2505SOL    HW2 8415   5.887   4.702   4.080
 2506SOL     OW 8416   6.426   5.357   6.609
 2506SOL    HW1 8417   6.349   5.363   6.547
 2506SOL    HW2 8418   6.510   5.337   6.558
 2507SOL     OW 8419   6.362   3.297   3.331
 2507SOL    HW1 8420   6.317   3.208   3.318
 2507SOL    HW2 8421   6.332   3.361   3.260
 2508SOL     OW 8422   6.276   0.862   3.921
 2508SOL    HW1 8423   6.304   0.957   3.905
 2508SOL    HW2 8424   6.223   0.858   4.005
 2509SOL     OW 8425   6.814   2.816   6.293
 2509SOL    HW1 8426   6.898   2.862   6.320
 2509SOL    HW2 8427   6.772   2.774   6.373
 2510SOL     OW 8428   3.528   3.892   2.234
 2510SOL    HW1 8429   3.522   3.822   2.305
 2510SOL    HW2 8430   3.615   3.885   2.187
 2511SOL     OW 8431   2.120   0.994   4.325
 2511SOL    HW1 8432   2.109   1.044   4.239
 2511SOL    HW2 8433   2.050   1.024   4.390
 2512SOL     OW 8434   3.708   4.895   4.022
 2512SOL    HW1 8435   3.613   4.871   4.041
 2512SOL    HW2 8436   3.758   4.908   4.108
 2513SOL     OW 8437   2.121   5.710   6.651
 2513SOL    HW1 8438   2.056   5.774   6.609
 2513SOL    HW2 8439   2.214   5.736   6.626
 2514SOL     OW 8440   1.821   2.066   2.915
 2514SOL    HW1 8441   1.869   2.149   2.943
 2514SOL    HW2 8442   1.855   2.036   2.826
 2515SOL     OW 8443   0.156   1.994   0.980
 2515SOL    HW1 8444   0.090   2.059   1.017
 2515SOL    HW2 8445   0.220   1.967   1.052
 2516SOL     OW 8446   6.392   2.553   5.011
 2516SOL    HW1 8447   6.319   2.487   4.999
 2516SOL    HW2 8448   6.384   2.625   4.942
 2517SOL     OW 8449   0.111   1.264   4.105
 2517SOL    HW1 8450   0.119   1.171   4.071
 2517SOL    HW2 8451   0.167   1.275   4.188
 2518SOL     OW 8452   2.795   4.026   1.266
 2518SOL    HW1 8453   2.835   3.946   1.311
 2518SOL    HW2 8454   2.822   4.025   1.169
 2519SOL     OW 8455   0.835   1.202   0.937
 2519SOL    HW1 8456   0.870   1.204   1.031
 2519SOL    HW2 8457   0.829   1.296   0.903
 2520SOL     OW 8458   2.593   2.935   0.826
 2520SOL    HW1 8459   2.626   3.019   0.869
 2520SOL    HW2 8460   2.510   2.955   0.774
 2521SOL     OW 8461   4.789   0.445   5.235
 2521SOL    HW1 8462   4.834   0.471   5.150
 2521SOL    HW2 8463   4.748   0.354   5.225
 2522SOL     OW 8464   1.472   2.034   6.943
 2522SOL    HW1 8465   1.517   2.115   6.982
 2522SOL    HW2 8466   1.528   1.953   6.961
 2523SOL     OW 8467   0.978   5.495   5.921
 2523SOL    HW1 8468   1.061   5.477   5.868
 2523SOL    HW2 8469   0.937   5.581   5.890
 2524SOL     OW 8470   1.102   2.007   5.020
 2524SOL    HW1 8471   1.026   2.060   5.059
 2524SOL    HW2 8472   1.071   1.913   5.005
 2525SOL     OW 8473   6.354   2.584   6.030
 2525SOL    HW1 8474   6.441   2.601   5.984
 2525SOL    HW2 8475   6.361   2.611   6.126
 2526SOL     OW 8476   1.602   0.807   0.723
 2526SOL    HW1 8477   1.513   0.796   0.766
 2526SOL    HW2 8478   1.643   0.894   0.752
 2527SOL     OW 8479   3.906   4.827   6.719
 2527SOL    HW1 8480   3.848   4.794   6.794
 2527SOL    HW2 8481   3.921   4.753   6.654
 2528SOL     OW 8482   4.638   5.437   6.391
 2528SOL    HW1 8483   4.676   5.346   6.404
 2528SOL    HW2 8484   4.709   5.500   6.358
 2529SOL     OW 8485   0.560   6.443   5.539
 2529SOL    HW1 8486   0.592   6.388   5.616
 2529SOL    HW2 8487   0.571   6.540   5.561
 2530SOL     OW 8488   2.607   6.161   6.852
 2530SOL    HW1 8489   2.646   6.225   6.918
 2530SOL    HW2 8490   2.624   6.067   6.882
 2531SOL     OW 8491   0.231   4.819   6.441
 2531SOL    HW1 8492   0.286   4.741   6.410
 2531SOL    HW2 8493   0.147   4.824   6.387
 2532SOL     OW 8494   5.753   5.569   2.069
 2532SOL    HW1 8495   5.680   5.502   2.050
 2532SOL    HW2 8496   5.791   5.551   2.160
 2533SOL     OW 8497   4.292   0.866   3.894
 2533SOL    HW1 8498   4.389   0.839   3.892
 2533SOL    HW2 8499   4.263   0.878   3.989
 2534SOL     OW 8500   4.229   1.550   2.524
 2534SOL    HW1 8501   4.186   1.636   2.498
 2534SOL    HW2 8502   4.174   1.474   2.489
 2535SOL     OW 8503   3.903   2.972   6.038
 2535SOL    HW1 8504   3.905   3.070   6.017
 2535SOL    HW2 8505   3.996   2.937   6.041
 2536SOL     OW 8506   1.451   0.313   0.763
 2536SOL    HW1 8507   1.412   0.317   0.855
 2536SOL    HW2 8508   1.494   0.400   0.741
 2537SOL     OW 8509   3.851   6.531   5.514
 2537SOL    HW1 8510   3.946   6.543   5.544
 2537SOL    HW2 8511   3.850   6.487   5.424
 2538SOL     OW 8512   5.902   3.760   3.703
 2538SOL    HW1 8513   5.977   3.814   3.742
 2538SOL    HW2 8514   5.937   3.670   3.675
 2539SOL     OW 8515   4.623   2.424   5.391
 2539SOL    HW1 8516   4.581   2.493   5.332
 2539SOL    HW2 8517   4.640   2.341   5.338
 2540SOL     OW 8518   2.913   2.043   1.569
 2540SOL    HW1 8519   2.968   2.118   1.532
 2540SOL    HW2 8520   2.852   2.009   1.498
 2541SOL     OW 8521   3.251   6.675   3.398
 2541SOL    HW1 8522   3.190   6.603   3.432
 2541SOL    HW2 8523   3.273   6.738   3.472
 2542SOL     OW 8524   1.874   5.754   5.864
 2542SOL    HW1 8525   1.869   5.677   5.801
 2542SOL    HW2 8526   1.904   5.836   5.815
 2543SOL     OW 8527   0.437   0.988   4.059
 2543SOL    HW1 8528   0.408   0.895   4.036
 2543SOL    HW2 8529   0.477   1.031   3.978
 2544SOL     OW 8530   0.638   5.239   6.051
 2544SOL    HW1 8531   0.715   5.197   6.099
 2544SOL    HW2 8532   0.640   5.338   6.064
 2545SOL     OW 8533   2.533   5.690   3.396
 2545SOL    HW1 8534   2.454   5.723   3.447
 2545SOL    HW2 8535   2.573   5.611   3.443
 2546SOL     OW 8536   0.102   0.834   1.562
 2546SOL    HW1 8537   0.144   0.801   1.478
 2546SOL    HW2 8538   0.036   0.766   1.595
 2547SOL     OW 8539   0.450   3.561   5.302
 2547SOL    HW1 8540   0.452   3.472   5.257
 2547SOL    HW2 8541   0.513   3.561   5.379
 2548SOL     OW 8542   0.529   0.659   6.238
 2548SOL    HW1 8543   0.580   0.573   6.234
 2548SOL    HW2 8544   0.580   0.731   6.191
 2549SOL     OW 8545   5.605   2.802   2.208
 2549SOL    HW1 8546   5.533   2.845   2.154
 2549SOL    HW2 8547   5.642   2.723   2.159
 2550SOL     OW 8548   5.618   5.301   6.852
 2550SOL    HW1 8549   5.545   5.303   6.783
 2550SOL    HW2 8550   5.584   5.341   6.937
 2551SOL     OW 8551   1.022   5.148   6.832
 2551SOL    HW1 8552   0.950   5.106   6.777
 2551SOL    HW2 8553   1.072   5.078   6.882
 2552SOL     OW 8554   1.712   5.639   3.568
 2552SOL    HW1 8555   1.650   5.608   3.497
 2552SOL    HW2 8556   1.797   5.672   3.526
 2553SOL     OW 8557   3.963   3.579   6.998
 2553SOL    HW1 8558   3.879   3.537   6.965
 2553SOL    HW2 8559   4.033   3.574   6.927
 2554SOL     OW 8560   0.923   1.876   0.628
 2554SOL    HW1 8561   0.838   1.827   0.646
 2554SOL    HW2 8562   0.915   1.927   0.542
 2555SOL     OW 8563   0.299   0.153   6.235
 2555SOL    HW1 8564   0.253   0.121   6.152
 2555SOL    HW2 8565   0.282   0.251   6.247
 2556SOL     OW 8566   3.995   4.858   0.295
 2556SOL    HW1 8567   3.956   4.839   0.385
 2556SOL    HW2 8568   3.993   4.775   0.240
 2557SOL     OW 8569   1.901   4.550   6.871
 2557SOL    HW1 8570   1.925   4.609   6.795
 2557SOL    HW2 8571   1.893   4.604   6.955
 2558SOL     OW 8572   4.192   0.709   5.243
 2558SOL    HW1 8573   4.218   0.613   5.251
 2558SOL    HW2 8574   4.123   0.732   5.312
 2559SOL     OW 8575   0.487   5.017   5.249
 2559SOL    HW1 8576   0.435   5.080   5.307
 2559SOL    HW2 8577   0.437   5.001   5.164
 2560SOL     OW 8578   6.109   0.690   0.573
 2560SOL    HW1 8579   6.147   0.774   0.534
 2560SOL    HW2 8580   6.078   0.630   0.499
 2561SOL     OW 8581   3.096   5.777   3.972
 2561SOL    HW1 8582   3.140   5.764   3.883
 2561SOL    HW2 8583   3.119   5.700   4.032
 2562SOL     OW 8584   2.074   3.834   0.156
 2562SOL    HW1 8585   2.031   3.921   0.180
 2562SOL    HW2 8586   2.069   3.771   0.233
 2563SOL     OW 8587   1.312   0.375   1.708
 2563SOL    HW1 8588   1.280   0.431   1.631
 2563SOL    HW2 8589   1.242   0.373   1.779
 2564SOL     OW 8590   1.578   6.444   2.656
 2564SOL    HW1 8591   1.593   6.440   2.557
 2564SOL    HW2 8592   1.496   6.498   2.675
 2565SOL     OW 8593   0.573   0.892   1.668
 2565SOL    HW1 8594   0.656   0.947   1.670
 2565SOL    HW2 8595   0.493   0.952   1.672
 2566SOL     OW 8596   2.079   6.889   5.365
 2566SOL    HW1 8597   1.980   6.875   5.377
 2566SOL    HW2 8598   2.122   6.803   5.338
 2567SOL     OW 8599   0.835   0.606   0.860
 2567SOL    HW1 8600   0.848   0.689   0.806
 2567SOL    HW2 8601   0.851   0.625   0.957
 2568SOL     OW 8602   5.254   3.668   0.220
 2568SOL    HW1 8603   5.307   3.603   0.275
 2568SOL    HW2 8604   5.271   3.761   0.253
 2569SOL     OW 8605   2.448   0.542   2.534
 2569SOL    HW1 8606   2.540   0.504   2.541
 2569SOL    HW2 8607   2.446   0.633   2.576
 2570SOL     OW 8608   5.603   2.307   5.998
 2570SOL    HW1 8609   5.590   2.406   5.995
 2570SOL    HW2 8610   5.646   2.282   6.085
 2571SOL     OW 8611   0.869   4.237   4.790
 2571SOL    HW1 8612   0.934   4.172   4.829
 2571SOL    HW2 8613   0.917   4.319   4.759
 2572SOL     OW 8614   1.645   4.596   3.565
 2572SOL    HW1 8615   1.559   4.615   3.517
 2572SOL    HW2 8616   1.721   4.633   3.512
 2573SOL     OW 8617   1.555   6.862   6.976
 2573SOL    HW1 8618   1.626   6.793   6.979
 2573SOL    HW2 8619   1.553   6.913   0.038
 2574SOL     OW 8620   6.425   3.764   0.474
 2574SOL    HW1 8621   6.485   3.685   0.493
 2574SOL    HW2 8622   6.402   3.809   0.559
 2575SOL     OW 8623   0.799   6.528   6.407
 2575SOL    HW1 8624   0.766   6.606   6.460
 2575SOL    HW2 8625   0.863   6.561   6.337
 2576SOL     OW 8626   4.279   6.623   5.103
 2576SOL    HW1 8627   4.180   6.629   5.093
 2576SOL    HW2 8628   4.305   6.529   5.122
 2577SOL     OW 8629   1.616   3.636   2.698
 2577SOL    HW1 8630   1.704   3.616   2.741
 2577SOL    HW2 8631   1.626   3.635   2.598
 2578SOL     OW 8632   4.217   1.813   2.089
 2578SOL    HW1 8633   4.237   1.717   2.107
 2578SOL    HW2 8634   4.277   1.871   2.144
 2579SOL     OW 8635   0.169   6.223   2.880
 2579SOL    HW1 8636   0.141   6.166   2.957
 2579SOL    HW2 8637   0.189   6.164   2.801
 2580SOL     OW 8638   2.918   1.689   5.610
 2580SOL    HW1 8639   2.902   1.695   5.709
 2580SOL    HW2 8640   2.881   1.771   5.566
 2581SOL     OW 8641   3.127   0.442   5.814
 2581SOL    HW1 8642   3.088   0.370   5.871
 2581SOL    HW2 8643   3.070   0.524   5.821
 2582SOL     OW 8644   0.086   3.830   0.718
 2582SOL    HW1 8645   0.054   3.741   0.751
 2582SOL    HW2 8646   0.043   3.903   0.771
 2583SOL     OW 8647   5.263   0.408   0.817
 2583SOL    HW1 8648   5.166   0.430   0.819
 2583SOL    HW2 8649   5.275   0.310   0.799
 2584SOL     OW 8650   3.759   4.275   6.553
 2584SOL    HW1 8651   3.768   4.190   6.605
 2584SOL    HW2 8652   3.843   4.290   6.499
 2585SOL     OW 8653   2.685   5.292   0.290
 2585SOL    HW1 8654   2.747   5.355   0.337
 2585SOL    HW2 8655   2.651   5.336   0.206
 2586SOL     OW 8656   2.691   0.957   3.932
 2586SOL    HW1 8657   2.725   0.974   4.024
 2586SOL    HW2 8658   2.618   0.888   3.936
 2587SOL     OW 8659   5.854   1.174   4.805
 2587SOL    HW1 8660   5.941   1.151   4.849
 2587SOL    HW2 8661   5.854   1.142   4.710
 2588SOL     OW 8662   4.326   0.971   6.752
 2588SOL    HW1 8663   4.317   0.925   6.840
 2588SOL    HW2 8664   4.276   1.058   6.753
 2589SOL     OW 8665   1.910   6.065   0.311
 2589SOL    HW1 8666   1.963   6.061   0.395
 2589SOL    HW2 8667   1.812   6.062   0.333
 2590SOL     OW 8668   2.356   5.502   0.305
 2590SOL    HW1 8669   2.328   5.597   0.316
 2590SOL    HW2 8670   2.427   5.479   0.371
 2591SOL     OW 8671   5.118   6.247   3.019
 2591SOL    HW1 8672   5.125   6.294   3.107
 2591SOL    HW2 8673   5.103   6.314   2.946
 2592SOL     OW 8674   3.076   3.314   0.617
 2592SOL    HW1 8675   3.116   3.299   0.707
 2592SOL    HW2 8676   3.072   3.227   0.567
 2593SOL     OW 8677   3.350   4.557   6.769
 2593SOL    HW1 8678   3.302   4.582   6.853
 2593SOL    HW2 8679   3.428   4.498   6.791
 2594SOL     OW 8680   2.223   3.164   3.433
 2594SOL    HW1 8681   2.320   3.176   3.415
 2594SOL    HW2 8682   2.196   3.071   3.408
 2595SOL     OW 8683   1.851   1.108   2.859
 2595SOL    HW1 8684   1.792   1.188   2.852
 2595SOL    HW2 8685   1.916   1.108   2.783
 2596SOL     OW 8686   0.088   1.694   0.491
 2596SOL    HW1 8687   0.041   1.781   0.508
 2596SOL    HW2 8688   0.043   1.621   0.540
 2597SOL     OW 8689   6.391   6.351   0.525
 2597SOL    HW1 8690   6.371   6.429   0.465
 2597SOL    HW2 8691   6.306   6.313   0.560
 2598SOL     OW 8692   4.699   2.698   2.149
 2598SOL    HW1 8693   4.786   2.655   2.125
 2598SOL    HW2 8694   4.705   2.797   2.132
 2599SOL     OW 8695   2.370   6.025   2.441
 2599SOL    HW1 8696   2.319   5.939   2.444
 2599SOL    HW2 8697   2.374   6.058   2.346
 2600SOL     OW 8698   5.775   4.452   4.643
 2600SOL    HW1 8699   5.679   4.479   4.636
 2600SOL    HW2 8700   5.827   4.496   4.571
 2601SOL     OW 8701   6.869   1.351   4.151
 2601SOL    HW1 8702   6.815   1.290   4.209
 2601SOL    HW2 8703   6.952   1.304   4.121
 2602SOL     OW 8704   0.991   4.794   2.680
 2602SOL    HW1 8705   0.944   4.707   2.664
 2602SOL    HW2 8706   1.052   4.785   2.758
 2603SOL     OW 8707   1.750   5.753   1.895
 2603SOL    HW1 8708   1.651   5.762   1.899
 2603SOL    HW2 8709   1.789   5.839   1.862
 2604SOL     OW 8710   4.887   3.160   3.109
 2604SOL    HW1 8711   4.935   3.130   3.027
 2604SOL    HW2 8712   4.827   3.087   3.142
 2605SOL     OW 8713   1.414   2.745   1.069
 2605SOL    HW1 8714   1.473   2.720   0.993
 2605SOL    HW2 8715   1.455   2.714   1.155
 2606SOL     OW 8716   5.039   3.825   1.035
 2606SOL    HW1 8717   4.969   3.895   1.042
 2606SOL    HW2 8718   5.008   3.752   0.974
 2607SOL     OW 8719   2.575   2.901   1.712
 2607SOL    HW1 8720   2.628   2.819   1.731
 2607SOL    HW2 8721   2.632   2.982   1.727
 2608SOL     OW 8722   3.302   5.328   4.672
 2608SOL    HW1 8723   3.322   5.230   4.676
 2608SOL    HW2 8724   3.215   5.342   4.625
 2609SOL     OW 8725   0.306   1.767   1.436
 2609SOL    HW1 8726   0.345   1.841   1.490
 2609SOL    HW2 8727   0.316   1.681   1.486
 2610SOL     OW 8728   1.138   4.448   4.780
 2610SOL    HW1 8729   1.065   4.476   4.842
 2610SOL    HW2 8730   1.225   4.448   4.828
 2611SOL     OW 8731   5.833   1.043   5.331
 2611SOL    HW1 8732   5.890   0.962   5.339
 2611SOL    HW2 8733   5.737   1.017   5.340
 2612SOL     OW 8734   6.614   6.513   0.218
 2612SOL    HW1 8735   6.675   6.562   0.279
 2612SOL    HW2 8736   6.662   6.435   0.178
 2613SOL     OW 8737   1.513   6.680   0.367
 2613SOL    HW1 8738   1.587   6.629   0.323
 2613SOL    HW2 8739   1.530   6.683   0.466
 2614SOL     OW 8740   5.442   2.287   1.034
 2614SOL    HW1 8741   5.400   2.267   0.946
 2614SOL    HW2 8742   5.472   2.202   1.078
 2615SOL     OW 8743   1.198   3.498   6.594
 2615SOL    HW1 8744   1.149   3.555   6.661
 2615SOL    HW2 8745   1.132   3.443   6.543
 2616SOL     OW 8746   1.372   0.891   4.532
 2616SOL    HW1 8747   1.428   0.973   4.518
 2616SOL    HW2 8748   1.323   0.898   4.619
 2617SOL     OW 8749   5.395   0.046   0.406
 2617SOL    HW1 8750   5.381   0.077   0.500
 2617SOL    HW2 8751   5.315   0.068   0.350
 2618SOL     OW 8752   1.291   0.607   0.034
 2618SOL    HW1 8753   1.221   0.561   7.003
 2618SOL    HW2 8754   1.313   0.552   0.115
 2619SOL     OW 8755   4.706   1.033   2.777
 2619SOL    HW1 8756   4.660   1.056   2.691
 2619SOL    HW2 8757   4.653   1.070   2.853
 2620SOL     OW 8758   6.042   2.257   2.275
 2620SOL    HW1 8759   6.002   2.236   2.186
 2620SOL    HW2 8760   6.006   2.193   2.343
 2621SOL     OW 8761   2.766   6.199   1.291
 2621SOL    HW1 8762   2.834   6.132   1.261
 2621SOL    HW2 8763   2.782   6.287   1.245
 2622SOL     OW 8764   2.606   3.667   6.811
 2622SOL    HW1 8765   2.639   3.708   6.726
 2622SOL    HW2 8766   2.511   3.640   6.801
 2623SOL     OW 8767   0.032   1.404   3.664
 2623SOL    HW1 8768   7.000   1.376   3.586
 2623SOL    HW2 8769   0.067   1.323   3.711
 2624SOL     OW 8770   1.259   1.866   5.557
 2624SOL    HW1 8771   1.257   1.793   5.489
 2624SOL    HW2 8772   1.258   1.955   5.512
 2625SOL     OW 8773   3.277   5.436   6.042
 2625SOL    HW1 8774   3.290   5.397   6.133
 2625SOL    HW2 8775   3.181   5.462   6.030
 2626SOL     OW 8776   6.856   6.904   0.398
 2626SOL    HW1 8777   6.819   6.983   0.446
 2626SOL    HW2 8778   6.956   6.912   0.393
 2627SOL     OW 8779   1.983   0.533   5.538
 2627SOL    HW1 8780   2.005   0.436   5.551
 2627SOL    HW2 8781   1.971   0.576   5.628
 2628SOL     OW 8782   0.266   5.447   1.304
 2628SOL    HW1 8783   0.362   5.461   1.281
 2628SOL    HW2 8784   0.217   5.534   1.298
 2629SOL     OW 8785   3.235   4.050   3.070
 2629SOL    HW1 8786   3.327   4.076   3.102
 2629SOL    HW2 8787   3.226   4.074   2.973
 2630SOL     OW 8788   3.348   0.689   4.870
 2630SOL    HW1 8789   3.334   0.594   4.843
 2630SOL    HW2 8790   3.282   0.748   4.823
 2631SOL     OW 8791   4.487   6.126   0.528
 2631SOL    HW1 8792   4.446   6.155   0.615
 2631SOL    HW2 8793   4.584   6.147   0.529
 2632SOL     OW 8794   5.309   5.152   1.687
 2632SOL    HW1 8795   5.264   5.203   1.614
 2632SOL    HW2 8796   5.306   5.204   1.772
 2633SOL     OW 8797   0.120   3.069   5.751
 2633SOL    HW1 8798   0.064   3.146   5.782
 2633SOL    HW2 8799   0.102   2.989   5.810
 2634SOL     OW 8800   1.959   2.132   6.159
 2634SOL    HW1 8801   1.976   2.230   6.171
 2634SOL    HW2 8802   1.905   2.098   6.235
 2635SOL     OW 8803   3.918   5.191   2.998
 2635SOL    HW1 8804   3.972   5.222   2.920
 2635SOL    HW2 8805   3.894   5.094   2.984
 2636SOL     OW 8806   3.242   6.355   6.330
 2636SOL    HW1 8807   3.224   6.257   6.319
 2636SOL    HW2 8808   3.233   6.379   6.427
 2637SOL     OW 8809   0.251   1.911   2.937
 2637SOL    HW1 8810   0.267   1.830   2.993
 2637SOL    HW2 8811   0.161   1.905   2.894
 2638SOL     OW 8812   0.683   6.416   4.595
 2638SOL    HW1 8813   0.595   6.420   4.644
 2638SOL    HW2 8814   0.696   6.325   4.557
 2639SOL     OW 8815   4.879   5.453   4.801
 2639SOL    HW1 8816   4.859   5.420   4.709
 2639SOL    HW2 8817   4.841   5.545   4.812
 2640SOL     OW 8818   2.000   1.129   3.119
 2640SOL    HW1 8819   1.967   1.144   3.025
 2640SOL    HW2 8820   1.925   1.141   3.183
 2641SOL     OW 8821   5.313   1.917   0.196
 2641SOL    HW1 8822   5.219   1.939   0.221
 2641SOL    HW2 8823   5.352   1.993   0.144
 2642SOL     OW 8824   0.417   0.158   2.382
 2642SOL    HW1 8825   0.392   0.206   2.298
 2642SOL    HW2 8826   0.344   0.169   2.450
 2643SOL     OW 8827   1.836   4.337   4.206
 2643SOL    HW1 8828   1.821   4.436   4.209
 2643SOL    HW2 8829   1.929   4.318   4.176
 2644SOL     OW 8830   5.573   5.544   3.754
 2644SOL    HW1 8831   5.598   5.463   3.700
 2644SOL    HW2 8832   5.477   5.567   3.737
 2645SOL     OW 8833   4.335   5.874   2.598
 2645SOL    HW1 8834   4.260   5.914   2.544
 2645SOL    HW2 8835   4.297   5.826   2.677
 2646SOL     OW 8836   1.259   1.816   6.217
 2646SOL    HW1 8837   1.355   1.843   6.214
 2646SOL    HW2 8838   1.252   1.716   6.212
 2647SOL     OW 8839   4.284   0.028   3.029
 2647SOL    HW1 8840   4.206   0.011   3.089
 2647SOL    HW2 8841   4.252   0.032   2.934
 2648SOL     OW 8842   1.550   0.669   5.786
 2648SOL    HW1 8843   1.520   0.583   5.827
 2648SOL    HW2 8844   1.611   0.650   5.709
 2649SOL     OW 8845   6.212   1.960   3.734
 2649SOL    HW1 8846   6.151   1.899   3.684
 2649SOL    HW2 8847   6.237   1.918   3.821
 2650SOL     OW 8848   2.144   6.719   4.316
 2650SOL    HW1 8849   2.226   6.774   4.301
 2650SOL    HW2 8850   2.170   6.630   4.353
 2651SOL     OW 8851   3.687   1.615   3.300
 2651SOL    HW1 8852   3.694   1.711   3.329
 2651SOL    HW2 8853   3.753   1.560   3.350
 2652SOL     OW 8854   4.755   3.696   5.395
 2652SOL    HW1 8855   4.682   3.685   5.462
 2652SOL    HW2 8856   4.730   3.652   5.309
 2653SOL     OW 8857   1.998   6.422   0.018
 2653SOL    HW1 8858   2.002   6.513   7.001
 2653SOL    HW2 8859   1.961   6.358   6.975
 2654SOL     OW 8860   6.923   0.667   1.114
 2654SOL    HW1 8861   6.944   0.739   1.181
 2654SOL    HW2 8862   6.998   0.660   1.048
 2655SOL     OW 8863   4.996   6.876   3.316
 2655SOL    HW1 8864   5.079   6.888   3.260
 2655SOL    HW2 8865   4.972   6.779   3.318
 2656SOL     OW 8866   4.528   6.817   4.528
 2656SOL    HW1 8867   4.576   6.796   4.614
 2656SOL    HW2 8868   4.527   6.915   4.513
 2657SOL     OW 8869   1.335   3.088   6.404
 2657SOL    HW1 8870   1.418   3.043   6.370
 2657SOL    HW2 8871   1.301   3.151   6.334
 2658SOL     OW 8872   3.695   4.479   0.324
 2658SOL    HW1 8873   3.743   4.393   0.308
 2658SOL    HW2 8874   3.637   4.471   0.405
 2659SOL     OW 8875   0.374   2.156   5.406
 2659SOL    HW1 8876   0.440   2.110   5.465
 2659SOL    HW2 8877   0.375   2.254   5.425
 2660SOL     OW 8878   1.111   1.395   0.472
 2660SOL    HW1 8879   1.094   1.441   0.560
 2660SOL    HW2 8880   1.197   1.429   0.433
 2661SOL     OW 8881   2.163   0.656   0.981
 2661SOL    HW1 8882   2.109   0.740   0.971
 2661SOL    HW2 8883   2.101   0.579   0.999
 2662SOL     OW 8884   2.726   1.724   1.688
 2662SOL    HW1 8885   2.718   1.813   1.732
 2662SOL    HW2 8886   2.757   1.656   1.755
 2663SOL     OW 8887   3.718   0.906   0.707
 2663SOL    HW1 8888   3.768   0.984   0.744
 2663SOL    HW2 8889   3.640   0.885   0.766
 2664SOL     OW 8890   5.028   3.239   5.956
 2664SOL    HW1 8891   4.968   3.186   5.895
 2664SOL    HW2 8892   5.115   3.191   5.967
 2665SOL     OW 8893   1.317   3.232   4.446
 2665SOL    HW1 8894   1.348   3.219   4.540
 2665SOL    HW2 8895   1.244   3.166   4.425
 2666SOL     OW 8896   1.917   3.863   1.915
 2666SOL    HW1 8897   1.909   3.767   1.940
 2666SOL    HW2 8898   2.013   3.887   1.900
 2667SOL     OW 8899   5.897   2.707   4.674
 2667SOL    HW1 8900   5.936   2.617   4.697
 2667SOL    HW2 8901   5.921   2.773   4.744
 2668SOL     OW 8902   5.632   0.650   4.503
 2668SOL    HW1 8903   5.699   0.670   4.574
 2668SOL    HW2 8904   5.539   0.664   4.538
 2669SOL     OW 8905   2.709   1.215   1.799
 2669SOL    HW1 8906   2.719   1.246   1.705
 2669SOL    HW2 8907   2.752   1.281   1.861
 2670SOL     OW 8908   0.771   0.746   1.391
 2670SOL    HW1 8909   0.721   0.752   1.477
 2670SOL    HW2 8910   0.824   0.661   1.390
 2671SOL     OW 8911   5.787   4.291   6.195
 2671SOL    HW1 8912   5.840   4.221   6.242
 2671SOL    HW2 8913   5.838   4.326   6.117
 2672SOL     OW 8914   2.346   1.754   2.626
 2672SOL    HW1 8915   2.260   1.790   2.590
 2672SOL    HW2 8916   2.418   1.763   2.557
 2673SOL     OW 8917   3.335   0.208   3.112
 2673SOL    HW1 8918   3.354   0.135   3.178
 2673SOL    HW2 8919   3.413   0.217   3.050
 2674SOL     OW 8920   6.222   5.943   3.589
 2674SOL    HW1 8921   6.124   5.924   3.574
 2674SOL    HW2 8922   6.249   6.022   3.535
 2675SOL     OW 8923   4.841   1.089   4.300
 2675SOL    HW1 8924   4.847   0.993   4.328
 2675SOL    HW2 8925   4.746   1.112   4.281
 2676SOL     OW 8926   4.013   3.374   5.322
 2676SOL    HW1 8927   4.110   3.364   5.298
 2676SOL    HW2 8928   3.959   3.306   5.274
 2677SOL     OW 8929   1.450   5.652   0.917
 2677SOL    HW1 8930   1.452   5.666   0.818
 2677SOL    HW2 8931   1.481   5.560   0.939
 2678SOL     OW 8932   3.568   1.969   2.001
 2678SOL    HW1 8933   3.614   2.057   2.008
 2678SOL    HW2 8934   3.591   1.927   1.913
 2679SOL     OW 8935   2.076   3.479   2.490
 2679SOL    HW1 8936   1.979   3.464   2.508
 2679SOL    HW2 8937   2.095   3.462   2.393
 2680SOL     OW 8938   5.796   2.633   6.355
 2680SOL    HW1 8939   5.824   2.648   6.450
 2680SOL    HW2 8940   5.869   2.585   6.306
 2681SOL     OW 8941   2.378   2.665   3.400
 2681SOL    HW1 8942   2.399   2.688   3.496
 2681SOL    HW2 8943   2.458   2.623   3.358
 2682SOL     OW 8944   3.673   4.065   2.437
 2682SOL    HW1 8945   3.655   4.164   2.432
 2682SOL    HW2 8946   3.654   4.023   2.348
 2683SOL     OW 8947   1.648   3.399   1.428
 2683SOL    HW1 8948   1.595   3.478   1.459
 2683SOL    HW2 8949   1.654   3.400   1.328
 2684SOL     OW 8950   5.146   0.605   4.116
 2684SOL    HW1 8951   5.137   0.590   4.215
 2684SOL    HW2 8952   5.197   0.690   4.100
 2685SOL     OW 8953   1.532   6.891   5.959
 2685SOL    HW1 8954   1.441   6.884   6.001
 2685SOL    HW2 8955   1.592   6.944   6.018
 2686SOL     OW 8956   1.824   2.075   5.906
 2686SOL    HW1 8957   1.736   2.041   5.939
 2686SOL    HW2 8958   1.880   2.103   5.984
 2687SOL     OW 8959   3.929   2.604   1.610
 2687SOL    HW1 8960   3.981   2.668   1.666
 2687SOL    HW2 8961   3.897   2.528   1.667
 2688SOL     OW 8962   4.078   2.525   6.872
 2688SOL    HW1 8963   3.997   2.469   6.888
 2688SOL    HW2 8964   4.129   2.535   6.957
 2689SOL     OW 8965   6.598   4.022   2.198
 2689SOL    HW1 8966   6.623   4.114   2.229
 2689SOL    HW2 8967   6.642   3.954   2.257
 2690SOL     OW 8968   5.209   1.370   4.711
 2690SOL    HW1 8969   5.291   1.338   4.663
 2690SOL    HW2 8970   5.192   1.465   4.688
 2691SOL     OW 8971   6.412   3.380   3.904
 2691SOL    HW1 8972   6.428   3.317   3.827
 2691SOL    HW2 8973   6.499   3.409   3.942
 2692SOL     OW 8974   1.561   5.248   1.203
 2692SOL    HW1 8975   1.520   5.231   1.293
 2692SOL    HW2 8976   1.659   5.269   1.214
 2693SOL     OW 8977   0.770   5.468   3.150
 2693SOL    HW1 8978   0.696   5.521   3.107
 2693SOL    HW2 8979   0.731   5.399   3.210
 2694SOL     OW 8980   2.241   0.306   2.451
 2694SOL    HW1 8981   2.173   0.281   2.520
 2694SOL    HW2 8982   2.319   0.244   2.458
 2695SOL     OW 8983   6.581   5.743   3.644
 2695SOL    HW1 8984   6.604   5.769   3.738
 2695SOL    HW2 8985   6.609   5.816   3.581
 2696SOL     OW 8986   3.966   4.429   6.387
 2696SOL    HW1 8987   4.030   4.373   6.441
 2696SOL    HW2 8988   3.924   4.498   6.445
 2697SOL     OW 8989   4.166   2.242   7.018
 2697SOL    HW1 8990   4.201   2.238   6.924
 2697SOL    HW2 8991   4.175   2.335   0.029
 2698SOL     OW 8992   1.944   5.798   6.935
 2698SOL    HW1 8993   2.028   5.753   6.903
 2698SOL    HW2 8994   1.966   5.890   6.966
 2699SOL     OW 8995   2.656   6.394   2.293
 2699SOL    HW1 8996   2.590   6.433   2.230
 2699SOL    HW2 8997   2.656   6.294   2.284
 2700SOL     OW 8998   4.702   2.052   1.317
 2700SOL    HW1 8999   4.650   1.966   1.317
 2700SOL    HW2 9000   4.716   2.083   1.411
 2701SOL     OW 9001   5.478   3.546   5.298
 2701SOL    HW1 9002   5.402   3.493   5.335
 2701SOL    HW2 9003   5.526   3.492   5.229
 2702SOL     OW 9004   1.825   1.784   4.867
 2702SOL    HW1 9005   1.752   1.766   4.934
 2702SOL    HW2 9006   1.909   1.809   4.915
 2703SOL     OW 9007   2.353   6.217   1.884
 2703SOL    HW1 9008   2.370   6.256   1.974
 2703SOL    HW2 9009   2.271   6.160   1.887
 2704SOL     OW 9010   4.213   1.074   3.709
 2704SOL    HW1 9011   4.239   0.998   3.768
 2704SOL    HW2 9012   4.239   1.054   3.615
 2705SOL     OW 9013   1.099   0.045   5.373
 2705SOL    HW1 9014   1.181   0.072   5.322
 2705SOL    HW2 9015   1.028   0.015   5.309
 2706SOL     OW 9016   0.035   4.668   4.276
 2706SOL    HW1 9017   0.001   4.761   4.262
 2706SOL    HW2 9018   0.133   4.671   4.295
 2707SOL     OW 9019   4.380   1.274   3.110
 2707SOL    HW1 9020   4.321   1.336   3.162
 2707SOL    HW2 9021   4.329   1.190   3.088
 2708SOL     OW 9022   5.572   3.073   5.594
 2708SOL    HW1 9023   5.634   3.128   5.649
 2708SOL    HW2 9024   5.596   3.081   5.497
 2709SOL     OW 9025   5.397   1.060   5.817
 2709SOL    HW1 9026   5.448   1.091   5.736
 2709SOL    HW2 9027   5.461   1.017   5.881
 2710SOL     OW 9028   0.929   2.870   4.122
 2710SOL    HW1 9029   0.997   2.814   4.170
 2710SOL    HW2 9030   0.942   2.966   4.147
 2711SOL     OW 9031   4.609   1.086   1.751
 2711SOL    HW1 9032   4.562   1.105   1.838
 2711SOL    HW2 9033   4.667   1.164   1.727
 2712SOL     OW 9034   4.889   6.491   1.845
 2712SOL    HW1 9035   4.868   6.584   1.875
 2712SOL    HW2 9036   4.978   6.490   1.799
 2713SOL     OW 9037   3.792   4.979   5.305
 2713SOL    HW1 9038   3.744   5.066   5.294
 2713SOL    HW2 9039   3.751   4.928   5.382
 2714SOL     OW 9040   3.022   4.376   6.148
 2714SOL    HW1 9041   3.062   4.343   6.063
 2714SOL    HW2 9042   2.922   4.375   6.141
 2715SOL     OW 9043   4.599   6.580   0.521
 2715SOL    HW1 9044   4.560   6.555   0.433
 2715SOL    HW2 9045   4.633   6.498   0.567
 2716SOL     OW 9046   4.569   1.275   2.220
 2716SOL    HW1 9047   4.648   1.298   2.164
 2716SOL    HW2 9048   4.553   1.347   2.287
 2717SOL     OW 9049   0.742   2.066   2.574
 2717SOL    HW1 9050   0.790   2.150   2.596
 2717SOL    HW2 9051   0.782   1.990   2.626
 2718SOL     OW 9052   6.844   1.226   5.796
 2718SOL    HW1 9053   6.883   1.285   5.866
 2718SOL    HW2 9054   6.766   1.175   5.833
 2719SOL     OW 9055   0.798   4.836   3.471
 2719SOL    HW1 9056   0.753   4.747   3.465
 2719SOL    HW2 9057   0.777   4.878   3.559
 2720SOL     OW 9058   1.772   4.851   6.269
 2720SOL    HW1 9059   1.853   4.792   6.259
 2720SOL    HW2 9060   1.735   4.840   6.362
 2721SOL     OW 9061   2.309   6.133   3.844
 2721SOL    HW1 9062   2.303   6.227   3.811
 2721SOL    HW2 9063   2.246   6.075   3.793
 2722SOL     OW 9064   3.389   4.154   6.761
 2722SOL    HW1 9065   3.473   4.184   6.805
 2722SOL    HW2 9066   3.328   4.114   6.829
 2723SOL     OW 9067   3.728   5.376   7.006
 2723SOL    HW1 9068   3.803   5.311   0.001
 2723SOL    HW2 9069   3.767   5.466   6.987
 2724SOL     OW 9070   6.600   5.838   0.909
 2724SOL    HW1 9071   6.540   5.917   0.896
 2724SOL    HW2 9072   6.674   5.841   0.841
 2725SOL     OW 9073   6.362   4.936   2.828
 2725SOL    HW1 9074   6.319   4.980   2.906
 2725SOL    HW2 9075   6.312   4.960   2.744
 2726SOL     OW 9076   6.231   2.417   2.949
 2726SOL    HW1 9077   6.165   2.492   2.946
 2726SOL    HW2 9078   6.287   2.418   2.866
 2727SOL     OW 9079   1.719   4.848   3.923
 2727SOL    HW1 9080   1.674   4.762   3.902
 2727SOL    HW2 9081   1.661   4.924   3.894
 2728SOL     OW 9082   5.126   5.003   5.897
 2728SOL    HW1 9083   5.133   5.097   5.863
 2728SOL    HW2 9084   5.085   5.002   5.988
 2729SOL     OW 9085   7.014   0.383   0.200
 2729SOL    HW1 9086   0.012   0.398   0.297
 2729SOL    HW2 9087   0.038   0.301   0.168
 2730SOL     OW 9088   1.456   5.364   3.061
 2730SOL    HW1 9089   1.454   5.462   3.081
 2730SOL    HW2 9090   1.435   5.312   3.144
 2731SOL     OW 9091   4.159   3.744   5.081
 2731SOL    HW1 9092   4.223   3.671   5.103
 2731SOL    HW2 9093   4.068   3.705   5.064
 2732SOL     OW 9094   4.540   0.569   2.323
 2732SOL    HW1 9095   4.442   0.584   2.328
 2732SOL    HW2 9096   4.565   0.545   2.229
 2733SOL     OW 9097   0.852   0.276   0.934
 2733SOL    HW1 9098   0.776   0.333   0.966
 2733SOL    HW2 9099   0.938   0.318   0.961
 2734SOL     OW 9100   3.136   0.246   1.946
 2734SOL    HW1 9101   3.041   0.271   1.966
 2734SOL    HW2 9102   3.155   0.155   1.984
 2735SOL     OW 9103   1.050   2.481   2.603
 2735SOL    HW1 9104   1.073   2.570   2.565
 2735SOL    HW2 9105   1.051   2.485   2.702
 2736SOL     OW 9106   5.373   4.972   2.849
 2736SOL    HW1 9107   5.343   5.014   2.934
 2736SOL    HW2 9108   5.308   4.900   2.823
 2737SOL     OW 9109   2.605   0.259   6.100
 2737SOL    HW1 9110   2.663   0.328   6.057
 2737SOL    HW2 9111   2.648   0.226   6.184
 2738SOL     OW 9112   5.232   6.361   1.032
 2738SOL    HW1 9113   5.169   6.328   0.962
 2738SOL    HW2 9114   5.260   6.285   1.090
 2739SOL     OW 9115   0.588   4.964   1.637
 2739SOL    HW1 9116   0.593   4.874   1.681
 2739SOL    HW2 9117   0.600   4.953   1.538
 2740SOL     OW 9118   6.507   5.738   4.919
 2740SOL    HW1 9119   6.524   5.642   4.943
 2740SOL    HW2 9120   6.482   5.789   5.002
 2741SOL     OW 9121   0.622   0.080   6.959
 2741SOL    HW1 9122   0.695   0.126   7.010
 2741SOL    HW2 9123   0.612   7.010   6.993
 2742SOL     OW 9124   2.570   5.068   2.410
 2742SOL    HW1 9125   2.625   4.990   2.379
 2742SOL    HW2 9126   2.551   5.128   2.333
 2743SOL     OW 9127   5.671   1.963   2.603
 2743SOL    HW1 9128   5.735   1.960   2.679
 2743SOL    HW2 9129   5.650   1.870   2.572
 2744SOL     OW 9130   3.305   4.151   2.405
 2744SOL    HW1 9131   3.299   4.112   2.313
 2744SOL    HW2 9132   3.257   4.239   2.406
 2745SOL     OW 9133   0.544   6.420   7.013
 2745SOL    HW1 9134   0.540   6.321   6.998
 2745SOL    HW2 9135   0.606   6.462   6.946
 2746SOL     OW 9136   1.666   0.763   4.569
 2746SOL    HW1 9137   1.674   0.834   4.639
 2746SOL    HW2 9138   1.751   0.710   4.567
 2747SOL     OW 9139   4.512   4.520   0.038
 2747SOL    HW1 9140   4.606   4.526   0.003
 2747SOL    HW2 9141   4.480   4.426   0.028
 2748SOL     OW 9142   4.193   0.680   0.267
 2748SOL    HW1 9143   4.198   0.776   0.294
 2748SOL    HW2 9144   4.121   0.668   0.199
 2749SOL     OW 9145   3.745   1.052   0.122
 2749SOL    HW1 9146   3.729   1.135   0.175
 2749SOL    HW2 9147   3.755   0.974   0.183
 2750SOL     OW 9148   1.927   6.105   2.284
 2750SOL    HW1 9149   1.923   6.150   2.374
 2750SOL    HW2 9150   1.976   6.163   2.220
 2751SOL     OW 9151   6.138   4.900   1.248
 2751SOL    HW1 9152   6.067   4.949   1.299
 2751SOL    HW2 9153   6.217   4.960   1.234
 2752SOL     OW 9154   4.309   5.210   6.201
 2752SOL    HW1 9155   4.360   5.132   6.236
 2752SOL    HW2 9156   4.323   5.289   6.261
 2753SOL     OW 9157   4.984   4.698   6.088
 2753SOL    HW1 9158   5.008   4.650   6.003
 2753SOL    HW2 9159   4.940   4.633   6.150
 2754SOL     OW 9160   1.433   0.566   4.532
 2754SOL    HW1 9161   1.527   0.533   4.537
 2754SOL    HW2 9162   1.426   0.637   4.463
 2755SOL     OW 9163   3.023   6.928   2.382
 2755SOL    HW1 9164   2.999   6.909   2.287
 2755SOL    HW2 9165   2.950   6.895   2.442
 2756SOL     OW 9166   4.823   5.456   6.758
 2756SOL    HW1 9167   4.759   5.530   6.778
 2756SOL    HW2 9168   4.904   5.492   6.712
 2757SOL     OW 9169   0.692   4.751   0.819
 2757SOL    HW1 9170   0.723   4.657   0.817
 2757SOL    HW2 9171   0.769   4.813   0.807
 2758SOL     OW 9172   4.801   0.245   6.107
 2758SOL    HW1 9173   4.733   0.287   6.167
 2758SOL    HW2 9174   4.756   0.208   6.026
 2759SOL     OW 9175   4.799   5.193   3.875
 2759SOL    HW1 9176   4.819   5.127   3.802
 2759SOL    HW2 9177   4.865   5.268   3.870
 2760SOL     OW 9178   0.671   5.987   3.322
 2760SOL    HW1 9179   0.696   6.006   3.227
 2760SOL    HW2 9180   0.708   6.058   3.381
 2761SOL     OW 9181   2.300   4.966   4.542
 2761SOL    HW1 9182   2.282   4.990   4.447
 2761SOL    HW2 9183   2.245   5.024   4.603
 2762SOL     OW 9184   1.875   1.843   5.766
 2762SOL    HW1 9185   1.861   1.936   5.799
 2762SOL    HW2 9186   1.901   1.846   5.669
 2763SOL     OW 9187   5.445   7.004   2.202
 2763SOL    HW1 9188   5.476   0.062   2.152
 2763SOL    HW2 9189   5.347   7.009   2.216
 2764SOL     OW 9190   6.350   0.760   1.891
 2764SOL    HW1 9191   6.257   0.761   1.854
 2764SOL    HW2 9192   6.355   0.694   1.966
 2765SOL     OW 9193   5.598   1.793   3.261
 2765SOL    HW1 9194   5.501   1.769   3.257
 2765SOL    HW2 9195   5.651   1.715   3.291
 2766SOL     OW 9196   5.516   6.720   2.715
 2766SOL    HW1 9197   5.489   6.648   2.779
 2766SOL    HW2 9198   5.452   6.796   2.723
 2767SOL     OW 9199   6.708   4.199   5.365
 2767SOL    HW1 9200   6.626   4.187   5.421
 2767SOL    HW2 9201   6.683   4.245   5.279
 2768SOL     OW 9202   5.906   1.079   6.620
 2768SOL    HW1 9203   6.005   1.074   6.633
 2768SOL    HW2 9204   5.861   1.089   6.708
 2769SOL     OW 9205   0.770   3.959   0.756
 2769SOL    HW1 9206   0.736   3.987   0.846
 2769SOL    HW2 9207   0.848   4.017   0.730
 2770SOL     OW 9208   4.577   5.969   2.696
 2770SOL    HW1 9209   4.618   5.893   2.647
 2770SOL    HW2 9210   4.479   5.973   2.676
 2771SOL     OW 9211   4.532   0.264   1.499
 2771SOL    HW1 9212   4.524   0.218   1.410
 2771SOL    HW2 9213   4.447   0.253   1.550
 2772SOL     OW 9214   3.213   1.053   6.748
 2772SOL    HW1 9215   3.164   1.127   6.704
 2772SOL    HW2 9216   3.273   1.090   6.820
 2773SOL     OW 9217   3.101   4.314   1.422
 2773SOL    HW1 9218   3.026   4.320   1.487
 2773SOL    HW2 9219   3.065   4.329   1.329
 2774SOL     OW 9220   4.959   2.823   1.935
 2774SOL    HW1 9221   5.040   2.880   1.946
 2774SOL    HW2 9222   4.877   2.874   1.962
 2775SOL     OW 9223   0.213   0.131   2.555
 2775SOL    HW1 9224   0.265   0.053   2.591
 2775SOL    HW2 9225   0.233   0.212   2.609
 2776SOL     OW 9226   2.748   6.289   0.325
 2776SOL    HW1 9227   2.836   6.314   0.285
 2776SOL    HW2 9228   2.684   6.265   0.253
 2777SOL     OW 9229   1.463   2.329   4.266
 2777SOL    HW1 9230   1.412   2.405   4.228
 2777SOL    HW2 9231   1.513   2.360   4.348
 2778SOL     OW 9232   2.895   2.289   5.064
 2778SOL    HW1 9233   2.991   2.261   5.059
 2778SOL    HW2 9234   2.851   2.278   4.975
 2779SOL     OW 9235   6.128   1.232   0.848
 2779SOL    HW1 9236   6.077   1.229   0.762
 2779SOL    HW2 9237   6.116   1.146   0.898
 2780SOL     OW 9238   3.563   5.888   6.883
 2780SOL    HW1 9239   3.557   5.822   6.958
 2780SOL    HW2 9240   3.474   5.929   6.867
 2781SOL     OW 9241   5.295   3.613   6.448
 2781SOL    HW1 9242   5.292   3.518   6.478
 2781SOL    HW2 9243   5.220   3.664   6.490
 2782SOL     OW 9244   3.537   0.927   5.392
 2782SOL    HW1 9245   3.544   0.927   5.492
 2782SOL    HW2 9246   3.549   1.020   5.358
 2783SOL     OW 9247   0.478   3.707   6.033
 2783SOL    HW1 9248   0.405   3.647   6.001
 2783SOL    HW2 9249   0.500   3.684   6.128
 2784SOL     OW 9250   2.381   1.838   1.726
 2784SOL    HW1 9251   2.370   1.740   1.742
 2784SOL    HW2 9252   2.401   1.855   1.630
 2785SOL     OW 9253   6.241   1.902   2.054
 2785SOL    HW1 9254   6.265   1.914   2.150
 2785SOL    HW2 9255   6.242   1.804   2.031
 2786SOL     OW 9256   3.620   0.589   0.834
 2786SOL    HW1 9257   3.561   0.602   0.913
 2786SOL    HW2 9258   3.564   0.568   0.754
 2787SOL     OW 9259   1.981   4.182   6.096
 2787SOL    HW1 9260   2.070   4.156   6.058
 2787SOL    HW2 9261   1.909   4.155   6.033
 2788SOL     OW 9262   1.163   3.182   0.284
 2788SOL    HW1 9263   1.083   3.130   0.316
 2788SOL    HW2 9264   1.199   3.139   0.201
 2789SOL     OW 9265   0.355   3.082   3.766
 2789SOL    HW1 9266   0.434   3.124   3.723
 2789SOL    HW2 9267   0.382   3.040   3.853
 2790SOL     OW 9268   3.911   6.453   4.343
 2790SOL    HW1 9269   3.953   6.541   4.368
 2790SOL    HW2 9270   3.983   6.384   4.333
 2791SOL     OW 9271   1.669   3.634   2.423
 2791SOL    HW1 9272   1.736   3.706   2.403
 2791SOL    HW2 9273   1.599   3.633   2.351
 2792SOL     OW 9274   0.775   2.059   5.773
 2792SOL    HW1 9275   0.842   2.004   5.822
 2792SOL    HW2 9276   0.746   2.136   5.830
 2793SOL     OW 9277   4.769   0.860   4.551
 2793SOL    HW1 9278   4.824   0.808   4.487
 2793SOL    HW2 9279   4.717   0.797   4.609
 2794SOL     OW 9280   0.229   1.618   2.300
 2794SOL    HW1 9281   0.282   1.654   2.377
 2794SOL    HW2 9282   0.234   1.518   2.300
 2795SOL     OW 9283   0.757   3.622   0.970
 2795SOL    HW1 9284   0.691   3.637   0.896
 2795SOL    HW2 9285   0.725   3.670   1.052
 2796SOL     OW 9286   4.385   4.548   2.480
 2796SOL    HW1 9287   4.368   4.501   2.393
 2796SOL    HW2 9288   4.317   4.621   2.492
 2797SOL     OW 9289   4.730   4.195   5.330
 2797SOL    HW1 9290   4.773   4.192   5.421
 2797SOL    HW2 9291   4.635   4.221   5.340
 2798SOL     OW 9292   1.779   4.137   3.024
 2798SOL    HW1 9293   1.821   4.076   2.957
 2798SOL    HW2 9294   1.753   4.086   3.106
 2799SOL     OW 9295   7.009   6.241   5.907
 2799SOL    HW1 9296   6.964   6.282   5.986
 2799SOL    HW2 9297   6.962   6.157   5.881
 2800SOL     OW 9298   2.592   0.635   6.299
 2800SOL    HW1 9299   2.614   0.547   6.340
 2800SOL    HW2 9300   2.543   0.692   6.366
 2801SOL     OW 9301   3.802   5.173   2.196
 2801SOL    HW1 9302   3.735   5.229   2.149
 2801SOL    HW2 9303   3.787   5.076   2.173
 2802SOL     OW 9304   6.521   0.428   6.211
 2802SOL    HW1 9305   6.483   0.474   6.131
 2802SOL    HW2 9306   6.620   0.440   6.214
 2803SOL     OW 9307   3.279   5.831   4.978
 2803SOL    HW1 9308   3.299   5.860   4.885
 2803SOL    HW2 9309   3.223   5.748   4.976
 2804SOL     OW 9310   0.585   5.141   2.346
 2804SOL    HW1 9311   0.530   5.199   2.285
 2804SOL    HW2 9312   0.667   5.111   2.297
 2805SOL     OW 9313   6.513   4.199   6.949
 2805SOL    HW1 9314   6.569   4.120   6.974
 2805SOL    HW2 9315   6.521   4.216   6.851
 2806SOL     OW 9316   6.439   5.468   2.951
 2806SOL    HW1 9317   6.431   5.396   3.021
 2806SOL    HW2 9318   6.385   5.443   2.871
 2807SOL     OW 9319   4.062   4.825   3.889
 2807SOL    HW1 9320   4.048   4.732   3.856
 2807SOL    HW2 9321   4.026   4.891   3.822
 2808SOL     OW 9322   4.716   6.483   4.498
 2808SOL    HW1 9323   4.804   6.528   4.517
 2808SOL    HW2 9324   4.675   6.453   4.584
 2809SOL     OW 9325   5.395   2.519   0.273
 2809SOL    HW1 9326   5.374   2.510   0.371
 2809SOL    HW2 9327   5.492   2.539   0.262
 2810SOL     OW 9328   1.994   1.332   6.547
 2810SOL    HW1 9329   2.030   1.343   6.454
 2810SOL    HW2 9330   1.906   1.379   6.555
 2811SOL     OW 9331   0.488   0.514   3.722
 2811SOL    HW1 9332   0.397   0.526   3.763
 2811SOL    HW2 9333   0.480   0.515   3.622
 2812SOL     OW 9334   4.774   4.445   2.948
 2812SOL    HW1 9335   4.818   4.452   2.858
 2812SOL    HW2 9336   4.841   4.414   3.015
 2813SOL     OW 9337   6.228   1.360   6.036
 2813SOL    HW1 9338   6.174   1.435   6.074
 2813SOL    HW2 9339   6.325   1.383   6.043
 2814SOL     OW 9340   5.726   4.384   5.174
 2814SOL    HW1 9341   5.677   4.297   5.176
 2814SOL    HW2 9342   5.748   4.408   5.079
 2815SOL     OW 9343   1.046   1.043   4.406
 2815SOL    HW1 9344   1.107   1.085   4.339
 2815SOL    HW2 9345   1.041   0.945   4.390
 2816SOL     OW 9346   4.951   6.626   3.260
 2816SOL    HW1 9347   4.859   6.596   3.234
 2816SOL    HW2 9348   4.972   6.595   3.352
 2817SOL     OW 9349   1.301   1.445   0.986
 2817SOL    HW1 9350   1.347   1.504   1.053
 2817SOL    HW2 9351   1.207   1.476   0.974
 2818SOL     OW 9352   1.676   2.162   6.701
 2818SOL    HW1 9353   1.702   2.231   6.633
 2818SOL    HW2 9354   1.577   2.162   6.712
 2819SOL     OW 9355   6.532   3.518   1.600
 2819SOL    HW1 9356   6.451   3.557   1.557
 2819SOL    HW2 9357   6.517   3.420   1.615
 2820SOL     OW 9358   5.001   2.973   4.140
 2820SOL    HW1 9359   5.050   3.018   4.215
 2820SOL    HW2 9360   5.026   3.015   4.053
 2821SOL     OW 9361   1.251   3.130   3.100
 2821SOL    HW1 9362   1.306   3.049   3.120
 2821SOL    HW2 9363   1.184   3.143   3.173
 2822SOL     OW 9364   2.675   2.037   0.560
 2822SOL    HW1 9365   2.646   2.131   0.579
 2822SOL    HW2 9366   2.770   2.025   0.590
 2823SOL     OW 9367   1.556   0.322   4.191
 2823SOL    HW1 9368   1.459   0.318   4.214
 2823SOL    HW2 9369   1.593   0.411   4.216
 2824SOL     OW 9370   3.263   2.046   5.592
 2824SOL    HW1 9371   3.176   2.070   5.549
 2824SOL    HW2 9372   3.260   1.952   5.625
 2825SOL     OW 9373   6.008   5.886   0.936
 2825SOL    HW1 9374   6.094   5.873   0.887
 2825SOL    HW2 9375   6.022   5.945   1.015
 2826SOL     OW 9376   4.854   3.774   4.110
 2826SOL    HW1 9377   4.912   3.720   4.171
 2826SOL    HW2 9378   4.849   3.729   4.020
 2827SOL     OW 9379   0.155   0.037   6.005
 2827SOL    HW1 9380   0.152   6.979   6.063
 2827SOL    HW2 9381   0.088   0.028   5.931
 2828SOL     OW 9382   3.309   1.918   6.172
 2828SOL    HW1 9383   3.236   1.859   6.139
 2828SOL    HW2 9384   3.271   2.008   6.195
 2829SOL     OW 9385   3.003   0.908   6.878
 2829SOL    HW1 9386   2.927   0.881   6.819
 2829SOL    HW2 9387   3.070   0.961   6.825
 2830SOL     OW 9388   3.211   3.820   6.738
 2830SOL    HW1 9389   3.235   3.903   6.686
 2830SOL    HW2 9390   3.181   3.749   6.674
 2831SOL     OW 9391   6.205   6.479   4.020
 2831SOL    HW1 9392   6.239   6.573   4.029
 2831SOL    HW2 9393   6.217   6.448   3.925
 2832SOL     OW 9394   0.288   0.886   2.076
 2832SOL    HW1 9395   0.286   0.891   2.175
 2832SOL    HW2 9396   0.308   0.792   2.048
 2833SOL     OW 9397   6.352   3.124   2.162
 2833SOL    HW1 9398   6.405   3.141   2.078
 2833SOL    HW2 9399   6.363   3.201   2.224
 2834SOL     OW 9400   4.380   0.911   5.195
 2834SOL    HW1 9401   4.301   0.849   5.190
 2834SOL    HW2 9402   4.456   0.873   5.142
 2835SOL     OW 9403   6.274   6.281   3.766
 2835SOL    HW1 9404   6.269   6.357   3.701
 2835SOL    HW2 9405   6.359   6.287   3.818
 2836SOL     OW 9406   6.476   0.157   0.872
 2836SOL    HW1 9407   6.411   0.215   0.823
 2836SOL    HW2 9408   6.489   0.072   0.821
 2837SOL     OW 9409   5.769   2.942   3.709
 2837SOL    HW1 9410   5.710   3.019   3.731
 2837SOL    HW2 9411   5.812   2.957   3.619
 2838SOL     OW 9412   1.354   4.515   4.393
 2838SOL    HW1 9413   1.324   4.558   4.479
 2838SOL    HW2 9414   1.393   4.585   4.333
 2839SOL     OW 9415   4.539   3.091   0.366
 2839SOL    HW1 9416   4.585   3.124   0.449
 2839SOL    HW2 9417   4.445   3.065   0.388
 2840SOL     OW 9418   6.755   2.608   4.827
 2840SOL    HW1 9419   6.756   2.708   4.837
 2840SOL    HW2 9420   6.849   2.575   4.816
 2841SOL     OW 9421   0.081   6.003   0.213
 2841SOL    HW1 9422   0.139   5.929   0.179
 2841SOL    HW2 9423   0.081   6.003   0.313
 2842SOL     OW 9424   6.189   3.703   2.856
 2842SOL    HW1 9425   6.104   3.701   2.909
 2842SOL    HW2 9426   6.198   3.792   2.812
 2843SOL     OW 9427   4.149   1.064   4.084
 2843SOL    HW1 9428   4.090   1.139   4.055
 2843SOL    HW2 9429   4.098   0.979   4.083
 2844SOL     OW 9430   1.702   4.245   5.636
 2844SOL    HW1 9431   1.685   4.150   5.660
 2844SOL    HW2 9432   1.705   4.301   5.719
 2845SOL     OW 9433   0.282   3.661   6.256
 2845SOL    HW1 9434   0.357   3.701   6.308
 2845SOL    HW2 9435   0.245   3.729   6.193
 2846SOL     OW 9436   5.553   1.385   6.014
 2846SOL    HW1 9437   5.519   1.478   6.002
 2846SOL    HW2 9438   5.653   1.385   6.009
 2847SOL     OW 9439   4.368   5.019   4.385
 2847SOL    HW1 9440   4.435   5.078   4.430
 2847SOL    HW2 9441   4.279   5.029   4.429
 2848SOL     OW 9442   2.287   6.863   5.613
 2848SOL    HW1 9443   2.230   6.892   5.536
 2848SOL    HW2 9444   2.312   6.767   5.601
 2849SOL     OW 9445   2.238   3.063   1.806
 2849SOL    HW1 9446   2.211   3.057   1.902
 2849SOL    HW2 9447   2.252   2.971   1.769
 2850SOL     OW 9448   4.187   1.389   0.769
 2850SOL    HW1 9449   4.185   1.454   0.844
 2850SOL    HW2 9450   4.282   1.376   0.739
 2851SOL     OW 9451   3.107   5.714   5.664
 2851SOL    HW1 9452   3.030   5.688   5.722
 2851SOL    HW2 9453   3.098   5.669   5.575
 2852SOL     OW 9454   0.332   2.234   6.732
 2852SOL    HW1 9455   0.244   2.266   6.767
 2852SOL    HW2 9456   0.406   2.287   6.773
 2853SOL     OW 9457   3.486   2.436   1.496
 2853SOL    HW1 9458   3.479   2.529   1.461
 2853SOL    HW2 9459   3.408   2.383   1.465
 2854SOL     OW 9460   0.645   0.836   3.701
 2854SOL    HW1 9461   0.632   0.838   3.602
 2854SOL    HW2 9462   0.610   0.750   3.738
 2855SOL     OW 9463   3.425   1.555   4.162
 2855SOL    HW1 9464   3.432   1.487   4.236
 2855SOL    HW2 9465   3.385   1.639   4.198
 2856SOL     OW 9466   2.965   1.394   5.712
 2856SOL    HW1 9467   2.928   1.309   5.675
 2856SOL    HW2 9468   2.964   1.464   5.640
 2857SOL     OW 9469   3.315   3.042   3.767
 2857SOL    HW1 9470   3.242   2.982   3.798
 2857SOL    HW2 9471   3.319   3.040   3.667
 2858SOL     OW 9472   5.599   2.935   2.841
 2858SOL    HW1 9473   5.671   2.876   2.803
 2858SOL    HW2 9474   5.542   2.970   2.767
 2859SOL     OW 9475   5.220   5.855   0.035
 2859SOL    HW1 9476   5.300   5.915   0.049
 2859SOL    HW2 9477   5.197   5.810   0.121
 2860SOL     OW 9478   4.248   2.298   0.624
 2860SOL    HW1 9479   4.173   2.232   0.627
 2860SOL    HW2 9480   4.335   2.249   0.633
 2861SOL     OW 9481   4.521   4.697   6.158
 2861SOL    HW1 9482   4.540   4.602   6.181
 2861SOL    HW2 9483   4.494   4.703   6.062
 2862SOL     OW 9484   6.342   6.916   3.617
 2862SOL    HW1 9485   6.332   6.957   3.526
 2862SOL    HW2 9486   6.427   6.949   3.659
 2863SOL     OW 9487   6.466   0.362   6.892
 2863SOL    HW1 9488   6.411   0.436   6.932
 2863SOL    HW2 9489   6.420   0.274   6.907
 2864SOL     OW 9490   3.694   2.184   0.649
 2864SOL    HW1 9491   3.739   2.223   0.569
 2864SOL    HW2 9492   3.692   2.251   0.723
 2865SOL     OW 9493   4.775   4.852   5.300
 2865SOL    HW1 9494   4.709   4.894   5.237
 2865SOL    HW2 9495   4.827   4.923   5.346
 2866SOL     OW 9496   0.568   6.878   6.330
 2866SOL    HW1 9497   0.576   6.947   6.402
 2866SOL    HW2 9498   0.658   6.862   6.290
 2867SOL     OW 9499   6.638   4.293   4.285
 2867SOL    HW1 9500   6.543   4.286   4.253
 2867SOL    HW2 9501   6.695   4.230   4.231
 2868SOL     OW 9502   1.625   5.037   4.792
 2868SOL    HW1 9503   1.688   5.050   4.715
 2868SOL    HW2 9504   1.653   4.957   4.845
 2869SOL     OW 9505   6.024   1.332   2.280
 2869SOL    HW1 9506   6.079   1.263   2.327
 2869SOL    HW2 9507   5.945   1.288   2.237
 2870SOL     OW 9508   4.219   2.236   2.207
 2870SOL    HW1 9509   4.258   2.260   2.118
 2870SOL    HW2 9510   4.156   2.308   2.236
 2871SOL     OW 9511   1.246   1.404   5.953
 2871SOL    HW1 9512   1.157   1.419   5.909
 2871SOL    HW2 9513   1.253   1.461   6.035
 2872SOL     OW 9514   1.817   0.371   4.013
 2872SOL    HW1 9515   1.840   0.297   4.076
 2872SOL    HW2 9516   1.861   0.353   3.924
 2873SOL     OW 9517   6.487   5.746   2.117
 2873SOL    HW1 9518   6.466   5.679   2.046
 2873SOL    HW2 9519   6.470   5.705   2.207
 2874SOL     OW 9520   5.168   2.109   1.832
 2874SOL    HW1 9521   5.089   2.051   1.853
 2874SOL    HW2 9522   5.141   2.182   1.769
 2875SOL     OW 9523   3.087   4.692   0.677
 2875SOL    HW1 9524   3.029   4.645   0.744
 2875SOL    HW2 9525   3.062   4.661   0.585
 2876SOL     OW 9526   6.030   2.348   1.914
 2876SOL    HW1 9527   6.089   2.399   1.976
 2876SOL    HW2 9528   6.058   2.251   1.914
 2877SOL     OW 9529   1.539   3.642   5.116
 2877SOL    HW1 9530   1.489   3.555   5.117
 2877SOL    HW2 9531   1.560   3.669   5.210
 2878SOL     OW 9532   3.972   4.811   0.570
 2878SOL    HW1 9533   3.891   4.794   0.626
 2878SOL    HW2 9534   4.034   4.732   0.575
 2879SOL     OW 9535   5.118   3.969   6.650
 2879SOL    HW1 9536   5.064   3.902   6.598
 2879SOL    HW2 9537   5.202   3.991   6.599
 2880SOL     OW 9538   1.656   6.403   3.635
 2880SOL    HW1 9539   1.650   6.501   3.616
 2880SOL    HW2 9540   1.682   6.389   3.730
 2881SOL     OW 9541   7.003   0.560   7.021
 2881SOL    HW1 9542   7.008   0.491   0.069
 2881SOL    HW2 9543   6.922   0.618   0.012
 2882SOL     OW 9544   6.933   3.392   3.128
 2882SOL    HW1 9545   6.992   3.447   3.188
 2882SOL    HW2 9546   6.837   3.418   3.143
 2883SOL     OW 9547   4.073   6.200   1.989
 2883SOL    HW1 9548   4.020   6.213   2.072
 2883SOL    HW2 9549   4.015   6.159   1.919
 2884SOL     OW 9550   2.011   5.158   3.074
 2884SOL    HW1 9551   2.096   5.118   3.109
 2884SOL    HW2 9552   1.940   5.150   3.144
 2885SOL     OW 9553   0.918   2.303   4.643
 2885SOL    HW1 9554   0.872   2.268   4.725
 2885SOL    HW2 9555   0.978   2.379   4.669
 2886SOL     OW 9556   2.904   2.736   6.147
 2886SOL    HW1 9557   2.966   2.716   6.071
 2886SOL    HW2 9558   2.897   2.656   6.206
 2887SOL     OW 9559   2.796   1.703   5.116
 2887SOL    HW1 9560   2.828   1.634   5.182
 2887SOL    HW2 9561   2.830   1.680   5.025
 2888SOL     OW 9562   0.249   5.181   0.105
 2888SOL    HW1 9563   0.323   5.115   0.108
 2888SOL    HW2 9564   0.199   5.180   0.191
 2889SOL     OW 9565   1.246   0.526   0.909
 2889SOL    HW1 9566   1.279   0.521   1.003
 2889SOL    HW2 9567   1.264   0.618   0.872
 2890SOL     OW 9568   2.877   0.181   0.808
 2890SOL    HW1 9569   2.869   0.195   0.709
 2890SOL    HW2 9570   2.967   0.143   0.829
 2891SOL     OW 9571   2.728   4.897   4.980
 2891SOL    HW1 9572   2.741   4.920   4.884
 2891SOL    HW2 9573   2.759   4.803   4.997
 2892SOL     OW 9574   4.059   4.355   5.315
 2892SOL    HW1 9575   4.138   4.383   5.261
 2892SOL    HW2 9576   3.993   4.309   5.256
 2893SOL     OW 9577   3.311   0.705   5.581
 2893SOL    HW1 9578   3.308   0.802   5.606
 2893SOL    HW2 9579   3.322   0.697   5.482
 2894SOL     OW 9580   4.221   3.477   1.707
 2894SOL    HW1 9581   4.316   3.507   1.717
 2894SOL    HW2 9582   4.216   3.378   1.721
 2895SOL     OW 9583   3.732   3.109   0.254
 2895SOL    HW1 9584   3.645   3.157   0.262
 2895SOL    HW2 9585   3.768   3.121   0.162
 2896SOL     OW 9586   1.325   4.646   0.216
 2896SOL    HW1 9587   1.412   4.687   0.188
 2896SOL    HW2 9588   1.249   4.700   0.178
 2897SOL     OW 9589   1.121   6.775   3.684
 2897SOL    HW1 9590   1.111   6.853   3.622
 2897SOL    HW2 9591   1.114   6.806   3.778
 2898SOL     OW 9592   2.032   5.192   2.780
 2898SOL    HW1 9593   1.933   5.174   2.781
 2898SOL    HW2 9594   2.069   5.178   2.872
 2899SOL     OW 9595   5.712   0.547   0.859
 2899SOL    HW1 9596   5.785   0.612   0.879
 2899SOL    HW2 9597   5.698   0.488   0.939
 2900SOL     OW 9598   2.824   5.325   6.213
 2900SOL    HW1 9599   2.773   5.375   6.284
 2900SOL    HW2 9600   2.762   5.303   6.138
 2901SOL     OW 9601   2.768   6.662   1.091
 2901SOL    HW1 9602   2.697   6.701   1.032
 2901SOL    HW2 9603   2.822   6.736   1.131
 2902SOL     OW 9604   4.897   5.670   1.087
 2902SOL    HW1 9605   4.919   5.612   1.166
 2902SOL    HW2 9606   4.809   5.714   1.101
 2903SOL     OW 9607   2.981   2.531   1.732
 2903SOL    HW1 9608   2.949   2.459   1.794
 2903SOL    HW2 9609   3.063   2.500   1.685
 2904SOL     OW 9610   2.596   2.052   4.410
 2904SOL    HW1 9611   2.662   2.120   4.380
 2904SOL    HW2 9612   2.588   2.054   4.510
 2905SOL     OW 9613   0.898   1.467   2.359
 2905SOL    HW1 9614   0.956   1.546   2.374
 2905SOL    HW2 9615   0.954   1.385   2.346
 2906SOL     OW 9616   4.889   5.055   2.382
 2906SOL    HW1 9617   4.804   5.006   2.401
 2906SOL    HW2 9618   4.922   5.098   2.466
 2907SOL     OW 9619   6.020   0.418   4.827
 2907SOL    HW1 9620   6.118   0.399   4.821
 2907SOL    HW2 9621   5.985   0.386   4.916
 2908SOL     OW 9622   3.620   5.846   4.757
 2908SOL    HW1 9623   3.667   5.770   4.804
 2908SOL    HW2 9624   3.642   5.843   4.660
 2909SOL     OW 9625   2.587   6.341   5.648
 2909SOL    HW1 9626   2.588   6.298   5.738
 2909SOL    HW2 9627   2.575   6.271   5.578
 2910SOL     OW 9628   4.262   5.855   5.499
 2910SOL    HW1 9629   4.247   5.837   5.401
 2910SOL    HW2 9630   4.336   5.921   5.510
 2911SOL     OW 9631   2.453   4.526   3.341
 2911SOL    HW1 9632   2.549   4.551   3.345
 2911SOL    HW2 9633   2.425   4.515   3.246
 2912SOL     OW 9634   3.001   5.034   1.437
 2912SOL    HW1 9635   3.075   4.966   1.436
 2912SOL    HW2 9636   2.913   4.987   1.449
 2913SOL     OW 9637   1.125   2.997   2.474
 2913SOL    HW1 9638   1.155   2.981   2.379
 2913SOL    HW2 9639   1.096   3.092   2.485
 2914SOL     OW 9640   5.357   4.410   6.048
 2914SOL    HW1 9641   5.361   4.510   6.052
 2914SOL    HW2 9642   5.367   4.380   5.953
 2915SOL     OW 9643   4.491   1.557   3.296
 2915SOL    HW1 9644   4.523   1.494   3.367
 2915SOL    HW2 9645   4.546   1.543   3.213
 2916SOL     OW 9646   4.702   0.028   4.787
 2916SOL    HW1 9647   4.687   6.955   4.768
 2916SOL    HW2 9648   4.629   0.082   4.746
 2917SOL     OW 9649   3.846   0.344   2.249
 2917SOL    HW1 9650   3.755   0.380   2.272
 2917SOL    HW2 9651   3.837   0.250   2.215
 2918SOL     OW 9652   1.133   2.752   4.762
 2918SOL    HW1 9653   1.210   2.816   4.753
 2918SOL    HW2 9654   1.111   2.714   4.673
 2919SOL     OW 9655   5.715   5.826   0.431
 2919SOL    HW1 9656   5.744   5.762   0.503
 2919SOL    HW2 9657   5.794   5.856   0.379
 2920SOL     OW 9658   4.622   1.835   2.600
 2920SOL    HW1 9659   4.699   1.837   2.536
 2920SOL    HW2 9660   4.619   1.746   2.645
 2921SOL     OW 9661   6.508   1.386   0.845
 2921SOL    HW1 9662   6.425   1.441   0.846
 2921SOL    HW2 9663   6.521   1.344   0.935
 2922SOL     OW 9664   3.965   6.808   4.448
 2922SOL    HW1 9665   3.906   6.786   4.526
 2922SOL    HW2 9666   4.022   6.887   4.471
 2923SOL     OW 9667   6.964   4.840   6.665
 2923SOL    HW1 9668   6.949   4.840   6.566
 2923SOL    HW2 9669   0.013   4.775   6.687
 2924SOL     OW 9670   6.612   6.982   6.088
 2924SOL    HW1 9671   6.555   0.040   6.080
 2924SOL    HW2 9672   6.683   6.998   6.156
 2925SOL     OW 9673   5.738   4.443   0.594
 2925SOL    HW1 9674   5.832   4.413   0.612
 2925SOL    HW2 9675   5.706   4.498   0.671
 2926SOL     OW 9676   0.444   1.224   3.396
 2926SOL    HW1 9677   0.379   1.295   3.423
 2926SOL    HW2 9678   0.419   1.138   3.439
 2927SOL     OW 9679   0.249   3.510   2.642
 2927SOL    HW1 9680   0.185   3.586   2.652
 2927SOL    HW2 9681   0.240   3.449   2.721
 2928SOL     OW 9682   5.574   6.065   0.327
 2928SOL    HW1 9683   5.612   6.137   0.385
 2928SOL    HW2 9684   5.529   5.997   0.384
 2929SOL     OW 9685   0.745   0.353   5.566
 2929SOL    HW1 9686   0.793   0.285   5.621
 2929SOL    HW2 9687   0.782   0.354   5.474
 2930SOL     OW 9688   3.030   6.858   4.213
 2930SOL    HW1 9689   2.962   6.886   4.280
 2930SOL    HW2 9690   3.116   6.835   4.260
 2931SOL     OW 9691   4.397   4.927   6.269
 2931SOL    HW1 9692   4.401   4.909   6.367
 2931SOL    HW2 9693   4.407   4.841   6.219
 2932SOL     OW 9694   1.404   4.543   1.825
 2932SOL    HW1 9695   1.329   4.609   1.820
 2932SOL    HW2 9696   1.478   4.581   1.880
 2933SOL     OW 9697   5.064   2.454   3.719
 2933SOL    HW1 9698   5.103   2.481   3.631
 2933SOL    HW2 9699   5.054   2.354   3.721
 2934SOL     OW 9700   2.180   1.171   0.872
 2934SOL    HW1 9701   2.098   1.224   0.848
 2934SOL    HW2 9702   2.168   1.130   0.962
 2935SOL     OW 9703   6.919   1.616   0.879
 2935SOL    HW1 9704   6.858   1.583   0.808
 2935SOL    HW2 9705   6.872   1.687   0.933
 2936SOL     OW 9706   3.424   5.399   0.674
 2936SOL    HW1 9707   3.418   5.427   0.578
 2936SOL    HW2 9708   3.332   5.379   0.709
 2937SOL     OW 9709   2.884   4.297   0.103
 2937SOL    HW1 9710   2.807   4.277   0.044
 2937SOL    HW2 9711   2.886   4.232   0.179
 2938SOL     OW 9712   4.887   4.413   6.515
 2938SOL    HW1 9713   4.844   4.491   6.561
 2938SOL    HW2 9714   4.908   4.342   6.582
 2939SOL     OW 9715   0.385   6.464   5.814
 2939SOL    HW1 9716   0.316   6.510   5.870
 2939SOL    HW2 9717   0.452   6.532   5.782
 2940SOL     OW 9718   3.807   0.252   5.511
 2940SOL    HW1 9719   3.715   0.216   5.491
 2940SOL    HW2 9720   3.798   0.338   5.560
 2941SOL     OW 9721   3.897   1.863   5.031
 2941SOL    HW1 9722   3.814   1.848   5.085
 2941SOL    HW2 9723   3.970   1.803   5.064
 2942SOL     OW 9724   3.250   6.509   4.327
 2942SOL    HW1 9725   3.273   6.419   4.289
 2942SOL    HW2 9726   3.202   6.497   4.414
 2943SOL     OW 9727   5.568   4.866   3.076
 2943SOL    HW1 9728   5.512   4.906   3.003
 2943SOL    HW2 9729   5.657   4.839   3.038
 2944SOL     OW 9730   4.380   5.946   6.954
 2944SOL    HW1 9731   4.352   5.988   0.016
 2944SOL    HW2 9732   4.299   5.918   6.902
 2945SOL     OW 9733   2.959   3.795   4.576
 2945SOL    HW1 9734   3.050   3.756   4.586
 2945SOL    HW2 9735   2.896   3.749   4.639
 2946SOL     OW 9736   1.155   6.478   5.813
 2946SOL    HW1 9737   1.136   6.411   5.885
 2946SOL    HW2 9738   1.077   6.539   5.803
 2947SOL     OW 9739   6.726   5.243   0.512
 2947SOL    HW1 9740   6.726   5.311   0.438
 2947SOL    HW2 9741   6.819   5.229   0.544
 2948SOL     OW 9742   5.818   3.753   5.505
 2948SOL    HW1 9743   5.880   3.724   5.578
 2948SOL    HW2 9744   5.727   3.715   5.522
 2949SOL     OW 9745   0.666   6.253   0.325
 2949SOL    HW1 9746   0.734   6.304   0.272
 2949SOL    HW2 9747   0.602   6.209   0.262
 2950SOL     OW 9748   5.364   3.578   4.729
 2950SOL    HW1 9749   5.443   3.558   4.787
 2950SOL    HW2 9750   5.284   3.598   4.785
 2951SOL     OW 9751   6.003   0.107   0.190
 2951SOL    HW1 9752   5.959   0.190   0.224
 2951SOL    HW2 9753   5.944   0.028   0.210
 2952SOL     OW 9754   0.772   3.401   2.079
 2952SOL    HW1 9755   0.850   3.435   2.026
 2952SOL    HW2 9756   0.747   3.309   2.046
 2953SOL     OW 9757   5.881   1.818   2.337
 2953SOL    HW1 9758   5.947   1.744   2.348
 2953SOL    HW2 9759   5.845   1.816   2.244
 2954SOL     OW 9760   4.992   5.636   1.902
 2954SOL    HW1 9761   4.949   5.576   1.970
 2954SOL    HW2 9762   5.065   5.586   1.855
 2955SOL     OW 9763   5.753   2.147   1.147
 2955SOL    HW1 9764   5.776   2.244   1.144
 2955SOL    HW2 9765   5.755   2.109   1.055
 2956SOL     OW 9766   5.957   5.826   3.595
 2956SOL    HW1 9767   5.872   5.877   3.583
 2956SOL    HW2 9768   5.955   5.745   3.536
 2957SOL     OW 9769   1.449   4.896   1.458
 2957SOL    HW1 9770   1.405   4.843   1.531
 2957SOL    HW2 9771   1.545   4.912   1.483
 2958SOL     OW 9772   2.826   4.897   6.167
 2958SOL    HW1 9773   2.918   4.931   6.188
 2958SOL    HW2 9774   2.832   4.801   6.140
 2959SOL     OW 9775   3.632   5.188   0.419
 2959SOL    HW1 9776   3.683   5.226   0.496
 2959SOL    HW2 9777   3.696   5.162   0.347
 2960SOL     OW 9778   3.143   1.679   0.038
 2960SOL    HW1 9779   3.115   1.584   0.054
 2960SOL    HW2 9780   3.076   1.741   0.080
 2961SOL     OW 9781   5.729   1.340   4.139
 2961SOL    HW1 9782   5.786   1.334   4.057
 2961SOL    HW2 9783   5.669   1.420   4.132
 2962SOL     OW 9784   4.384   0.293   2.949
 2962SOL    HW1 9785   4.367   0.202   2.988
 2962SOL    HW2 9786   4.456   0.338   3.001
 2963SOL     OW 9787   2.172   3.356   4.976
 2963SOL    HW1 9788   2.181   3.392   5.069
 2963SOL    HW2 9789   2.253   3.303   4.952
 2964SOL     OW 9790   3.103   6.098   0.472
 2964SOL    HW1 9791   3.161   6.074   0.394
 2964SOL    HW2 9792   3.007   6.098   0.444
 2965SOL     OW 9793   0.837   2.948   6.416
 2965SOL    HW1 9794   0.766   2.890   6.456
 2965SOL    HW2 9795   0.914   2.954   6.480
 2966SOL     OW 9796   4.833   5.063   3.630
 2966SOL    HW1 9797   4.775   5.081   3.550
 2966SOL    HW2 9798   4.836   4.964   3.647
 2967SOL     OW 9799   6.041   2.696   4.226
 2967SOL    HW1 9800   6.057   2.726   4.132
 2967SOL    HW2 9801   6.125   2.656   4.263
 2968SOL     OW 9802   6.878   4.198   3.403
 2968SOL    HW1 9803   6.829   4.120   3.365
 2968SOL    HW2 9804   6.835   4.283   3.373
 2969SOL     OW 9805   3.790   1.602   4.611
 2969SOL    HW1 9806   3.738   1.605   4.525
 2969SOL    HW2 9807   3.789   1.692   4.654
 2970SOL     OW 9808   1.285   3.945   5.643
 2970SOL    HW1 9809   1.377   3.973   5.671
 2970SOL    HW2 9810   1.219   3.969   5.714
 2971SOL     OW 9811   5.381   3.891   2.400
 2971SOL    HW1 9812   5.389   3.922   2.495
 2971SOL    HW2 9813   5.290   3.852   2.385
 2972SOL     OW 9814   0.641   4.230   4.939
 2972SOL    HW1 9815   0.716   4.227   4.873
 2972SOL    HW2 9816   0.594   4.142   4.940
 2973SOL     OW 9817   5.788   0.073   3.692
 2973SOL    HW1 9818   5.882   0.083   3.725
 2973SOL    HW2 9819   5.747   0.163   3.679
 2974SOL     OW 9820   6.918   4.477   1.478
 2974SOL    HW1 9821   6.877   4.479   1.569
 2974SOL    HW2 9822   7.016   4.497   1.484
 2975SOL     OW 9823   6.485   1.421   3.969
 2975SOL    HW1 9824   6.460   1.448   3.877
 2975SOL    HW2 9825   6.585   1.417   3.976
 2976SOL     OW 9826   2.291   6.061   1.280
 2976SOL    HW1 9827   2.321   6.087   1.371
 2976SOL    HW2 9828   2.364   6.008   1.235
 2977SOL     OW 9829   2.996   6.746   3.584
 2977SOL    HW1 9830   3.015   6.705   3.674
 2977SOL    HW2 9831   2.897   6.745   3.568
 2978SOL     OW 9832   3.021   0.104   6.389
 2978SOL    HW1 9833   3.083   0.134   6.317
 2978SOL    HW2 9834   3.049   0.015   6.423
 2979SOL     OW 9835   2.825   1.009   3.257
 2979SOL    HW1 9836   2.783   0.918   3.261
 2979SOL    HW2 9837   2.754   1.077   3.236
 2980SOL     OW 9838   6.219   6.759   3.111
 2980SOL    HW1 9839   6.147   6.779   3.178
 2980SOL    HW2 9840   6.297   6.716   3.158
 2981SOL     OW 9841   1.979   1.469   6.030
 2981SOL    HW1 9842   1.930   1.384   6.007
 2981SOL    HW2 9843   1.915   1.545   6.030
 2982SOL     OW 9844   4.540   5.590   2.042
 2982SOL    HW1 9845   4.581   5.532   1.971
 2982SOL    HW2 9846   4.601   5.666   2.062
 2983SOL     OW 9847   0.065   0.819   2.591
 2983SOL    HW1 9848   6.999   0.796   2.630
 2983SOL    HW2 9849   0.133   0.755   2.625
 2984SOL     OW 9850   5.899   4.793   1.773
 2984SOL    HW1 9851   5.894   4.889   1.802
 2984SOL    HW2 9852   5.841   4.738   1.832
 2985SOL     OW 9853   6.584   2.624   3.130
 2985SOL    HW1 9854   6.509   2.682   3.098
 2985SOL    HW2 9855   6.645   2.602   3.054
 2986SOL     OW 9856   1.936   3.314   5.154
 2986SOL    HW1 9857   1.854   3.298   5.099
 2986SOL    HW2 9858   1.980   3.227   5.176
 2987SOL     OW 9859   5.009   2.090   4.987
 2987SOL    HW1 9860   5.017   2.147   5.068
 2987SOL    HW2 9861   5.066   2.128   4.913
 2988SOL     OW 9862   1.107   0.158   2.580
 2988SOL    HW1 9863   1.182   0.175   2.516
 2988SOL    HW2 9864   1.098   0.235   2.642
 2989SOL     OW 9865   6.284   5.235   0.814
 2989SOL    HW1 9866   6.265   5.258   0.719
 2989SOL    HW2 9867   6.204   5.190   0.854
 2990SOL     OW 9868   3.029   1.612   1.710
 2990SOL    HW1 9869   3.080   1.681   1.659
 2990SOL    HW2 9870   3.026   1.527   1.657
 2991SOL     OW 9871   6.666   4.800   0.040
 2991SOL    HW1 9872   6.697   4.843   6.979
 2991SOL    HW2 9873   6.587   4.848   0.076
 2992SOL     OW 9874   4.437   4.042   6.818
 2992SOL    HW1 9875   4.340   4.020   6.806
 2992SOL    HW2 9876   4.492   3.960   6.800
 2993SOL     OW 9877   1.675   4.332   0.057
 2993SOL    HW1 9878   1.641   4.265   0.123
 2993SOL    HW2 9879   1.672   4.423   0.097
 2994SOL     OW 9880   4.319   6.158   0.079
 2994SOL    HW1 9881   4.392   6.218   0.112
 2994SOL    HW2 9882   4.299   6.177   7.007
 2995SOL     OW 9883   2.344   0.766   5.528
 2995SOL    HW1 9884   2.363   0.674   5.561
 2995SOL    HW2 9885   2.256   0.767   5.481
 2996SOL     OW 9886   4.325   6.474   5.916
 2996SOL    HW1 9887   4.229   6.484   5.940
 2996SOL    HW2 9888   4.340   6.501   5.821
 2997SOL     OW 9889   3.829   5.775   0.372
 2997SOL    HW1 9890   3.857   5.820   0.287
 2997SOL    HW2 9891   3.757   5.829   0.416
 2998SOL     OW 9892   6.531   4.498   5.625
 2998SOL    HW1 9893   6.591   4.556   5.681
 2998SOL    HW2 9894   6.553   4.402   5.641
 2999SOL     OW 9895   2.332   1.599   1.835
 2999SOL    HW1 9896   2.336   1.560   1.744
 2999SOL    HW2 9897   2.296   1.532   1.899
 3000SOL     OW 9898   1.246   1.982   4.758
 3000SOL    HW1 9899   1.265   2.076   4.730
 3000SOL    HW2 9900   1.209   1.981   4.851
 3001SOL     OW 9901   4.941   6.207   5.688
 3001SOL    HW1 9902   5.029   6.192   5.733
 3001SOL    HW2 9903   4.930   6.142   5.613
 3002SOL     OW 9904   3.329   0.613   5.306
 3002SOL    HW1 9905   3.385   0.536   5.277
 3002SOL    HW2 9906   3.354   0.694   5.253
 3003SOL     OW 9907   1.234   0.083   5.631
 3003SOL    HW1 9908   1.332   0.104   5.639
 3003SOL    HW2 9909   1.219   0.028   5.549
 3004SOL     OW 9910   6.995   2.890   5.898
 3004SOL    HW1 9911   6.981   2.824   5.824
 3004SOL    HW2 9912   6.923   2.880   5.966
 3005SOL     OW 9913   4.973   2.504   0.948
 3005SOL    HW1 9914   4.927   2.416   0.957
 3005SOL    HW2 9915   4.995   2.539   1.039
 3006SOL     OW 9916   4.424   7.017   1.736
 3006SOL    HW1 9917   4.519   7.006   1.706
 3006SOL    HW2 9918   4.418   6.999   1.834
 3007SOL     OW 9919   5.654   5.273   1.829
 3007SOL    HW1 9920   5.634   5.188   1.878
 3007SOL    HW2 9921   5.730   5.258   1.766
 3008SOL     OW 9922   4.432   5.565   5.683
 3008SOL    HW1 9923   4.375   5.584   5.763
 3008SOL    HW2 9924   4.527   5.556   5.711
 3009SOL     OW 9925   0.943   0.535   2.684
 3009SOL    HW1 9926   0.869   0.563   2.746
 3009SOL    HW2 9927   0.963   0.438   2.697
 3010SOL     OW 9928   2.788   6.790   2.934
 3010SOL    HW1 9929   2.847   6.801   2.854
 3010SOL    HW2 9930   2.692   6.794   2.906
 3011SOL     OW 9931   5.288   0.131   0.803
 3011SOL    HW1 9932   5.381   0.116   0.770
 3011SOL    HW2 9933   5.226   0.063   0.764
 3012SOL     OW 9934   0.022   5.225   1.010
 3012SOL    HW1 9935   0.028   5.131   0.975
 3012SOL    HW2 9936   0.091   5.282   0.966
 3013SOL     OW 9937   5.587   4.461   2.033
 3013SOL    HW1 9938   5.659   4.402   1.997
 3013SOL    HW2 9939   5.550   4.518   1.960
 3014SOL     OW 9940   5.156   6.826   5.792
 3014SOL    HW1 9941   5.178   6.899   5.856
 3014SOL    HW2 9942   5.224   6.753   5.800
 3015SOL     OW 9943   2.644   1.130   0.146
 3015SOL    HW1 9944   2.743   1.132   0.129
 3015SOL    HW2 9945   2.626   1.079   0.230
 3016SOL     OW 9946   3.673   6.159   3.690
 3016SOL    HW1 9947   3.629   6.248   3.699
 3016SOL    HW2 9948   3.709   6.130   3.778
 3017SOL     OW 9949   0.495   5.904   1.805
 3017SOL    HW1 9950   0.573   5.940   1.857
 3017SOL    HW2 9951   0.463   5.975   1.741
 3018SOL     OW 9952   4.488   0.106   5.981
 3018SOL    HW1 9953   4.482   0.193   6.031
 3018SOL    HW2 9954   4.476   0.122   5.884
 3019SOL     OW 9955   4.904   0.420   1.928
 3019SOL    HW1 9956   4.865   0.487   1.865
 3019SOL    HW2 9957   4.846   0.338   1.930
 3020SOL     OW 9958   1.834   0.493   1.880
 3020SOL    HW1 9959   1.908   0.437   1.842
 3020SOL    HW2 9960   1.753   0.436   1.894
 3021SOL     OW 9961   4.288   0.800   6.531
 3021SOL    HW1 9962   4.299   0.854   6.615
 3021SOL    HW2 9963   4.255   0.859   6.457
 3022SOL     OW 9964   6.788   0.399   2.869
 3022SOL    HW1 9965   6.868   0.429   2.921
 3022SOL    HW2 9966   6.804   0.306   2.835
 3023SOL     OW 9967   5.766   0.416   1.413
 3023SOL    HW1 9968   5.816   0.397   1.498
 3023SOL    HW2 9969   5.824   0.468   1.351
 3024SOL     OW 9970   2.310   0.085   6.453
 3024SOL    HW1 9971   2.337   0.069   6.548
 3024SOL    HW2 9972   2.386   0.127   6.404
 3025SOL     OW 9973   2.025   2.467   1.759
 3025SOL    HW1 9974   2.069   2.548   1.720
 3025SOL    HW2 9975   1.973   2.420   1.687
 3026SOL     OW 9976   3.012   5.803   0.579
 3026SOL    HW1 9977   3.026   5.789   0.481
 3026SOL    HW2 9978   2.939   5.869   0.593
 3027SOL     OW 9979   1.424   2.184   3.577
 3027SOL    HW1 9980   1.500   2.122   3.557
 3027SOL    HW2 9981   1.340   2.131   3.588
 3028SOL     OW 9982   1.088   0.193   4.677
 3028SOL    HW1 9983   1.049   0.276   4.638
 3028SOL    HW2 9984   1.188   0.197   4.671
 3029SOL     OW 9985   6.232   5.437   6.062
 3029SOL    HW1 9986   6.233   5.441   5.962
 3029SOL    HW2 9987   6.313   5.387   6.094
 3030SOL     OW 9988   1.113   0.617   5.300
 3030SOL    HW1 9989   1.182   0.687   5.286
 3030SOL    HW2 9990   1.036   0.632   5.238
 3031SOL     OW 9991   0.132   5.759   6.025
 3031SOL    HW1 9992   0.229   5.733   6.025
 3031SOL    HW2 9993   0.110   5.804   6.111
 3032SOL     OW 9994   4.044   6.636   5.782
 3032SOL    HW1 9995   4.051   6.573   5.859
 3032SOL    HW2 9996   4.122   6.621   5.721
 3033SOL     OW 9997   5.035   4.633   5.573
 3033SOL    HW1 9998   5.060   4.581   5.492
 3033SOL    HW2 9999   5.099   4.710   5.584
 3034SOL     OW10000   2.698   6.598   4.496
 3034SOL    HW110001   2.771   6.613   4.429
 3034SOL    HW210002   2.646   6.517   4.472
 3035SOL     OW10003   6.191   6.956   6.939
 3035SOL    HW110004   6.187   0.018   6.990
 3035SOL    HW210005   6.211   6.881   7.002
 3036SOL     OW10006   1.082   5.209   5.347
 3036SOL    HW110007   1.019   5.140   5.383
 3036SOL    HW210008   1.097   5.279   5.416
 3037SOL     OW10009   5.403   6.671   5.807
 3037SOL    HW110010   5.497   6.637   5.808
 3037SOL    HW210011   5.350   6.621   5.877
 3038SOL     OW10012   6.140   6.444   6.010
 3038SOL    HW110013   6.187   6.380   6.072
 3038SOL    HW210014   6.131   6.402   5.920
 3039SOL     OW10015   0.547   5.330   0.634
 3039SOL    HW110016   0.614   5.258   0.620
 3039SOL    HW210017   0.469   5.317   0.572
 3040SOL     OW10018   3.157   1.364   0.056
 3040SOL    HW110019   3.120   1.342   6.990
 3040SOL    HW210020   3.219   1.291   0.085
 3041SOL     OW10021   1.560   2.189   6.352
 3041SOL    HW110022   1.655   2.156   6.353
 3041SOL    HW210023   1.539   2.226   6.262
 3042SOL     OW10024   6.358   0.459   1.212
 3042SOL    HW110025   6.305   0.467   1.296
 3042SOL    HW210026   6.400   0.369   1.208
 3043SOL     OW10027   0.003   5.210   6.990
 3043SOL    HW110028   0.012   5.180   6.895
 3043SOL    HW210029   0.084   5.181   0.018
 3044SOL     OW10030   2.510   3.111   6.359
 3044SOL    HW110031   2.481   3.018   6.384
 3044SOL    HW210032   2.565   3.108   6.276
 3045SOL     OW10033   4.807   2.384   3.797
 3045SOL    HW110034   4.799   2.286   3.774
 3045SOL    HW210035   4.894   2.418   3.761
 3046SOL     OW10036   2.081   2.398   6.206
 3046SOL    HW110037   2.179   2.416   6.193
 3046SOL    HW210038   2.031   2.425   6.124
 3047SOL     OW10039   0.049   5.472   1.487
 3047SOL    HW110040   6.987   5.432   1.520
 3047SOL    HW210041   0.107   5.401   1.448
 3048SOL     OW10042   3.334   2.642   1.763
 3048SOL    HW110043   3.364   2.694   1.683
 3048SOL    HW210044   3.413   2.623   1.822
 3049SOL     OW10045   0.721   0.464   1.380
 3049SOL    HW110046   0.654   0.473   1.306
 3049SOL    HW210047   0.674   0.450   1.467
 3050SOL     OW10048   1.770   0.822   3.852
 3050SOL    HW110049   1.817   0.905   3.882
 3050SOL    HW210050   1.833   0.766   3.798
 3051SOL     OW10051   2.747   4.436   6.329
 3051SOL    HW110052   2.785   4.349   6.360
 3051SOL    HW210053   2.734   4.496   6.408
 3052SOL     OW10054   5.313   6.900   2.590
 3052SOL    HW110055   5.322   6.997   2.566
 3052SOL    HW210056   5.248   6.889   2.665
 3053SOL     OW10057   4.014   0.027   1.887
 3053SOL    HW110058   4.022   6.977   1.820
 3053SOL    HW210059   4.036   7.016   1.978
 3054SOL     OW10060   2.251   4.254   5.566
 3054SOL    HW110061   2.271   4.226   5.472
 3054SOL    HW210062   2.178   4.198   5.603
 3055SOL     OW10063   6.527   6.530   2.919
 3055SOL    HW110064   6.462   6.491   2.985
 3055SOL    HW210065   6.494   6.620   2.889
 3056SOL     OW10066   5.627   0.741   1.902
 3056SOL    HW110067   5.690   0.747   1.824
 3056SOL    HW210068   5.639   0.653   1.948
 3057SOL     OW10069   6.296   5.425   2.723
 3057SOL    HW110070   6.196   5.428   2.725
 3057SOL    HW210071   6.326   5.357   2.656
 3058SOL     OW10072   5.830   5.967   1.409
 3058SOL    HW110073   5.790   6.008   1.490
 3058SOL    HW210074   5.780   5.883   1.385
 3059SOL     OW10075   2.425   2.594   5.745
 3059SOL    HW110076   2.463   2.685   5.760
 3059SOL    HW210077   2.448   2.562   5.653
 3060SOL     OW10078   0.518   6.286   6.746
 3060SOL    HW110079   0.422   6.260   6.749
 3060SOL    HW210080   0.571   6.214   6.701
 3061SOL     OW10081   0.782   0.816   5.898
 3061SOL    HW110082   0.697   0.766   5.880
 3061SOL    HW210083   0.850   0.753   5.935
 3062SOL     OW10084   3.096   4.917   6.227
 3062SOL    HW110085   3.117   4.856   6.302
 3062SOL    HW210086   3.086   5.011   6.261
 3063SOL     OW10087   2.762   5.851   0.942
 3063SOL    HW110088   2.849   5.806   0.922
 3063SOL    HW210089   2.779   5.941   0.982
 3064SOL     OW10090   0.101   4.578   3.335
 3064SOL    HW110091   0.096   4.597   3.433
 3064SOL    HW210092   0.119   4.481   3.321
 3065SOL     OW10093   3.176   1.663   1.448
 3065SOL    HW110094   3.207   1.581   1.399
 3065SOL    HW210095   3.146   1.732   1.382
 3066SOL     OW10096   5.278   5.381   0.429
 3066SOL    HW110097   5.348   5.321   0.468
 3066SOL    HW210098   5.195   5.377   0.484
 3067SOL     OW10099   4.518   6.916   3.028
 3067SOL    HW110100   4.584   6.955   3.092
 3067SOL    HW210101   4.449   6.985   3.005
 3068SOL     OW10102   6.397   4.701   6.694
 3068SOL    HW110103   6.489   4.741   6.692
 3068SOL    HW210104   6.356   4.716   6.784
 3069SOL     OW10105   0.722   4.482   3.745
 3069SOL    HW110106   0.780   4.560   3.766
 3069SOL    HW210107   0.629   4.500   3.777
 3070SOL     OW10108   4.303   1.948   4.045
 3070SOL    HW110109   4.335   1.854   4.049
 3070SOL    HW210110   4.370   2.005   3.998
 3071SOL     OW10111   5.684   0.409   3.972
 3071SOL    HW110112   5.751   0.382   4.041
 3071SOL    HW210113   5.640   0.327   3.935
 3072SOL     OW10114   0.381   0.689   1.618
 3072SOL    HW110115   0.465   0.736   1.592
 3072SOL    HW210116   0.308   0.757   1.631
 3073SOL     OW10117   2.294   2.022   4.902
 3073SOL    HW110118   2.287   2.025   4.802
 3073SOL    HW210119   2.307   1.928   4.932
 3074SOL     OW10120   4.812   3.626   5.811
 3074SOL    HW110121   4.911   3.623   5.802
 3074SOL    HW210122   4.784   3.715   5.849
 3075SOL     OW10123   0.189   5.748   0.933
 3075SOL    HW110124   0.147   5.837   0.913
 3075SOL    HW210125   0.117   5.681   0.949
 3076SOL     OW10126   0.607   1.013   5.138
 3076SOL    HW110127   0.626   1.019   5.236
 3076SOL    HW210128   0.631   1.100   5.094
 3077SOL     OW10129   5.132   4.691   3.361
 3077SOL    HW110130   5.127   4.599   3.322
 3077SOL    HW210131   5.224   4.728   3.346
 3078SOL     OW10132   1.867   2.778   0.092
 3078SOL    HW110133   1.947   2.832   0.117
 3078SOL    HW210134   1.863   2.768   7.016
 3079SOL     OW10135   5.832   2.923   5.953
 3079SOL    HW110136   5.764   2.995   5.944
 3079SOL    HW210137   5.877   2.907   5.865
 3080SOL     OW10138   5.993   6.620   1.491
 3080SOL    HW110139   5.899   6.605   1.520
 3080SOL    HW210140   6.055   6.608   1.569
 3081SOL     OW10141   1.319   4.372   5.636
 3081SOL    HW110142   1.232   4.374   5.588
 3081SOL    HW210143   1.390   4.411   5.578
 3082SOL     OW10144   3.256   0.053   2.341
 3082SOL    HW110145   3.344   0.049   2.388
 3082SOL    HW210146   3.192   7.012   2.382
 3083SOL     OW10147   3.681   0.110   2.253
 3083SOL    HW110148   3.661   0.157   2.339
 3083SOL    HW210149   3.614   0.038   2.238
 3084SOL     OW10150   4.185   6.247   4.013
 3084SOL    HW110151   4.240   6.256   3.930
 3084SOL    HW210152   4.090   6.269   3.992
 3085SOL     OW10153   1.273   4.957   2.273
 3085SOL    HW110154   1.181   4.940   2.309
 3085SOL    HW210155   1.318   5.028   2.327
 3086SOL     OW10156   6.250   1.382   4.409
 3086SOL    HW110157   6.249   1.342   4.318
 3086SOL    HW210158   6.217   1.316   4.476
 3087SOL     OW10159   5.759   3.821   1.325
 3087SOL    HW110160   5.679   3.760   1.326
 3087SOL    HW210161   5.828   3.786   1.388
 3088SOL     OW10162   2.972   3.767   6.295
 3088SOL    HW110163   3.048   3.830   6.282
 3088SOL    HW210164   3.008   3.676   6.317
 3089SOL     OW10165   3.589   1.777   1.749
 3089SOL    HW110166   3.620   1.871   1.756
 3089SOL    HW210167   3.489   1.774   1.752
 3090SOL     OW10168   6.101   1.729   0.702
 3090SOL    HW110169   6.178   1.726   0.765
 3090SOL    HW210170   6.023   1.679   0.741
 3091SOL     OW10171   2.441   6.189   0.323
 3091SOL    HW110172   2.416   6.105   0.275
 3091SOL    HW210173   2.506   6.168   0.396
 3092SOL     OW10174   3.481   5.459   0.067
 3092SOL    HW110175   3.465   5.379   0.124
 3092SOL    HW210176   3.555   5.441   0.003
 3093SOL     OW10177   4.806   0.153   3.386
 3093SOL    HW110178   4.897   0.138   3.423
 3093SOL    HW210179   4.805   0.238   3.333
 3094SOL     OW10180   3.548   5.590   4.972
 3094SOL    HW110181   3.572   5.687   4.959
 3094SOL    HW210182   3.460   5.572   4.929
 3095SOL     OW10183   2.070   5.158   5.162
 3095SOL    HW110184   2.035   5.164   5.068
 3095SOL    HW210185   1.998   5.121   5.221
 3096SOL     OW10186   0.588   1.365   5.371
 3096SOL    HW110187   0.672   1.330   5.329
 3096SOL    HW210188   0.567   1.456   5.333
 3097SOL     OW10189   1.973   1.194   0.219
 3097SOL    HW110190   2.020   1.139   0.288
 3097SOL    HW210191   1.946   1.135   0.143
 3098SOL     OW10192   4.330   2.672   0.833
 3098SOL    HW110193   4.394   2.636   0.901
 3098SOL    HW210194   4.379   2.736   0.773
 3099SOL     OW10195   1.570   5.746   5.485
 3099SOL    HW110196   1.501   5.712   5.422
 3099SOL    HW210197   1.661   5.741   5.443
 3100SOL     OW10198   6.552   6.528   6.095
 3100SOL    HW110199   6.483   6.458   6.114
 3100SOL    HW210200   6.534   6.608   6.151
 3101SOL     OW10201   3.473   0.606   1.260
 3101SOL    HW110202   3.466   0.508   1.276
 3101SOL    HW210203   3.434   0.629   1.171
 3102SOL     OW10204   0.862   5.883   0.130
 3102SOL    HW110205   0.837   5.806   0.187
 3102SOL    HW210206   0.856   5.968   0.183
 3103SOL     OW10207   4.167   4.340   1.699
 3103SOL    HW110208   4.244   4.285   1.733
 3103SOL    HW210209   4.083   4.285   1.701
 3104SOL     OW10210   5.752   5.642   3.941
 3104SOL    HW110211   5.673   5.621   3.884
 3104SOL    HW210212   5.737   5.728   3.990
 3105SOL     OW10213   5.910   5.510   3.733
 3105SOL    HW110214   5.942   5.567   3.657
 3105SOL    HW210215   5.853   5.565   3.794
 3106SOL     OW10216   6.707   2.885   4.843
 3106SOL    HW110217   6.608   2.890   4.858
 3106SOL    HW210218   6.753   2.952   4.902
 3107SOL     OW10219   2.669   6.949   4.091
 3107SOL    HW110220   2.632   0.018   4.093
 3107SOL    HW210221   2.701   6.925   4.183
 3108SOL     OW10222   2.021   0.707   2.855
 3108SOL    HW110223   2.102   0.656   2.826
 3108SOL    HW210224   2.040   0.805   2.851
 3109SOL     OW10225   4.879   5.944   3.418
 3109SOL    HW110226   4.917   5.969   3.329
 3109SOL    HW210227   4.939   5.877   3.462
 3110SOL     OW10228   1.282   2.947   1.720
 3110SOL    HW110229   1.264   3.037   1.681
 3110SOL    HW210230   1.352   2.954   1.790
 3111SOL     OW10231   0.408   4.915   2.318
 3111SOL    HW110232   0.362   4.876   2.398
 3111SOL    HW210233   0.467   4.990   2.348
 3112SOL     OW10234   2.785   3.621   5.988
 3112SOL    HW110235   2.750   3.671   5.908
 3112SOL    HW210236   2.885   3.626   5.989
 3113SOL     OW10237   4.166   6.333   4.269
 3113SOL    HW110238   4.188   6.305   4.175
 3113SOL    HW210239   4.160   6.433   4.274
 3114SOL     OW10240   5.054   5.762   0.672
 3114SOL    HW110241   4.993   5.832   0.710
 3114SOL    HW210242   5.035   5.749   0.575
 3115SOL     OW10243   2.980   3.268   2.230
 3115SOL    HW110244   2.969   3.205   2.154
 3115SOL    HW210245   3.021   3.219   2.308
 3116SOL     OW10246   0.290   1.068   6.915
 3116SOL    HW110247   0.267   1.103   6.824
 3116SOL    HW210248   0.280   0.969   6.916
 3117SOL     OW10249   3.701   4.110   5.972
 3117SOL    HW110250   3.686   4.013   5.992
 3117SOL    HW210251   3.629   4.144   5.911
 3118SOL     OW10252   6.065   5.488   0.005
 3118SOL    HW110253   5.974   5.509   6.993
 3118SOL    HW210254   6.131   5.487   6.954
 3119SOL     OW10255   2.373   4.188   6.958
 3119SOL    HW110256   2.370   4.088   6.960
 3119SOL    HW210257   2.292   4.223   6.910
 3120SOL     OW10258   2.666   5.168   6.665
 3120SOL    HW110259   2.621   5.252   6.637
 3120SOL    HW210260   2.640   5.146   6.759
 3121SOL     OW10261   0.457   5.952   3.472
 3121SOL    HW110262   0.523   5.968   3.398
 3121SOL    HW210263   0.458   5.855   3.497
 3122SOL     OW10264   3.665   5.238   1.341
 3122SOL    HW110265   3.702   5.243   1.248
 3122SOL    HW210266   3.566   5.246   1.338
 3123SOL     OW10267   3.372   6.908   4.155
 3123SOL    HW110268   3.356   6.810   4.167
 3123SOL    HW210269   3.410   6.946   4.239
 3124SOL     OW10270   3.689   0.128   5.937
 3124SOL    HW110271   3.653   0.049   5.987
 3124SOL    HW210272   3.624   0.154   5.865
 3125SOL     OW10273   0.033   2.332   6.334
 3125SOL    HW110274   6.967   2.293   6.314
 3125SOL    HW210275   0.089   2.264   6.381
 3126SOL     OW10276   4.150   6.223   6.442
 3126SOL    HW110277   4.124   6.319   6.443
 3126SOL    HW210278   4.106   6.175   6.517
 3127SOL     OW10279   1.233   1.271   4.222
 3127SOL    HW110280   1.193   1.352   4.179
 3127SOL    HW210281   1.242   1.199   4.154
 3128SOL     OW10282   1.709   0.544   1.290
 3128SOL    HW110283   1.710   0.550   1.190
 3128SOL    HW210284   1.642   0.476   1.318
 3129SOL     OW10285   0.994   2.917   3.066
 3129SOL    HW110286   0.931   2.859   3.013
 3129SOL    HW210287   1.072   2.941   3.009
 3130SOL     OW10288   2.721   5.453   3.236
 3130SOL    HW110289   2.785   5.388   3.194
 3130SOL    HW210290   2.633   5.448   3.189
 3131SOL     OW10291   0.546   2.706   4.508
 3131SOL    HW110292   0.632   2.660   4.488
 3131SOL    HW210293   0.494   2.719   4.423
 3132SOL     OW10294   5.003   4.096   5.849
 3132SOL    HW110295   5.054   4.130   5.929
 3132SOL    HW210296   4.908   4.128   5.854
 3133SOL     OW10297   2.395   1.826   3.287
 3133SOL    HW110298   2.453   1.793   3.212
 3133SOL    HW210299   2.336   1.900   3.254
 3134SOL     OW10300   5.717   2.870   1.747
 3134SOL    HW110301   5.755   2.923   1.824
 3134SOL    HW210302   5.669   2.791   1.783
 3135SOL     OW10303   1.422   2.163   3.061
 3135SOL    HW110304   1.334   2.188   3.022
 3135SOL    HW210305   1.410   2.087   3.125
 3136SOL     OW10306   6.171   0.098   5.067
 3136SOL    HW110307   6.254   0.151   5.082
 3136SOL    HW210308   6.185   0.036   4.990
 3137SOL     OW10309   0.628   2.119   4.387
 3137SOL    HW110310   0.683   2.201   4.370
 3137SOL    HW210311   0.534   2.136   4.357
 3138SOL     OW10312   6.226   2.275   4.303
 3138SOL    HW110313   6.253   2.272   4.399
 3138SOL    HW210314   6.129   2.300   4.297
 3139SOL     OW10315   4.856   5.362   5.324
 3139SOL    HW110316   4.934   5.347   5.386
 3139SOL    HW210317   4.889   5.385   5.233
 3140SOL     OW10318   5.808   6.351   6.002
 3140SOL    HW110319   5.745   6.331   6.077
 3140SOL    HW210320   5.871   6.424   6.031
 3141SOL     OW10321   1.170   6.070   1.961
 3141SOL    HW110322   1.265   6.098   1.975
 3141SOL    HW210323   1.167   5.990   1.902
 3142SOL     OW10324   3.696   6.981   0.523
 3142SOL    HW110325   3.733   6.915   0.589
 3142SOL    HW210326   3.677   6.935   0.437
 3143SOL     OW10327   0.268   1.951   0.589
 3143SOL    HW110328   0.277   1.872   0.528
 3143SOL    HW210329   0.172   1.973   0.603
 3144SOL     OW10330   2.355   2.977   6.862
 3144SOL    HW110331   2.265   2.937   6.843
 3144SOL    HW210332   2.419   2.904   6.888
 3145SOL     OW10333   2.922   5.341   3.091
 3145SOL    HW110334   2.945   5.276   3.019
 3145SOL    HW210335   3.001   5.354   3.151
 3146SOL     OW10336   2.311   6.846   3.962
 3146SOL    HW110337   2.326   6.770   3.900
 3146SOL    HW210338   2.358   6.927   3.928
 3147SOL     OW10339   3.709   4.485   0.648
 3147SOL    HW110340   3.720   4.436   0.734
 3147SOL    HW210341   3.613   4.481   0.619
 3148SOL     OW10342   3.166   5.764   4.632
 3148SOL    HW110343   3.231   5.705   4.681
 3148SOL    HW210344   3.208   5.852   4.613
 3149SOL     OW10345   2.674   6.662   6.069
 3149SOL    HW110346   2.608   6.703   6.132
 3149SOL    HW210347   2.684   6.722   5.989
 3150SOL     OW10348   6.690   6.992   4.515
 3150SOL    HW110349   6.654   0.029   4.586
 3150SOL    HW210350   6.672   0.007   4.425
 3151SOL     OW10351   3.575   6.994   1.746
 3151SOL    HW110352   3.486   6.964   1.780
 3151SOL    HW210353   3.629   0.008   1.821
 3152SOL     OW10354   1.704   4.818   5.859
 3152SOL    HW110355   1.652   4.734   5.847
 3152SOL    HW210356   1.677   4.863   5.944
 3153SOL     OW10357   6.805   4.430   3.278
 3153SOL    HW110358   6.811   4.529   3.268
 3153SOL    HW210359   6.824   4.386   3.190
 3154SOL     OW10360   5.828   2.623   5.982
 3154SOL    HW110361   5.731   2.624   5.960
 3154SOL    HW210362   5.864   2.717   5.980
 3155SOL     OW10363   4.263   6.159   0.353
 3155SOL    HW110364   4.269   6.174   0.255
 3155SOL    HW210365   4.356   6.148   0.390
 3156SOL     OW10366   3.653   3.685   3.406
 3156SOL    HW110367   3.688   3.598   3.372
 3156SOL    HW210368   3.727   3.751   3.414
 3157SOL     OW10369   2.134   2.306   4.819
 3157SOL    HW110370   2.174   2.239   4.882
 3157SOL    HW210371   2.118   2.392   4.868
 3158SOL     OW10372   4.762   6.749   1.582
 3158SOL    HW110373   4.714   6.665   1.607
 3158SOL    HW210374   4.853   6.749   1.623
 3159SOL     OW10375   5.035   4.717   0.486
 3159SOL    HW110376   5.037   4.624   0.521
 3159SOL    HW210377   5.103   4.772   0.533
 3160SOL     OW10378   6.454   4.665   0.767
 3160SOL    HW110379   6.399   4.593   0.807
 3160SOL    HW210380   6.519   4.626   0.702
 3161SOL     OW10381   0.997   1.151   3.896
 3161SOL    HW110382   1.065   1.108   3.955
 3161SOL    HW210383   0.906   1.140   3.936
 3162SOL     OW10384   6.996   6.960   5.782
 3162SOL    HW110385   6.959   0.027   5.766
 3162SOL    HW210386   6.923   6.899   5.814
 3163SOL     OW10387   1.788   4.655   5.557
 3163SOL    HW110388   1.831   4.574   5.519
 3163SOL    HW210389   1.840   4.685   5.638
 3164SOL     OW10390   6.572   5.252   5.503
 3164SOL    HW110391   6.478   5.282   5.484
 3164SOL    HW210392   6.636   5.317   5.461
 3165SOL     OW10393   0.550   3.051   1.546
 3165SOL    HW110394   0.645   3.049   1.513
 3165SOL    HW210395   0.536   2.975   1.609
 3166SOL     OW10396   4.096   2.986   6.435
 3166SOL    HW110397   4.111   2.932   6.352
 3166SOL    HW210398   4.080   3.082   6.409
 3167SOL     OW10399   0.193   5.014   2.153
 3167SOL    HW110400   0.265   4.988   2.217
 3167SOL    HW210401   0.122   5.065   2.202
 3168SOL     OW10402   6.247   2.718   1.022
 3168SOL    HW110403   6.236   2.669   1.108
 3168SOL    HW210404   6.278   2.654   0.951
 3169SOL     OW10405   2.751   2.208   5.664
 3169SOL    HW110406   2.848   2.226   5.679
 3169SOL    HW210407   2.723   2.246   5.576
 3170SOL     OW10408   3.782   6.974   5.160
 3170SOL    HW110409   3.692   7.014   5.145
 3170SOL    HW210410   3.777   6.875   5.145
 3171SOL     OW10411   5.757   5.860   2.875
 3171SOL    HW110412   5.807   5.792   2.821
 3171SOL    HW210413   5.699   5.814   2.942
 3172SOL     OW10414   5.634   6.694   5.536
 3172SOL    HW110415   5.609   6.774   5.592
 3172SOL    HW210416   5.640   6.613   5.595
 3173SOL     OW10417   1.861   0.916   1.582
 3173SOL    HW110418   1.857   0.843   1.514
 3173SOL    HW210419   1.864   0.876   1.674
 3174SOL     OW10420   2.459   3.319   6.538
 3174SOL    HW110421   2.494   3.249   6.476
 3174SOL    HW210422   2.454   3.282   6.631
 3175SOL     OW10423   0.038   6.552   0.430
 3175SOL    HW110424   0.083   6.628   0.383
 3175SOL    HW210425   0.098   6.472   0.429
 3176SOL     OW10426   0.890   5.359   0.041
 3176SOL    HW110427   0.816   5.292   0.051
 3176SOL    HW210428   0.932   5.349   6.975
 3177SOL     OW10429   1.059   0.202   4.294
 3177SOL    HW110430   1.030   0.278   4.236
 3177SOL    HW210431   1.133   0.151   4.249
 3178SOL     OW10432   3.321   2.970   7.016
 3178SOL    HW110433   3.361   2.944   6.928
 3178SOL    HW210434   3.225   2.994   7.004
 3179SOL     OW10435   1.045   2.541   4.090
 3179SOL    HW110436   0.968   2.588   4.047
 3179SOL    HW210437   1.010   2.467   4.148
 3180SOL     OW10438   6.409   1.293   6.694
 3180SOL    HW110439   6.398   1.253   6.785
 3180SOL    HW210440   6.320   1.325   6.661
 3181SOL     OW10441   0.815   1.842   2.695
 3181SOL    HW110442   0.827   1.848   2.794
 3181SOL    HW210443   0.719   1.827   2.673
 3182SOL     OW10444   1.834   5.018   5.759
 3182SOL    HW110445   1.923   4.973   5.761
 3182SOL    HW210446   1.767   4.960   5.804
 3183SOL     OW10447   4.707   3.700   1.278
 3183SOL    HW110448   4.731   3.614   1.324
 3183SOL    HW210449   4.723   3.777   1.340
 3184SOL     OW10450   0.536   2.086   3.230
 3184SOL    HW110451   0.602   2.158   3.209
 3184SOL    HW210452   0.550   2.055   3.324
 3185SOL     OW10453   0.300   6.585   6.944
 3185SOL    HW110454   0.373   6.518   6.935
 3185SOL    HW210455   0.233   6.553   7.011
 3186SOL     OW10456   3.362   0.077   1.508
 3186SOL    HW110457   3.310   0.145   1.560
 3186SOL    HW210458   3.457   0.106   1.502
 3187SOL     OW10459   2.867   4.182   0.373
 3187SOL    HW110460   2.862   4.094   0.327
 3187SOL    HW210461   2.963   4.203   0.393
 3188SOL     OW10462   3.629   6.679   3.111
 3188SOL    HW110463   3.665   6.747   3.174
 3188SOL    HW210464   3.652   6.588   3.144
 3189SOL     OW10465   6.183   6.439   2.328
 3189SOL    HW110466   6.094   6.413   2.364
 3189SOL    HW210467   6.210   6.375   2.256
 3190SOL     OW10468   1.408   0.334   2.100
 3190SOL    HW110469   1.389   0.341   2.002
 3190SOL    HW210470   1.353   0.261   2.139
 3191SOL     OW10471   3.716   1.324   0.212
 3191SOL    HW110472   3.641   1.359   0.156
 3191SOL    HW210473   3.682   1.304   0.304
 3192SOL     OW10474   5.409   2.851   4.076
 3192SOL    HW110475   5.442   2.764   4.113
 3192SOL    HW210476   5.314   2.865   4.103
 3193SOL     OW10477   5.190   4.259   1.239
 3193SOL    HW110478   5.218   4.345   1.195
 3193SOL    HW210479   5.154   4.279   1.330
 3194SOL     OW10480   2.885   5.672   5.047
 3194SOL    HW110481   2.865   5.638   5.139
 3194SOL    HW210482   2.810   5.649   4.985
 3195SOL     OW10483   6.800   4.306   3.935
 3195SOL    HW110484   6.806   4.249   4.017
 3195SOL    HW210485   6.890   4.316   3.894
 3196SOL     OW10486   6.890   6.608   5.931
 3196SOL    HW110487   6.878   6.707   5.928
 3196SOL    HW210488   6.988   6.586   5.930
 3197SOL     OW10489   1.093   4.349   5.500
 3197SOL    HW110490   1.121   4.324   5.407
 3197SOL    HW210491   1.013   4.408   5.496
 3198SOL     OW10492   5.900   6.795   0.612
 3198SOL    HW110493   5.887   6.725   0.683
 3198SOL    HW210494   5.812   6.813   0.568
 3199SOL     OW10495   3.161   1.364   3.113
 3199SOL    HW110496   3.194   1.273   3.087
 3199SOL    HW210497   3.168   1.375   3.212
 3200SOL     OW10498   6.125   2.086   0.336
 3200SOL    HW110499   6.143   2.059   0.430
 3200SOL    HW210500   6.083   2.010   0.286
 3201SOL     OW10501   4.158   4.887   3.009
 3201SOL    HW110502   4.062   4.861   3.022
 3201SOL    HW210503   4.190   4.937   3.090
 3202SOL     OW10504   1.471   4.952   1.730
 3202SOL    HW110505   1.543   4.937   1.662
 3202SOL    HW210506   1.509   4.937   1.821
 3203SOL     OW10507   4.580   0.252   0.203
 3203SOL    HW110508   4.610   0.169   0.156
 3203SOL    HW210509   4.634   0.263   0.287
 3204SOL     OW10510   6.607   6.448   2.038
 3204SOL    HW110511   6.553   6.532   2.036
 3204SOL    HW210512   6.619   6.414   1.945
 3205SOL     OW10513   1.029   3.643   4.494
 3205SOL    HW110514   1.083   3.718   4.532
 3205SOL    HW210515   1.056   3.557   4.537
 3206SOL     OW10516   1.746   6.673   6.988
 3206SOL    HW110517   1.844   6.666   6.970
 3206SOL    HW210518   1.706   6.581   6.987
 3207SOL     OW10519   1.553   1.743   3.113
 3207SOL    HW110520   1.553   1.666   3.176
 3207SOL    HW210521   1.552   1.709   3.019
 3208SOL     OW10522   6.145   6.631   5.444
 3208SOL    HW110523   6.229   6.675   5.413
 3208SOL    HW210524   6.067   6.670   5.395
 3209SOL     OW10525   0.716   6.619   3.628
 3209SOL    HW110526   0.630   6.592   3.585
 3209SOL    HW210527   0.775   6.662   3.560
 3210SOL     OW10528   0.876   5.951   1.971
 3210SOL    HW110529   0.843   5.887   1.902
 3210SOL    HW210530   0.818   6.032   1.972
 3211SOL     OW10531   0.329   4.472   3.595
 3211SOL    HW110532   0.231   4.468   3.611
 3211SOL    HW210533   0.352   4.414   3.517
 3212SOL     OW10534   4.609   2.670   5.041
 3212SOL    HW110535   4.585   2.608   4.966
 3212SOL    HW210536   4.572   2.635   5.127
 3213SOL     OW10537   5.368   0.156   1.257
 3213SOL    HW110538   5.464   0.176   1.276
 3213SOL    HW210539   5.310   0.199   1.327
 3214SOL     OW10540   4.586   4.029   0.307
 3214SOL    HW110541   4.625   3.996   0.222
 3214SOL    HW210542   4.504   3.976   0.329
 3215SOL     OW10543   6.213   1.655   0.126
 3215SOL    HW110544   6.120   1.649   0.163
 3215SOL    HW210545   6.210   1.644   0.027
 3216SOL     OW10546   5.293   6.493   5.117
 3216SOL    HW110547   5.344   6.517   5.199
 3216SOL    HW210548   5.225   6.423   5.140
 3217SOL     OW10549   6.902   4.616   6.906
 3217SOL    HW110550   6.850   4.614   6.991
 3217SOL    HW210551   6.915   4.711   6.877
 3218SOL     OW10552   4.114   2.297   1.583
 3218SOL    HW110553   4.020   2.329   1.592
 3218SOL    HW210554   4.114   2.200   1.559
 3219SOL     OW10555   0.317   1.454   3.111
 3219SOL    HW110556   0.369   1.522   3.059
 3219SOL    HW210557   0.381   1.393   3.159
 3220SOL     OW10558   6.785   3.325   6.667
 3220SOL    HW110559   6.844   3.341   6.587
 3220SOL    HW210560   6.732   3.407   6.686
 3221SOL     OW10561   3.527   0.742   1.717
 3221SOL    HW110562   3.550   0.650   1.751
 3221SOL    HW210563   3.458   0.734   1.645
 3222SOL     OW10564   6.212   4.170   2.347
 3222SOL    HW110565   6.284   4.147   2.413
 3222SOL    HW210566   6.247   4.238   2.283
 3223SOL     OW10567   1.383   4.451   4.868
 3223SOL    HW110568   1.362   4.355   4.849
 3223SOL    HW210569   1.480   4.460   4.891
 3224SOL     OW10570   3.014   6.091   1.205
 3224SOL    HW110571   3.014   5.991   1.216
 3224SOL    HW210572   2.969   6.115   1.119
 3225SOL     OW10573   1.590   2.627   0.885
 3225SOL    HW110574   1.678   2.655   0.923
 3225SOL    HW210575   1.587   2.652   0.788
 3226SOL     OW10576   6.535   1.687   3.635
 3226SOL    HW110577   6.597   1.609   3.641
 3226SOL    HW210578   6.443   1.655   3.612
 3227SOL     OW10579   2.809   1.896   5.431
 3227SOL    HW110580   2.802   1.929   5.337
 3227SOL    HW210581   2.717   1.887   5.470
 3228SOL     OW10582   4.950   3.408   5.026
 3228SOL    HW110583   4.905   3.497   5.026
 3228SOL    HW210584   4.913   3.352   5.100
 3229SOL     OW10585   4.446   1.796   4.957
 3229SOL    HW110586   4.372   1.864   4.953
 3229SOL    HW210587   4.503   1.804   4.875
 3230SOL     OW10588   1.445   6.987   3.910
 3230SOL    HW110589   1.461   6.995   4.008
 3230SOL    HW210590   1.488   0.041   3.863
 3231SOL     OW10591   4.409   4.498   0.448
 3231SOL    HW110592   4.461   4.581   0.428
 3231SOL    HW210593   4.333   4.489   0.384
 3232SOL     OW10594   1.104   3.583   3.096
 3232SOL    HW110595   1.181   3.535   3.054
 3232SOL    HW210596   1.102   3.563   3.194
 3233SOL     OW10597   2.458   4.204   0.650
 3233SOL    HW110598   2.515   4.223   0.730
 3233SOL    HW210599   2.431   4.107   0.650
 3234SOL     OW10600   6.582   1.732   4.478
 3234SOL    HW110601   6.565   1.633   4.476
 3234SOL    HW210602   6.521   1.778   4.414
 3235SOL     OW10603   6.398   0.794   2.317
 3235SOL    HW110604   6.356   0.882   2.337
 3235SOL    HW210605   6.496   0.806   2.304
 3236SOL     OW10606   0.099   1.953   1.369
 3236SOL    HW110607   0.010   1.919   1.340
 3236SOL    HW210608   0.158   1.876   1.392
 3237SOL     OW10609   2.697   6.098   4.564
 3237SOL    HW110610   2.604   6.125   4.538
 3237SOL    HW210611   2.703   5.999   4.569
 3238SOL     OW10612   6.521   6.720   6.877
 3238SOL    HW110613   6.563   6.633   6.851
 3238SOL    HW210614   6.422   6.711   6.879
 3239SOL     OW10615   1.854   6.260   6.234
 3239SOL    HW110616   1.773   6.296   6.187
 3239SOL    HW210617   1.916   6.219   6.167
 3240SOL     OW10618   1.263   2.245   4.688
 3240SOL    HW110619   1.350   2.256   4.737
 3240SOL    HW210620   1.206   2.325   4.703
 3241SOL     OW10621   3.567   6.534   5.151
 3241SOL    HW110622   3.665   6.546   5.171
 3241SOL    HW210623   3.557   6.493   5.061
 3242SOL     OW10624   2.539   0.519   0.850
 3242SOL    HW110625   2.604   0.446   0.873
 3242SOL    HW210626   2.447   0.480   0.845
 3243SOL     OW10627   4.046   5.457   2.032
 3243SOL    HW110628   4.042   5.484   2.129
 3243SOL    HW210629   4.113   5.514   1.985
 3244SOL     OW10630   1.095   0.193   4.936
 3244SOL    HW110631   1.072   0.109   4.985
 3244SOL    HW210632   1.074   0.181   4.839
 3245SOL     OW10633   3.691   1.839   5.788
 3245SOL    HW110634   3.746   1.923   5.790
 3245SOL    HW210635   3.607   1.853   5.841
 3246SOL     OW10636   5.849   6.456   2.649
 3246SOL    HW110637   5.818   6.402   2.570
 3246SOL    HW210638   5.812   6.548   2.643
 3247SOL     OW10639   6.180   3.104   5.162
 3247SOL    HW110640   6.187   3.204   5.162
 3247SOL    HW210641   6.270   3.064   5.178
 3248SOL     OW10642   5.068   4.206   3.401
 3248SOL    HW110643   5.042   4.285   3.456
 3248SOL    HW210644   4.994   4.139   3.402
 3249SOL     OW10645   3.505   5.420   5.920
 3249SOL    HW110646   3.500   5.333   5.871
 3249SOL    HW210647   3.425   5.429   5.980
 3250SOL     OW10648   4.223   4.670   0.605
 3250SOL    HW110649   4.298   4.729   0.575
 3250SOL    HW210650   4.195   4.612   0.529
 3251SOL     OW10651   2.634   1.154   3.422
 3251SOL    HW110652   2.702   1.114   3.483
 3251SOL    HW210653   2.681   1.209   3.353
 3252SOL     OW10654   3.222   2.110   3.095
 3252SOL    HW110655   3.235   2.042   3.023
 3252SOL    HW210656   3.137   2.160   3.079
 3253SOL     OW10657   5.079   4.274   1.486
 3253SOL    HW110658   5.143   4.319   1.548
 3253SOL    HW210659   4.989   4.318   1.494
 3254SOL     OW10660   6.439   4.162   2.543
 3254SOL    HW110661   6.435   4.258   2.572
 3254SOL    HW210662   6.400   4.104   2.614
 3255SOL     OW10663   3.411   4.925   0.740
 3255SOL    HW110664   3.453   4.908   0.651
 3255SOL    HW210665   3.439   5.015   0.773
 3256SOL     OW10666   6.514   0.460   5.355
 3256SOL    HW110667   6.495   0.467   5.453
 3256SOL    HW210668   6.563   0.541   5.324
 3257SOL     OW10669   2.762   1.238   1.478
 3257SOL    HW110670   2.798   1.154   1.437
 3257SOL    HW210671   2.807   1.317   1.438
 3258SOL     OW10672   5.155   6.501   2.482
 3258SOL    HW110673   5.223   6.571   2.462
 3258SOL    HW210674   5.149   6.437   2.406
 3259SOL     OW10675   5.737   5.480   3.000
 3259SOL    HW110676   5.809   5.528   3.051
 3259SOL    HW210677   5.652   5.482   3.053
 3260SOL     OW10678   2.420   1.599   1.341
 3260SOL    HW110679   2.420   1.521   1.279
 3260SOL    HW210680   2.390   1.681   1.292
 3261SOL     OW10681   5.121   6.930   4.044
 3261SOL    HW110682   5.105   6.986   4.126
 3261SOL    HW210683   5.122   6.833   4.070
 3262SOL     OW10684   4.784   2.117   3.720
 3262SOL    HW110685   4.717   2.128   3.646
 3262SOL    HW210686   4.815   2.022   3.723
 3263SOL     OW10687   3.247   4.858   3.180
 3263SOL    HW110688   3.159   4.812   3.163
 3263SOL    HW210689   3.304   4.850   3.098
 3264SOL     OW10690   5.342   4.248   6.479
 3264SOL    HW110691   5.442   4.243   6.477
 3264SOL    HW210692   5.313   4.304   6.557
 3265SOL     OW10693   5.206   6.899   5.514
 3265SOL    HW110694   5.210   6.812   5.463
 3265SOL    HW210695   5.155   6.885   5.599
 3266SOL     OW10696   1.189   2.320   6.453
 3266SOL    HW110697   1.184   2.387   6.528
 3266SOL    HW210698   1.121   2.345   6.384
 3267SOL     OW10699   5.212   4.188   1.810
 3267SOL    HW110700   5.282   4.168   1.879
 3267SOL    HW210701   5.237   4.272   1.761
 3268SOL     OW10702   1.899   5.143   0.457
 3268SOL    HW110703   1.852   5.132   0.544
 3268SOL    HW210704   1.835   5.127   0.382
 3269SOL     OW10705   4.293   2.911   1.161
 3269SOL    HW110706   4.371   2.965   1.192
 3269SOL    HW210707   4.222   2.912   1.231
 3270SOL     OW10708   6.837   5.593   3.602
 3270SOL    HW110709   6.862   5.595   3.505
 3270SOL    HW210710   6.755   5.648   3.617
 3271SOL     OW10711   4.900   6.866   0.806
 3271SOL    HW110712   4.829   6.929   0.840
 3271SOL    HW210713   4.868   6.823   0.722
 3272SOL     OW10714   4.478   5.598   6.164
 3272SOL    HW110715   4.430   5.599   6.077
 3272SOL    HW210716   4.480   5.691   6.202
 3273SOL     OW10717   0.148   0.385   3.238
 3273SOL    HW110718   0.230   0.342   3.201
 3273SOL    HW210719   0.111   0.329   3.313
 3274SOL     OW10720   2.956   0.756   1.090
 3274SOL    HW110721   3.026   0.822   1.113
 3274SOL    HW210722   2.871   0.803   1.068
 3275SOL     OW10723   4.136   0.063   6.726
 3275SOL    HW110724   4.146   0.127   6.650
 3275SOL    HW210725   4.226   0.044   6.766
 3276SOL     OW10726   1.330   5.779   1.363
 3276SOL    HW110727   1.419   5.779   1.316
 3276SOL    HW210728   1.340   5.824   1.451
 3277SOL     OW10729   0.412   6.118   7.002
 3277SOL    HW110730   0.453   6.067   0.054
 3277SOL    HW210731   0.319   6.145   0.004
 3278SOL     OW10732   1.420   0.312   6.862
 3278SOL    HW110733   1.476   0.377   6.913
 3278SOL    HW210734   1.424   0.334   6.764
 3279SOL     OW10735   2.227   6.463   1.683
 3279SOL    HW110736   2.228   6.382   1.741
 3279SOL    HW210737   2.184   6.539   1.731
 3280SOL     OW10738   2.694   5.924   3.404
 3280SOL    HW110739   2.649   5.838   3.428
 3280SOL    HW210740   2.703   5.930   3.304
 3281SOL     OW10741   1.224   6.269   1.092
 3281SOL    HW110742   1.239   6.228   1.182
 3281SOL    HW210743   1.220   6.369   1.101
 3282SOL     OW10744   1.920   5.012   2.377
 3282SOL    HW110745   2.000   5.046   2.427
 3282SOL    HW210746   1.916   4.912   2.383
 3283SOL     OW10747   1.568   0.501   3.451
 3283SOL    HW110748   1.489   0.540   3.404
 3283SOL    HW210749   1.562   0.522   3.549
 3284SOL     OW10750   1.921   6.009   5.765
 3284SOL    HW110751   1.881   6.061   5.689
 3284SOL    HW210752   2.017   5.991   5.746
 3285SOL     OW10753   0.656   3.094   4.614
 3285SOL    HW110754   0.669   3.080   4.515
 3285SOL    HW210755   0.718   3.165   4.646
 3286SOL     OW10756   5.222   4.443   6.329
 3286SOL    HW110757   5.271   4.364   6.367
 3286SOL    HW210758   5.288   4.507   6.291
 3287SOL     OW10759   0.240   2.596   1.448
 3287SOL    HW110760   0.197   2.620   1.535
 3287SOL    HW210761   0.301   2.670   1.420
 3288SOL     OW10762   0.647   0.115   0.694
 3288SOL    HW110763   0.731   0.148   0.736
 3288SOL    HW210764   0.578   0.188   0.695
 3289SOL     OW10765   1.591   0.225   3.781
 3289SOL    HW110766   1.663   0.195   3.843
 3289SOL    HW210767   1.583   0.325   3.785
 3290SOL     OW10768   6.983   4.998   3.856
 3290SOL    HW110769   6.933   5.010   3.770
 3290SOL    HW210770   6.944   4.921   3.907
 3291SOL     OW10771   0.924   1.894   1.815
 3291SOL    HW110772   0.931   1.795   1.830
 3291SOL    HW210773   1.016   1.934   1.814
 3292SOL     OW10774   0.788   6.163   4.261
 3292SOL    HW110775   0.825   6.163   4.354
 3292SOL    HW210776   0.848   6.109   4.202
 3293SOL     OW10777   6.144   0.497   2.826
 3293SOL    HW110778   6.167   0.485   2.923
 3293SOL    HW210779   6.210   0.447   2.770
 3294SOL     OW10780   6.668   6.884   1.034
 3294SOL    HW110781   6.608   6.874   1.113
 3294SOL    HW210782   6.623   6.846   0.953
 3295SOL     OW10783   2.983   3.234   5.985
 3295SOL    HW110784   2.962   3.137   5.980
 3295SOL    HW210785   3.021   3.265   5.897
 3296SOL     OW10786   0.556   6.502   1.651
 3296SOL    HW110787   0.642   6.553   1.652
 3296SOL    HW210788   0.574   6.405   1.635
 3297SOL     OW10789   3.233   1.013   5.624
 3297SOL    HW110790   3.235   1.105   5.663
 3297SOL    HW210791   3.180   1.013   5.540
 3298SOL     OW10792   0.513   5.255   3.285
 3298SOL    HW110793   0.541   5.276   3.191
 3298SOL    HW210794   0.547   5.164   3.310
 3299SOL     OW10795   1.718   1.356   4.505
 3299SOL    HW110796   1.635   1.361   4.450
 3299SOL    HW210797   1.783   1.293   4.463
 3300SOL     OW10798   0.298   6.776   4.747
 3300SOL    HW110799   0.252   6.693   4.713
 3300SOL    HW210800   0.253   6.857   4.709
 3301SOL     OW10801   6.525   4.584   2.049
 3301SOL    HW110802   6.465   4.587   2.129
 3301SOL    HW210803   6.544   4.489   2.024
 3302SOL     OW10804   1.755   6.192   5.606
 3302SOL    HW110805   1.708   6.245   5.676
 3302SOL    HW210806   1.811   6.253   5.550
 3303SOL     OW10807   3.551   3.587   4.922
 3303SOL    HW110808   3.554   3.538   4.834
 3303SOL    HW210809   3.549   3.685   4.905
 3304SOL     OW10810   1.508   0.996   3.862
 3304SOL    HW110811   1.600   0.957   3.864
 3304SOL    HW210812   1.472   0.992   3.769
 3305SOL     OW10813   0.767   2.240   0.468
 3305SOL    HW110814   0.799   2.266   0.560
 3305SOL    HW210815   0.667   2.240   0.467
 3306SOL     OW10816   1.487   1.449   1.200
 3306SOL    HW110817   1.478   1.349   1.208
 3306SOL    HW210818   1.573   1.470   1.152
 3307SOL     OW10819   0.383   0.065   0.065
 3307SOL    HW110820   0.467   0.094   0.019
 3307SOL    HW210821   0.375   6.989   0.059
 3308SOL     OW10822   5.431   6.040   0.658
 3308SOL    HW110823   5.524   6.064   0.682
 3308SOL    HW210824   5.369   6.114   0.684
 3309SOL     OW10825   1.002   4.543   1.946
 3309SOL    HW110826   1.068   4.618   1.940
 3309SOL    HW210827   0.993   4.499   1.856
 3310SOL     OW10828   2.138   6.212   2.113
 3310SOL    HW110829   2.198   6.271   2.168
 3310SOL    HW210830   2.080   6.269   2.055
 3311SOL     OW10831   4.212   5.403   1.072
 3311SOL    HW110832   4.309   5.416   1.051
 3311SOL    HW210833   4.161   5.396   0.986
 3312SOL     OW10834   2.010   2.442   6.452
 3312SOL    HW110835   2.034   2.412   6.359
 3312SOL    HW210836   2.036   2.538   6.464
 3313SOL     OW10837   5.626   6.520   5.201
 3313SOL    HW110838   5.682   6.473   5.268
 3313SOL    HW210839   5.533   6.531   5.237
 3314SOL     OW10840   0.921   4.249   6.083
 3314SOL    HW110841   0.841   4.269   6.026
 3314SOL    HW210842   0.950   4.333   6.129
 3315SOL     OW10843   5.837   3.155   3.039
 3315SOL    HW110844   5.861   3.244   3.001
 3315SOL    HW210845   5.880   3.083   2.986
 3316SOL     OW10846   3.738   0.287   6.875
 3316SOL    HW110847   3.826   0.330   6.894
 3316SOL    HW210848   3.686   0.277   6.960
 3317SOL     OW10849   5.096   3.060   1.173
 3317SOL    HW110850   5.049   2.979   1.208
 3317SOL    HW210851   5.191   3.036   1.151
 3318SOL     OW10852   2.248   4.925   6.668
 3318SOL    HW110853   2.230   4.848   6.729
 3318SOL    HW210854   2.347   4.942   6.664
 3319SOL     OW10855   1.002   5.997   6.091
 3319SOL    HW110856   1.002   5.964   6.185
 3319SOL    HW210857   1.093   6.034   6.069
 3320SOL     OW10858   1.259   0.799   1.317
 3320SOL    HW110859   1.231   0.806   1.221
 3320SOL    HW210860   1.339   0.857   1.333
 3321SOL     OW10861   3.754   3.679   4.342
 3321SOL    HW110862   3.797   3.754   4.292
 3321SOL    HW210863   3.661   3.665   4.307
 3322SOL     OW10864   4.872   3.599   2.575
 3322SOL    HW110865   4.911   3.585   2.484
 3322SOL    HW210866   4.818   3.684   2.576
 3323SOL     OW10867   1.251   4.957   0.594
 3323SOL    HW110868   1.153   4.973   0.580
 3323SOL    HW210869   1.299   4.965   0.507
 3324SOL     OW10870   6.706   3.522   1.804
 3324SOL    HW110871   6.644   3.535   1.726
 3324SOL    HW210872   6.725   3.424   1.815
 3325SOL     OW10873   1.010   5.055   5.113
 3325SOL    HW110874   0.915   5.072   5.139
 3325SOL    HW210875   1.069   5.122   5.157
 3326SOL     OW10876   4.791   6.916   2.346
 3326SOL    HW110877   4.722   6.982   2.374
 3326SOL    HW210878   4.881   6.944   2.380
 3327SOL     OW10879   4.718   6.317   1.320
 3327SOL    HW110880   4.778   6.397   1.318
 3327SOL    HW210881   4.631   6.342   1.363
 3328SOL     OW10882   6.013   6.546   3.723
 3328SOL    HW110883   6.105   6.583   3.711
 3328SOL    HW210884   5.946   6.614   3.694
 3329SOL     OW10885   5.644   0.214   6.223
 3329SOL    HW110886   5.608   0.306   6.237
 3329SOL    HW210887   5.627   0.159   6.305
 3330SOL     OW10888   6.075   6.992   2.792
 3330SOL    HW110889   6.127   6.907   2.777
 3330SOL    HW210890   6.123   0.025   2.859
 3331SOL     OW10891   0.913   3.415   2.441
 3331SOL    HW110892   0.939   3.507   2.471
 3331SOL    HW210893   0.953   3.348   2.504
 3332SOL     OW10894   4.161   4.986   0.711
 3332SOL    HW110895   4.102   4.908   0.691
 3332SOL    HW210896   4.129   5.066   0.659
 3333SOL     OW10897   2.610   4.018   1.037
 3333SOL    HW110898   2.660   4.003   1.122
 3333SOL    HW210899   2.611   3.935   0.982
 3334SOL     OW10900   1.696   2.942   2.347
 3334SOL    HW110901   1.794   2.939   2.364
 3334SOL    HW210902   1.677   2.911   2.254
 3335SOL     OW10903   4.776   3.784   6.125
 3335SOL    HW110904   4.858   3.749   6.169
 3335SOL    HW210905   4.750   3.871   6.167
 3336SOL     OW10906   3.734   5.731   5.925
 3336SOL    HW110907   3.698   5.683   6.005
 3336SOL    HW210908   3.669   5.725   5.849
 3337SOL     OW10909   3.078   3.888   4.132
 3337SOL    HW110910   3.090   3.978   4.173
 3337SOL    HW210911   3.025   3.830   4.193
 3338SOL     OW10912   3.401   2.817   1.537
 3338SOL    HW110913   3.323   2.871   1.503
 3338SOL    HW210914   3.455   2.785   1.459
 3339SOL     OW10915   0.780   6.854   6.194
 3339SOL    HW110916   0.840   6.775   6.180
 3339SOL    HW210917   0.822   6.936   6.156
 3340SOL     OW10918   4.682   1.576   6.506
 3340SOL    HW110919   4.732   1.518   6.570
 3340SOL    HW210920   4.631   1.517   6.442
 3341SOL     OW10921   1.200   4.320   1.562
 3341SOL    HW110922   1.156   4.231   1.570
 3341SOL    HW210923   1.276   4.314   1.498
 3342SOL     OW10924   5.768   0.512   2.446
 3342SOL    HW110925   5.720   0.530   2.360
 3342SOL    HW210926   5.864   0.539   2.436
 3343SOL     OW10927   3.836   4.680   1.086
 3343SOL    HW110928   3.881   4.621   1.153
 3343SOL    HW210929   3.776   4.744   1.133
 3344SOL     OW10930   1.356   3.443   1.338
 3344SOL    HW110931   1.386   3.536   1.359
 3344SOL    HW210932   1.277   3.420   1.395
 3345SOL     OW10933   4.855   5.075   0.942
 3345SOL    HW110934   4.852   4.978   0.918
 3345SOL    HW210935   4.909   5.125   0.873
 3346SOL     OW10936   1.379   0.904   6.764
 3346SOL    HW110937   1.410   0.984   6.814
 3346SOL    HW210938   1.286   0.880   6.791
 3347SOL     OW10939   0.991   3.197   5.651
 3347SOL    HW110940   1.040   3.159   5.571
 3347SOL    HW210941   0.966   3.292   5.632
 3348SOL     OW10942   3.233   4.188   5.808
 3348SOL    HW110943   3.178   4.128   5.749
 3348SOL    HW210944   3.173   4.248   5.860
 3349SOL     OW10945   2.229   5.167   1.847
 3349SOL    HW110946   2.267   5.116   1.770
 3349SOL    HW210947   2.188   5.103   1.912
 3350SOL     OW10948   3.179   5.521   4.118
 3350SOL    HW110949   3.242   5.559   4.186
 3350SOL    HW210950   3.226   5.450   4.065
 3351SOL     OW10951   5.403   6.832   1.784
 3351SOL    HW110952   5.480   6.864   1.838
 3351SOL    HW210953   5.332   6.795   1.845
 3352SOL     OW10954   5.962   0.992   0.310
 3352SOL    HW110955   6.050   0.945   0.322
 3352SOL    HW210956   5.888   0.925   0.306
 3353SOL     OW10957   4.061   0.815   6.020
 3353SOL    HW110958   4.017   0.766   6.095
 3353SOL    HW210959   4.050   0.914   6.033
 3354SOL     OW10960   2.940   2.058   0.157
 3354SOL    HW110961   2.937   1.962   0.184
 3354SOL    HW210962   2.847   2.096   0.158
 3355SOL     OW10963   0.967   2.015   5.446
 3355SOL    HW110964   1.058   1.989   5.416
 3355SOL    HW210965   0.972   2.100   5.499
 3356SOL     OW10966   3.075   0.508   5.386
 3356SOL    HW110967   3.157   0.549   5.348
 3356SOL    HW210968   3.021   0.577   5.435
 3357SOL     OW10969   3.088   4.035   4.544
 3357SOL    HW110970   3.029   3.955   4.557
 3357SOL    HW210971   3.137   4.055   4.629
 3358SOL     OW10972   6.763   1.759   1.527
 3358SOL    HW110973   6.832   1.769   1.598
 3358SOL    HW210974   6.742   1.849   1.488
 3359SOL     OW10975   1.385   6.742   3.812
 3359SOL    HW110976   1.311   6.747   3.745
 3359SOL    HW210977   1.417   6.834   3.835
 3360SOL     OW10978   0.942   5.269   4.787
 3360SOL    HW110979   0.930   5.248   4.690
 3360SOL    HW210980   1.037   5.254   4.813
 3361SOL     OW10981   0.439   6.995   4.281
 3361SOL    HW110982   0.430   6.897   4.261
 3361SOL    HW210983   0.411   0.024   4.201
 3362SOL     OW10984   3.083   0.837   5.168
 3362SOL    HW110985   3.041   0.845   5.078
 3362SOL    HW210986   3.182   0.823   5.158
 3363SOL     OW10987   4.984   3.349   0.605
 3363SOL    HW110988   4.908   3.406   0.638
 3363SOL    HW210989   5.069   3.377   0.650
 3364SOL     OW10990   1.637   2.991   1.297
 3364SOL    HW110991   1.560   2.999   1.234
 3364SOL    HW210992   1.723   2.998   1.246
 3365SOL     OW10993   0.579   2.696   2.799
 3365SOL    HW110994   0.604   2.614   2.850
 3365SOL    HW210995   0.553   2.671   2.706
 3366SOL     OW10996   5.711   3.524   3.365
 3366SOL    HW110997   5.613   3.506   3.356
 3366SOL    HW210998   5.762   3.439   3.348
 3367SOL     OW10999   3.277   4.146   3.812
 3367SOL    HW111000   3.202   4.080   3.810
 3367SOL    HW211001   3.286   4.184   3.904
 3368SOL     OW11002   1.323   1.003   3.646
 3368SOL    HW111003   1.344   0.941   3.570
 3368SOL    HW211004   1.296   1.092   3.610
 3369SOL     OW11005   5.388   2.648   0.573
 3369SOL    HW111006   5.365   2.744   0.559
 3369SOL    HW211007   5.343   2.615   0.656
 3370SOL     OW11008   0.705   5.718   3.321
 3370SOL    HW111009   0.666   5.809   3.336
 3370SOL    HW211010   0.632   5.650   3.325
 3371SOL     OW11011   2.625   2.968   1.179
 3371SOL    HW111012   2.719   2.950   1.150
 3371SOL    HW211013   2.612   3.066   1.192
 3372SOL     OW11014   5.165   3.033   2.985
 3372SOL    HW111015   5.191   3.100   3.054
 3372SOL    HW211016   5.198   3.063   2.895
 3373SOL     OW11017   0.489   4.703   1.145
 3373SOL    HW111018   0.524   4.780   1.091
 3373SOL    HW211019   0.436   4.738   1.222
 3374SOL     OW11020   1.134   5.486   3.715
 3374SOL    HW111021   1.037   5.489   3.739
 3374SOL    HW211022   1.167   5.392   3.723
 3375SOL     OW11023   6.903   6.954   5.468
 3375SOL    HW111024   6.864   6.924   5.555
 3375SOL    HW211025   6.996   6.917   5.459
 3376SOL     OW11026   3.501   3.883   4.816
 3376SOL    HW111027   3.541   3.962   4.863
 3376SOL    HW211028   3.575   3.826   4.778
 3377SOL     OW11029   6.668   5.817   4.711
 3377SOL    HW111030   6.668   5.723   4.678
 3377SOL    HW211031   6.621   5.821   4.800
 3378SOL     OW11032   1.225   5.857   0.234
 3378SOL    HW111033   1.142   5.906   0.207
 3378SOL    HW211034   1.266   5.814   0.154
 3379SOL     OW11035   5.970   4.718   3.798
 3379SOL    HW111036   5.949   4.784   3.870
 3379SOL    HW211037   5.903   4.725   3.724
 3380SOL     OW11038   1.531   4.381   2.053
 3380SOL    HW111039   1.611   4.429   2.016
 3380SOL    HW211040   1.450   4.407   2.000
 3381SOL     OW11041   2.830   4.184   6.440
 3381SOL    HW111042   2.807   4.182   6.537
 3381SOL    HW211043   2.930   4.185   6.430
 3382SOL     OW11044   0.403   4.057   6.422
 3382SOL    HW111045   0.436   4.124   6.489
 3382SOL    HW211046   0.318   4.015   6.455
 3383SOL     OW11047   3.693   6.184   0.248
 3383SOL    HW111048   3.765   6.235   0.295
 3383SOL    HW211049   3.617   6.246   0.227
 3384SOL     OW11050   3.724   2.530   6.170
 3384SOL    HW111051   3.628   2.504   6.160
 3384SOL    HW211052   3.754   2.510   6.263
 3385SOL     OW11053   5.975   2.163   4.668
 3385SOL    HW111054   5.944   2.100   4.740
 3385SOL    HW211055   5.988   2.112   4.583
 3386SOL     OW11056   0.040   5.130   5.410
 3386SOL    HW111057   6.974   5.132   5.454
 3386SOL    HW211058   0.096   5.058   5.451
 3387SOL     OW11059   6.105   0.696   2.636
 3387SOL    HW111060   6.196   0.714   2.599
 3387SOL    HW211061   6.111   0.630   2.712
 3388SOL     OW11062   0.969   3.772   0.785
 3388SOL    HW111063   0.902   3.834   0.826
 3388SOL    HW211064   0.958   3.771   0.686
 3389SOL     OW11065   6.237   5.497   5.797
 3389SOL    HW111066   6.179   5.513   5.717
 3389SOL    HW211067   6.328   5.469   5.767
 3390SOL     OW11068   2.928   4.630   0.879
 3390SOL    HW111069   2.846   4.657   0.828
 3390SOL    HW211070   2.931   4.681   0.965
 3391SOL     OW11071   5.118   3.867   5.744
 3391SOL    HW111072   5.078   3.944   5.793
 3391SOL    HW211073   5.199   3.898   5.695
 3392SOL     OW11074   4.738   5.807   5.794
 3392SOL    HW111075   4.769   5.751   5.871
 3392SOL    HW211076   4.818   5.844   5.746
 3393SOL     OW11077   3.237   0.986   0.738
 3393SOL    HW111078   3.144   0.951   0.747
 3393SOL    HW211079   3.260   0.995   0.641
 3394SOL     OW11080   2.953   5.855   1.891
 3394SOL    HW111081   3.050   5.832   1.885
 3394SOL    HW211082   2.911   5.805   1.967
 3395SOL     OW11083   1.895   6.146   3.225
 3395SOL    HW111084   1.849   6.058   3.214
 3395SOL    HW211085   1.864   6.189   3.310
 3396SOL     OW11086   3.942   0.052   4.080
 3396SOL    HW111087   3.887   0.093   4.153
 3396SOL    HW211088   3.954   6.978   4.099
 3397SOL     OW11089   2.876   6.093   1.762
 3397SOL    HW111090   2.907   6.003   1.792
 3397SOL    HW211091   2.944   6.133   1.700
 3398SOL     OW11092   6.901   0.559   0.524
 3398SOL    HW111093   6.873   0.487   0.588
 3398SOL    HW211094   6.986   0.532   0.479
 3399SOL     OW11095   6.700   6.435   2.289
 3399SOL    HW111096   6.660   6.418   2.199
 3399SOL    HW211097   6.729   6.531   2.295
 3400SOL     OW11098   3.532   3.499   5.494
 3400SOL    HW111099   3.591   3.563   5.543
 3400SOL    HW211100   3.441   3.540   5.482
 3401SOL     OW11101   6.671   3.767   3.880
 3401SOL    HW111102   6.640   3.777   3.786
 3401SOL    HW211103   6.624   3.834   3.938
 3402SOL     OW11104   6.168   3.828   0.353
 3402SOL    HW111105   6.100   3.816   0.426
 3402SOL    HW211106   6.259   3.806   0.389
 3403SOL     OW11107   5.619   6.913   3.810
 3403SOL    HW111108   5.531   6.961   3.807
 3403SOL    HW211109   5.691   6.973   3.774
 3404SOL     OW11110   5.206   4.848   2.544
 3404SOL    HW111111   5.118   4.877   2.506
 3404SOL    HW211112   5.191   4.791   2.625
 3405SOL     OW11113   4.491   0.062   1.295
 3405SOL    HW111114   4.422   0.027   1.359
 3405SOL    HW211115   4.556   7.013   1.274
 3406SOL     OW11116   4.459   5.434   0.969
 3406SOL    HW111117   4.475   5.337   0.951
 3406SOL    HW211118   4.538   5.473   1.017
 3407SOL     OW11119   2.017   1.593   0.945
 3407SOL    HW111120   1.927   1.555   0.969
 3407SOL    HW211121   2.005   1.683   0.903
 3408SOL     OW11122   3.407   0.069   3.734
 3408SOL    HW111123   3.378   0.063   3.830
 3408SOL    HW211124   3.451   0.157   3.719
 3409SOL     OW11125   4.596   2.300   6.783
 3409SOL    HW111126   4.532   2.317   6.708
 3409SOL    HW211127   4.686   2.337   6.758
 3410SOL     OW11128   6.485   1.420   2.749
 3410SOL    HW111129   6.511   1.334   2.704
 3410SOL    HW211130   6.425   1.472   2.688
 3411SOL     OW11131   5.700   2.935   6.558
 3411SOL    HW111132   5.660   3.024   6.578
 3411SOL    HW211133   5.711   2.925   6.459
 3412SOL     OW11134   5.154   3.530   3.071
 3412SOL    HW111135   5.059   3.502   3.056
 3412SOL    HW211136   5.156   3.627   3.096
 3413SOL     OW11137   1.163   2.721   0.788
 3413SOL    HW111138   1.126   2.787   0.854
 3413SOL    HW211139   1.104   2.717   0.708
 3414SOL     OW11140   3.887   3.158   2.007
 3414SOL    HW111141   3.797   3.156   2.050
 3414SOL    HW211142   3.919   3.253   2.001
 3415SOL     OW11143   2.732   0.486   6.672
 3415SOL    HW111144   2.690   0.449   6.588
 3415SOL    HW211145   2.819   0.440   6.689
 3416SOL     OW11146   5.455   6.180   6.137
 3416SOL    HW111147   5.376   6.198   6.079
 3416SOL    HW211148   5.446   6.090   6.179
 3417SOL     OW11149   5.962   1.006   1.980
 3417SOL    HW111150   5.864   1.004   1.957
 3417SOL    HW211151   5.972   1.014   2.079
 3418SOL     OW11152   4.257   5.056   1.294
 3418SOL    HW111153   4.323   4.991   1.256
 3418SOL    HW211154   4.306   5.132   1.336
 3419SOL     OW11155   3.034   4.796   5.123
 3419SOL    HW111156   2.970   4.722   5.145
 3419SOL    HW211157   2.983   4.881   5.113
 3420SOL     OW11158   5.061   0.747   1.889
 3420SOL    HW111159   5.028   0.840   1.898
 3420SOL    HW211160   4.988   0.688   1.854
 3421SOL     OW11161   0.373   1.561   4.243
 3421SOL    HW111162   0.389   1.654   4.209
 3421SOL    HW211163   0.352   1.565   4.341
 3422SOL     OW11164   2.999   4.750   1.110
 3422SOL    HW111165   2.955   4.730   1.197
 3422SOL    HW211166   3.042   4.841   1.115
 3423SOL     OW11167   1.759   5.270   5.711
 3423SOL    HW111168   1.797   5.182   5.738
 3423SOL    HW211169   1.808   5.305   5.632
 3424SOL     OW11170   5.389   6.005   2.264
 3424SOL    HW111171   5.390   5.999   2.164
 3424SOL    HW211172   5.303   6.046   2.293
 3425SOL     OW11173   5.610   2.685   6.178
 3425SOL    HW111174   5.524   2.726   6.210
 3425SOL    HW211175   5.678   2.688   6.251
 3426SOL     OW11176   6.617   5.584   6.214
 3426SOL    HW111177   6.710   5.622   6.220
 3426SOL    HW211178   6.551   5.658   6.213
 3427SOL     OW11179   1.744   1.392   6.457
 3427SOL    HW111180   1.649   1.363   6.461
 3427SOL    HW211181   1.748   1.490   6.437
 3428SOL     OW11182   4.089   0.854   4.432
 3428SOL    HW111183   4.044   0.940   4.457
 3428SOL    HW211184   4.165   0.836   4.495
 3429SOL     OW11185   4.998   5.624   0.452
 3429SOL    HW111186   4.904   5.624   0.417
 3429SOL    HW211187   5.007   5.553   0.522
 3430SOL     OW11188   2.667   4.189   7.000
 3430SOL    HW111189   2.680   4.091   6.992
 3430SOL    HW211190   2.571   4.212   6.979
 3431SOL     OW11191   1.400   4.113   2.128
 3431SOL    HW111192   1.491   4.138   2.095
 3431SOL    HW211193   1.394   4.133   2.226
 3432SOL     OW11194   0.227   5.467   6.350
 3432SOL    HW111195   0.151   5.408   6.377
 3432SOL    HW211196   0.312   5.414   6.354
 3433SOL     OW11197   1.004   1.432   0.167
 3433SOL    HW111198   0.984   1.489   0.247
 3433SOL    HW211199   0.949   1.348   0.172
 3434SOL     OW11200   4.237   2.185   1.901
 3434SOL    HW111201   4.265   2.109   1.842
 3434SOL    HW211202   4.147   2.165   1.940
 3435SOL     OW11203   3.060   2.746   1.222
 3435SOL    HW111204   2.973   2.698   1.219
 3435SOL    HW211205   3.135   2.680   1.226
 3436SOL     OW11206   4.364   5.559   5.419
 3436SOL    HW111207   4.449   5.545   5.367
 3436SOL    HW211208   4.387   5.572   5.516
 3437SOL     OW11209   2.794   5.951   0.672
 3437SOL    HW111210   2.772   5.940   0.769
 3437SOL    HW211211   2.717   5.919   0.617
 3438SOL     OW11212   2.653   4.380   0.471
 3438SOL    HW111213   2.595   4.317   0.524
 3438SOL    HW211214   2.692   4.330   0.393
 3439SOL     OW11215   2.991   5.815   1.234
 3439SOL    HW111216   2.913   5.753   1.236
 3439SOL    HW211217   3.074   5.764   1.208
 3440SOL     OW11218   4.162   4.761   5.662
 3440SOL    HW111219   4.092   4.831   5.676
 3440SOL    HW211220   4.186   4.720   5.750
 3441SOL     OW11221   6.993   5.927   5.643
 3441SOL    HW111222   0.042   5.995   5.631
 3441SOL    HW211223   6.930   5.932   5.565
 3442SOL     OW11224   1.666   2.155   0.631
 3442SOL    HW111225   1.673   2.225   0.702
 3442SOL    HW211226   1.754   2.109   0.621
 3443SOL     OW11227   6.625   5.701   2.672
 3443SOL    HW111228   6.697   5.725   2.607
 3443SOL    HW211229   6.537   5.696   2.624
 3444SOL     OW11230   1.274   4.052   6.129
 3444SOL    HW111231   1.326   4.063   6.213
 3444SOL    HW211232   1.247   3.956   6.119
 3445SOL     OW11233   5.978   5.045   4.520
 3445SOL    HW111234   6.065   4.996   4.516
 3445SOL    HW211235   5.937   5.034   4.611
 3446SOL     OW11236   5.287   1.429   6.990
 3446SOL    HW111237   5.289   1.401   0.062
 3446SOL    HW211238   5.362   1.492   6.972
 3447SOL     OW11239   4.885   1.482   6.089
 3447SOL    HW111240   4.800   1.526   6.062
 3447SOL    HW211241   4.935   1.453   6.007
 3448SOL     OW11242   0.705   5.481   4.669
 3448SOL    HW111243   0.621   5.441   4.704
 3448SOL    HW211244   0.705   5.580   4.688
 3449SOL     OW11245   1.307   4.231   4.705
 3449SOL    HW111246   1.367   4.262   4.631
 3449SOL    HW211247   1.216   4.271   4.694
 3450SOL     OW11248   1.839   6.253   3.485
 3450SOL    HW111249   1.830   6.156   3.506
 3450SOL    HW211250   1.785   6.306   3.550
 3451SOL     OW11251   2.402   2.039   1.263
 3451SOL    HW111252   2.477   2.063   1.201
 3451SOL    HW211253   2.325   2.102   1.248
 3452SOL     OW11254   4.345   1.162   5.324
 3452SOL    HW111255   4.435   1.194   5.352
 3452SOL    HW211256   4.352   1.067   5.292
 3453SOL     OW11257   4.469   6.520   5.424
 3453SOL    HW111258   4.513   6.605   5.394
 3453SOL    HW211259   4.447   6.463   5.345
 3454SOL     OW11260   1.461   3.268   4.213
 3454SOL    HW111261   1.530   3.341   4.206
 3454SOL    HW211262   1.431   3.261   4.308
 3455SOL     OW11263   1.589   3.932   5.700
 3455SOL    HW111264   1.566   3.928   5.797
 3455SOL    HW211265   1.608   3.840   5.666
 3456SOL     OW11266   4.175   5.705   2.789
 3456SOL    HW111267   4.238   5.642   2.743
 3456SOL    HW211268   4.164   5.678   2.884
 3457SOL     OW11269   3.623   3.900   0.317
 3457SOL    HW111270   3.557   3.913   0.392
 3457SOL    HW211271   3.625   3.804   0.291
 3458SOL     OW11272   3.680   1.865   1.086
 3458SOL    HW111273   3.624   1.876   1.004
 3458SOL    HW211274   3.764   1.919   1.076
 3459SOL     OW11275   6.541   0.503   2.928
 3459SOL    HW111276   6.482   0.486   2.850
 3459SOL    HW211277   6.633   0.467   2.910
 3460SOL     OW11278   4.592   1.475   5.146
 3460SOL    HW111279   4.636   1.548   5.198
 3460SOL    HW211280   4.500   1.504   5.120
 3461SOL     OW11281   4.545   4.631   3.939
 3461SOL    HW111282   4.557   4.726   3.967
 3461SOL    HW211283   4.613   4.574   3.985
 3462SOL     OW11284   1.475   4.329   6.859
 3462SOL    HW111285   1.431   4.254   6.908
 3462SOL    HW211286   1.550   4.365   6.915
 3463SOL     OW11287   6.284   3.989   6.911
 3463SOL    HW111288   6.219   3.959   6.982
 3463SOL    HW211289   6.345   4.058   6.949
 3464SOL     OW11290   0.004   5.291   4.510
 3464SOL    HW111291   7.014   5.390   4.512
 3464SOL    HW211292   6.990   5.251   4.594
 3465SOL     OW11293   0.726   2.711   1.383
 3465SOL    HW111294   0.700   2.800   1.347
 3465SOL    HW211295   0.806   2.678   1.334
 3466SOL     OW11296   5.721   3.818   3.328
 3466SOL    HW111297   5.654   3.846   3.397
 3466SOL    HW211298   5.750   3.724   3.347
 3467SOL     OW11299   2.236   1.572   6.012
 3467SOL    HW111300   2.289   1.507   5.959
 3467SOL    HW211301   2.140   1.544   6.013
 3468SOL     OW11302   5.398   4.903   1.770
 3468SOL    HW111303   5.362   4.996   1.771
 3468SOL    HW211304   5.324   4.838   1.787
 3469SOL     OW11305   5.698   3.609   0.903
 3469SOL    HW111306   5.786   3.632   0.862
 3469SOL    HW211307   5.631   3.679   0.880
 3470SOL     OW11308   6.568   6.041   6.978
 3470SOL    HW111309   6.569   6.045   0.054
 3470SOL    HW211310   6.498   5.976   6.948
 3471SOL     OW11311   4.215   0.308   4.249
 3471SOL    HW111312   4.213   0.210   4.227
 3471SOL    HW211313   4.304   0.346   4.222
 3472SOL     OW11314   3.399   0.934   4.550
 3472SOL    HW111315   3.373   0.978   4.464
 3472SOL    HW211316   3.426   0.839   4.532
 3473SOL     OW11317   4.797   0.355   3.939
 3473SOL    HW111318   4.751   0.269   3.959
 3473SOL    HW211319   4.781   0.420   4.014
 3474SOL     OW11320   5.481   5.013   0.445
 3474SOL    HW111321   5.553   5.028   0.378
 3474SOL    HW211322   5.468   5.096   0.500
 3475SOL     OW11323   2.085   5.854   5.347
 3475SOL    HW111324   2.032   5.882   5.268
 3475SOL    HW211325   2.183   5.860   5.325
 3476SOL     OW11326   3.150   1.732   3.208
 3476SOL    HW111327   3.240   1.771   3.190
 3476SOL    HW211328   3.106   1.783   3.283
 3477SOL     OW11329   4.533   5.573   2.795
 3477SOL    HW111330   4.517   5.536   2.704
 3477SOL    HW211331   4.631   5.591   2.807
 3478SOL     OW11332   3.489   4.819   0.203
 3478SOL    HW111333   3.442   4.906   0.221
 3478SOL    HW211334   3.444   4.772   0.127
 3479SOL     OW11335   1.870   0.285   0.155
 3479SOL    HW111336   1.905   0.321   0.242
 3479SOL    HW211337   1.909   0.195   0.137
 3480SOL     OW11338   1.364   6.151   4.280
 3480SOL    HW111339   1.264   6.151   4.279
 3480SOL    HW211340   1.397   6.181   4.369
 3481SOL     OW11341   2.150   4.569   0.430
 3481SOL    HW111342   2.163   4.599   0.336
 3481SOL    HW211343   2.226   4.510   0.457
 3482SOL     OW11344   0.086   2.109   2.030
 3482SOL    HW111345   0.067   2.206   2.040
 3482SOL    HW211346   0.110   2.070   2.119
 3483SOL     OW11347   4.106   1.724   1.244
 3483SOL    HW111348   4.196   1.740   1.286
 3483SOL    HW211349   4.038   1.706   1.316
 3484SOL     OW11350   3.433   4.165   3.585
 3484SOL    HW111351   3.404   4.103   3.512
 3484SOL    HW211352   3.364   4.168   3.656
 3485SOL     OW11353   6.621   2.420   3.939
 3485SOL    HW111354   6.601   2.500   3.996
 3485SOL    HW211355   6.572   2.341   3.975
 3486SOL     OW11356   6.289   1.614   2.662
 3486SOL    HW111357   6.199   1.657   2.663
 3486SOL    HW211358   6.303   1.564   2.747
 3487SOL     OW11359   1.430   6.407   1.333
 3487SOL    HW111360   1.386   6.464   1.264
 3487SOL    HW211361   1.521   6.382   1.301
 3488SOL     OW11362   6.413   3.629   5.270
 3488SOL    HW111363   6.501   3.643   5.224
 3488SOL    HW211364   6.393   3.707   5.329
 3489SOL     OW11365   2.876   5.606   6.812
 3489SOL    HW111366   2.904   5.578   6.720
 3489SOL    HW211367   2.822   5.533   6.854
 3490SOL     OW11368   5.846   3.536   0.161
 3490SOL    HW111369   5.768   3.482   0.190
 3490SOL    HW211370   5.922   3.475   0.137
 3491SOL     OW11371   5.936   2.674   5.238
 3491SOL    HW111372   6.004   2.712   5.174
 3491SOL    HW211373   5.894   2.749   5.289
 3492SOL     OW11374   0.343   4.623   6.267
 3492SOL    HW111375   0.413   4.694   6.272
 3492SOL    HW211376   0.382   4.535   6.293
 3493SOL     OW11377   6.611   4.836   1.291
 3493SOL    HW111378   6.655   4.765   1.345
 3493SOL    HW211379   6.592   4.801   1.199
 3494SOL     OW11380   3.293   0.252   0.968
 3494SOL    HW111381   3.274   0.231   1.064
 3494SOL    HW211382   3.274   0.348   0.950
 3495SOL     OW11383   6.002   4.510   5.713
 3495SOL    HW111384   5.931   4.460   5.664
 3495SOL    HW211385   6.092   4.471   5.693
 3496SOL     OW11386   0.750   6.140   1.359
 3496SOL    HW111387   0.732   6.141   1.260
 3496SOL    HW211388   0.804   6.059   1.382
 3497SOL     OW11389   2.873   0.398   5.050
 3497SOL    HW111390   2.935   0.360   5.118
 3497SOL    HW211391   2.910   0.382   4.958
 3498SOL     OW11392   1.418   2.028   0.247
 3498SOL    HW111393   1.452   1.934   0.235
 3498SOL    HW211394   1.319   2.025   0.263
 3499SOL     OW11395   6.706   4.109   2.975
 3499SOL    HW111396   6.609   4.094   2.953
 3499SOL    HW211397   6.763   4.071   2.903
 3500SOL     OW11398   6.803   2.559   0.825
 3500SOL    HW111399   6.840   2.649   0.800
 3500SOL    HW211400   6.870   2.510   0.881
 3501SOL     OW11401   6.903   5.290   3.059
 3501SOL    HW111402   6.896   5.323   2.965
 3501SOL    HW211403   6.836   5.339   3.116
 3502SOL     OW11404   0.718   6.389   1.457
 3502SOL    HW111405   0.726   6.298   1.417
 3502SOL    HW211406   0.663   6.448   1.397
 3503SOL     OW11407   2.538   0.848   3.622
 3503SOL    HW111408   2.562   0.759   3.582
 3503SOL    HW211409   2.613   0.912   3.606
 3504SOL     OW11410   2.171   3.075   2.660
 3504SOL    HW111411   2.152   3.143   2.588
 3504SOL    HW211412   2.189   3.123   2.746
 3505SOL     OW11413   4.165   6.626   4.751
 3505SOL    HW111414   4.093   6.570   4.710
 3505SOL    HW211415   4.242   6.631   4.688
 3506SOL     OW11416   6.828   4.035   2.750
 3506SOL    HW111417   6.906   4.097   2.759
 3506SOL    HW211418   6.777   4.057   2.667
 3507SOL     OW11419   6.605   0.176   5.473
 3507SOL    HW111420   6.617   0.234   5.392
 3507SOL    HW211421   6.522   0.203   5.521
 3508SOL     OW11422   0.214   4.715   6.716
 3508SOL    HW111423   0.197   4.732   6.619
 3508SOL    HW211424   0.276   4.636   6.726
 3509SOL     OW11425   4.408   6.484   6.711
 3509SOL    HW111426   4.428   6.463   6.616
 3509SOL    HW211427   4.335   6.552   6.717
 3510SOL     OW11428   1.969   0.920   2.429
 3510SOL    HW111429   1.959   1.019   2.416
 3510SOL    HW211430   1.898   0.872   2.377
 3511SOL     OW11431   1.247   0.941   4.259
 3511SOL    HW111432   1.294   0.930   4.347
 3511SOL    HW211433   1.307   0.990   4.196
 3512SOL     OW11434   3.239   3.309   2.034
 3512SOL    HW111435   3.143   3.281   2.031
 3512SOL    HW211436   3.294   3.243   1.984
 3513SOL     OW11437   6.825   4.833   0.809
 3513SOL    HW111438   6.792   4.742   0.834
 3513SOL    HW211439   6.881   4.826   0.726
 3514SOL     OW11440   3.343   5.778   3.493
 3514SOL    HW111441   3.310   5.854   3.437
 3514SOL    HW211442   3.424   5.808   3.545
 3515SOL     OW11443   4.149   5.572   4.063
 3515SOL    HW111444   4.157   5.596   3.966
 3515SOL    HW211445   4.074   5.507   4.075
 3516SOL     OW11446   1.385   1.255   0.410
 3516SOL    HW111447   1.412   1.329   0.347
 3516SOL    HW211448   1.287   1.260   0.427
 3517SOL     OW11449   0.364   0.326   0.178
 3517SOL    HW111450   0.444   0.358   0.230
 3517SOL    HW211451   0.377   0.230   0.154
 3518SOL     OW11452   4.065   3.607   6.354
 3518SOL    HW111453   4.155   3.621   6.313
 3518SOL    HW211454   4.022   3.526   6.314
 3519SOL     OW11455   4.314   0.155   0.079
 3519SOL    HW111456   4.406   0.187   0.104
 3519SOL    HW211457   4.278   0.214   0.007
 3520SOL     OW11458   4.211   4.670   1.258
 3520SOL    HW111459   4.298   4.718   1.247
 3520SOL    HW211460   4.184   4.628   1.171
 3521SOL     OW11461   0.383   1.858   5.539
 3521SOL    HW111462   0.460   1.921   5.528
 3521SOL    HW211463   0.384   1.819   5.631
 3522SOL     OW11464   2.363   0.003   1.115
 3522SOL    HW111465   2.268   7.008   1.089
 3522SOL    HW211466   2.394   0.087   1.072
 3523SOL     OW11467   2.149   4.237   5.046
 3523SOL    HW111468   2.208   4.156   5.053
 3523SOL    HW211469   2.203   4.319   5.063
 3524SOL     OW11470   2.453   1.540   3.724
 3524SOL    HW111471   2.550   1.564   3.719
 3524SOL    HW211472   2.434   1.496   3.812
 3525SOL     OW11473   1.798   3.087   3.727
 3525SOL    HW111474   1.868   3.020   3.699
 3525SOL    HW211475   1.760   3.130   3.645
 3526SOL     OW11476   3.564   5.871   3.655
 3526SOL    HW111477   3.647   5.827   3.690
 3526SOL    HW211478   3.587   5.963   3.622
 3527SOL     OW11479   6.854   4.436   6.416
 3527SOL    HW111480   6.934   4.391   6.375
 3527SOL    HW211481   6.782   4.368   6.431
 3528SOL     OW11482   0.966   6.502   4.246
 3528SOL    HW111483   0.885   6.554   4.274
 3528SOL    HW211484   1.045   6.532   4.298
 3529SOL     OW11485   3.382   6.204   0.595
 3529SOL    HW111486   3.404   6.300   0.577
 3529SOL    HW211487   3.347   6.161   0.512
 3530SOL     OW11488   2.131   5.871   2.392
 3530SOL    HW111489   2.139   5.883   2.293
 3530SOL    HW211490   2.051   5.920   2.425
 3531SOL     OW11491   5.275   4.379   6.743
 3531SOL    HW111492   5.224   4.464   6.741
 3531SOL    HW211493   5.330   4.375   6.826
 3532SOL     OW11494   2.384   6.899   0.180
 3532SOL    HW111495   2.442   6.978   0.197
 3532SOL    HW211496   2.385   6.877   0.082
 3533SOL     OW11497   1.247   1.270   3.537
 3533SOL    HW111498   1.233   1.360   3.495
 3533SOL    HW211499   1.162   1.238   3.577
 3534SOL     OW11500   4.615   6.717   4.291
 3534SOL    HW111501   4.609   6.618   4.279
 3534SOL    HW211502   4.567   6.743   4.375
 3535SOL     OW11503   4.216   4.795   7.020
 3535SOL    HW111504   4.316   4.801   0.006
 3535SOL    HW211505   4.179   4.735   0.067
 3536SOL     OW11506   1.968   3.204   2.445
 3536SOL    HW111507   1.988   3.248   2.358
 3536SOL    HW211508   1.916   3.266   2.503
 3537SOL     OW11509   3.204   5.045   1.910
 3537SOL    HW111510   3.116   5.091   1.894
 3537SOL    HW211511   3.196   4.984   1.988
 3538SOL     OW11512   2.812   0.275   3.397
 3538SOL    HW111513   2.838   0.341   3.467
 3538SOL    HW211514   2.851   0.185   3.419
 3539SOL     OW11515   5.547   5.418   5.657
 3539SOL    HW111516   5.598   5.411   5.743
 3539SOL    HW211517   5.450   5.431   5.677
 3540SOL     OW11518   4.688   3.927   0.071
 3540SOL    HW111519   4.787   3.940   0.066
 3540SOL    HW211520   4.654   3.895   7.006
 3541SOL     OW11521   0.712   2.879   2.496
 3541SOL    HW111522   0.730   2.849   2.402
 3541SOL    HW211523   0.793   2.862   2.553
 3542SOL     OW11524   5.767   1.131   6.846
 3542SOL    HW111525   5.687   1.191   6.844
 3542SOL    HW211526   5.743   1.045   6.891
 3543SOL     OW11527   0.166   2.690   4.977
 3543SOL    HW111528   0.165   2.789   4.992
 3543SOL    HW211529   0.169   2.643   5.065
 3544SOL     OW11530   3.730   4.792   5.901
 3544SOL    HW111531   3.636   4.775   5.932
 3544SOL    HW211532   3.794   4.754   5.968
 3545SOL     OW11533   2.905   6.433   1.168
 3545SOL    HW111534   2.936   6.416   1.075
 3545SOL    HW211535   2.840   6.509   1.168
 3546SOL     OW11536   0.385   4.715   1.392
 3546SOL    HW111537   0.351   4.780   1.459
 3546SOL    HW211538   0.430   4.639   1.439
 3547SOL     OW11539   1.766   3.915   4.298
 3547SOL    HW111540   1.678   3.870   4.289
 3547SOL    HW211541   1.817   3.906   4.213
 3548SOL     OW11542   6.384   0.200   5.669
 3548SOL    HW111543   6.327   0.158   5.599
 3548SOL    HW211544   6.348   0.177   5.760
 3549SOL     OW11545   1.886   0.116   6.526
 3549SOL    HW111546   1.819   0.131   6.599
 3549SOL    HW211547   1.977   0.140   6.560
 3550SOL     OW11548   6.588   2.049   4.785
 3550SOL    HW111549   6.513   2.111   4.811
 3550SOL    HW211550   6.646   2.094   4.717
 3551SOL     OW11551   6.101   1.279   5.107
 3551SOL    HW111552   6.150   1.283   5.020
 3551SOL    HW211553   6.119   1.362   5.159
 3552SOL     OW11554   6.034   0.849   3.765
 3552SOL    HW111555   6.055   0.916   3.694
 3552SOL    HW211556   6.115   0.836   3.823
 3553SOL     OW11557   5.631   6.225   6.468
 3553SOL    HW111558   5.564   6.151   6.475
 3553SOL    HW211559   5.721   6.191   6.495
 3554SOL     OW11560   6.079   4.092   6.524
 3554SOL    HW111561   6.072   4.044   6.612
 3554SOL    HW211562   6.163   4.064   6.478
 3555SOL     OW11563   3.555   1.240   5.220
 3555SOL    HW111564   3.563   1.338   5.238
 3555SOL    HW211565   3.602   1.189   5.291
 3556SOL     OW11566   5.471   1.050   1.082
 3556SOL    HW111567   5.420   1.101   1.013
 3556SOL    HW211568   5.410   0.983   1.125
 3557SOL     OW11569   4.977   0.110   1.643
 3557SOL    HW111570   5.025   0.187   1.685
 3557SOL    HW211571   4.911   0.144   1.576
 3558SOL     OW11572   4.091   5.599   3.032
 3558SOL    HW111573   3.993   5.614   3.046
 3558SOL    HW211574   4.121   5.520   3.086
 3559SOL     OW11575   4.412   6.140   6.441
 3559SOL    HW111576   4.452   6.228   6.466
 3559SOL    HW211577   4.313   6.147   6.438
 3560SOL     OW11578   1.988   5.979   4.240
 3560SOL    HW111579   1.943   6.057   4.283
 3560SOL    HW211580   1.978   5.899   4.299
 3561SOL     OW11581   3.993   2.570   6.103
 3561SOL    HW111582   4.031   2.510   6.034
 3561SOL    HW211583   3.897   2.546   6.118
 3562SOL     OW11584   2.970   1.110   0.369
 3562SOL    HW111585   2.989   1.208   0.363
 3562SOL    HW211586   3.054   1.061   0.393
 3563SOL     OW11587   6.805   2.134   6.366
 3563SOL    HW111588   6.835   2.040   6.381
 3563SOL    HW211589   6.721   2.133   6.312
 3564SOL     OW11590   5.992   2.941   2.931
 3564SOL    HW111591   6.025   2.901   2.845
 3564SOL    HW211592   6.057   2.920   3.004
 3565SOL     OW11593   4.626   6.346   4.722
 3565SOL    HW111594   4.661   6.298   4.802
 3565SOL    HW211595   4.527   6.360   4.731
 3566SOL     OW11596   0.817   1.035   4.810
 3566SOL    HW111597   0.853   1.004   4.898
 3566SOL    HW211598   0.820   0.959   4.745
 3567SOL     OW11599   0.818   4.464   6.504
 3567SOL    HW111600   0.801   4.387   6.443
 3567SOL    HW211601   0.799   4.550   6.456
 3568SOL     OW11602   2.444   4.332   5.756
 3568SOL    HW111603   2.452   4.250   5.814
 3568SOL    HW211604   2.372   4.318   5.688
 3569SOL     OW11605   0.657   0.249   3.359
 3569SOL    HW111606   0.700   0.282   3.274
 3569SOL    HW211607   0.675   0.151   3.370
 3570SOL     OW11608   0.335   2.156   4.593
 3570SOL    HW111609   0.387   2.238   4.616
 3570SOL    HW211610   0.347   2.135   4.497
 3571SOL     OW11611   6.333   5.331   5.076
 3571SOL    HW111612   6.332   5.233   5.100
 3571SOL    HW211613   6.266   5.349   5.005
 3572SOL     OW11614   5.532   6.178   5.485
 3572SOL    HW111615   5.581   6.102   5.527
 3572SOL    HW211616   5.597   6.240   5.440
 3573SOL     OW11617   0.515   2.594   1.868
 3573SOL    HW111618   0.528   2.613   1.771
 3573SOL    HW211619   0.425   2.553   1.883
 3574SOL     OW11620   0.001   3.914   0.153
 3574SOL    HW111621   0.034   3.821   0.137
 3574SOL    HW211622   0.038   3.948   0.239
 3575SOL     OW11623   6.685   0.556   2.325
 3575SOL    HW111624   6.781   0.547   2.352
 3575SOL    HW211625   6.657   0.652   2.333
 3576SOL     OW11626   0.595   0.975   0.371
 3576SOL    HW111627   0.497   0.974   0.389
 3576SOL    HW211628   0.632   1.065   0.392
 3577SOL     OW11629   2.078   4.885   0.498
 3577SOL    HW111630   2.087   4.795   0.541
 3577SOL    HW211631   2.057   4.954   0.567
 3578SOL     OW11632   3.388   4.642   1.668
 3578SOL    HW111633   3.477   4.628   1.712
 3578SOL    HW211634   3.318   4.655   1.738
 3579SOL     OW11635   2.574   2.848   6.424
 3579SOL    HW111636   2.573   2.750   6.405
 3579SOL    HW211637   2.662   2.886   6.397
 3580SOL     OW11638   5.445   1.374   1.816
 3580SOL    HW111639   5.531   1.408   1.855
 3580SOL    HW211640   5.462   1.290   1.766
 3581SOL     OW11641   6.817   0.998   2.785
 3581SOL    HW111642   6.788   1.065   2.853
 3581SOL    HW211643   6.820   0.907   2.826
 3582SOL     OW11644   0.800   0.740   5.439
 3582SOL    HW111645   0.843   0.700   5.520
 3582SOL    HW211646   0.818   0.683   5.359
 3583SOL     OW11647   1.272   6.955   1.820
 3583SOL    HW111648   1.219   6.968   1.735
 3583SOL    HW211649   1.337   6.880   1.807
 3584SOL     OW11650   5.285   0.575   4.848
 3584SOL    HW111651   5.284   0.564   4.947
 3584SOL    HW211652   5.377   0.600   4.817
 3585SOL     OW11653   2.538   4.519   3.666
 3585SOL    HW111654   2.522   4.422   3.647
 3585SOL    HW211655   2.508   4.540   3.759
 3586SOL     OW11656   1.184   1.235   0.022
 3586SOL    HW111657   1.148   1.322   7.013
 3586SOL    HW211658   1.277   1.248   0.057
 3587SOL     OW11659   3.415   6.863   5.910
 3587SOL    HW111660   3.394   6.821   5.999
 3587SOL    HW211661   3.500   6.825   5.875
 3588SOL     OW11662   2.415   2.575   5.221
 3588SOL    HW111663   2.472   2.656   5.235
 3588SOL    HW211664   2.417   2.550   5.124
 3589SOL     OW11665   2.847   6.172   4.767
 3589SOL    HW111666   2.869   6.077   4.791
 3589SOL    HW211667   2.795   6.174   4.681
 3590SOL     OW11668   1.240   5.424   6.779
 3590SOL    HW111669   1.143   5.431   6.756
 3590SOL    HW211670   1.294   5.459   6.702
 3591SOL     OW11671   5.219   1.740   5.015
 3591SOL    HW111672   5.264   1.747   5.104
 3591SOL    HW211673   5.205   1.643   4.992
 3592SOL     OW11674   5.669   1.584   2.300
 3592SOL    HW111675   5.649   1.664   2.244
 3592SOL    HW211676   5.750   1.537   2.266
 3593SOL     OW11677   0.692   5.138   4.127
 3593SOL    HW111678   0.664   5.180   4.041
 3593SOL    HW211679   0.611   5.108   4.178
 3594SOL     OW11680   4.109   1.334   4.432
 3594SOL    HW111681   4.111   1.424   4.475
 3594SOL    HW211682   4.035   1.331   4.366
 3595SOL     OW11683   2.244   6.269   6.431
 3595SOL    HW111684   2.166   6.330   6.417
 3595SOL    HW211685   2.222   6.179   6.393
 3596SOL     OW11686   6.555   3.528   2.910
 3596SOL    HW111687   6.584   3.593   2.981
 3596SOL    HW211688   6.578   3.435   2.938
 3597SOL     OW11689   4.016   0.495   4.128
 3597SOL    HW111690   4.047   0.508   4.034
 3597SOL    HW211691   4.088   0.449   4.181
 3598SOL     OW11692   1.975   0.034   0.095
 3598SOL    HW111693   2.039   6.994   0.138
 3598SOL    HW211694   1.963   0.009   7.023
 3599SOL     OW11695   0.336   2.455   3.982
 3599SOL    HW111696   0.368   2.498   3.898
 3599SOL    HW211697   0.414   2.423   4.035
 3600SOL     OW11698   6.416   6.803   1.528
 3600SOL    HW111699   6.363   6.869   1.580
 3600SOL    HW211700   6.367   6.716   1.524
 3601SOL     OW11701   0.040   3.694   5.921
 3601SOL    HW111702   0.040   3.765   5.851
 3601SOL    HW211703   0.059   3.605   5.879
 3602SOL     OW11704   3.271   2.558   1.206
 3602SOL    HW111705   3.347   2.618   1.231
 3602SOL    HW211706   3.294   2.463   1.228
 3603SOL     OW11707   4.060   5.184   4.739
 3603SOL    HW111708   4.085   5.097   4.782
 3603SOL    HW211709   4.035   5.250   4.809
 3604SOL     OW11710   5.888   4.258   3.460
 3604SOL    HW111711   5.911   4.321   3.534
 3604SOL    HW211712   5.797   4.220   3.475
 3605SOL     OW11713   5.357   1.571   6.346
 3605SOL    HW111714   5.295   1.643   6.378
 3605SOL    HW211715   5.345   1.559   6.247
 3606SOL     OW11716   1.854   3.563   2.823
 3606SOL    HW111717   1.947   3.571   2.788
 3606SOL    HW211718   1.837   3.637   2.889
 3607SOL     OW11719   4.186   6.870   5.558
 3607SOL    HW111720   4.192   6.792   5.496
 3607SOL    HW211721   4.106   6.925   5.535
 3608SOL     OW11722   6.930   2.957   3.026
 3608SOL    HW111723   6.871   2.878   3.010
 3608SOL    HW211724   0.001   2.927   3.039
 3609SOL     OW11725   0.078   0.723   3.702
 3609SOL    HW111726   0.103   0.785   3.628
 3609SOL    HW211727   7.005   0.698   3.694
 3610SOL     OW11728   2.009   4.875   5.430
 3610SOL    HW111729   1.991   4.800   5.494
 3610SOL    HW211730   1.923   4.918   5.404
 3611SOL     OW11731   4.802   4.240   6.149
 3611SOL    HW111732   4.881   4.225   6.208
 3611SOL    HW211733   4.792   4.337   6.130
 3612SOL     OW11734   2.081   5.873   1.231
 3612SOL    HW111735   2.143   5.949   1.247
 3612SOL    HW211736   2.047   5.876   1.137
 3613SOL     OW11737   5.524   4.632   6.214
 3613SOL    HW111738   5.449   4.679   6.167
 3613SOL    HW211739   5.611   4.676   6.190
 3614SOL     OW11740   3.770   2.985   4.723
 3614SOL    HW111741   3.721   2.901   4.701
 3614SOL    HW211742   3.792   2.987   4.820
 3615SOL     OW11743   5.792   6.505   6.491
 3615SOL    HW111744   5.751   6.588   6.529
 3615SOL    HW211745   5.748   6.424   6.531
 3616SOL     OW11746   6.522   1.474   4.468
 3616SOL    HW111747   6.580   1.403   4.507
 3616SOL    HW211748   6.435   1.434   4.439
 3617SOL     OW11749   0.098   0.582   0.915
 3617SOL    HW111750   0.180   0.560   0.968
 3617SOL    HW211751   0.073   0.504   0.858
 3618SOL     OW11752   3.978   5.549   5.978
 3618SOL    HW111753   3.903   5.497   6.017
 3618SOL    HW211754   3.951   5.587   5.890
 3619SOL     OW11755   4.926   3.417   3.930
 3619SOL    HW111756   4.943   3.350   3.857
 3619SOL    HW211757   4.886   3.370   4.009
 3620SOL     OW11758   6.018   1.979   5.188
 3620SOL    HW111759   5.924   1.957   5.162
 3620SOL    HW211760   6.076   1.981   5.107
 3621SOL     OW11761   1.572   2.928   6.367
 3621SOL    HW111762   1.665   2.938   6.404
 3621SOL    HW211763   1.525   2.853   6.413
 3622SOL     OW11764   1.192   3.671   0.875
 3622SOL    HW111765   1.281   3.716   0.867
 3622SOL    HW211766   1.120   3.730   0.839
 3623SOL     OW11767   6.377   4.818   5.163
 3623SOL    HW111768   6.329   4.904   5.142
 3623SOL    HW211769   6.390   4.810   5.262
 3624SOL     OW11770   1.551   0.487   1.839
 3624SOL    HW111771   1.460   0.446   1.825
 3624SOL    HW211772   1.571   0.549   1.763
 3625SOL     OW11773   1.286   2.493   5.359
 3625SOL    HW111774   1.219   2.541   5.415
 3625SOL    HW211775   1.341   2.559   5.307
 3626SOL     OW11776   2.156   3.435   5.596
 3626SOL    HW111777   2.225   3.435   5.669
 3626SOL    HW211778   2.165   3.518   5.541
 3627SOL     OW11779   3.490   3.173   4.328
 3627SOL    HW111780   3.506   3.118   4.245
 3627SOL    HW211781   3.506   3.116   4.408
 3628SOL     OW11782   2.906   5.474   3.968
 3628SOL    HW111783   2.957   5.430   3.894
 3628SOL    HW211784   2.969   5.497   4.042
 3629SOL     OW11785   5.698   3.623   4.756
 3629SOL    HW111786   5.678   3.633   4.853
 3629SOL    HW211787   5.716   3.527   4.734
 3630SOL     OW11788   6.164   1.886   4.967
 3630SOL    HW111789   6.262   1.888   4.950
 3630SOL    HW211790   6.141   1.807   5.025
 3631SOL     OW11791   1.867   0.919   4.103
 3631SOL    HW111792   1.939   0.981   4.071
 3631SOL    HW211793   1.902   0.825   4.103
 3632SOL     OW11794   5.085   6.348   6.098
 3632SOL    HW111795   5.097   6.249   6.095
 3632SOL    HW211796   5.147   6.391   6.032
 3633SOL     OW11797   0.749   2.595   5.718
 3633SOL    HW111798   0.691   2.523   5.678
 3633SOL    HW211799   0.694   2.650   5.782
 3634SOL     OW11800   2.743   4.544   6.573
 3634SOL    HW111801   2.754   4.462   6.629
 3634SOL    HW211802   2.653   4.584   6.588
 3635SOL     OW11803   2.059   1.925   4.306
 3635SOL    HW111804   2.130   1.956   4.243
 3635SOL    HW211805   2.047   1.826   4.298
 3636SOL     OW11806   0.922   6.850   1.396
 3636SOL    HW111807   0.827   6.819   1.401
 3636SOL    HW211808   0.982   6.785   1.443
 3637SOL     OW11809   5.066   1.306   2.561
 3637SOL    HW111810   4.982   1.358   2.550
 3637SOL    HW211811   5.064   1.256   2.647
 3638SOL     OW11812   6.883   4.662   3.181
 3638SOL    HW111813   6.913   4.725   3.110
 3638SOL    HW211814   6.962   4.622   3.226
 3639SOL     OW11815   2.867   6.385   6.864
 3639SOL    HW111816   2.777   6.426   6.880
 3639SOL    HW211817   2.894   6.400   6.770
 3640SOL     OW11818   2.379   6.583   2.177
 3640SOL    HW111819   2.328   6.639   2.243
 3640SOL    HW211820   2.369   6.486   2.200
 3641SOL     OW11821   2.005   1.356   5.251
 3641SOL    HW111822   2.010   1.301   5.335
 3641SOL    HW211823   2.000   1.295   5.172
 3642SOL     OW11824   6.216   7.022   2.473
 3642SOL    HW111825   6.134   0.041   2.514
 3642SOL    HW211826   6.250   6.951   2.534
 3643SOL     OW11827   3.745   6.904   3.913
 3643SOL    HW111828   3.839   6.889   3.944
 3643SOL    HW211829   3.698   6.964   3.977
 3644SOL     OW11830   5.939   0.206   1.909
 3644SOL    HW111831   5.983   0.129   1.954
 3644SOL    HW211832   5.960   0.290   1.958
 3645SOL     OW11833   4.596   5.953   3.738
 3645SOL    HW111834   4.518   5.925   3.794
 3645SOL    HW211835   4.672   5.979   3.797
 3646SOL     OW11836   0.719   5.319   5.449
 3646SOL    HW111837   0.712   5.222   5.425
 3646SOL    HW211838   0.799   5.359   5.406
 3647SOL     OW11839   3.138   2.713   0.832
 3647SOL    HW111840   3.137   2.813   0.822
 3647SOL    HW211841   3.046   2.678   0.817
 3648SOL     OW11842   2.818   6.444   3.406
 3648SOL    HW111843   2.809   6.454   3.307
 3648SOL    HW211844   2.901   6.392   3.427
 3649SOL     OW11845   3.263   2.995   3.056
 3649SOL    HW111846   3.308   2.962   3.140
 3649SOL    HW211847   3.270   2.924   2.985
 3650SOL     OW11848   5.517   6.264   1.641
 3650SOL    HW111849   5.518   6.170   1.609
 3650SOL    HW211850   5.611   6.292   1.665
 3651SOL     OW11851   1.702   5.420   1.660
 3651SOL    HW111852   1.745   5.467   1.583
 3651SOL    HW211853   1.612   5.460   1.676
 3652SOL     OW11854   4.204   6.538   3.683
 3652SOL    HW111855   4.233   6.608   3.618
 3652SOL    HW211856   4.132   6.482   3.641
 3653SOL     OW11857   0.152   3.267   3.497
 3653SOL    HW111858   0.251   3.269   3.486
 3653SOL    HW211859   0.121   3.172   3.505
 3654SOL     OW11860   2.010   6.976   2.102
 3654SOL    HW111861   2.058   0.040   2.112
 3654SOL    HW211862   2.073   6.908   2.063
 3655SOL     OW11863   6.497   1.071   3.594
 3655SOL    HW111864   6.455   0.985   3.563
 3655SOL    HW211865   6.596   1.061   3.594
 3656SOL     OW11866   2.293   1.777   2.884
 3656SOL    HW111867   2.225   1.727   2.938
 3656SOL    HW211868   2.298   1.739   2.792
 3657SOL     OW11869   5.600   5.216   1.511
 3657SOL    HW111870   5.579   5.285   1.581
 3657SOL    HW211871   5.582   5.125   1.548
 3658SOL     OW11872   2.910   4.543   5.503
 3658SOL    HW111873   2.872   4.624   5.459
 3658SOL    HW211874   2.965   4.492   5.437
 3659SOL     OW11875   1.709   4.010   6.409
 3659SOL    HW111876   1.748   4.100   6.390
 3659SOL    HW211877   1.640   4.019   6.482
 3660SOL     OW11878   4.753   3.779   0.775
 3660SOL    HW111879   4.779   3.743   0.864
 3660SOL    HW211880   4.697   3.861   0.786
 3661SOL     OW11881   5.474   1.113   1.734
 3661SOL    HW111882   5.537   1.100   1.658
 3661SOL    HW211883   5.420   1.030   1.747
 3662SOL     OW11884   1.132   6.848   4.208
 3662SOL    HW111885   1.119   6.865   4.111
 3662SOL    HW211886   1.185   6.765   4.221
 3663SOL     OW11887   2.352   2.278   5.993
 3663SOL    HW111888   2.414   2.305   5.919
 3663SOL    HW211889   2.283   2.215   5.957
 3664SOL     OW11890   3.712   0.498   2.510
 3664SOL    HW111891   3.790   0.540   2.465
 3664SOL    HW211892   3.628   0.526   2.465
 3665SOL     OW11893   2.404   1.465   5.323
 3665SOL    HW111894   2.368   1.511   5.242
 3665SOL    HW211895   2.355   1.497   5.404
 3666SOL     OW11896   0.794   4.581   2.976
 3666SOL    HW111897   0.782   4.676   3.002
 3666SOL    HW211898   0.704   4.539   2.961
 3667SOL     OW11899   6.991   1.401   0.114
 3667SOL    HW111900   6.909   1.442   0.153
 3667SOL    HW211901   6.996   1.304   0.140
 3668SOL     OW11902   1.838   6.640   1.798
 3668SOL    HW111903   1.937   6.649   1.790
 3668SOL    HW211904   1.800   6.725   1.836
 3669SOL     OW11905   5.511   1.554   4.281
 3669SOL    HW111906   5.597   1.592   4.315
 3669SOL    HW211907   5.519   1.535   4.183
 3670SOL     OW11908   3.240   4.881   5.964
 3670SOL    HW111909   3.199   4.893   6.054
 3670SOL    HW211910   3.251   4.970   5.920
 3671SOL     OW11911   2.017   1.364   3.389
 3671SOL    HW111912   2.012   1.268   3.417
 3671SOL    HW211913   1.946   1.382   3.321
 3672SOL     OW11914   6.396   6.299   0.141
 3672SOL    HW111915   6.461   6.234   0.180
 3672SOL    HW211916   6.354   6.352   0.215
 3673SOL     OW11917   4.316   0.050   6.388
 3673SOL    HW111918   4.270   0.036   6.300
 3673SOL    HW211919   4.324   0.148   6.406
 3674SOL     OW11920   1.019   6.152   0.940
 3674SOL    HW111921   1.091   6.188   0.998
 3674SOL    HW211922   0.930   6.179   0.976
 3675SOL     OW11923   2.257   2.369   4.042
 3675SOL    HW111924   2.306   2.439   4.095
 3675SOL    HW211925   2.175   2.409   4.001
 3676SOL     OW11926   1.704   5.355   2.568
 3676SOL    HW111927   1.734   5.315   2.482
 3676SOL    HW211928   1.604   5.356   2.572
 3677SOL     OW11929   5.872   0.742   3.569
 3677SOL    HW111930   5.919   0.757   3.481
 3677SOL    HW211931   5.874   0.826   3.622
 3678SOL     OW11932   0.732   2.697   4.210
 3678SOL    HW111933   0.634   2.717   4.213
 3678SOL    HW211934   0.780   2.774   4.168
 3679SOL     OW11935   6.169   1.393   2.051
 3679SOL    HW111936   6.139   1.374   2.145
 3679SOL    HW211937   6.262   1.429   2.053
 3680SOL     OW11938   6.157   4.513   4.679
 3680SOL    HW111939   6.109   4.432   4.714
 3680SOL    HW211940   6.139   4.523   4.582
 3681SOL     OW11941   5.497   0.395   5.610
 3681SOL    HW111942   5.515   0.472   5.548
 3681SOL    HW211943   5.399   0.384   5.621
 3682SOL     OW11944   6.969   1.812   0.229
 3682SOL    HW111945   6.978   1.894   0.284
 3682SOL    HW211946   0.031   1.761   0.229
 3683SOL     OW11947   5.173   6.508   3.151
 3683SOL    HW111948   5.086   6.557   3.158
 3683SOL    HW211949   5.220   6.510   3.239
 3684SOL     OW11950   2.319   4.117   1.832
 3684SOL    HW111951   2.377   4.198   1.844
 3684SOL    HW211952   2.223   4.144   1.832
 3685SOL     OW11953   5.246   5.821   5.523
 3685SOL    HW111954   5.322   5.807   5.587
 3685SOL    HW211955   5.276   5.882   5.450
 3686SOL     OW11956   0.299   4.145   0.448
 3686SOL    HW111957   0.212   4.097   0.450
 3686SOL    HW211958   0.310   4.198   0.533
 3687SOL     OW11959   4.229   1.032   0.485
 3687SOL    HW111960   4.156   1.026   0.417
 3687SOL    HW211961   4.305   0.972   0.457
 3688SOL     OW11962   0.284   3.467   0.394
 3688SOL    HW111963   0.192   3.457   0.358
 3688SOL    HW211964   0.281   3.478   0.493
 3689SOL     OW11965   1.920   6.308   3.803
 3689SOL    HW111966   1.910   6.209   3.797
 3689SOL    HW211967   1.857   6.344   3.872
 3690SOL     OW11968   4.837   4.772   5.736
 3690SOL    HW111969   4.847   4.867   5.706
 3690SOL    HW211970   4.917   4.720   5.707
 3691SOL     OW11971   3.435   2.871   6.146
 3691SOL    HW111972   3.367   2.803   6.174
 3691SOL    HW211973   3.524   2.847   6.186
 3692SOL     OW11974   0.057   0.219   5.230
 3692SOL    HW111975   0.141   0.269   5.254
 3692SOL    HW211976   7.012   0.284   5.197
 3693SOL     OW11977   1.138   1.415   3.839
 3693SOL    HW111978   1.073   1.339   3.836
 3693SOL    HW211979   1.231   1.380   3.842
 3694SOL     OW11980   1.940   5.009   3.842
 3694SOL    HW111981   1.870   4.976   3.905
 3694SOL    HW211982   1.957   5.106   3.860
 3695SOL     OW11983   2.091   2.420   0.223
 3695SOL    HW111984   1.996   2.408   0.194
 3695SOL    HW211985   2.105   2.514   0.253
 3696SOL     OW11986   3.149   6.156   5.394
 3696SOL    HW111987   3.132   6.090   5.467
 3696SOL    HW211988   3.203   6.113   5.321
 3697SOL     OW11989   5.127   1.237   3.706
 3697SOL    HW111990   5.056   1.177   3.668
 3697SOL    HW211991   5.204   1.181   3.738
 3698SOL     OW11992   3.117   6.820   6.129
 3698SOL    HW111993   3.217   6.816   6.128
 3698SOL    HW211994   3.080   6.728   6.128
 3699SOL     OW11995   1.124   5.345   2.434
 3699SOL    HW111996   1.103   5.384   2.344
 3699SOL    HW211997   1.220   5.318   2.436
 3700SOL     OW11998   6.360   0.459   3.346
 3700SOL    HW111999   6.401   0.510   3.270
 3700SOL    HW212000   6.386   0.502   3.433
 3701SOL     OW12001   4.595   1.262   3.965
 3701SOL    HW112002   4.556   1.210   3.889
 3701SOL    HW212003   4.590   1.207   4.048
 3702SOL     OW12004   4.953   1.098   6.350
 3702SOL    HW112005   5.019   1.173   6.357
 3702SOL    HW212006   4.946   1.069   6.254
 3703SOL     OW12007   4.150   4.576   0.996
 3703SOL    HW112008   4.218   4.537   0.934
 3703SOL    HW212009   4.097   4.646   0.948
 3704SOL     OW12010   3.297   6.167   1.185
 3704SOL    HW112011   3.209   6.121   1.193
 3704SOL    HW212012   3.287   6.248   1.127
 3705SOL     OW12013   6.911   0.916   4.136
 3705SOL    HW112014   6.818   0.946   4.115
 3705SOL    HW212015   6.930   0.831   4.086
 3706SOL     OW12016   2.741   1.920   3.285
 3706SOL    HW112017   2.655   1.936   3.235
 3706SOL    HW212018   2.799   2.001   3.276
 3707SOL     OW12019   4.323   2.315   5.550
 3707SOL    HW112020   4.381   2.351   5.623
 3707SOL    HW212021   4.379   2.268   5.483
 3708SOL     OW12022   6.731   0.709   0.391
 3708SOL    HW112023   6.777   0.640   0.447
 3708SOL    HW212024   6.683   0.665   0.315
 3709SOL     OW12025   6.931   6.618   6.665
 3709SOL    HW112026   6.862   6.677   6.622
 3709SOL    HW212027   6.968   6.555   6.597
 3710SOL     OW12028   0.744   5.303   6.498
 3710SOL    HW112029   0.815   5.354   6.449
 3710SOL    HW212030   0.787   5.248   6.570
 3711SOL     OW12031   6.728   5.707   1.997
 3711SOL    HW112032   6.803   5.721   2.062
 3711SOL    HW212033   6.645   5.748   2.033
 3712SOL     OW12034   1.563   6.696   6.766
 3712SOL    HW112035   1.639   6.663   6.823
 3712SOL    HW212036   1.582   6.789   6.735
 3713SOL     OW12037   3.592   5.048   6.080
 3713SOL    HW112038   3.524   5.021   6.149
 3713SOL    HW212039   3.679   5.003   6.098
 3714SOL     OW12040   4.537   2.013   5.184
 3714SOL    HW112041   4.571   1.955   5.258
 3714SOL    HW212042   4.574   1.980   5.097
 3715SOL     OW12043   4.837   4.042   3.474
 3715SOL    HW112044   4.819   3.999   3.563
 3715SOL    HW212045   4.795   4.133   3.473
 3716SOL     OW12046   1.143   1.128   4.637
 3716SOL    HW112047   1.193   1.057   4.687
 3716SOL    HW212048   1.115   1.092   4.548
 3717SOL     OW12049   5.882   0.741   6.807
 3717SOL    HW112050   5.979   0.757   6.822
 3717SOL    HW212051   5.866   0.645   6.786
 3718SOL     OW12052   0.943   6.347   6.548
 3718SOL    HW112053   1.012   6.420   6.543
 3718SOL    HW212054   0.864   6.373   6.493
 3719SOL     OW12055   3.203   4.248   0.453
 3719SOL    HW112056   3.223   4.305   0.373
 3719SOL    HW212057   3.234   4.295   0.535
 3720SOL     OW12058   6.991   1.102   6.408
 3720SOL    HW112059   6.972   1.017   6.458
 3720SOL    HW212060   0.064   1.103   6.380
 3721SOL     OW12061   4.828   3.022   0.293
 3721SOL    HW112062   4.731   3.020   0.316
 3721SOL    HW212063   4.868   3.108   0.325
 3722SOL     OW12064   4.582   5.972   0.979
 3722SOL    HW112065   4.603   6.063   1.015
 3722SOL    HW212066   4.501   5.977   0.921
 3723SOL     OW12067   4.774   1.117   0.706
 3723SOL    HW112068   4.817   1.205   0.724
 3723SOL    HW212069   4.727   1.085   0.788
 3724SOL     OW12070   0.658   4.520   5.986
 3724SOL    HW112071   0.653   4.557   5.894
 3724SOL    HW212072   0.602   4.438   5.993
 3725SOL     OW12073   5.246   6.180   1.483
 3725SOL    HW112074   5.256   6.275   1.514
 3725SOL    HW212075   5.331   6.131   1.498
 3726SOL     OW12076   6.445   3.245   1.538
 3726SOL    HW112077   6.439   3.307   1.460
 3726SOL    HW212078   6.360   3.194   1.548
 3727SOL     OW12079   2.748   2.788   5.473
 3727SOL    HW112080   2.763   2.697   5.512
 3727SOL    HW212081   2.821   2.808   5.407
 3728SOL     OW12082   0.723   4.244   6.358
 3728SOL    HW112083   0.713   4.156   6.312
 3728SOL    HW212084   0.648   4.304   6.331
 3729SOL     OW12085   1.114   3.152   3.908
 3729SOL    HW112086   1.099   3.053   3.901
 3729SOL    HW212087   1.036   3.194   3.954
 3730SOL     OW12088   1.997   6.999   1.422
 3730SOL    HW112089   2.056   6.919   1.415
 3730SOL    HW212090   2.040   0.053   1.376
 3731SOL     OW12091   2.555   5.760   0.364
 3731SOL    HW112092   2.535   5.708   0.281
 3731SOL    HW212093   2.531   5.705   0.444
 3732SOL     OW12094   2.112   3.604   4.606
 3732SOL    HW112095   2.128   3.677   4.539
 3732SOL    HW212096   2.150   3.518   4.571
 3733SOL     OW12097   3.073   3.317   1.718
 3733SOL    HW112098   3.172   3.319   1.730
 3733SOL    HW212099   3.051   3.268   1.633
 3734SOL     OW12100   3.921   1.306   3.138
 3734SOL    HW112101   3.847   1.341   3.196
 3734SOL    HW212102   3.888   1.228   3.085
 3735SOL     OW12103   3.951   2.133   1.923
 3735SOL    HW112104   3.949   2.035   1.939
 3735SOL    HW212105   3.872   2.176   1.968
 3736SOL     OW12106   4.872   0.881   5.916
 3736SOL    HW112107   4.877   0.939   5.835
 3736SOL    HW212108   4.912   0.792   5.897
 3737SOL     OW12109   3.143   0.056   3.619
 3737SOL    HW112110   3.079   0.122   3.658
 3737SOL    HW212111   3.233   0.069   3.660
 3738SOL     OW12112   0.139   0.774   4.501
 3738SOL    HW112113   0.111   0.775   4.597
 3738SOL    HW212114   0.183   0.861   4.478
 3739SOL     OW12115   0.366   3.237   0.946
 3739SOL    HW112116   0.363   3.190   0.858
 3739SOL    HW212117   0.373   3.170   1.020
 3740SOL     OW12118   5.622   6.714   0.092
 3740SOL    HW112119   5.606   6.755   0.002
 3740SOL    HW212120   5.696   6.763   0.138
 3741SOL     OW12121   3.910   1.481   0.071
 3741SOL    HW112122   3.814   1.477   0.098
 3741SOL    HW212123   3.925   1.422   7.016
 3742SOL     OW12124   3.725   3.544   6.148
 3742SOL    HW112125   3.806   3.602   6.154
 3742SOL    HW212126   3.648   3.597   6.112
 3743SOL     OW12127   0.771   5.993   5.950
 3743SOL    HW112128   0.849   6.002   6.013
 3743SOL    HW212129   0.686   5.999   6.001
 3744SOL     OW12130   6.668   4.875   3.049
 3744SOL    HW112131   6.605   4.801   3.072
 3744SOL    HW212132   6.676   4.881   2.950
 3745SOL     OW12133   5.015   4.756   1.090
 3745SOL    HW112134   4.960   4.713   1.019
 3745SOL    HW212135   5.016   4.855   1.076
 3746SOL     OW12136   3.931   1.466   1.450
 3746SOL    HW112137   3.933   1.565   1.432
 3746SOL    HW212138   3.880   1.420   1.377
 3747SOL     OW12139   2.444   6.736   1.263
 3747SOL    HW112140   2.431   6.701   1.170
 3747SOL    HW212141   2.522   6.798   1.264
 3748SOL     OW12142   5.923   0.333   1.644
 3748SOL    HW112143   5.996   0.401   1.634
 3748SOL    HW212144   5.942   0.275   1.722
 3749SOL     OW12145   0.988   0.635   4.074
 3749SOL    HW112146   0.938   0.692   4.139
 3749SOL    HW212147   0.978   0.672   3.982
 3750SOL     OW12148   0.671   3.926   6.824
 3750SOL    HW112149   0.681   3.913   6.923
 3750SOL    HW212150   0.666   4.023   6.803
 3751SOL     OW12151   1.949   5.269   1.728
 3751SOL    HW112152   1.962   5.229   1.638
 3751SOL    HW212153   1.853   5.298   1.739
 3752SOL     OW12154   5.336   5.638   6.861
 3752SOL    HW112155   5.323   5.655   6.959
 3752SOL    HW212156   5.260   5.679   6.810
 3753SOL     OW12157   6.900   0.737   3.436
 3753SOL    HW112158   6.965   0.812   3.444
 3753SOL    HW212159   6.857   0.739   3.345
 3754SOL     OW12160   3.874   1.729   1.410
 3754SOL    HW112161   3.855   1.817   1.366
 3754SOL    HW212162   3.788   1.686   1.436
 3755SOL     OW12163   2.458   5.512   4.144
 3755SOL    HW112164   2.371   5.556   4.163
 3755SOL    HW212165   2.533   5.568   4.178
 3756SOL     OW12166   1.370   6.264   0.686
 3756SOL    HW112167   1.398   6.207   0.764
 3756SOL    HW212168   1.443   6.326   0.661
 3757SOL     OW12169   0.681   5.151   0.111
 3757SOL    HW112170   0.630   5.136   0.026
 3757SOL    HW212171   0.704   5.063   0.153
 3758SOL     OW12172   0.302   6.000   4.347
 3758SOL    HW112173   0.227   6.066   4.349
 3758SOL    HW212174   0.301   5.950   4.261
 3759SOL     OW12175   4.579   0.876   3.966
 3759SOL    HW112176   4.578   0.920   4.056
 3759SOL    HW212177   4.674   0.862   3.937
 3760SOL     OW12178   0.647   0.829   3.417
 3760SOL    HW112179   0.728   0.888   3.425
 3760SOL    HW212180   0.674   0.734   3.425
 3761SOL     OW12181   4.487   1.255   4.947
 3761SOL    HW112182   4.476   1.287   4.853
 3761SOL    HW212183   4.488   1.333   5.009
 3762SOL     OW12184   0.318   2.503   3.697
 3762SOL    HW112185   0.390   2.455   3.648
 3762SOL    HW212186   0.229   2.462   3.676
 3763SOL     OW12187   0.866   6.395   6.962
 3763SOL    HW112188   0.965   6.412   6.956
 3763SOL    HW212189   0.841   6.381   0.034
 3764SOL     OW12190   3.631   1.764   2.533
 3764SOL    HW112191   3.558   1.746   2.600
 3764SOL    HW212192   3.608   1.718   2.447
 3765SOL     OW12193   5.698   3.900   2.481
 3765SOL    HW112194   5.673   3.991   2.513
 3765SOL    HW212195   5.697   3.836   2.557
 3766SOL     OW12196   2.144   3.059   2.058
 3766SOL    HW112197   2.111   3.134   2.116
 3766SOL    HW212198   2.171   2.982   2.116
 3767SOL     OW12199   1.609   6.090   6.003
 3767SOL    HW112200   1.683   6.029   6.031
 3767SOL    HW212201   1.640   6.184   6.007
 3768SOL     OW12202   1.997   6.936   3.565
 3768SOL    HW112203   1.936   7.001   3.612
 3768SOL    HW212204   2.032   6.869   3.631
 3769SOL     OW12205   5.173   4.799   5.731
 3769SOL    HW112206   5.138   4.849   5.810
 3769SOL    HW212207   5.219   4.863   5.669
 3770SOL     OW12208   2.850   6.391   0.669
 3770SOL    HW112209   2.924   6.384   0.603
 3770SOL    HW212210   2.887   6.410   0.760
 3771SOL     OW12211   6.478   6.225   6.177
 3771SOL    HW112212   6.562   6.178   6.148
 3771SOL    HW212213   6.401   6.192   6.122
 3772SOL     OW12214   3.266   5.900   1.912
 3772SOL    HW112215   3.272   5.871   1.816
 3772SOL    HW212216   3.260   6.000   1.915
 3773SOL     OW12217   5.041   4.236   6.629
 3773SOL    HW112218   5.031   4.139   6.652
 3773SOL    HW212219   5.127   4.271   6.666
 3774SOL     OW12220   6.740   4.614   0.944
 3774SOL    HW112221   6.800   4.593   1.021
 3774SOL    HW212222   6.646   4.620   0.976
 3775SOL     OW12223   5.359   6.695   4.954
 3775SOL    HW112224   5.327   6.626   5.019
 3775SOL    HW212225   5.455   6.678   4.932
 3776SOL     OW12226   4.888   2.608   6.626
 3776SOL    HW112227   4.817   2.566   6.569
 3776SOL    HW212228   4.889   2.563   6.715
 3777SOL     OW12229   3.538   5.170   3.281
 3777SOL    HW112230   3.550   5.093   3.343
 3777SOL    HW212231   3.441   5.187   3.266
 3778SOL     OW12232   2.968   5.515   6.563
 3778SOL    HW112233   2.883   5.504   6.511
 3778SOL    HW212234   3.020   5.591   6.525
 3779SOL     OW12235   0.164   4.843   5.870
 3779SOL    HW112236   0.200   4.753   5.897
 3779SOL    HW212237   0.099   4.874   5.939
 3780SOL     OW12238   6.009   2.070   2.020
 3780SOL    HW112239   6.088   2.009   2.011
 3780SOL    HW212240   5.925   2.018   2.005
 3781SOL     OW12241   1.281   6.987   5.868
 3781SOL    HW112242   1.259   0.005   5.780
 3781SOL    HW212243   1.375   7.011   5.893
 3782SOL     OW12244   3.552   5.195   6.816
 3782SOL    HW112245   3.593   5.245   6.893
 3782SOL    HW212246   3.623   5.164   6.754
 3783SOL     OW12247   4.698   5.148   5.263
 3783SOL    HW112248   4.739   5.233   5.299
 3783SOL    HW212249   4.612   5.131   5.310
 3784SOL     OW12250   5.396   3.511   4.311
 3784SOL    HW112251   5.336   3.474   4.240
 3784SOL    HW212252   5.405   3.610   4.299
 3785SOL     OW12253   0.601   3.394   2.551
 3785SOL    HW112254   0.670   3.441   2.606
 3785SOL    HW212255   0.617   3.412   2.454
 3786SOL     OW12256   2.800   3.041   5.864
 3786SOL    HW112257   2.882   3.056   5.808
 3786SOL    HW212258   2.771   2.946   5.855
 3787SOL     OW12259   4.821   5.974   5.164
 3787SOL    HW112260   4.757   6.042   5.197
 3787SOL    HW212261   4.847   5.995   5.070
 3788SOL     OW12262   5.808   3.054   6.206
 3788SOL    HW112263   5.832   3.003   6.124
 3788SOL    HW212264   5.710   3.076   6.204
 3789SOL     OW12265   1.927   4.152   1.062
 3789SOL    HW112266   1.890   4.094   0.991
 3789SOL    HW212267   2.027   4.153   1.056
 3790SOL     OW12268   1.979   6.967   1.709
 3790SOL    HW112269   1.990   6.971   1.609
 3790SOL    HW212270   1.886   6.994   1.733
 3791SOL     OW12271   4.896   0.718   4.352
 3791SOL    HW112272   4.969   0.652   4.366
 3791SOL    HW212273   4.911   0.767   4.266
 3792SOL     OW12274   6.332   0.298   3.084
 3792SOL    HW112275   6.316   0.286   3.182
 3792SOL    HW212276   6.420   0.345   3.070
 3793SOL     OW12277   4.920   3.444   0.188
 3793SOL    HW112278   4.987   3.488   0.128
 3793SOL    HW212279   4.844   3.410   0.133
 3794SOL     OW12280   1.445   5.188   5.676
 3794SOL    HW112281   1.439   5.276   5.722
 3794SOL    HW212282   1.536   5.178   5.636
 3795SOL     OW12283   3.328   6.021   0.780
 3795SOL    HW112284   3.368   6.094   0.726
 3795SOL    HW212285   3.383   5.938   0.771
 3796SOL     OW12286   5.292   0.678   6.926
 3796SOL    HW112287   5.262   0.683   7.022
 3796SOL    HW212288   5.213   0.655   6.868
 3797SOL     OW12289   6.960   2.679   1.151
 3797SOL    HW112290   6.923   2.677   1.244
 3797SOL    HW212291   6.903   2.736   1.093
 3798SOL     OW12292   0.324   4.613   4.158
 3798SOL    HW112293   0.236   4.575   4.130
 3798SOL    HW212294   0.389   4.538   4.174
 3799SOL     OW12295   6.542   1.668   2.428
 3799SOL    HW112296   6.585   1.714   2.506
 3799SOL    HW212297   6.612   1.644   2.361
 3800SOL     OW12298   5.256   3.403   2.180
 3800SOL    HW112299   5.216   3.368   2.096
 3800SOL    HW212300   5.348   3.437   2.162
 3801SOL     OW12301   5.811   1.279   1.224
 3801SOL    HW112302   5.747   1.205   1.243
 3801SOL    HW212303   5.904   1.249   1.245
 3802SOL     OW12304   6.447   3.808   2.941
 3802SOL    HW112305   6.363   3.771   2.902
 3802SOL    HW212306   6.432   3.832   3.037
 3803SOL     OW12307   3.852   4.209   6.207
 3803SOL    HW112308   3.809   4.300   6.204
 3803SOL    HW212309   3.820   4.156   6.128
 3804SOL     OW12310   3.163   5.851   2.933
 3804SOL    HW112311   3.177   5.765   2.982
 3804SOL    HW212312   3.244   5.872   2.877
 3805SOL     OW12313   2.578   1.828   6.645
 3805SOL    HW112314   2.669   1.824   6.604
 3805SOL    HW212315   2.519   1.758   6.604
 3806SOL     OW12316   1.855   3.629   2.057
 3806SOL    HW112317   1.778   3.655   2.115
 3806SOL    HW212318   1.923   3.580   2.112
 3807SOL     OW12319   0.463   4.212   3.816
 3807SOL    HW112320   0.480   4.310   3.804
 3807SOL    HW212321   0.548   4.161   3.799
 3808SOL     OW12322   2.977   6.413   5.890
 3808SOL    HW112323   3.037   6.356   5.835
 3808SOL    HW212324   2.981   6.508   5.856
 3809SOL     OW12325   5.081   1.141   1.517
 3809SOL    HW112326   5.037   1.054   1.494
 3809SOL    HW212327   5.153   1.160   1.451
 3810SOL     OW12328   5.023   2.193   3.601
 3810SOL    HW112329   5.109   2.147   3.621
 3810SOL    HW212330   4.957   2.173   3.674
 3811SOL     OW12331   0.158   5.930   5.046
 3811SOL    HW112332   0.212   5.855   5.007
 3811SOL    HW212333   0.140   5.912   5.142
 3812SOL     OW12334   4.074   5.809   0.203
 3812SOL    HW112335   4.018   5.808   0.120
 3812SOL    HW212336   4.096   5.715   0.230
 3813SOL     OW12337   6.411   3.057   6.901
 3813SOL    HW112338   6.382   3.146   6.937
 3813SOL    HW212339   6.443   3.069   6.807
 3814SOL     OW12340   6.896   0.402   5.137
 3814SOL    HW112341   6.896   0.484   5.080
 3814SOL    HW212342   6.854   0.423   5.225
 3815SOL     OW12343   4.891   2.098   5.275
 3815SOL    HW112344   4.811   2.147   5.242
 3815SOL    HW212345   4.864   2.006   5.304
 3816SOL     OW12346   6.760   6.512   1.613
 3816SOL    HW112347   6.845   6.463   1.595
 3816SOL    HW212348   6.781   6.598   1.659
 3817SOL     OW12349   3.868   3.906   2.525
 3817SOL    HW112350   3.794   3.972   2.516
 3817SOL    HW212351   3.920   3.925   2.609
 3818SOL     OW12352   4.291   5.485   2.648
 3818SOL    HW112353   4.299   5.408   2.711
 3818SOL    HW212354   4.253   5.453   2.561
 3819SOL     OW12355   6.257   3.467   3.143
 3819SOL    HW112356   6.250   3.509   3.233
 3819SOL    HW212357   6.197   3.515   3.079
 3820SOL     OW12358   2.823   6.452   6.278
 3820SOL    HW112359   2.838   6.405   6.192
 3820SOL    HW212360   2.745   6.515   6.268
 3821SOL     OW12361   1.722   6.648   1.291
 3821SOL    HW112362   1.627   6.669   1.315
 3821SOL    HW212363   1.737   6.549   1.297
 3822SOL     OW12364   5.972   6.883   1.584
 3822SOL    HW112365   5.961   6.854   1.679
 3822SOL    HW212366   5.986   6.803   1.526
 3823SOL     OW12367   5.333   6.089   4.770
 3823SOL    HW112368   5.420   6.079   4.722
 3823SOL    HW212369   5.312   6.187   4.780
 3824SOL     OW12370   1.844   2.544   0.500
 3824SOL    HW112371   1.859   2.556   0.402
 3824SOL    HW212372   1.764   2.597   0.529
 3825SOL     OW12373   0.394   4.845   5.722
 3825SOL    HW112374   0.304   4.865   5.761
 3825SOL    HW212375   0.464   4.850   5.793
 3826SOL     OW12376   4.821   3.954   3.731
 3826SOL    HW112377   4.912   3.929   3.698
 3826SOL    HW212378   4.789   3.886   3.797
 3827SOL     OW12379   0.587   1.447   6.837
 3827SOL    HW112380   0.677   1.445   6.794
 3827SOL    HW212381   0.577   1.369   6.898
 3828SOL     OW12382   3.378   3.965   5.250
 3828SOL    HW112383   3.367   4.059   5.216
 3828SOL    HW212384   3.328   3.955   5.336
 3829SOL     OW12385   6.858   2.952   1.563
 3829SOL    HW112386   6.767   2.986   1.585
 3829SOL    HW212387   6.863   2.854   1.583
 3830SOL     OW12388   5.337   6.948   3.586
 3830SOL    HW112389   5.339   0.024   3.596
 3830SOL    HW212390   5.374   6.922   3.497
 3831SOL     OW12391   5.194   2.482   3.967
 3831SOL    HW112392   5.294   2.483   3.960
 3831SOL    HW212393   5.155   2.500   3.876
 3832SOL     OW12394   6.325   1.147   3.814
 3832SOL    HW112395   6.382   1.148   3.732
 3832SOL    HW212396   6.265   1.227   3.813
 3833SOL     OW12397   1.774   2.919   5.859
 3833SOL    HW112398   1.734   2.952   5.945
 3833SOL    HW212399   1.866   2.884   5.876
 3834SOL     OW12400   5.068   5.153   0.705
 3834SOL    HW112401   5.134   5.174   0.777
 3834SOL    HW212402   5.109   5.090   0.640
 3835SOL     OW12403   4.585   5.219   4.596
 3835SOL    HW112404   4.633   5.209   4.509
 3835SOL    HW212405   4.523   5.297   4.591
 3836SOL     OW12406   0.158   0.065   4.409
 3836SOL    HW112407   0.219   0.062   4.488
 3836SOL    HW212408   0.116   0.155   4.402
 3837SOL     OW12409   5.145   3.950   5.407
 3837SOL    HW112410   5.064   3.916   5.455
 3837SOL    HW212411   5.158   3.898   5.322
 3838SOL     OW12412   6.870   1.362   3.851
 3838SOL    HW112413   6.896   1.346   3.946
 3838SOL    HW212414   6.947   1.403   3.802
 3839SOL     OW12415   4.362   1.627   3.755
 3839SOL    HW112416   4.459   1.643   3.738
 3839SOL    HW212417   4.309   1.658   3.675
 3840SOL     OW12418   3.810   1.201   6.435
 3840SOL    HW112419   3.771   1.279   6.386
 3840SOL    HW212420   3.778   1.202   6.530
 3841SOL     OW12421   5.653   4.368   2.945
 3841SOL    HW112422   5.695   4.435   3.006
 3841SOL    HW212423   5.586   4.314   2.995
 3842SOL     OW12424   1.705   3.903   5.149
 3842SOL    HW112425   1.649   3.835   5.197
 3842SOL    HW212426   1.739   3.864   5.064
 3843SOL     OW12427   5.964   2.288   6.381
 3843SOL    HW112428   6.042   2.351   6.375
 3843SOL    HW212429   5.879   2.340   6.374
 3844SOL     OW12430   6.352   6.539   0.313
 3844SOL    HW112431   6.443   6.515   0.280
 3844SOL    HW212432   6.351   6.634   0.344
 3845SOL     OW12433   2.211   5.379   6.951
 3845SOL    HW112434   2.116   5.385   6.980
 3845SOL    HW212435   2.216   5.329   6.864
 3846SOL     OW12436   6.728   3.298   2.750
 3846SOL    HW112437   6.826   3.291   2.767
 3846SOL    HW212438   6.679   3.239   2.814
 3847SOL     OW12439   1.045   0.876   6.851
 3847SOL    HW112440   1.010   0.799   6.904
 3847SOL    HW212441   1.022   0.962   6.898
 3848SOL     OW12442   6.325   4.935   2.091
 3848SOL    HW112443   6.409   4.883   2.105
 3848SOL    HW212444   6.252   4.873   2.063
 3849SOL     OW12445   0.225   3.260   5.582
 3849SOL    HW112446   0.208   3.216   5.670
 3849SOL    HW212447   0.141   3.301   5.548
 3850SOL     OW12448   3.147   2.878   1.457
 3850SOL    HW112449   3.116   2.842   1.545
 3850SOL    HW212450   3.108   2.823   1.383
 3851SOL     OW12451   0.141   5.727   2.527
 3851SOL    HW112452   0.077   5.802   2.509
 3851SOL    HW212453   0.224   5.764   2.570
 3852SOL     OW12454   2.773   0.947   5.087
 3852SOL    HW112455   2.865   0.913   5.071
 3852SOL    HW212456   2.727   0.888   5.154
 3853SOL     OW12457   2.230   0.980   3.006
 3853SOL    HW112458   2.166   1.035   3.060
 3853SOL    HW212459   2.260   0.901   3.060
 3854SOL     OW12460   0.395   1.954   1.623
 3854SOL    HW112461   0.490   1.947   1.651
 3854SOL    HW212462   0.337   1.965   1.704
 3855SOL     OW12463   3.195   6.182   6.587
 3855SOL    HW112464   3.167   6.150   6.496
 3855SOL    HW212465   3.122   6.165   6.652
 3856SOL     OW12466   6.750   2.656   6.523
 3856SOL    HW112467   6.737   2.610   6.435
 3856SOL    HW212468   6.668   2.707   6.546
 3857SOL     OW12469   1.614   0.256   6.410
 3857SOL    HW112470   1.554   0.336   6.410
 3857SOL    HW212471   1.703   0.281   6.449
 3858SOL     OW12472   4.008   1.426   5.313
 3858SOL    HW112473   3.978   1.380   5.229
 3858SOL    HW212474   4.056   1.361   5.371
 3859SOL     OW12475   5.791   0.050   2.151
 3859SOL    HW112476   5.875   0.082   2.194
 3859SOL    HW212477   5.729   0.128   2.139
 3860SOL     OW12478   1.570   6.452   4.550
 3860SOL    HW112479   1.472   6.473   4.544
 3860SOL    HW212480   1.621   6.537   4.566
 3861SOL     OW12481   3.085   5.577   2.446
 3861SOL    HW112482   3.149   5.636   2.494
 3861SOL    HW212483   3.135   5.499   2.407
 3862SOL     OW12484   1.698   0.554   4.278
 3862SOL    HW112485   1.704   0.627   4.345
 3862SOL    HW212486   1.723   0.589   4.188
 3863SOL     OW12487   4.395   0.734   1.122
 3863SOL    HW112488   4.387   0.659   1.188
 3863SOL    HW212489   4.422   0.817   1.171
 3864SOL     OW12490   0.773   0.091   4.248
 3864SOL    HW112491   0.741   0.027   4.178
 3864SOL    HW212492   0.872   0.103   4.240
 3865SOL     OW12493   5.165   0.793   0.555
 3865SOL    HW112494   5.161   0.794   0.655
 3865SOL    HW212495   5.131   0.880   0.520
 3866SOL     OW12496   3.415   0.624   6.676
 3866SOL    HW112497   3.426   0.627   6.775
 3866SOL    HW212498   3.392   0.716   6.642
 3867SOL     OW12499   6.219   3.439   2.181
 3867SOL    HW112500   6.273   3.508   2.134
 3867SOL    HW212501   6.267   3.409   2.263
 3868SOL     OW12502   3.903   0.141   0.076
 3868SOL    HW112503   3.943   0.193   0.000
 3868SOL    HW212504   3.970   0.131   0.149
 3869SOL     OW12505   3.519   1.083   4.211
 3869SOL    HW112506   3.598   1.103   4.269
 3869SOL    HW212507   3.486   0.990   4.231
 3870SOL     OW12508   0.315   1.429   5.513
 3870SOL    HW112509   0.318   1.520   5.472
 3870SOL    HW212510   0.359   1.363   5.452
 3871SOL     OW12511   2.867   5.029   3.766
 3871SOL    HW112512   2.908   5.042   3.856
 3871SOL    HW212513   2.812   5.109   3.743
 3872SOL     OW12514   3.022   4.032   5.228
 3872SOL    HW112515   2.998   3.958   5.165
 3872SOL    HW212516   2.939   4.061   5.276
 3873SOL     OW12517   4.902   1.786   6.762
 3873SOL    HW112518   4.980   1.728   6.789
 3873SOL    HW212519   4.859   1.824   6.843
 3874SOL     OW12520   2.376   1.497   1.590
 3874SOL    HW112521   2.381   1.554   1.509
 3874SOL    HW212522   2.319   1.417   1.570
 3875SOL     OW12523   1.118   1.262   6.676
 3875SOL    HW112524   1.203   1.226   6.637
 3875SOL    HW212525   1.048   1.268   6.604
 3876SOL     OW12526   3.511   5.342   2.523
 3876SOL    HW112527   3.553   5.253   2.505
 3876SOL    HW212528   3.569   5.394   2.586
 3877SOL     OW12529   0.771   1.626   5.439
 3877SOL    HW112530   0.794   1.719   5.412
 3877SOL    HW212531   0.702   1.629   5.512
 3878SOL     OW12532   4.861   1.410   4.914
 3878SOL    HW112533   4.821   1.367   4.832
 3878SOL    HW212534   4.811   1.380   4.995
 3879SOL     OW12535   5.031   5.528   0.030
 3879SOL    HW112536   4.952   5.560   0.082
 3879SOL    HW212537   5.066   5.602   6.998
 3880SOL     OW12538   4.998   4.595   4.126
 3880SOL    HW112539   4.934   4.657   4.172
 3880SOL    HW212540   5.091   4.617   4.155
 3881SOL     OW12541   1.285   3.029   0.026
 3881SOL    HW112542   1.333   2.958   6.997
 3881SOL    HW212543   1.260   3.104   6.989
 3882SOL     OW12544   0.389   1.749   5.797
 3882SOL    HW112545   0.455   1.791   5.859
 3882SOL    HW212546   0.315   1.707   5.850
 3883SOL     OW12547   4.441   6.263   4.168
 3883SOL    HW112548   4.443   6.187   4.233
 3883SOL    HW212549   4.357   6.259   4.114
 3884SOL     OW12550   0.329   3.250   2.095
 3884SOL    HW112551   0.230   3.258   2.105
 3884SOL    HW212552   0.374   3.292   2.175
 3885SOL     OW12553   4.350   5.781   1.586
 3885SOL    HW112554   4.339   5.830   1.672
 3885SOL    HW212555   4.387   5.690   1.605
 3886SOL     OW12556   3.011   5.446   6.033
 3886SOL    HW112557   2.968   5.409   5.951
 3886SOL    HW212558   2.944   5.450   6.107
 3887SOL     OW12559   1.938   5.266   2.045
 3887SOL    HW112560   1.951   5.364   2.029
 3887SOL    HW212561   2.028   5.221   2.051
 3888SOL     OW12562   5.400   4.955   3.985
 3888SOL    HW112563   5.308   4.970   3.949
 3888SOL    HW212564   5.400   4.871   4.040
 3889SOL     OW12565   5.497   4.095   0.315
 3889SOL    HW112566   5.529   4.188   0.337
 3889SOL    HW212567   5.552   4.059   0.240
 3890SOL     OW12568   5.306   3.612   3.936
 3890SOL    HW112569   5.276   3.539   3.998
 3890SOL    HW212570   5.347   3.572   3.855
 3891SOL     OW12571   4.923   5.427   3.881
 3891SOL    HW112572   4.851   5.495   3.891
 3891SOL    HW212573   5.006   5.460   3.926
 3892SOL     OW12574   6.757   2.019   1.436
 3892SOL    HW112575   6.800   2.003   1.347
 3892SOL    HW212576   6.791   2.105   1.474
 3893SOL     OW12577   4.100   3.272   3.798
 3893SOL    HW112578   4.025   3.222   3.841
 3893SOL    HW212579   4.107   3.246   3.702
 3894SOL     OW12580   4.323   0.755   5.816
 3894SOL    HW112581   4.282   0.829   5.869
 3894SOL    HW212582   4.269   0.739   5.734
 3895SOL     OW12583   0.184   0.130   4.005
 3895SOL    HW112584   0.151   0.049   4.053
 3895SOL    HW212585   0.159   0.212   4.057
 3896SOL     OW12586   2.117   1.369   6.296
 3896SOL    HW112587   2.030   1.361   6.248
 3896SOL    HW212588   2.138   1.466   6.311
 3897SOL     OW12589   3.676   5.915   1.253
 3897SOL    HW112590   3.767   5.874   1.241
 3897SOL    HW212591   3.685   6.014   1.259
 3898SOL     OW12592   3.623   2.984   1.641
 3898SOL    HW112593   3.524   2.989   1.634
 3898SOL    HW212594   3.649   2.915   1.708
 3899SOL     OW12595   2.847   0.017   5.680
 3899SOL    HW112596   2.944   7.018   5.675
 3899SOL    HW212597   2.836   0.115   5.696
 3900SOL     OW12598   4.552   4.606   3.044
 3900SOL    HW112599   4.649   4.587   3.026
 3900SOL    HW212600   4.495   4.544   2.991
 3901SOL     OW12601   2.913   1.088   0.062
 3901SOL    HW112602   2.949   1.025   7.018
 3901SOL    HW212603   2.963   1.077   0.148
 3902SOL     OW12604   5.486   3.062   2.632
 3902SOL    HW112605   5.396   3.038   2.595
 3902SOL    HW212606   5.505   3.159   2.613
 3903SOL     OW12607   3.537   4.532   6.515
 3903SOL    HW112608   3.460   4.595   6.512
 3903SOL    HW212609   3.504   4.437   6.513
 3904SOL     OW12610   1.827   6.568   0.867
 3904SOL    HW112611   1.748   6.619   0.831
 3904SOL    HW212612   1.799   6.476   0.892
 3905SOL     OW12613   6.961   6.244   5.236
 3905SOL    HW112614   6.962   6.318   5.169
 3905SOL    HW212615   0.018   6.187   5.224
 3906SOL     OW12616   6.975   6.179   5.495
 3906SOL    HW112617   0.030   6.212   5.547
 3906SOL    HW212618   6.976   6.220   5.404
 3907SOL     OW12619   5.694   2.211   3.692
 3907SOL    HW112620   5.728   2.272   3.763
 3907SOL    HW212621   5.749   2.222   3.609
 3908SOL     OW12622   2.768   3.979   5.857
 3908SOL    HW112623   2.741   3.898   5.805
 3908SOL    HW212624   2.842   3.955   5.920
 3909SOL     OW12625   5.556   5.861   3.478
 3909SOL    HW112626   5.477   5.922   3.484
 3909SOL    HW212627   5.640   5.916   3.477
 3910SOL     OW12628   3.791   3.548   2.650
 3910SOL    HW112629   3.758   3.464   2.694
 3910SOL    HW212630   3.719   3.586   2.592
 3911SOL     OW12631   6.289   2.216   5.908
 3911SOL    HW112632   6.258   2.124   5.886
 3911SOL    HW212633   6.341   2.213   5.994
 3912SOL     OW12634   5.507   2.563   5.951
 3912SOL    HW112635   5.430   2.612   5.909
 3912SOL    HW212636   5.529   2.607   6.039
 3913SOL     OW12637   1.461   6.703   1.373
 3913SOL    HW112638   1.403   6.653   1.437
 3913SOL    HW212639   1.408   6.775   1.329
 3914SOL     OW12640   3.091   5.617   5.414
 3914SOL    HW112641   3.000   5.609   5.373
 3914SOL    HW212642   3.156   5.561   5.363
 3915SOL     OW12643   6.509   5.853   1.681
 3915SOL    HW112644   6.608   5.869   1.689
 3915SOL    HW212645   6.462   5.893   1.759
 3916SOL     OW12646   0.414   0.225   3.697
 3916SOL    HW112647   0.424   0.264   3.606
 3916SOL    HW212648   0.439   0.293   3.766
 3917SOL     OW12649   2.711   0.012   6.702
 3917SOL    HW112650   2.801   0.053   6.692
 3917SOL    HW212651   2.719   6.949   6.752
 3918SOL     OW12652   6.029   3.474   6.774
 3918SOL    HW112653   5.945   3.427   6.747
 3918SOL    HW212654   6.010   3.571   6.787
 3919SOL     OW12655   3.288   6.392   1.038
 3919SOL    HW112656   3.304   6.470   1.098
 3919SOL    HW212657   3.372   6.370   0.988
 3920SOL     OW12658   2.206   0.952   6.846
 3920SOL    HW112659   2.227   0.857   6.867
 3920SOL    HW212660   2.110   0.961   6.821
 3921SOL     OW12661   0.848   3.531   1.288
 3921SOL    HW112662   0.893   3.532   1.198
 3921SOL    HW212663   0.752   3.507   1.276
 3922SOL     OW12664   1.238   5.077   1.157
 3922SOL    HW112665   1.334   5.051   1.150
 3922SOL    HW212666   1.205   5.058   1.250
 3923SOL     OW12667   6.938   6.767   1.067
 3923SOL    HW112668   6.846   6.807   1.063
 3923SOL    HW212669   7.003   6.836   1.098
 3924SOL     OW12670   6.507   4.783   4.906
 3924SOL    HW112671   6.436   4.787   4.976
 3924SOL    HW212672   6.511   4.690   4.868
 3925SOL     OW12673   1.406   5.209   1.695
 3925SOL    HW112674   1.308   5.194   1.709
 3925SOL    HW212675   1.457   5.140   1.745
 3926SOL     OW12676   3.439   5.252   3.013
 3926SOL    HW112677   3.455   5.259   3.111
 3926SOL    HW212678   3.525   5.267   2.964
 3927SOL     OW12679   1.975   3.395   6.383
 3927SOL    HW112680   2.070   3.365   6.378
 3927SOL    HW212681   1.968   3.488   6.345
 3928SOL     OW12682   6.098   6.705   6.316
 3928SOL    HW112683   6.147   6.775   6.264
 3928SOL    HW212684   6.021   6.747   6.365
 3929SOL     OW12685   1.021   1.579   4.674
 3929SOL    HW112686   1.080   1.644   4.626
 3929SOL    HW212687   0.927   1.614   4.676
 3930SOL     OW12688   2.672   1.828   3.806
 3930SOL    HW112689   2.728   1.909   3.826
 3930SOL    HW212690   2.729   1.756   3.767
 3931SOL     OW12691   4.256   0.177   2.006
 3931SOL    HW112692   4.329   0.223   1.955
 3931SOL    HW212693   4.169   0.191   1.960
 3932SOL     OW12694   1.769   2.683   3.639
 3932SOL    HW112695   1.693   2.725   3.588
 3932SOL    HW212696   1.744   2.676   3.735
 3933SOL     OW12697   2.197   0.686   6.037
 3933SOL    HW112698   2.175   0.784   6.036
 3933SOL    HW212699   2.129   0.637   6.091
 3934SOL     OW12700   5.198   6.113   0.225
 3934SOL    HW112701   5.271   6.060   0.181
 3934SOL    HW212702   5.196   6.205   0.186
 3935SOL     OW12703   4.996   6.870   1.706
 3935SOL    HW112704   5.078   6.840   1.657
 3935SOL    HW212705   4.966   6.958   1.670
 3936SOL     OW12706   0.427   4.414   2.631
 3936SOL    HW112707   0.436   4.440   2.727
 3936SOL    HW212708   0.461   4.488   2.573
 3937SOL     OW12709   0.249   2.346   2.347
 3937SOL    HW112710   0.309   2.425   2.330
 3937SOL    HW212711   0.305   2.264   2.360
 3938SOL     OW12712   6.559   2.874   3.353
 3938SOL    HW112713   6.603   2.911   3.271
 3938SOL    HW212714   6.468   2.840   3.329
 3939SOL     OW12715   2.094   1.890   1.767
 3939SOL    HW112716   2.107   1.843   1.854
 3939SOL    HW212717   2.183   1.925   1.735
 3940SOL     OW12718   4.437   4.222   1.046
 3940SOL    HW112719   4.488   4.301   1.013
 3940SOL    HW212720   4.395   4.243   1.134
 3941SOL     OW12721   5.555   3.200   0.109
 3941SOL    HW112722   5.476   3.239   0.062
 3941SOL    HW212723   5.559   3.101   0.091
 3942SOL     OW12724   6.879   0.348   0.692
 3942SOL    HW112725   6.944   0.324   0.764
 3942SOL    HW212726   6.787   0.351   0.729
 3943SOL     OW12727   6.413   3.014   5.228
 3943SOL    HW112728   6.459   3.081   5.170
 3943SOL    HW212729   6.482   2.956   5.272
 3944SOL     OW12730   5.528   1.484   4.696
 3944SOL    HW112731   5.494   1.478   4.790
 3944SOL    HW212732   5.485   1.413   4.640
 3945SOL     OW12733   0.318   0.299   1.029
 3945SOL    HW112734   0.344   0.202   1.023
 3945SOL    HW212735   0.222   0.305   1.058
 3946SOL     OW12736   3.544   5.528   3.199
 3946SOL    HW112737   3.619   5.462   3.196
 3946SOL    HW212738   3.545   5.583   3.115
 3947SOL     OW12739   6.677   4.263   6.025
 3947SOL    HW112740   6.624   4.248   6.109
 3947SOL    HW212741   6.756   4.202   6.025
 3948SOL     OW12742   6.717   3.731   0.709
 3948SOL    HW112743   6.776   3.811   0.700
 3948SOL    HW212744   6.739   3.666   0.636
 3949SOL     OW12745   5.502   6.292   3.290
 3949SOL    HW112746   5.515   6.385   3.324
 3949SOL    HW212747   5.405   6.267   3.297
 3950SOL     OW12748   1.598   6.463   0.664
 3950SOL    HW112749   1.679   6.443   0.608
 3950SOL    HW212750   1.561   6.552   0.638
 3951SOL     OW12751   5.567   5.829   1.749
 3951SOL    HW112752   5.472   5.813   1.775
 3951SOL    HW212753   5.622   5.748   1.768
 3952SOL     OW12754   6.130   1.547   6.202
 3952SOL    HW112755   6.045   1.565   6.152
 3952SOL    HW212756   6.109   1.540   6.300
 3953SOL     OW12757   3.083   4.009   2.672
 3953SOL    HW112758   3.094   4.022   2.573
 3953SOL    HW212759   3.074   3.911   2.691
 3954SOL     OW12760   3.793   4.965   5.663
 3954SOL    HW112761   3.886   4.997   5.681
 3954SOL    HW212762   3.764   4.904   5.737
 3955SOL     OW12763   3.833   1.452   4.851
 3955SOL    HW112764   3.815   1.491   4.760
 3955SOL    HW212765   3.800   1.514   4.921
 3956SOL     OW12766   2.042   1.268   1.316
 3956SOL    HW112767   2.126   1.269   1.262
 3956SOL    HW212768   2.030   1.357   1.359
 3957SOL     OW12769   3.633   1.117   3.957
 3957SOL    HW112770   3.595   1.106   4.049
 3957SOL    HW212771   3.573   1.175   3.902
 3958SOL     OW12772   5.640   6.538   5.765
 3958SOL    HW112773   5.697   6.584   5.833
 3958SOL    HW212774   5.666   6.441   5.760
 3959SOL     OW12775   5.556   5.270   6.543
 3959SOL    HW112776   5.604   5.187   6.516
 3959SOL    HW212777   5.458   5.259   6.524
 3960SOL     OW12778   6.153   2.321   5.001
 3960SOL    HW112779   6.074   2.308   4.941
 3960SOL    HW212780   6.123   2.350   5.091
 3961SOL     OW12781   5.373   0.164   4.276
 3961SOL    HW112782   5.326   0.101   4.339
 3961SOL    HW212783   5.437   0.113   4.219
 3962SOL     OW12784   6.248   5.063   5.116
 3962SOL    HW112785   6.217   5.062   5.021
 3962SOL    HW212786   6.168   5.073   5.176
 3963SOL     OW12787   4.633   0.154   2.374
 3963SOL    HW112788   4.591   0.232   2.419
 3963SOL    HW212789   4.705   0.186   2.313
 3964SOL     OW12790   5.197   2.805   3.584
 3964SOL    HW112791   5.122   2.870   3.573
 3964SOL    HW212792   5.169   2.715   3.551
 3965SOL     OW12793   4.842   4.211   4.361
 3965SOL    HW112794   4.894   4.293   4.339
 3965SOL    HW212795   4.832   4.154   4.279
 3966SOL     OW12796   2.619   6.496   6.541
 3966SOL    HW112797   2.534   6.448   6.524
 3966SOL    HW212798   2.612   6.548   6.626
 3967SOL     OW12799   1.557   4.186   3.860
 3967SOL    HW112800   1.564   4.282   3.833
 3967SOL    HW212801   1.625   4.132   3.810
 3968SOL     OW12802   3.774   0.238   0.643
 3968SOL    HW112803   3.713   0.215   0.719
 3968SOL    HW212804   3.770   0.166   0.574
 3969SOL     OW12805   0.085   4.957   3.523
 3969SOL    HW112806   0.036   4.960   3.436
 3969SOL    HW212807   0.053   4.880   3.577
 3970SOL     OW12808   4.836   5.895   1.582
 3970SOL    HW112809   4.890   5.890   1.666
 3970SOL    HW212810   4.842   5.808   1.533
 3971SOL     OW12811   1.446   6.048   3.939
 3971SOL    HW112812   1.414   5.954   3.932
 3971SOL    HW212813   1.511   6.056   4.014
 3972SOL     OW12814   1.535   3.377   0.145
 3972SOL    HW112815   1.599   3.438   0.098
 3972SOL    HW212816   1.558   3.282   0.123
 3973SOL     OW12817   1.797   4.602   0.649
 3973SOL    HW112818   1.700   4.613   0.667
 3973SOL    HW212819   1.814   4.602   0.550
 3974SOL     OW12820   2.600   1.037   5.328
 3974SOL    HW112821   2.650   1.078   5.252
 3974SOL    HW212822   2.579   1.107   5.396
 3975SOL     OW12823   6.475   3.157   6.654
 3975SOL    HW112824   6.551   3.205   6.609
 3975SOL    HW212825   6.389   3.187   6.613
 3976SOL     OW12826   1.752   4.183   2.651
 3976SOL    HW112827   1.680   4.185   2.721
 3976SOL    HW212828   1.818   4.112   2.674
 3977SOL     OW12829   0.736   2.862   6.945
 3977SOL    HW112830   0.689   2.794   7.001
 3977SOL    HW212831   0.814   2.820   6.899
 3978SOL     OW12832   6.397   4.785   3.974
 3978SOL    HW112833   6.423   4.793   3.878
 3978SOL    HW212834   6.478   4.768   4.030
 3979SOL     OW12835   4.857   5.844   6.254
 3979SOL    HW112836   4.820   5.917   6.195
 3979SOL    HW212837   4.827   5.859   6.348
 3980SOL     OW12838   5.896   5.048   5.950
 3980SOL    HW112839   5.911   5.145   5.930
 3980SOL    HW212840   5.958   4.993   5.895
 3981SOL     OW12841   4.686   5.704   6.815
 3981SOL    HW112842   4.647   5.752   6.894
 3981SOL    HW212843   4.625   5.714   6.736
 3982SOL     OW12844   2.744   5.922   3.099
 3982SOL    HW112845   2.818   5.949   3.037
 3982SOL    HW212846   2.665   5.980   3.084
 3983SOL     OW12847   3.609   5.884   4.218
 3983SOL    HW112848   3.520   5.914   4.182
 3983SOL    HW212849   3.682   5.921   4.162
 3984SOL     OW12850   6.734   3.074   3.180
 3984SOL    HW112851   6.770   3.116   3.263
 3984SOL    HW212852   6.809   3.033   3.128
 3985SOL     OW12853   4.011   5.206   6.419
 3985SOL    HW112854   4.027   5.131   6.483
 3985SOL    HW212855   4.098   5.242   6.386
 3986SOL     OW12856   5.401   0.696   2.933
 3986SOL    HW112857   5.399   0.643   3.017
 3986SOL    HW212858   5.391   0.794   2.954
 3987SOL     OW12859   3.909   5.600   5.188
 3987SOL    HW112860   3.894   5.528   5.120
 3987SOL    HW212861   3.926   5.558   5.278
 3988SOL     OW12862   4.704   5.682   0.767
 3988SOL    HW112863   4.719   5.584   0.760
 3988SOL    HW212864   4.612   5.705   0.735
 3989SOL     OW12865   6.566   3.131   1.206
 3989SOL    HW112866   6.519   3.110   1.292
 3989SOL    HW212867   6.554   3.056   1.142
 3990SOL     OW12868   0.004   1.338   1.926
 3990SOL    HW112869   0.096   1.376   1.935
 3990SOL    HW212870   7.016   1.264   1.993
 3991SOL     OW12871   5.664   1.227   3.102
 3991SOL    HW112872   5.758   1.250   3.075
 3991SOL    HW212873   5.633   1.147   3.051
 3992SOL     OW12874   4.163   1.996   1.489
 3992SOL    HW112875   4.075   1.966   1.525
 3992SOL    HW212876   4.215   1.918   1.454
 3993SOL     OW12877   0.959   3.560   1.550
 3993SOL    HW112878   0.890   3.547   1.479
 3993SOL    HW212879   0.935   3.640   1.606
 3994SOL     OW12880   2.532   5.619   4.467
 3994SOL    HW112881   2.449   5.574   4.433
 3994SOL    HW212882   2.591   5.642   4.390
 3995SOL     OW12883   1.974   2.223   4.356
 3995SOL    HW112884   2.006   2.274   4.435
 3995SOL    HW212885   2.015   2.132   4.355
 3996SOL     OW12886   0.206   5.855   4.570
 3996SOL    HW112887   0.263   5.896   4.641
 3996SOL    HW212888   0.227   5.896   4.481
 3997SOL     OW12889   2.997   1.512   3.317
 3997SOL    HW112890   3.013   1.529   3.415
 3997SOL    HW212891   3.048   1.579   3.263
 3998SOL     OW12892   4.554   2.563   3.130
 3998SOL    HW112893   4.488   2.510   3.183
 3998SOL    HW212894   4.553   2.533   3.035
 3999SOL     OW12895   4.902   1.817   4.359
 3999SOL    HW112896   4.827   1.861   4.408
 3999SOL    HW212897   4.981   1.879   4.358
 4000SOL     OW12898   4.056   6.114   4.373
 4000SOL    HW112899   4.109   6.029   4.368
 4000SOL    HW212900   4.090   6.179   4.306
 4001SOL     OW12901   0.894   1.630   4.271
 4001SOL    HW112902   0.823   1.572   4.311
 4001SOL    HW212903   0.984   1.601   4.306
 4002SOL     OW12904   1.630   4.128   1.153
 4002SOL    HW112905   1.540   4.089   1.133
 4002SOL    HW212906   1.629   4.226   1.134
 4003SOL     OW12907   4.090   2.193   4.970
 4003SOL    HW112908   4.110   2.283   5.011
 4003SOL    HW212909   4.018   2.148   5.024
 4004SOL     OW12910   6.690   1.800   6.288
 4004SOL    HW112911   6.698   1.784   6.387
 4004SOL    HW212912   6.773   1.845   6.255
 4005SOL     OW12913   6.072   4.455   5.006
 4005SOL    HW112914   6.089   4.442   5.104
 4005SOL    HW212915   6.149   4.506   4.966
 4006SOL     OW12916   3.317   6.214   2.744
 4006SOL    HW112917   3.407   6.189   2.707
 4006SOL    HW212918   3.308   6.178   2.837
 4007SOL     OW12919   0.462   1.393   5.960
 4007SOL    HW112920   0.407   1.432   6.034
 4007SOL    HW212921   0.558   1.393   5.986
 4008SOL     OW12922   3.353   1.404   5.464
 4008SOL    HW112923   3.332   1.327   5.404
 4008SOL    HW212924   3.369   1.486   5.409
 4009SOL     OW12925   3.594   3.793   2.801
 4009SOL    HW112926   3.628   3.703   2.828
 4009SOL    HW212927   3.497   3.785   2.776
 4010SOL     OW12928   1.245   3.264   6.908
 4010SOL    HW112929   1.272   3.297   6.817
 4010SOL    HW212930   1.251   3.338   6.974
 4011SOL     OW12931   0.338   2.259   0.925
 4011SOL    HW112932   0.356   2.162   0.938
 4011SOL    HW212933   0.312   2.300   1.013
 4012SOL     OW12934   5.505   3.219   3.304
 4012SOL    HW112935   5.461   3.305   3.278
 4012SOL    HW212936   5.512   3.159   3.224
 4013SOL     OW12937   5.112   2.782   2.970
 4013SOL    HW112938   5.120   2.749   2.876
 4013SOL    HW212939   5.130   2.881   2.972
 4014SOL     OW12940   5.471   5.423   2.082
 4014SOL    HW112941   5.386   5.449   2.128
 4014SOL    HW212942   5.470   5.458   1.988
 4015SOL     OW12943   4.668   3.615   6.965
 4015SOL    HW112944   4.678   3.549   0.016
 4015SOL    HW212945   4.738   3.598   6.896
 4016SOL     OW12946   3.071   6.193   4.525
 4016SOL    HW112947   3.064   6.235   4.616
 4016SOL    HW212948   3.038   6.099   4.529
 4017SOL     OW12949   6.115   6.725   5.883
 4017SOL    HW112950   6.032   6.779   5.897
 4017SOL    HW212951   6.109   6.639   5.933
 4018SOL     OW12952   2.123   0.279   6.956
 4018SOL    HW112953   2.027   0.280   6.986
 4018SOL    HW212954   2.127   0.290   6.857
 4019SOL     OW12955   5.213   5.776   3.845
 4019SOL    HW112956   5.197   5.801   3.941
 4019SOL    HW212957   5.295   5.823   3.812
 4020SOL     OW12958   5.493   2.013   5.181
 4020SOL    HW112959   5.509   2.107   5.209
 4020SOL    HW212960   5.490   2.008   5.081
 4021SOL     OW12961   5.106   3.548   0.033
 4021SOL    HW112962   5.184   3.577   0.089
 4021SOL    HW212963   5.120   3.576   6.962
 4022SOL     OW12964   5.532   0.569   0.658
 4022SOL    HW112965   5.601   0.569   0.730
 4022SOL    HW212966   5.449   0.613   0.692
 4023SOL     OW12967   6.375   6.334   5.602
 4023SOL    HW112968   6.336   6.421   5.631
 4023SOL    HW212969   6.371   6.269   5.678
 4024SOL     OW12970   4.635   4.484   4.986
 4024SOL    HW112971   4.668   4.435   5.067
 4024SOL    HW212972   4.537   4.469   4.976
 4025SOL     OW12973   0.934   3.690   4.033
 4025SOL    HW112974   0.898   3.612   3.983
 4025SOL    HW212975   0.873   3.769   4.020
 4026SOL     OW12976   5.485   0.732   5.539
 4026SOL    HW112977   5.546   0.708   5.614
 4026SOL    HW212978   5.409   0.786   5.574
 4027SOL     OW12979   3.478   5.161   2.240
 4027SOL    HW112980   3.484   5.092   2.312
 4027SOL    HW212981   3.475   5.116   2.151
 4028SOL     OW12982   1.900   5.414   2.969
 4028SOL    HW112983   1.995   5.445   2.964
 4028SOL    HW212984   1.898   5.322   3.009
 4029SOL     OW12985   1.871   3.953   3.547
 4029SOL    HW112986   1.954   3.973   3.494
 4029SOL    HW212987   1.806   3.902   3.490
 4030SOL     OW12988   1.777   1.669   6.569
 4030SOL    HW112989   1.725   1.754   6.577
 4030SOL    HW212990   1.874   1.688   6.588
 4031SOL     OW12991   6.448   5.688   4.403
 4031SOL    HW112992   6.514   5.626   4.360
 4031SOL    HW212993   6.369   5.701   4.344
 4032SOL     OW12994   3.479   0.146   4.845
 4032SOL    HW112995   3.455   0.243   4.845
 4032SOL    HW212996   3.451   0.105   4.932
 4033SOL     OW12997   3.904   3.751   6.151
 4033SOL    HW112998   3.981   3.731   6.211
 4033SOL    HW212999   3.870   3.843   6.171
 4034SOL     OW13000   5.773   3.363   4.733
 4034SOL    HW113001   5.807   3.340   4.824
 4034SOL    HW213002   5.844   3.345   4.665
 4035SOL     OW13003   0.249   6.323   1.820
 4035SOL    HW113004   0.315   6.396   1.837
 4035SOL    HW213005   0.156   6.360   1.822
 4036SOL     OW13006   6.014   5.850   1.685
 4036SOL    HW113007   6.103   5.833   1.643
 4036SOL    HW213008   5.942   5.835   1.617
 4037SOL     OW13009   0.525   3.808   6.353
 4037SOL    HW113010   0.573   3.758   6.424
 4037SOL    HW213011   0.489   3.894   6.391
 4038SOL     OW13012   5.896   5.215   3.194
 4038SOL    HW113013   5.827   5.267   3.244
 4038SOL    HW213014   5.963   5.178   3.258
 4039SOL     OW13015   2.409   5.498   1.021
 4039SOL    HW113016   2.435   5.569   1.087
 4039SOL    HW213017   2.431   5.408   1.059
 4040SOL     OW13018   3.108   6.841   0.010
 4040SOL    HW113019   3.095   6.931   0.049
 4040SOL    HW213020   3.206   6.819   0.009
 4041SOL     OW13021   0.788   5.822   3.068
 4041SOL    HW113022   0.779   5.788   3.161
 4041SOL    HW213023   0.814   5.918   3.069
 4042SOL     OW13024   5.982   6.062   2.056
 4042SOL    HW113025   5.930   5.983   2.024
 4042SOL    HW213026   6.077   6.034   2.072
 4043SOL     OW13027   6.749   3.510   0.871
 4043SOL    HW113028   6.675   3.481   0.932
 4043SOL    HW213029   6.730   3.602   0.838
 4044SOL     OW13030   5.854   4.977   2.488
 4044SOL    HW113031   5.923   5.032   2.533
 4044SOL    HW213032   5.865   4.881   2.513
 4045SOL     OW13033   2.802   4.604   6.088
 4045SOL    HW113034   2.808   4.559   6.177
 4045SOL    HW213035   2.748   4.548   6.026
 4046SOL     OW13036   0.519   3.211   0.595
 4046SOL    HW113037   0.479   3.206   0.503
 4046SOL    HW213038   0.589   3.282   0.597
 4047SOL     OW13039   2.944   3.389   3.088
 4047SOL    HW113040   2.961   3.309   3.030
 4047SOL    HW213041   2.879   3.450   3.043
 4048SOL     OW13042   4.486   2.483   0.556
 4048SOL    HW113043   4.556   2.553   0.540
 4048SOL    HW213044   4.441   2.500   0.644
 4049SOL     OW13045   6.633   0.042   0.195
 4049SOL    HW113046   6.722   0.011   0.161
 4049SOL    HW213047   6.584   6.988   0.235
 4050SOL     OW13048   2.368   0.784   2.664
 4050SOL    HW113049   2.286   0.782   2.607
 4050SOL    HW213050   2.374   0.871   2.713
 4051SOL     OW13051   2.637   3.484   0.940
 4051SOL    HW113052   2.681   3.555   0.885
 4051SOL    HW213053   2.544   3.468   0.905
 4052SOL     OW13054   1.639   0.205   1.067
 4052SOL    HW113055   1.550   0.246   1.087
 4052SOL    HW213056   1.677   0.165   1.150
 4053SOL     OW13057   2.802   5.201   2.658
 4053SOL    HW113058   2.711   5.161   2.670
 4053SOL    HW213059   2.792   5.294   2.623
 4054SOL     OW13060   5.489   1.404   6.530
 4054SOL    HW113061   5.451   1.450   6.450
 4054SOL    HW213062   5.574   1.359   6.505
 4055SOL     OW13063   4.785   3.502   0.404
 4055SOL    HW113064   4.837   3.464   0.327
 4055SOL    HW213065   4.736   3.584   0.374
 4056SOL     OW13066   4.703   2.846   6.738
 4056SOL    HW113067   4.688   2.893   6.824
 4056SOL    HW213068   4.783   2.787   6.746
 4057SOL     OW13069   5.777   2.635   0.847
 4057SOL    HW113070   5.699   2.575   0.868
 4057SOL    HW213071   5.861   2.581   0.842
 4058SOL     OW13072   1.073   2.845   3.862
 4058SOL    HW113073   0.981   2.862   3.897
 4058SOL    HW213074   1.083   2.747   3.842
 4059SOL     OW13075   0.105   1.924   4.687
 4059SOL    HW113076   0.101   1.985   4.766
 4059SOL    HW213077   0.069   1.834   4.713
 4060SOL     OW13078   2.715   6.579   5.718
 4060SOL    HW113079   2.791   6.565   5.781
 4060SOL    HW213080   2.679   6.491   5.689
 4061SOL     OW13081   2.198   2.807   1.070
 4061SOL    HW113082   2.169   2.822   1.165
 4061SOL    HW213083   2.142   2.735   1.029
 4062SOL     OW13084   2.838   0.121   2.592
 4062SOL    HW113085   2.888   0.163   2.517
 4062SOL    HW213086   2.900   0.106   2.669
 4063SOL     OW13087   3.026   5.963   6.114
 4063SOL    HW113088   3.001   5.866   6.103
 4063SOL    HW213089   3.085   5.991   6.038
 4064SOL     OW13090   6.499   6.801   4.679
 4064SOL    HW113091   6.565   6.837   4.614
 4064SOL    HW213092   6.411   6.788   4.633
 4065SOL     OW13093   1.511   4.445   5.452
 4065SOL    HW113094   1.600   4.476   5.487
 4065SOL    HW213095   1.518   4.352   5.418
 4066SOL     OW13096   4.512   5.545   1.650
 4066SOL    HW113097   4.447   5.510   1.717
 4066SOL    HW213098   4.605   5.518   1.675
 4067SOL     OW13099   5.497   0.736   1.014
 4067SOL    HW113100   5.481   0.638   1.006
 4067SOL    HW213101   5.479   0.780   0.926
 4068SOL     OW13102   5.079   0.668   4.698
 4068SOL    HW113103   5.125   0.755   4.680
 4068SOL    HW213104   5.140   0.608   4.750
 4069SOL     OW13105   6.609   6.198   0.610
 4069SOL    HW113106   6.537   6.243   0.557
 4069SOL    HW213107   6.647   6.122   0.557
 4070SOL     OW13108   6.537   3.656   2.669
 4070SOL    HW113109   6.540   3.610   2.758
 4070SOL    HW213110   6.455   3.711   2.662
 4071SOL     OW13111   2.516   0.452   4.648
 4071SOL    HW113112   2.597   0.426   4.702
 4071SOL    HW213113   2.526   0.417   4.555
 4072SOL     OW13114   0.630   0.323   4.256
 4072SOL    HW113115   0.664   0.230   4.254
 4072SOL    HW213116   0.705   0.386   4.275
 4073SOL     OW13117   2.619   4.590   2.223
 4073SOL    HW113118   2.549   4.519   2.210
 4073SOL    HW213119   2.680   4.591   2.144
 4074SOL     OW13120   0.150   3.055   0.952
 4074SOL    HW113121   0.150   3.144   0.998
 4074SOL    HW213122   0.172   2.984   1.018
 4075SOL     OW13123   6.213   0.247   3.331
 4075SOL    HW113124   6.253   0.337   3.350
 4075SOL    HW213125   6.120   0.243   3.368
 4076SOL     OW13126   1.633   2.892   3.518
 4076SOL    HW113127   1.574   2.940   3.453
 4076SOL    HW213128   1.728   2.900   3.489
 4077SOL     OW13129   3.437   0.955   1.461
 4077SOL    HW113130   3.533   0.968   1.438
 4077SOL    HW213131   3.423   0.862   1.496
 4078SOL     OW13132   4.830   4.969   3.177
 4078SOL    HW113133   4.924   4.966   3.141
 4078SOL    HW213134   4.773   5.023   3.115
 4079SOL     OW13135   4.984   1.094   3.956
 4079SOL    HW113136   5.082   1.072   3.956
 4079SOL    HW213137   4.972   1.193   3.964
 4080SOL     OW13138   3.413   4.165   4.363
 4080SOL    HW113139   3.497   4.149   4.311
 4080SOL    HW213140   3.436   4.189   4.457
 4081SOL     OW13141   2.707   0.509   6.969
 4081SOL    HW113142   2.685   0.457   6.887
 4081SOL    HW213143   2.751   0.450   0.013
 4082SOL     OW13144   1.397   1.334   5.619
 4082SOL    HW113145   1.372   1.267   5.550
 4082SOL    HW213146   1.319   1.395   5.636
 4083SOL     OW13147   6.348   5.322   2.252
 4083SOL    HW113148   6.364   5.417   2.278
 4083SOL    HW213149   6.420   5.292   2.189
 4084SOL     OW13150   4.334   6.720   2.327
 4084SOL    HW113151   4.430   6.730   2.355
 4084SOL    HW213152   4.278   6.784   2.380
 4085SOL     OW13153   2.026   4.322   2.856
 4085SOL    HW113154   2.057   4.401   2.910
 4085SOL    HW213155   1.927   4.325   2.846
 4086SOL     OW13156   5.590   5.139   4.904
 4086SOL    HW113157   5.573   5.047   4.869
 4086SOL    HW213158   5.570   5.206   4.832
 4087SOL     OW13159   1.652   1.067   1.515
 4087SOL    HW113160   1.732   1.017   1.550
 4087SOL    HW213161   1.591   1.004   1.467
 4088SOL     OW13162   0.060   2.372   5.454
 4088SOL    HW113163   0.024   2.279   5.463
 4088SOL    HW213164   0.017   2.416   5.375
 4089SOL     OW13165   0.014   6.882   2.633
 4089SOL    HW113166   6.977   6.825   2.689
 4089SOL    HW213167   0.048   6.958   2.687
 4090SOL     OW13168   3.357   2.509   5.427
 4090SOL    HW113169   3.407   2.430   5.461
 4090SOL    HW213170   3.303   2.483   5.347
 4091SOL     OW13171   3.882   6.618   2.542
 4091SOL    HW113172   3.788   6.584   2.545
 4091SOL    HW213173   3.893   6.679   2.463
 4092SOL     OW13174   5.151   1.812   6.504
 4092SOL    HW113175   5.096   1.759   6.439
 4092SOL    HW213176   5.197   1.749   6.567
 4093SOL     OW13177   5.684   4.121   2.667
 4093SOL    HW113178   5.768   4.123   2.720
 4093SOL    HW213179   5.661   4.213   2.637
 4094SOL     OW13180   6.771   6.331   0.089
 4094SOL    HW113181   6.789   6.354   7.017
 4094SOL    HW213182   6.769   6.232   0.100
 4095SOL     OW13183   1.055   5.286   0.677
 4095SOL    HW113184   1.086   5.279   0.772
 4095SOL    HW213185   1.064   5.380   0.646
 4096SOL     OW13186   0.828   6.577   5.875
 4096SOL    HW113187   0.893   6.649   5.854
 4096SOL    HW213188   0.736   6.607   5.850
 4097SOL     OW13189   1.311   3.901   5.279
 4097SOL    HW113190   1.393   3.857   5.315
 4097SOL    HW213191   1.232   3.876   5.336
 4098SOL     OW13192   1.439   6.146   1.991
 4098SOL    HW113193   1.425   6.232   1.942
 4098SOL    HW213194   1.526   6.148   2.040
 4099SOL     OW13195   6.882   2.651   5.735
 4099SOL    HW113196   6.843   2.581   5.675
 4099SOL    HW213197   6.894   2.613   5.827
 4100SOL     OW13198   2.508   0.765   3.881
 4100SOL    HW113199   2.520   0.784   3.784
 4100SOL    HW213200   2.453   0.682   3.892
 4101SOL     OW13201   6.214   6.449   6.366
 4101SOL    HW113202   6.291   6.453   6.429
 4101SOL    HW213203   6.175   6.541   6.356
 4102SOL     OW13204   2.720   5.135   0.713
 4102SOL    HW113205   2.723   5.053   0.770
 4102SOL    HW213206   2.762   5.115   0.624
 4103SOL     OW13207   2.567   5.104   3.076
 4103SOL    HW113208   2.509   5.186   3.081
 4103SOL    HW213209   2.621   5.095   3.159
 4104SOL     OW13210   2.541   5.953   5.736
 4104SOL    HW113211   2.463   5.903   5.697
 4104SOL    HW213212   2.513   5.994   5.823
 4105SOL     OW13213   3.682   0.008   1.480
 4105SOL    HW113214   3.776   7.005   1.502
 4105SOL    HW213215   3.620   6.998   1.551
 4106SOL     OW13216   1.534   6.803   3.086
 4106SOL    HW113217   1.557   6.737   3.157
 4106SOL    HW213218   1.598   6.794   3.009
 4107SOL     OW13219   1.897   1.928   0.806
 4107SOL    HW113220   1.950   1.953   0.724
 4107SOL    HW213221   1.811   1.885   0.778
 4108SOL     OW13222   0.671   5.934   4.880
 4108SOL    HW113223   0.638   5.967   4.969
 4108SOL    HW213224   0.744   5.994   4.847
 4109SOL     OW13225   5.080   0.292   4.944
 4109SOL    HW113226   5.179   0.275   4.936
 4109SOL    HW213227   5.030   0.223   4.891
 4110SOL     OW13228   4.647   2.736   0.515
 4110SOL    HW113229   4.741   2.716   0.487
 4110SOL    HW213230   4.596   2.770   0.437
 4111SOL     OW13231   6.559   5.027   3.482
 4111SOL    HW113232   6.517   5.007   3.393
 4111SOL    HW213233   6.655   5.000   3.481
 4112SOL     OW13234   3.811   5.499   5.706
 4112SOL    HW113235   3.775   5.414   5.669
 4112SOL    HW213236   3.738   5.548   5.754
 4113SOL     OW13237   4.993   5.642   5.547
 4113SOL    HW113238   4.944   5.692   5.475
 4113SOL    HW213239   5.013   5.704   5.623
 4114SOL     OW13240   6.590   1.620   3.223
 4114SOL    HW113241   6.558   1.715   3.224
 4114SOL    HW213242   6.689   1.619   3.232
 4115SOL     OW13243   4.010   6.595   4.998
 4115SOL    HW113244   4.007   6.501   5.030
 4115SOL    HW213245   4.064   6.601   4.914
 4116SOL     OW13246   6.576   4.046   3.526
 4116SOL    HW113247   6.596   4.125   3.584
 4116SOL    HW213248   6.603   4.066   3.432
 4117SOL     OW13249   0.144   2.398   2.745
 4117SOL    HW113250   0.076   2.425   2.677
 4117SOL    HW213251   0.198   2.321   2.710
 4118SOL     OW13252   1.439   0.602   2.172
 4118SOL    HW113253   1.429   0.506   2.146
 4118SOL    HW213254   1.418   0.661   2.094
 4119SOL     OW13255   6.755   1.011   4.803
 4119SOL    HW113256   6.745   1.076   4.877
 4119SOL    HW213257   6.768   0.919   4.840
 4120SOL     OW13258   1.253   0.807   6.542
 4120SOL    HW113259   1.242   0.709   6.530
 4120SOL    HW213260   1.339   0.826   6.589
 4121SOL     OW13261   6.481   0.573   0.970
 4121SOL    HW113262   6.452   0.516   1.047
 4121SOL    HW213263   6.403   0.625   0.936
 4122SOL     OW13264   0.993   4.498   3.589
 4122SOL    HW113265   0.982   4.448   3.503
 4122SOL    HW213266   0.910   4.550   3.608
 4123SOL     OW13267   5.810   4.314   1.865
 4123SOL    HW113268   5.798   4.332   1.768
 4123SOL    HW213269   5.755   4.235   1.892
 4124SOL     OW13270   6.052   6.468   0.153
 4124SOL    HW113271   6.088   6.375   0.145
 4124SOL    HW213272   6.099   6.515   0.228
 4125SOL     OW13273   0.184   3.075   0.242
 4125SOL    HW113274   0.121   3.006   0.279
 4125SOL    HW213275   0.136   3.129   0.173
 4126SOL     OW13276   1.368   4.377   3.583
 4126SOL    HW113277   1.448   4.376   3.643
 4126SOL    HW213278   1.352   4.471   3.551
 4127SOL     OW13279   4.563   2.465   4.209
 4127SOL    HW113280   4.638   2.425   4.156
 4127SOL    HW213281   4.557   2.563   4.191
 4128SOL     OW13282   5.977   2.520   6.184
 4128SOL    HW113283   5.907   2.548   6.119
 4128SOL    HW213284   6.061   2.570   6.165
 4129SOL     OW13285   3.206   0.011   2.046
 4129SOL    HW113286   3.247   6.950   2.012
 4129SOL    HW213287   3.249   0.037   2.132
 4130SOL     OW13288   5.240   1.450   0.484
 4130SOL    HW113289   5.305   1.524   0.498
 4130SOL    HW213290   5.146   1.485   0.494
 4131SOL     OW13291   5.024   6.637   3.554
 4131SOL    HW113292   4.969   6.696   3.613
 4131SOL    HW213293   5.026   6.544   3.592
 4132SOL     OW13294   6.363   3.845   2.633
 4132SOL    HW113295   6.264   3.849   2.621
 4132SOL    HW213296   6.391   3.909   2.705
 4133SOL     OW13297   5.730   6.367   3.466
 4133SOL    HW113298   5.788   6.439   3.427
 4133SOL    HW213299   5.680   6.322   3.392
 4134SOL     OW13300   1.466   3.010   1.084
 4134SOL    HW113301   1.515   3.061   1.012
 4134SOL    HW213302   1.446   2.918   1.052
 4135SOL     OW13303   5.886   1.259   0.677
 4135SOL    HW113304   5.813   1.241   0.744
 4135SOL    HW213305   5.894   1.182   0.615
 4136SOL     OW13306   0.649   4.698   0.391
 4136SOL    HW113307   0.593   4.773   0.355
 4136SOL    HW213308   0.593   4.616   0.399
 4137SOL     OW13309   0.331   2.417   5.478
 4137SOL    HW113310   0.231   2.414   5.476
 4137SOL    HW213311   0.365   2.451   5.390
 4138SOL     OW13312   5.910   6.888   5.931
 4138SOL    HW113313   5.912   6.957   6.003
 4138SOL    HW213314   5.876   6.930   5.847
 4139SOL     OW13315   1.805   3.881   2.357
 4139SOL    HW113316   1.837   3.934   2.279
 4139SOL    HW213317   1.746   3.938   2.414
 4140SOL     OW13318   2.321   6.436   6.932
 4140SOL    HW113319   2.279   6.476   6.850
 4140SOL    HW213320   2.339   6.509   6.999
 4141SOL     OW13321   5.039   0.439   5.994
 4141SOL    HW113322   5.134   0.471   5.995
 4141SOL    HW213323   4.994   0.467   6.079
 4142SOL     OW13324   6.861   6.773   1.720
 4142SOL    HW113325   6.821   6.772   1.811
 4142SOL    HW213326   6.946   6.826   1.721
 4143SOL     OW13327   6.623   3.568   6.343
 4143SOL    HW113328   6.600   3.471   6.333
 4143SOL    HW213329   6.552   3.614   6.397
 4144SOL     OW13330   4.475   0.856   1.704
 4144SOL    HW113331   4.485   0.812   1.793
 4144SOL    HW213332   4.521   0.945   1.704
 4145SOL     OW13333   4.769   1.047   1.271
 4145SOL    HW113334   4.826   1.039   1.189
 4145SOL    HW213335   4.818   1.008   1.349
 4146SOL     OW13336   3.350   0.751   2.670
 4146SOL    HW113337   3.271   0.784   2.722
 4146SOL    HW213338   3.328   0.663   2.628
 4147SOL     OW13339   4.790   3.753   6.590
 4147SOL    HW113340   4.715   3.777   6.529
 4147SOL    HW213341   4.873   3.802   6.563
 4148SOL     OW13342   3.275   0.968   6.031
 4148SOL    HW113343   3.249   1.035   5.961
 4148SOL    HW213344   3.315   0.888   5.987
 4149SOL     OW13345   1.448   2.834   6.942
 4149SOL    HW113346   1.498   2.769   6.999
 4149SOL    HW213347   1.429   2.793   6.853
 4150SOL     OW13348   6.803   1.239   0.879
 4150SOL    HW113349   6.708   1.265   0.900
 4150SOL    HW213350   6.855   1.232   0.964
 4151SOL     OW13351   2.883   5.644   4.657
 4151SOL    HW113352   2.878   5.664   4.755
 4151SOL    HW213353   2.979   5.647   4.628
 4152SOL     OW13354   2.402   4.008   1.593
 4152SOL    HW113355   2.400   4.041   1.687
 4152SOL    HW213356   2.408   4.085   1.530
 4153SOL     OW13357   6.468   6.059   0.854
 4153SOL    HW113358   6.417   6.112   0.921
 4153SOL    HW213359   6.514   6.120   0.790
 4154SOL     OW13360   0.162   6.452   3.883
 4154SOL    HW113361   0.082   6.510   3.899
 4154SOL    HW213362   0.175   6.390   3.960
 4155SOL     OW13363   5.813   1.456   2.113
 4155SOL    HW113364   5.913   1.456   2.116
 4155SOL    HW213365   5.778   1.372   2.156
 4156SOL     OW13366   0.947   5.130   5.763
 4156SOL    HW113367   1.019   5.068   5.796
 4156SOL    HW213368   0.986   5.192   5.695
 4157SOL     OW13369   5.208   6.177   0.742
 4157SOL    HW113370   5.138   6.246   0.760
 4157SOL    HW213371   5.192   6.097   0.801
 4158SOL     OW13372   6.153   1.639   6.885
 4158SOL    HW113373   6.137   1.629   6.787
 4158SOL    HW213374   6.069   1.617   6.934
 4159SOL     OW13375   2.920   0.543   4.726
 4159SOL    HW113376   2.840   0.523   4.782
 4159SOL    HW213377   2.907   0.504   4.634
 4160SOL     OW13378   1.390   0.079   6.127
 4160SOL    HW113379   1.432   0.167   6.104
 4160SOL    HW213380   1.291   0.093   6.139
 4161SOL     OW13381   3.525   3.157   4.787
 4161SOL    HW113382   3.621   3.129   4.789
 4161SOL    HW213383   3.490   3.163   4.881
 4162SOL     OW13384   4.406   6.089   1.213
 4162SOL    HW113385   4.356   6.148   1.277
 4162SOL    HW213386   4.462   6.024   1.264
 4163SOL     OW13387   3.725   5.444   0.842
 4163SOL    HW113388   3.743   5.537   0.809
 4163SOL    HW213389   3.656   5.448   0.915
 4164SOL     OW13390   5.618   1.365   0.073
 4164SOL    HW113391   5.578   1.337   7.009
 4164SOL    HW213392   5.607   1.291   0.139
 4165SOL     OW13393   3.409   2.117   4.223
 4165SOL    HW113394   3.435   2.122   4.320
 4165SOL    HW213395   3.491   2.102   4.167
 4166SOL     OW13396   5.785   2.231   2.742
 4166SOL    HW113397   5.708   2.208   2.801
 4166SOL    HW213398   5.839   2.149   2.723
 4167SOL     OW13399   3.922   6.522   4.675
 4167SOL    HW113400   3.908   6.426   4.650
 4167SOL    HW213401   3.840   6.557   4.719
 4168SOL     OW13402   5.217   3.610   6.812
 4168SOL    HW113403   5.307   3.654   6.820
 4168SOL    HW213404   5.184   3.619   6.718
 4169SOL     OW13405   4.973   3.905   6.420
 4169SOL    HW113406   4.991   3.851   6.338
 4169SOL    HW213407   4.952   4.000   6.394
 4170SOL     OW13408   1.307   3.142   5.252
 4170SOL    HW113409   1.402   3.121   5.276
 4170SOL    HW213410   1.301   3.157   5.153
 4171SOL     OW13411   0.222   0.785   6.265
 4171SOL    HW113412   0.295   0.842   6.302
 4171SOL    HW213413   0.147   0.843   6.233
 4172SOL     OW13414   3.033   2.695   0.031
 4172SOL    HW113415   2.948   2.733   7.018
 4172SOL    HW213416   3.057   2.743   0.116
 4173SOL     OW13417   5.506   1.548   5.647
 4173SOL    HW113418   5.519   1.647   5.638
 4173SOL    HW213419   5.587   1.508   5.691
 4174SOL     OW13420   2.738   6.684   3.516
 4174SOL    HW113421   2.660   6.651   3.569
 4174SOL    HW213422   2.784   6.607   3.471
 4175SOL     OW13423   1.000   4.456   6.218
 4175SOL    HW113424   0.955   4.537   6.254
 4175SOL    HW213425   0.997   4.383   6.286
 4176SOL     OW13426   4.038   6.733   5.235
 4176SOL    HW113427   4.006   6.688   5.152
 4176SOL    HW213428   4.073   6.664   5.299
 4177SOL     OW13429   4.559   6.174   3.512
 4177SOL    HW113430   4.568   6.101   3.446
 4177SOL    HW213431   4.480   6.156   3.571
 4178SOL     OW13432   3.945   6.837   1.169
 4178SOL    HW113433   4.019   6.904   1.164
 4178SOL    HW213434   3.857   6.884   1.166
 4179SOL     OW13435   3.922   1.873   0.142
 4179SOL    HW113436   3.943   1.810   0.067
 4179SOL    HW213437   3.888   1.821   0.220
 4180SOL     OW13438   3.623   4.204   6.973
 4180SOL    HW113439   3.605   4.216   0.047
 4180SOL    HW213440   3.645   4.108   6.955
 4181SOL     OW13441   5.389   5.972   5.340
 4181SOL    HW113442   5.439   6.056   5.362
 4181SOL    HW213443   5.453   5.896   5.334
 4182SOL     OW13444   6.825   5.174   5.574
 4182SOL    HW113445   6.844   5.091   5.626
 4182SOL    HW213446   6.730   5.171   5.540
 4183SOL     OW13447   5.107   2.357   6.947
 4183SOL    HW113448   5.129   2.328   0.017
 4183SOL    HW213449   5.045   2.435   6.951
 4184SOL     OW13450   3.468   5.683   2.973
 4184SOL    HW113451   3.424   5.747   2.909
 4184SOL    HW213452   3.430   5.592   2.959
 4185SOL     OW13453   4.563   4.366   3.316
 4185SOL    HW113454   4.493   4.437   3.310
 4185SOL    HW213455   4.564   4.313   3.231
 4186SOL     OW13456   1.485   5.197   0.509
 4186SOL    HW113457   1.545   5.174   0.586
 4186SOL    HW213458   1.518   5.281   0.465
 4187SOL     OW13459   2.086   4.170   6.597
 4187SOL    HW113460   2.097   4.194   6.501
 4187SOL    HW213461   2.052   4.076   6.604
 4188SOL     OW13462   5.019   0.568   6.500
 4188SOL    HW113463   5.045   0.562   6.404
 4188SOL    HW213464   4.930   0.524   6.514
 4189SOL     OW13465   4.375   5.867   3.348
 4189SOL    HW113466   4.446   5.856   3.417
 4189SOL    HW213467   4.395   5.948   3.291
 4190SOL     OW13468   6.260   5.829   1.574
 4190SOL    HW113469   6.255   5.866   1.482
 4190SOL    HW213470   6.355   5.832   1.606
 4191SOL     OW13471   4.582   2.627   5.856
 4191SOL    HW113472   4.658   2.603   5.794
 4191SOL    HW213473   4.619   2.670   5.938
 4192SOL     OW13474   1.894   3.617   6.212
 4192SOL    HW113475   1.958   3.694   6.221
 4192SOL    HW213476   1.806   3.651   6.179
 4193SOL     OW13477   5.737   6.968   1.462
 4193SOL    HW113478   5.673   6.891   1.453
 4193SOL    HW213479   5.811   6.943   1.524
 4194SOL     OW13480   5.349   0.352   6.807
 4194SOL    HW113481   5.291   0.306   6.740
 4194SOL    HW213482   5.314   0.444   6.824
 4195SOL     OW13483   2.176   6.131   0.887
 4195SOL    HW113484   2.156   6.033   0.885
 4195SOL    HW213485   2.216   6.156   0.975
 4196SOL     OW13486   6.880   2.978   3.769
 4196SOL    HW113487   6.864   2.880   3.758
 4196SOL    HW213488   6.798   3.021   3.806
 4197SOL     OW13489   4.364   0.645   0.060
 4197SOL    HW113490   4.392   0.733   0.021
 4197SOL    HW213491   4.305   0.661   0.140
 4198SOL     OW13492   6.644   2.302   1.116
 4198SOL    HW113493   6.693   2.326   1.199
 4198SOL    HW213494   6.546   2.305   1.134
 4199SOL     OW13495   0.996   3.982   6.656
 4199SOL    HW113496   1.000   3.925   6.737
 4199SOL    HW213497   0.905   3.975   6.614
 4200SOL     OW13498   5.673   1.660   2.562
 4200SOL    HW113499   5.663   1.620   2.471
 4200SOL    HW213500   5.735   1.604   2.617
 4201SOL     OW13501   4.995   0.083   4.798
 4201SOL    HW113502   4.924   0.024   4.759
 4201SOL    HW213503   5.076   0.080   4.739
 4202SOL     OW13504   4.560   4.067   1.648
 4202SOL    HW113505   4.521   4.140   1.703
 4202SOL    HW213506   4.551   4.090   1.551
 4203SOL     OW13507   6.134   4.210   4.860
 4203SOL    HW113508   6.111   4.267   4.939
 4203SOL    HW213509   6.181   4.127   4.890
 4204SOL     OW13510   2.342   4.010   5.793
 4204SOL    HW113511   2.402   4.017   5.873
 4204SOL    HW213512   2.397   4.001   5.710
 4205SOL     OW13513   5.598   5.787   5.596
 4205SOL    HW113514   5.646   5.785   5.508
 4205SOL    HW213515   5.656   5.831   5.664
 4206SOL     OW13516   2.555   2.471   4.990
 4206SOL    HW113517   2.523   2.510   4.904
 4206SOL    HW213518   2.512   2.382   5.005
 4207SOL     OW13519   2.024   2.736   1.299
 4207SOL    HW113520   2.046   2.641   1.320
 4207SOL    HW213521   1.925   2.746   1.290
 4208SOL     OW13522   1.946   2.388   3.102
 4208SOL    HW113523   1.901   2.340   3.176
 4208SOL    HW213524   1.983   2.322   3.036
 4209SOL     OW13525   6.317   5.587   2.315
 4209SOL    HW113526   6.348   5.613   2.406
 4209SOL    HW213527   6.254   5.656   2.280
 4210SOL     OW13528   3.098   5.175   5.558
 4210SOL    HW113529   3.059   5.087   5.583
 4210SOL    HW213530   3.029   5.246   5.568
 4211SOL     OW13531   4.671   2.098   5.749
 4211SOL    HW113532   4.599   2.130   5.810
 4211SOL    HW213533   4.750   2.068   5.804
 4212SOL     OW13534   1.032   2.562   2.848
 4212SOL    HW113535   1.112   2.601   2.892
 4212SOL    HW213536   0.992   2.492   2.907
 4213SOL     OW13537   3.081   0.790   3.539
 4213SOL    HW113538   3.037   0.703   3.516
 4213SOL    HW213539   3.145   0.815   3.466
 4214SOL     OW13540   6.068   6.384   4.220
 4214SOL    HW113541   6.137   6.417   4.156
 4214SOL    HW213542   5.984   6.436   4.208
 4215SOL     OW13543   5.729   0.249   5.605
 4215SOL    HW113544   5.638   0.288   5.613
 4215SOL    HW213545   5.729   0.173   5.540
 4216SOL     OW13546   2.158   5.573   2.438
 4216SOL    HW113547   2.064   5.543   2.457
 4216SOL    HW213548   2.157   5.671   2.416
 4217SOL     OW13549   0.500   0.447   2.975
 4217SOL    HW113550   0.566   0.494   3.034
 4217SOL    HW213551   0.545   0.422   2.889
 4218SOL     OW13552   2.819   0.540   1.629
 4218SOL    HW113553   2.743   0.577   1.576
 4218SOL    HW213554   2.792   0.454   1.671
 4219SOL     OW13555   3.080   5.265   2.648
 4219SOL    HW113556   3.144   5.236   2.719
 4219SOL    HW213557   2.988   5.231   2.671
 4220SOL     OW13558   5.756   1.897   1.289
 4220SOL    HW113559   5.751   1.980   1.233
 4220SOL    HW213560   5.688   1.831   1.256
 4221SOL     OW13561   0.589   6.542   1.285
 4221SOL    HW113562   0.596   6.534   1.186
 4221SOL    HW213563   0.495   6.522   1.314
 4222SOL     OW13564   4.876   3.586   4.315
 4222SOL    HW113565   4.809   3.659   4.323
 4222SOL    HW213566   4.893   3.546   4.405
 4223SOL     OW13567   3.516   4.104   3.002
 4223SOL    HW113568   3.437   4.100   2.941
 4223SOL    HW213569   3.596   4.064   2.957
 4224SOL     OW13570   4.866   4.242   4.631
 4224SOL    HW113571   4.827   4.244   4.539
 4224SOL    HW213572   4.837   4.323   4.681
 4225SOL     OW13573   0.766   1.520   6.254
 4225SOL    HW113574   0.711   1.568   6.186
 4225SOL    HW213575   0.853   1.568   6.266
 4226SOL     OW13576   5.478   4.740   4.512
 4226SOL    HW113577   5.409   4.803   4.548
 4226SOL    HW213578   5.515   4.685   4.587
 4227SOL     OW13579   5.749   5.568   1.122
 4227SOL    HW113580   5.714   5.611   1.039
 4227SOL    HW213581   5.703   5.480   1.137
 4228SOL     OW13582   1.918   3.787   3.790
 4228SOL    HW113583   1.899   3.855   3.719
 4228SOL    HW213584   1.996   3.732   3.762
 4229SOL     OW13585   6.213   6.245   5.400
 4229SOL    HW113586   6.163   6.318   5.353
 4229SOL    HW213587   6.270   6.284   5.473
 4230SOL     OW13588   0.400   0.764   2.445
 4230SOL    HW113589   0.446   0.751   2.356
 4230SOL    HW213590   0.439   0.701   2.512
 4231SOL     OW13591   0.401   0.675   5.925
 4231SOL    HW113592   0.356   0.721   6.001
 4231SOL    HW213593   0.449   0.594   5.958
 4232SOL     OW13594   1.641   4.511   2.823
 4232SOL    HW113595   1.733   4.498   2.785
 4232SOL    HW213596   1.596   4.586   2.774
 4233SOL     OW13597   3.961   5.568   2.251
 4233SOL    HW113598   4.021   5.567   2.331
 4233SOL    HW213599   3.879   5.514   2.270
 4234SOL     OW13600   3.596   5.148   6.485
 4234SOL    HW113601   3.510   5.195   6.505
 4234SOL    HW213602   3.586   5.050   6.504
 4235SOL     OW13603   0.046   6.210   6.799
 4235SOL    HW113604   6.974   6.183   6.810
 4235SOL    HW213605   0.082   6.242   6.887
 4236SOL     OW13606   6.870   5.107   3.317
 4236SOL    HW113607   6.813   5.136   3.240
 4236SOL    HW213608   6.954   5.161   3.318
 4237SOL     OW13609   6.742   4.555   3.806
 4237SOL    HW113610   6.649   4.548   3.769
 4237SOL    HW213611   6.757   4.481   3.871
 4238SOL     OW13612   2.331   5.647   2.705
 4238SOL    HW113613   2.304   5.743   2.697
 4238SOL    HW213614   2.258   5.589   2.670
 4239SOL     OW13615   4.033   1.085   3.328
 4239SOL    HW113616   4.029   0.988   3.301
 4239SOL    HW213617   4.089   1.135   3.263
 4240SOL     OW13618   5.075   0.062   1.978
 4240SOL    HW113619   5.096   0.159   1.971
 4240SOL    HW213620   5.117   0.013   1.902
 4241SOL     OW13621   0.426   4.437   6.939
 4241SOL    HW113622   0.442   4.499   6.862
 4241SOL    HW213623   0.332   4.401   6.934
 4242SOL     OW13624   3.610   2.055   2.809
 4242SOL    HW113625   3.629   1.968   2.856
 4242SOL    HW213626   3.677   2.068   2.736
 4243SOL     OW13627   3.352   2.037   2.726
 4243SOL    HW113628   3.442   2.081   2.731
 4243SOL    HW213629   3.342   1.993   2.637
 4244SOL     OW13630   2.979   3.533   4.954
 4244SOL    HW113631   2.938   3.586   5.029
 4244SOL    HW213632   3.062   3.579   4.923
 4245SOL     OW13633   6.844   0.737   5.516
 4245SOL    HW113634   6.855   0.786   5.430
 4245SOL    HW213635   6.934   0.728   5.561
 4246SOL     OW13636   0.900   4.754   5.976
 4246SOL    HW113637   0.874   4.804   6.059
 4246SOL    HW213638   0.953   4.673   6.001
 4247SOL     OW13639   0.296   4.992   5.053
 4247SOL    HW113640   0.300   4.892   5.055
 4247SOL    HW213641   0.337   5.025   4.967
 4248SOL     OW13642   2.100   3.443   6.686
 4248SOL    HW113643   2.149   3.356   6.679
 4248SOL    HW213644   2.015   3.429   6.737
 4249SOL     OW13645   5.377   2.819   6.211
 4249SOL    HW113646   5.337   2.793   6.123
 4249SOL    HW213647   5.308   2.867   6.266
 4250SOL     OW13648   6.963   4.078   3.660
 4250SOL    HW113649   6.987   4.160   3.712
 4250SOL    HW213650   6.928   4.105   3.570
 4251SOL     OW13651   6.380   4.711   5.786
 4251SOL    HW113652   6.308   4.643   5.799
 4251SOL    HW213653   6.465   4.679   5.826
 4252SOL     OW13654   6.820   4.961   5.258
 4252SOL    HW113655   6.783   4.985   5.168
 4252SOL    HW213656   6.911   5.002   5.269
 4253SOL     OW13657   3.216   6.503   2.974
 4253SOL    HW113658   3.163   6.441   3.032
 4253SOL    HW213659   3.223   6.465   2.882
 4254SOL     OW13660   3.216   2.995   2.156
 4254SOL    HW113661   3.199   2.999   2.058
 4254SOL    HW213662   3.314   2.985   2.173
 4255SOL     OW13663   0.537   2.349   4.141
 4255SOL    HW113664   0.597   2.375   4.216
 4255SOL    HW213665   0.577   2.273   4.090
 4256SOL     OW13666   1.259   0.979   1.940
 4256SOL    HW113667   1.338   0.987   1.880
 4256SOL    HW213668   1.267   1.045   2.015
 4257SOL     OW13669   4.369   2.223   5.302
 4257SOL    HW113670   4.304   2.148   5.309
 4257SOL    HW213671   4.406   2.226   5.209
 4258SOL     OW13672   5.361   5.978   1.977
 4258SOL    HW113673   5.354   5.914   1.900
 4258SOL    HW213674   5.280   6.036   1.978
 4259SOL     OW13675   2.699   3.001   1.457
 4259SOL    HW113676   2.682   2.980   1.360
 4259SOL    HW213677   2.635   2.949   1.513
 4260SOL     OW13678   4.033   6.340   5.084
 4260SOL    HW113679   4.044   6.316   4.988
 4260SOL    HW213680   4.047   6.258   5.140
 4261SOL     OW13681   1.202   1.379   3.194
 4261SOL    HW113682   1.192   1.287   3.231
 4261SOL    HW213683   1.244   1.438   3.263
 4262SOL     OW13684   0.977   6.670   5.377
 4262SOL    HW113685   0.989   6.751   5.435
 4262SOL    HW213686   0.893   6.679   5.324
 4263SOL     OW13687   4.590   4.994   6.668
 4263SOL    HW113688   4.558   5.088   6.654
 4263SOL    HW213689   4.681   4.995   6.709
 4264SOL     OW13690   1.053   0.013   1.559
 4264SOL    HW113691   0.980   6.978   1.523
 4264SOL    HW213692   1.138   7.018   1.509
 4265SOL     OW13693   1.862   1.180   0.562
 4265SOL    HW113694   1.799   1.214   0.493
 4265SOL    HW213695   1.915   1.104   0.524
 4266SOL     OW13696   3.045   4.546   0.435
 4266SOL    HW113697   2.969   4.576   0.377
 4266SOL    HW213698   3.128   4.537   0.381
 4267SOL     OW13699   1.782   3.782   5.519
 4267SOL    HW113700   1.873   3.755   5.551
 4267SOL    HW213701   1.774   3.882   5.523
 4268SOL     OW13702   1.043   1.386   1.316
 4268SOL    HW113703   0.971   1.391   1.385
 4268SOL    HW213704   1.086   1.475   1.305
 4269SOL     OW13705   2.900   3.641   0.451
 4269SOL    HW113706   2.913   3.667   0.356
 4269SOL    HW213707   2.836   3.565   0.457
 4270SOL     OW13708   3.779   2.759   6.824
 4270SOL    HW113709   3.792   2.837   6.885
 4270SOL    HW213710   3.830   2.774   6.739
 4271SOL     OW13711   1.560   0.365   1.410
 4271SOL    HW113712   1.610   0.280   1.426
 4271SOL    HW213713   1.463   0.351   1.431
 4272SOL     OW13714   0.652   4.018   3.744
 4272SOL    HW113715   0.727   4.069   3.701
 4272SOL    HW213716   0.690   3.959   3.815
 4273SOL     OW13717   6.012   6.788   3.277
 4273SOL    HW113718   5.989   6.691   3.276
 4273SOL    HW213719   5.991   6.826   3.367
 4274SOL     OW13720   2.187   0.254   3.726
 4274SOL    HW113721   2.176   0.179   3.792
 4274SOL    HW213722   2.224   0.218   3.640
 4275SOL     OW13723   0.746   0.337   5.253
 4275SOL    HW113724   0.823   0.384   5.296
 4275SOL    HW213725   0.664   0.393   5.261
 4276SOL     OW13726   2.061   3.809   3.104
 4276SOL    HW113727   2.099   3.719   3.087
 4276SOL    HW213728   2.080   3.869   3.026
 4277SOL     OW13729   0.980   5.580   5.459
 4277SOL    HW113730   1.049   5.621   5.400
 4277SOL    HW213731   0.909   5.538   5.404
 4278SOL     OW13732   1.243   6.254   6.666
 4278SOL    HW113733   1.144   6.241   6.676
 4278SOL    HW213734   1.284   6.169   6.634
 4279SOL     OW13735   3.532   5.864   3.160
 4279SOL    HW113736   3.511   5.794   3.092
 4279SOL    HW213737   3.590   5.935   3.119
 4280SOL     OW13738   5.167   2.554   3.490
 4280SOL    HW113739   5.257   2.528   3.455
 4280SOL    HW213740   5.102   2.559   3.415
 4281SOL     OW13741   1.790   4.051   5.363
 4281SOL    HW113742   1.752   4.004   5.283
 4281SOL    HW213743   1.890   4.043   5.362
 4282SOL     OW13744   0.928   1.632   0.319
 4282SOL    HW113745   0.933   1.624   0.419
 4282SOL    HW213746   0.865   1.705   0.295
 4283SOL     OW13747   2.818   0.989   4.203
 4283SOL    HW113748   2.915   0.996   4.178
 4283SOL    HW213749   2.801   1.042   4.286
 4284SOL     OW13750   6.878   1.894   3.190
 4284SOL    HW113751   6.808   1.933   3.249
 4284SOL    HW213752   6.912   1.965   3.128
 4285SOL     OW13753   1.087   6.214   4.219
 4285SOL    HW113754   1.100   6.186   4.124
 4285SOL    HW213755   1.055   6.308   4.222
 4286SOL     OW13756   4.498   5.645   6.581
 4286SOL    HW113757   4.572   5.600   6.530
 4286SOL    HW213758   4.501   5.743   6.564
 4287SOL     OW13759   4.015   5.499   5.419
 4287SOL    HW113760   4.088   5.431   5.423
 4287SOL    HW213761   3.990   5.527   5.512
 4288SOL     OW13762   1.205   6.165   3.718
 4288SOL    HW113763   1.134   6.096   3.736
 4288SOL    HW213764   1.179   6.251   3.763
 4289SOL     OW13765   0.029   4.144   6.677
 4289SOL    HW113766   7.017   4.105   6.762
 4289SOL    HW213767   0.003   4.240   6.671
 4290SOL     OW13768   1.911   1.576   2.791
 4290SOL    HW113769   1.944   1.657   2.742
 4290SOL    HW213770   1.971   1.558   2.869
 4291SOL     OW13771   0.345   4.008   1.242
 4291SOL    HW113772   0.364   3.961   1.327
 4291SOL    HW213773   0.412   4.081   1.228
 4292SOL     OW13774   5.732   5.275   5.066
 4292SOL    HW113775   5.682   5.213   5.005
 4292SOL    HW213776   5.689   5.274   5.156
 4293SOL     OW13777   0.432   2.238   0.202
 4293SOL    HW113778   0.439   2.238   0.302
 4293SOL    HW213779   0.344   2.198   0.175
 4294SOL     OW13780   5.026   1.627   6.330
 4294SOL    HW113781   4.970   1.592   6.404
 4294SOL    HW213782   4.985   1.601   6.242
 4295SOL     OW13783   3.828   5.887   5.652
 4295SOL    HW113784   3.899   5.865   5.719
 4295SOL    HW213785   3.747   5.833   5.671
 4296SOL     OW13786   2.307   1.385   2.618
 4296SOL    HW113787   2.335   1.329   2.540
 4296SOL    HW213788   2.388   1.415   2.669
 4297SOL     OW13789   6.101   0.363   0.576
 4297SOL    HW113790   6.179   0.388   0.633
 4297SOL    HW213791   6.118   0.275   0.533
 4298SOL     OW13792   1.655   4.624   1.961
 4298SOL    HW113793   1.699   4.678   1.889
 4298SOL    HW213794   1.705   4.636   2.047
 4299SOL     OW13795   1.375   5.627   5.338
 4299SOL    HW113796   1.350   5.549   5.395
 4299SOL    HW213797   1.295   5.659   5.287
 4300SOL     OW13798   6.068   0.186   5.679
 4300SOL    HW113799   5.968   0.184   5.677
 4300SOL    HW213800   6.103   0.197   5.586
 4301SOL     OW13801   3.118   1.280   1.161
 4301SOL    HW113802   3.026   1.251   1.133
 4301SOL    HW213803   3.174   1.295   1.081
 4302SOL     OW13804   0.769   0.406   6.901
 4302SOL    HW113805   0.671   0.411   6.880
 4302SOL    HW213806   0.787   0.453   6.988
 4303SOL     OW13807   0.711   3.929   1.365
 4303SOL    HW113808   0.614   3.928   1.389
 4303SOL    HW213809   0.749   4.020   1.384
 4304SOL     OW13810   2.945   3.693   5.703
 4304SOL    HW113811   2.987   3.661   5.618
 4304SOL    HW213812   2.982   3.642   5.781
 4305SOL     OW13813   0.168   1.588   4.947
 4305SOL    HW113814   0.085   1.546   4.984
 4305SOL    HW213815   0.172   1.573   4.848
 4306SOL     OW13816   6.472   5.707   5.515
 4306SOL    HW113817   6.455   5.804   5.528
 4306SOL    HW213818   6.536   5.675   5.584
 4307SOL     OW13819   5.717   3.378   0.709
 4307SOL    HW113820   5.773   3.415   0.635
 4307SOL    HW213821   5.726   3.436   0.790
 4308SOL     OW13822   3.225   0.130   5.040
 4308SOL    HW113823   3.184   0.150   5.129
 4308SOL    HW213824   3.288   0.052   5.049
 4309SOL     OW13825   1.082   6.714   1.798
 4309SOL    HW113826   1.138   6.764   1.864
 4309SOL    HW213827   0.985   6.726   1.821
 4310SOL     OW13828   1.716   6.781   2.894
 4310SOL    HW113829   1.761   6.841   2.827
 4310SOL    HW213830   1.778   6.706   2.918
 4311SOL     OW13831   1.130   5.224   3.988
 4311SOL    HW113832   1.099   5.316   4.011
 4311SOL    HW213833   1.055   5.159   3.998
 4312SOL     OW13834   1.327   5.495   2.060
 4312SOL    HW113835   1.378   5.410   2.074
 4312SOL    HW213836   1.391   5.571   2.050
 4313SOL     OW13837   4.880   0.931   1.492
 4313SOL    HW113838   4.952   0.869   1.459
 4313SOL    HW213839   4.841   0.894   1.577
 4314SOL     OW13840   5.883   3.377   1.003
 4314SOL    HW113841   5.806   3.330   1.045
 4314SOL    HW213842   5.896   3.466   1.046
 4315SOL     OW13843   2.066   1.186   2.638
 4315SOL    HW113844   2.018   1.209   2.553
 4315SOL    HW213845   2.139   1.252   2.654
 4316SOL     OW13846   0.483   1.212   2.596
 4316SOL    HW113847   0.471   1.184   2.691
 4316SOL    HW213848   0.491   1.311   2.591
 4317SOL     OW13849   4.242   0.566   3.139
 4317SOL    HW113850   4.331   0.611   3.130
 4317SOL    HW213851   4.248   0.473   3.102
 4318SOL     OW13852   7.019   2.372   5.160
 4318SOL    HW113853   0.060   2.335   5.094
 4318SOL    HW213854   6.962   2.299   5.196
 4319SOL     OW13855   3.810   2.207   6.477
 4319SOL    HW113856   3.888   2.154   6.512
 4319SOL    HW213857   3.842   2.293   6.437
 4320SOL     OW13858   6.833   6.529   3.367
 4320SOL    HW113859   6.737   6.519   3.391
 4320SOL    HW213860   6.885   6.558   3.447
 4321SOL     OW13861   0.733   0.350   4.891
 4321SOL    HW113862   0.679   0.309   4.965
 4321SOL    HW213863   0.816   0.391   4.929
 4322SOL     OW13864   6.413   1.228   1.270
 4322SOL    HW113865   6.454   1.194   1.186
 4322SOL    HW213866   6.363   1.313   1.250
 4323SOL     OW13867   6.932   1.703   3.753
 4323SOL    HW113868   6.883   1.680   3.838
 4323SOL    HW213869   7.000   1.633   3.734
 4324SOL     OW13870   5.619   2.755   5.525
 4324SOL    HW113871   5.699   2.803   5.489
 4324SOL    HW213872   5.537   2.808   5.507
 4325SOL     OW13873   1.824   2.692   6.837
 4325SOL    HW113874   1.891   2.635   6.790
 4325SOL    HW213875   1.732   2.654   6.822
 4326SOL     OW13876   6.640   2.470   5.017
 4326SOL    HW113877   6.673   2.512   4.933
 4326SOL    HW213878   6.542   2.485   5.027
 4327SOL     OW13879   4.716   0.861   3.109
 4327SOL    HW113880   4.701   0.950   3.151
 4327SOL    HW213881   4.650   0.849   3.035
 4328SOL     OW13882   6.209   5.070   0.319
 4328SOL    HW113883   6.131   5.047   0.261
 4328SOL    HW213884   6.214   5.007   0.396
 4329SOL     OW13885   5.120   1.226   6.925
 4329SOL    HW113886   5.035   1.278   6.933
 4329SOL    HW213887   5.195   1.280   6.963
 4330SOL     OW13888   1.029   0.959   6.509
 4330SOL    HW113889   1.078   0.875   6.532
 4330SOL    HW213890   0.995   1.002   6.593
 4331SOL     OW13891   5.133   2.460   6.549
 4331SOL    HW113892   5.046   2.491   6.587
 4331SOL    HW213893   5.177   2.535   6.500
 4332SOL     OW13894   5.642   3.935   1.605
 4332SOL    HW113895   5.667   3.957   1.699
 4332SOL    HW213896   5.598   3.846   1.602
 4333SOL     OW13897   6.502   1.373   4.775
 4333SOL    HW113898   6.491   1.472   4.782
 4333SOL    HW213899   6.591   1.353   4.734
 4334SOL     OW13900   3.886   0.483   1.812
 4334SOL    HW113901   3.952   0.551   1.781
 4334SOL    HW213902   3.821   0.464   1.738
 4335SOL     OW13903   3.913   4.281   5.903
 4335SOL    HW113904   3.856   4.203   5.929
 4335SOL    HW213905   3.855   4.357   5.875
 4336SOL     OW13906   1.001   7.013   5.913
 4336SOL    HW113907   0.939   0.020   5.985
 4336SOL    HW213908   1.086   0.041   5.917
 4337SOL     OW13909   0.756   5.739   6.441
 4337SOL    HW113910   0.761   5.820   6.382
 4337SOL    HW213911   0.825   5.746   6.513
 4338SOL     OW13912   5.625   6.666   3.182
 4338SOL    HW113913   5.631   6.754   3.135
 4338SOL    HW213914   5.607   6.681   3.279
 4339SOL     OW13915   6.705   1.086   6.724
 4339SOL    HW113916   6.714   1.185   6.716
 4339SOL    HW213917   6.760   1.054   6.801
 4340SOL     OW13918   4.654   3.820   1.572
 4340SOL    HW113919   4.622   3.898   1.626
 4340SOL    HW213920   4.698   3.754   1.632
 4341SOL     OW13921   0.992   3.269   0.807
 4341SOL    HW113922   0.931   3.294   0.883
 4341SOL    HW213923   1.064   3.338   0.798
 4342SOL     OW13924   6.903   2.125   3.031
 4342SOL    HW113925   6.822   2.182   3.025
 4342SOL    HW213926   6.981   2.180   3.062
 4343SOL     OW13927   3.212   2.292   0.824
 4343SOL    HW113928   3.260   2.378   0.837
 4343SOL    HW213929   3.270   2.228   0.774
 4344SOL     OW13930   2.086   3.306   1.827
 4344SOL    HW113931   1.999   3.262   1.846
 4344SOL    HW213932   2.152   3.238   1.796
 4345SOL     OW13933   3.171   1.153   5.893
 4345SOL    HW113934   3.083   1.197   5.880
 4345SOL    HW213935   3.242   1.203   5.843
 4346SOL     OW13936   6.950   3.764   1.090
 4346SOL    HW113937   0.013   3.799   1.055
 4346SOL    HW213938   6.885   3.840   1.100
 4347SOL     OW13939   4.652   5.652   2.487
 4347SOL    HW113940   4.719   5.693   2.426
 4347SOL    HW213941   4.561   5.659   2.447
 4348SOL     OW13942   1.470   3.499   0.528
 4348SOL    HW113943   1.483   3.410   0.484
 4348SOL    HW213944   1.535   3.565   0.490
 4349SOL     OW13945   6.811   0.923   1.663
 4349SOL    HW113946   6.859   0.839   1.688
 4349SOL    HW213947   6.776   0.914   1.569
 4350SOL     OW13948   4.034   0.625   2.692
 4350SOL    HW113949   3.937   0.650   2.686
 4350SOL    HW213950   4.046   0.530   2.663
 4351SOL     OW13951   3.037   6.800   6.783
 4351SOL    HW113952   3.117   6.751   6.749
 4351SOL    HW213953   3.050   6.823   6.879
 4352SOL     OW13954   6.469   2.269   2.343
 4352SOL    HW113955   6.455   2.319   2.258
 4352SOL    HW213956   6.457   2.171   2.325
 4353SOL     OW13957   3.417   5.361   1.279
 4353SOL    HW113958   3.443   5.447   1.322
 4353SOL    HW213959   3.363   5.306   1.343
 4354SOL     OW13960   2.936   0.712   1.364
 4354SOL    HW113961   2.937   0.723   1.264
 4354SOL    HW213962   2.844   0.689   1.394
 4355SOL     OW13963   4.859   6.759   6.886
 4355SOL    HW113964   4.885   6.823   6.813
 4355SOL    HW213965   4.909   6.673   6.875
 4356SOL     OW13966   3.424   3.716   0.971
 4356SOL    HW113967   3.324   3.711   0.981
 4356SOL    HW213968   3.461   3.774   1.044
 4357SOL     OW13969   5.980   0.511   0.361
 4357SOL    HW113970   6.037   0.465   0.429
 4357SOL    HW213971   5.897   0.458   0.346
 4358SOL     OW13972   6.101   0.653   1.111
 4358SOL    HW113973   6.187   0.698   1.134
 4358SOL    HW213974   6.064   0.693   1.026
 4359SOL     OW13975   0.522   4.038   4.696
 4359SOL    HW113976   0.597   3.986   4.656
 4359SOL    HW213977   0.494   3.995   4.782
 4360SOL     OW13978   2.213   3.494   1.271
 4360SOL    HW113979   2.191   3.488   1.368
 4360SOL    HW213980   2.312   3.496   1.259
 4361SOL     OW13981   5.729   2.480   2.613
 4361SOL    HW113982   5.795   2.468   2.540
 4361SOL    HW213983   5.737   2.405   2.679
 4362SOL     OW13984   5.010   4.147   2.776
 4362SOL    HW113985   4.920   4.142   2.820
 4362SOL    HW213986   5.006   4.102   2.687
 4363SOL     OW13987   4.837   0.827   6.538
 4363SOL    HW113988   4.874   0.864   6.623
 4363SOL    HW213989   4.909   0.821   6.470
 4364SOL     OW13990   3.943   3.970   4.622
 4364SOL    HW113991   4.009   3.924   4.562
 4364SOL    HW213992   3.976   3.966   4.716
 4365SOL     OW13993   4.476   2.179   0.238
 4365SOL    HW113994   4.510   2.225   0.320
 4365SOL    HW213995   4.381   2.153   0.251
 4366SOL     OW13996   4.477   5.010   0.299
 4366SOL    HW113997   4.441   4.990   0.390
 4366SOL    HW213998   4.577   5.019   0.304
 4367SOL     OW13999   6.522   6.731   0.868
 4367SOL    HW114000   6.517   6.679   0.953
 4367SOL    HW214001   6.550   6.671   0.793
 4368SOL     OW14002   4.043   5.124   1.957
 4368SOL    HW114003   4.126   5.154   2.004
 4368SOL    HW214004   4.003   5.045   2.005
 4369SOL     OW14005   3.099   5.458   1.820
 4369SOL    HW114006   3.115   5.435   1.724
 4369SOL    HW214007   3.186   5.463   1.869
 4370SOL     OW14008   4.926   4.337   1.795
 4370SOL    HW114009   4.902   4.253   1.844
 4370SOL    HW214010   4.882   4.337   1.705
 4371SOL     OW14011   1.141   1.640   2.692
 4371SOL    HW114012   1.160   1.722   2.639
 4371SOL    HW214013   1.201   1.638   2.772
 4372SOL     OW14014   4.872   6.949   3.914
 4372SOL    HW114015   4.813   6.966   3.993
 4372SOL    HW214016   4.966   6.936   3.945
 4373SOL     OW14017   0.154   1.659   5.901
 4373SOL    HW114018   0.079   1.609   5.943
 4373SOL    HW214019   0.122   1.749   5.872
 4374SOL     OW14020   3.518   1.400   7.023
 4374SOL    HW114021   3.471   1.482   0.032
 4374SOL    HW214022   3.470   1.364   6.944
 4375SOL     OW14023   3.610   5.495   4.112
 4375SOL    HW114024   3.616   5.541   4.201
 4375SOL    HW214025   3.669   5.414   4.113
 4376SOL     OW14026   6.999   2.552   3.450
 4376SOL    HW114027   6.925   2.611   3.419
 4376SOL    HW214028   0.040   2.605   3.504
 4377SOL     OW14029   6.763   4.783   6.192
 4377SOL    HW114030   6.815   4.748   6.114
 4377SOL    HW214031   6.704   4.858   6.162
 4378SOL     OW14032   3.304   1.908   4.084
 4378SOL    HW114033   3.297   1.836   4.153
 4378SOL    HW214034   3.371   1.976   4.113
 4379SOL     OW14035   3.776   1.752   6.230
 4379SOL    HW114036   3.678   1.749   6.254
 4379SOL    HW214037   3.799   1.844   6.197
 4380SOL     OW14038   0.478   2.449   3.142
 4380SOL    HW114039   0.466   2.390   3.221
 4380SOL    HW214040   0.393   2.451   3.089
 4381SOL     OW14041   1.470   5.126   6.845
 4381SOL    HW114042   1.438   5.113   6.938
 4381SOL    HW214043   1.396   5.163   6.788
 4382SOL     OW14044   1.057   4.948   4.646
 4382SOL    HW114045   1.077   5.031   4.595
 4382SOL    HW214046   1.005   4.884   4.588
 4383SOL     OW14047   0.420   4.577   0.528
 4383SOL    HW114048   0.477   4.649   0.568
 4383SOL    HW214049   0.341   4.559   0.588
 4384SOL     OW14050   5.040   0.049   3.513
 4384SOL    HW114051   5.009   7.020   3.433
 4384SOL    HW214052   4.963   0.063   3.575
 4385SOL     OW14053   4.657   0.256   5.711
 4385SOL    HW114054   4.707   0.335   5.678
 4385SOL    HW214055   4.559   0.275   5.709
 4386SOL     OW14056   2.168   3.387   4.383
 4386SOL    HW114057   2.171   3.328   4.463
 4386SOL    HW214058   2.195   3.335   4.302
 4387SOL     OW14059   5.223   2.218   1.405
 4387SOL    HW114060   5.307   2.172   1.432
 4387SOL    HW214061   5.166   2.233   1.486
 4388SOL     OW14062   5.451   3.401   0.620
 4388SOL    HW114063   5.547   3.390   0.646
 4388SOL    HW214064   5.401   3.317   0.642
 4389SOL     OW14065   2.665   1.363   6.994
 4389SOL    HW114066   2.657   1.265   7.016
 4389SOL    HW214067   2.593   1.413   0.019
 4390SOL     OW14068   0.036   1.846   0.804
 4390SOL    HW114069   7.004   1.781   0.856
 4390SOL    HW214070   0.091   1.900   0.868
 4391SOL     OW14071   0.338   6.112   1.665
 4391SOL    HW114072   0.286   6.101   1.580
 4391SOL    HW214073   0.288   6.173   1.726
 4392SOL     OW14074   1.141   2.779   5.959
 4392SOL    HW114075   1.141   2.879   5.949
 4392SOL    HW214076   1.233   2.747   5.982
 4393SOL     OW14077   6.178   0.426   2.211
 4393SOL    HW114078   6.117   0.425   2.290
 4393SOL    HW214079   6.231   0.341   2.208
 4394SOL     OW14080   6.933   0.513   2.545
 4394SOL    HW114081   0.005   0.513   2.515
 4394SOL    HW214082   6.899   0.419   2.547
 4395SOL     OW14083   1.260   3.815   1.835
 4395SOL    HW114084   1.296   3.893   1.782
 4395SOL    HW214085   1.307   3.810   1.923
 4396SOL     OW14086   2.647   1.162   2.901
 4396SOL    HW114087   2.578   1.152   2.972
 4396SOL    HW214088   2.680   1.256   2.899
 4397SOL     OW14089   3.626   0.469   5.398
 4397SOL    HW114090   3.546   0.409   5.404
 4397SOL    HW214091   3.668   0.460   5.308
 4398SOL     OW14092   2.361   3.439   5.788
 4398SOL    HW114093   2.449   3.396   5.769
 4398SOL    HW214094   2.374   3.538   5.799
 4399SOL     OW14095   3.245   6.059   1.461
 4399SOL    HW114096   3.268   5.989   1.393
 4399SOL    HW214097   3.325   6.117   1.476
 4400SOL     OW14098   1.672   6.051   5.159
 4400SOL    HW114099   1.618   6.134   5.174
 4400SOL    HW214100   1.619   5.986   5.105
 4401SOL     OW14101   3.030   6.878   6.514
 4401SOL    HW114102   3.000   6.804   6.453
 4401SOL    HW214103   3.025   6.847   6.609
 4402SOL     OW14104   1.185   0.997   2.591
 4402SOL    HW114105   1.124   0.953   2.657
 4402SOL    HW214106   1.235   0.927   2.540
 4403SOL     OW14107   6.350   6.132   3.430
 4403SOL    HW114108   6.402   6.082   3.360
 4403SOL    HW214109   6.268   6.171   3.389
 4404SOL     OW14110   0.740   6.711   5.236
 4404SOL    HW114111   0.651   6.718   5.191
 4404SOL    HW214112   0.775   6.802   5.256
 4405SOL     OW14113   1.450   5.033   2.743
 4405SOL    HW114114   1.508   5.031   2.661
 4405SOL    HW214115   1.493   5.092   2.812
 4406SOL     OW14116   6.296   4.656   2.495
 4406SOL    HW114117   6.371   4.692   2.551
 4406SOL    HW214118   6.231   4.729   2.475
 4407SOL     OW14119   5.731   6.769   1.150
 4407SOL    HW114120   5.800   6.837   1.124
 4407SOL    HW214121   5.647   6.787   1.100
 4408SOL     OW14122   4.726   0.746   0.830
 4408SOL    HW114123   4.764   0.709   0.746
 4408SOL    HW214124   4.628   0.761   0.820
 4409SOL     OW14125   3.566   0.603   3.914
 4409SOL    HW114126   3.643   0.547   3.944
 4409SOL    HW214127   3.594   0.699   3.911
 4410SOL     OW14128   1.004   0.106   1.168
 4410SOL    HW114129   1.065   0.159   1.110
 4410SOL    HW214130   1.037   0.012   1.174
 4411SOL     OW14131   4.533   4.786   5.116
 4411SOL    HW114132   4.623   4.742   5.111
 4411SOL    HW214133   4.519   4.843   5.035
 4412SOL     OW14134   4.359   6.083   1.548
 4412SOL    HW114135   4.352   5.984   1.535
 4412SOL    HW214136   4.439   6.103   1.605
 4413SOL     OW14137   5.189   6.331   4.437
 4413SOL    HW114138   5.230   6.243   4.413
 4413SOL    HW214139   5.097   6.337   4.400
 4414SOL     OW14140   5.515   4.316   1.139
 4414SOL    HW114141   5.457   4.397   1.149
 4414SOL    HW214142   5.610   4.341   1.159
 4415SOL     OW14143   1.743   3.940   1.446
 4415SOL    HW114144   1.759   4.038   1.433
 4415SOL    HW214145   1.720   3.898   1.358
 4416SOL     OW14146   4.921   3.474   4.556
 4416SOL    HW114147   4.899   3.423   4.639
 4416SOL    HW214148   5.012   3.447   4.523
 4417SOL     OW14149   0.580   4.413   1.879
 4417SOL    HW114150   0.579   4.313   1.876
 4417SOL    HW214151   0.647   4.444   1.946
 4418SOL     OW14152   6.409   1.372   5.201
 4418SOL    HW114153   6.452   1.347   5.288
 4418SOL    HW214154   6.346   1.449   5.216
 4419SOL     OW14155   6.457   6.487   6.564
 4419SOL    HW114156   6.394   6.564   6.574
 4419SOL    HW214157   6.528   6.493   6.635
 4420SOL     OW14158   3.873   1.091   0.806
 4420SOL    HW114159   3.960   1.086   0.757
 4420SOL    HW214160   3.868   1.177   0.857
 4421SOL     OW14161   2.726   2.945   0.149
 4421SOL    HW114162   2.788   2.936   0.070
 4421SOL    HW214163   2.631   2.936   0.118
 4422SOL     OW14164   0.662   3.151   6.287
 4422SOL    HW114165   0.679   3.183   6.380
 4422SOL    HW214166   0.743   3.105   6.252
 4423SOL     OW14167   5.519   4.536   4.338
 4423SOL    HW114168   5.484   4.445   4.362
 4423SOL    HW214169   5.490   4.602   4.408
 4424SOL     OW14170   3.967   5.893   2.727
 4424SOL    HW114171   3.985   5.991   2.722
 4424SOL    HW214172   4.051   5.844   2.750
 4425SOL     OW14173   0.116   6.474   1.576
 4425SOL    HW114174   0.053   6.396   1.588
 4425SOL    HW214175   0.066   6.551   1.536
 4426SOL     OW14176   0.528   0.663   4.540
 4426SOL    HW114177   0.483   0.594   4.484
 4426SOL    HW214178   0.460   0.720   4.585
 4427SOL     OW14179   3.487   5.839   2.040
 4427SOL    HW114180   3.551   5.909   2.007
 4427SOL    HW214181   3.395   5.861   2.009
 4428SOL     OW14182   6.055   6.364   3.516
 4428SOL    HW114183   6.141   6.412   3.534
 4428SOL    HW214184   5.997   6.368   3.597
 4429SOL     OW14185   2.530   5.970   2.822
 4429SOL    HW114186   2.500   6.042   2.885
 4429SOL    HW214187   2.449   5.925   2.783
 4430SOL     OW14188   6.135   4.049   4.467
 4430SOL    HW114189   6.191   3.975   4.432
 4430SOL    HW214190   6.074   4.014   4.539
 4431SOL     OW14191   4.192   6.883   4.809
 4431SOL    HW114192   4.133   6.906   4.886
 4431SOL    HW214193   4.188   6.784   4.792
 4432SOL     OW14194   1.673   3.677   6.480
 4432SOL    HW114195   1.598   3.725   6.525
 4432SOL    HW214196   1.681   3.710   6.385
 4433SOL     OW14197   0.694   0.210   4.650
 4433SOL    HW114198   0.775   0.225   4.594
 4433SOL    HW214199   0.703   0.261   4.736
 4434SOL     OW14200   6.680   1.279   2.054
 4434SOL    HW114201   6.761   1.280   2.112
 4434SOL    HW214202   6.707   1.301   1.960
 4435SOL     OW14203   2.573   4.524   1.248
 4435SOL    HW114204   2.653   4.471   1.273
 4435SOL    HW214205   2.512   4.469   1.190
 4436SOL     OW14206   4.729   2.328   1.474
 4436SOL    HW114207   4.771   2.407   1.518
 4436SOL    HW214208   4.667   2.283   1.538
 4437SOL     OW14209   6.675   5.027   6.884
 4437SOL    HW114210   6.668   4.991   6.791
 4437SOL    HW214211   6.583   5.046   6.919
 4438SOL     OW14212   4.443   1.310   4.677
 4438SOL    HW114213   4.399   1.386   4.630
 4438SOL    HW214214   4.426   1.225   4.626
 4439SOL     OW14215   2.559   4.783   1.967
 4439SOL    HW114216   2.570   4.881   1.950
 4439SOL    HW214217   2.648   4.744   1.991
 4440SOL     OW14218   2.146   5.528   5.700
 4440SOL    HW114219   2.064   5.482   5.734
 4440SOL    HW214220   2.136   5.544   5.601
 4441SOL     OW14221   6.629   1.595   1.076
 4441SOL    HW114222   6.540   1.630   1.104
 4441SOL    HW214223   6.687   1.581   1.157
 4442SOL     OW14224   1.630   4.790   0.915
 4442SOL    HW114225   1.614   4.734   0.996
 4442SOL    HW214226   1.727   4.814   0.911
 4443SOL     OW14227   1.067   5.942   5.248
 4443SOL    HW114228   1.163   5.961   5.267
 4443SOL    HW214229   1.013   5.961   5.330
 4444SOL     OW14230   4.986   5.988   6.922
 4444SOL    HW114231   5.056   5.937   6.973
 4444SOL    HW214232   4.942   5.926   6.857
 4445SOL     OW14233   2.025   3.664   0.383
 4445SOL    HW114234   2.011   3.681   0.481
 4445SOL    HW214235   1.974   3.583   0.356
 4446SOL     OW14236   5.258   1.912   2.101
 4446SOL    HW114237   5.175   1.860   2.088
 4446SOL    HW214238   5.256   1.994   2.044
 4447SOL     OW14239   4.861   5.809   5.366
 4447SOL    HW114240   4.773   5.800   5.413
 4447SOL    HW214241   4.857   5.888   5.304
 4448SOL     OW14242   2.919   6.492   2.573
 4448SOL    HW114243   2.831   6.503   2.619
 4448SOL    HW214244   2.916   6.410   2.516
 4449SOL     OW14245   4.103   1.765   5.762
 4449SOL    HW114246   4.015   1.736   5.800
 4449SOL    HW214247   4.090   1.795   5.668
 4450SOL     OW14248   2.073   5.867   0.953
 4450SOL    HW114249   2.107   5.779   0.919
 4450SOL    HW214250   1.979   5.880   0.922
 4451SOL     OW14251   4.937   6.019   3.778
 4451SOL    HW114252   4.916   6.067   3.692
 4451SOL    HW214253   5.034   6.031   3.800
 4452SOL     OW14254   5.207   4.354   3.744
 4452SOL    HW114255   5.209   4.390   3.838
 4452SOL    HW214256   5.147   4.410   3.688
 4453SOL     OW14257   0.168   5.861   1.650
 4453SOL    HW114258   0.099   5.838   1.718
 4453SOL    HW214259   0.227   5.934   1.686
 4454SOL     OW14260   0.818   1.210   0.142
 4454SOL    HW114261   0.725   1.210   0.105
 4454SOL    HW214262   0.876   1.150   0.087
 4455SOL     OW14263   1.202   0.529   4.232
 4455SOL    HW114264   1.136   0.557   4.162
 4455SOL    HW214265   1.284   0.586   4.224
 4456SOL     OW14266   1.346   5.796   4.081
 4456SOL    HW114267   1.339   5.766   4.176
 4456SOL    HW214268   1.255   5.793   4.038
 4457SOL     OW14269   1.445   1.889   4.365
 4457SOL    HW114270   1.482   1.924   4.279
 4457SOL    HW214271   1.403   1.964   4.415
 4458SOL     OW14272   2.098   1.907   6.229
 4458SOL    HW114273   2.169   1.936   6.293
 4458SOL    HW214274   2.056   1.987   6.187
 4459SOL     OW14275   0.600   4.352   2.984
 4459SOL    HW114276   0.587   4.292   3.063
 4459SOL    HW214277   0.511   4.372   2.942
 4460SOL     OW14278   6.827   3.125   4.990
 4460SOL    HW114279   6.891   3.140   4.914
 4460SOL    HW214280   6.859   3.176   5.070
 4461SOL     OW14281   1.979   6.957   0.708
 4461SOL    HW114282   1.968   0.033   0.711
 4461SOL    HW214283   1.943   6.922   0.621
 4462SOL     OW14284   6.881   4.506   2.029
 4462SOL    HW114285   6.810   4.507   2.100
 4462SOL    HW214286   6.913   4.600   2.014
 4463SOL     OW14287   5.673   2.189   0.102
 4463SOL    HW114288   5.742   2.168   0.033
 4463SOL    HW214289   5.649   2.286   0.097
 4464SOL     OW14290   0.589   3.450   1.328
 4464SOL    HW114291   0.527   3.399   1.386
 4464SOL    HW214292   0.558   3.444   1.233
 4465SOL     OW14293   4.499   4.959   1.845
 4465SOL    HW114294   4.494   4.958   1.945
 4465SOL    HW214295   4.481   4.866   1.810
 4466SOL     OW14296   0.588   3.092   2.641
 4466SOL    HW114297   0.656   3.034   2.597
 4466SOL    HW214298   0.621   3.187   2.641
 4467SOL     OW14299   5.152   4.696   1.311
 4467SOL    HW114300   5.074   4.678   1.371
 4467SOL    HW214301   5.123   4.755   1.235
 4468SOL     OW14302   1.855   3.064   0.551
 4468SOL    HW114303   1.869   3.131   0.478
 4468SOL    HW214304   1.756   3.049   0.563
 4469SOL     OW14305   1.737   5.976   1.726
 4469SOL    HW114306   1.699   5.888   1.697
 4469SOL    HW214307   1.795   6.013   1.654
 4470SOL     OW14308   0.776   0.095   2.926
 4470SOL    HW114309   0.741   0.051   3.008
 4470SOL    HW214310   0.873   0.071   2.914
 4471SOL     OW14311   1.109   0.479   6.918
 4471SOL    HW114312   1.127   0.473   6.820
 4471SOL    HW214313   1.022   0.528   6.932
 4472SOL     OW14314   1.623   2.696   0.575
 4472SOL    HW114315   1.641   2.789   0.608
 4472SOL    HW214316   1.524   2.682   0.567
 4473SOL     OW14317   0.350   2.443   5.178
 4473SOL    HW114318   0.426   2.451   5.114
 4473SOL    HW214319   0.314   2.534   5.198
 4474SOL     OW14320   2.450   6.605   1.027
 4474SOL    HW114321   2.379   6.618   0.957
 4474SOL    HW214322   2.489   6.513   1.017
 4475SOL     OW14323   0.867   3.325   0.422
 4475SOL    HW114324   0.858   3.378   0.506
 4475SOL    HW214325   0.913   3.238   0.441
 4476SOL     OW14326   4.932   0.734   3.658
 4476SOL    HW114327   4.876   0.766   3.582
 4476SOL    HW214328   4.949   0.636   3.648
 4477SOL     OW14329   0.310   1.280   4.309
 4477SOL    HW114330   0.377   1.217   4.348
 4477SOL    HW214331   0.356   1.362   4.276
 4478SOL     OW14332   1.117   0.743   2.276
 4478SOL    HW114333   1.178   0.799   2.332
 4478SOL    HW214334   1.154   0.651   2.267
 4479SOL     OW14335   2.452   3.055   0.089
 4479SOL    HW114336   2.456   3.153   0.106
 4479SOL    HW214337   2.420   3.037   7.020
 4480SOL     OW14338   6.749   6.977   3.017
 4480SOL    HW114339   6.655   6.954   2.991
 4480SOL    HW214340   6.788   6.902   3.071
 4481SOL     OW14341   2.386   3.772   6.003
 4481SOL    HW114342   2.359   3.712   6.078
 4481SOL    HW214343   2.403   3.865   6.038
 4482SOL     OW14344   2.871   6.800   1.449
 4482SOL    HW114345   2.953   6.763   1.494
 4482SOL    HW214346   2.795   6.737   1.462
 4483SOL     OW14347   0.826   3.308   1.043
 4483SOL    HW114348   0.902   3.323   1.107
 4483SOL    HW214349   0.739   3.311   1.093
 4484SOL     OW14350   3.838   0.653   0.695
 4484SOL    HW114351   3.825   0.752   0.692
 4484SOL    HW214352   3.773   0.613   0.761
 4485SOL     OW14353   0.266   2.952   5.335
 4485SOL    HW114354   0.199   2.941   5.408
 4485SOL    HW214355   0.308   3.042   5.340
 4486SOL     OW14356   4.969   4.732   3.866
 4486SOL    HW114357   4.888   4.713   3.811
 4486SOL    HW214358   4.970   4.673   3.946
 4487SOL     OW14359   0.488   2.650   6.332
 4487SOL    HW114360   0.477   2.728   6.270
 4487SOL    HW214361   0.563   2.668   6.396
 4488SOL     OW14362   5.608   4.732   3.888
 4488SOL    HW114363   5.561   4.708   3.803
 4488SOL    HW214364   5.542   4.737   3.963
 4489SOL     OW14365   3.519   6.174   6.209
 4489SOL    HW114366   3.421   6.195   6.210
 4489SOL    HW214367   3.547   6.149   6.116
 4490SOL     OW14368   5.527   1.792   2.185
 4490SOL    HW114369   5.536   1.865   2.254
 4490SOL    HW214370   5.439   1.746   2.197
 4491SOL     OW14371   0.242   4.056   2.755
 4491SOL    HW114372   0.333   4.061   2.713
 4491SOL    HW214373   0.249   4.005   2.842
 4492SOL     OW14374   6.900   1.357   2.266
 4492SOL    HW114375   6.974   1.307   2.221
 4492SOL    HW214376   6.935   1.405   2.346
 4493SOL     OW14377   5.362   1.200   6.214
 4493SOL    HW114378   5.417   1.151   6.282
 4493SOL    HW214379   5.423   1.256   6.157
 4494SOL     OW14380   1.434   1.634   2.477
 4494SOL    HW114381   1.420   1.726   2.512
 4494SOL    HW214382   1.521   1.630   2.427
 4495SOL     OW14383   3.987   6.172   1.149
 4495SOL    HW114384   4.033   6.260   1.145
 4495SOL    HW214385   4.052   6.099   1.126
 4496SOL     OW14386   2.255   5.262   5.697
 4496SOL    HW114387   2.185   5.210   5.649
 4496SOL    HW214388   2.237   5.360   5.687
 4497SOL     OW14389   4.436   6.821   5.734
 4497SOL    HW114390   4.485   6.855   5.814
 4497SOL    HW214391   4.360   6.883   5.712
 4498SOL     OW14392   1.475   4.693   4.183
 4498SOL    HW114393   1.480   4.670   4.086
 4498SOL    HW214394   1.384   4.730   4.204
 4499SOL     OW14395   5.624   2.104   2.077
 4499SOL    HW114396   5.674   2.020   2.059
 4499SOL    HW214397   5.603   2.110   2.175
 4500SOL     OW14398   3.395   6.798   6.928
 4500SOL    HW114399   3.388   6.898   6.936
 4500SOL    HW214400   3.468   6.775   6.864
 4501SOL     OW14401   6.228   0.069   2.966
 4501SOL    HW114402   6.263   0.153   3.006
 4501SOL    HW214403   6.198   0.008   3.039
 4502SOL     OW14404   1.264   4.161   0.128
 4502SOL    HW114405   1.275   4.065   0.153
 4502SOL    HW214406   1.222   4.167   0.038
 4503SOL     OW14407   3.772   1.183   2.690
 4503SOL    HW114408   3.851   1.124   2.706
 4503SOL    HW214409   3.801   1.277   2.679
 4504SOL     OW14410   1.389   2.390   3.884
 4504SOL    HW114411   1.395   2.458   3.957
 4504SOL    HW214412   1.304   2.337   3.894
 4505SOL     OW14413   6.808   3.161   3.451
 4505SOL    HW114414   6.789   3.200   3.541
 4505SOL    HW214415   6.898   3.117   3.452
 4506SOL     OW14416   4.221   3.768   0.177
 4506SOL    HW114417   4.258   3.767   0.084
 4506SOL    HW214418   4.121   3.761   0.173
 4507SOL     OW14419   6.067   2.620   2.939
 4507SOL    HW114420   5.994   2.555   2.918
 4507SOL    HW214421   6.046   2.666   3.025
 4508SOL     OW14422   5.691   5.258   0.224
 4508SOL    HW114423   5.785   5.291   0.216
 4508SOL    HW214424   5.689   5.158   0.217
 4509SOL     OW14425   4.622   2.018   2.801
 4509SOL    HW114426   4.532   2.059   2.817
 4509SOL    HW214427   4.617   1.956   2.724
 4510SOL     OW14428   4.832   1.828   3.657
 4510SOL    HW114429   4.807   1.796   3.566
 4510SOL    HW214430   4.789   1.770   3.726
 4511SOL     OW14431   0.764   4.480   6.769
 4511SOL    HW114432   0.772   4.485   6.669
 4511SOL    HW214433   0.851   4.449   6.808
 4512SOL     OW14434   2.694   3.746   5.756
 4512SOL    HW114435   2.637   3.725   5.677
 4512SOL    HW214436   2.791   3.743   5.729
 4513SOL     OW14437   0.663   1.239   1.338
 4513SOL    HW114438   0.611   1.265   1.420
 4513SOL    HW214439   0.608   1.259   1.257
 4514SOL     OW14440   4.704   4.165   6.662
 4514SOL    HW114441   4.619   4.131   6.703
 4514SOL    HW214442   4.774   4.176   6.732
 4515SOL     OW14443   4.381   0.129   5.696
 4515SOL    HW114444   4.355   0.078   5.614
 4515SOL    HW214445   4.335   0.217   5.697
 4516SOL     OW14446   3.428   1.680   5.338
 4516SOL    HW114447   3.368   1.726   5.404
 4516SOL    HW214448   3.415   1.721   5.248
 4517SOL     OW14449   3.704   0.465   4.126
 4517SOL    HW114450   3.730   0.556   4.159
 4517SOL    HW214451   3.605   0.457   4.124
 4518SOL     OW14452   7.024   0.099   0.790
 4518SOL    HW114453   6.966   0.091   0.871
 4518SOL    HW214454   0.010   0.009   0.747
 4519SOL     OW14455   5.034   0.273   6.344
 4519SOL    HW114456   5.064   0.245   6.435
 4519SOL    HW214457   5.080   0.217   6.275
 4520SOL     OW14458   4.772   5.139   4.853
 4520SOL    HW114459   4.731   5.171   4.768
 4520SOL    HW214460   4.800   5.044   4.843
 4521SOL     OW14461   4.405   2.349   4.408
 4521SOL    HW114462   4.316   2.309   4.388
 4521SOL    HW214463   4.444   2.389   4.325
 4522SOL     OW14464   5.608   3.967   3.132
 4522SOL    HW114465   5.663   3.906   3.188
 4522SOL    HW214466   5.556   3.914   3.065
 4523SOL     OW14467   0.374   2.887   6.870
 4523SOL    HW114468   0.290   2.887   6.924
 4523SOL    HW214469   0.429   2.967   6.893
 4524SOL     OW14470   2.190   3.892   1.983
 4524SOL    HW114471   2.197   3.810   2.040
 4524SOL    HW214472   2.255   3.961   2.015
 4525SOL     OW14473   3.523   1.314   5.849
 4525SOL    HW114474   3.611   1.268   5.836
 4525SOL    HW214475   3.536   1.396   5.905
 4526SOL     OW14476   0.936   6.901   5.531
 4526SOL    HW114477   1.007   6.955   5.485
 4526SOL    HW214478   0.860   6.960   5.557
 4527SOL     OW14479   0.913   2.469   2.311
 4527SOL    HW114480   0.998   2.485   2.261
 4527SOL    HW214481   0.924   2.388   2.369
 4528SOL     OW14482   5.652   1.972   4.690
 4528SOL    HW114483   5.639   1.875   4.670
 4528SOL    HW214484   5.574   2.024   4.656
 4529SOL     OW14485   1.599   2.690   3.901
 4529SOL    HW114486   1.501   2.703   3.914
 4529SOL    HW214487   1.630   2.611   3.955
 4530SOL     OW14488   3.916   4.588   5.999
 4530SOL    HW114489   3.860   4.534   5.936
 4530SOL    HW214490   3.989   4.531   6.037
 4531SOL     OW14491   1.623   6.741   5.472
 4531SOL    HW114492   1.600   6.787   5.385
 4531SOL    HW214493   1.651   6.810   5.539
 4532SOL     OW14494   5.381   0.939   2.166
 4532SOL    HW114495   5.425   1.027   2.148
 4532SOL    HW214496   5.378   0.885   2.082
 4533SOL     OW14497   2.962   5.503   1.256
 4533SOL    HW114498   2.885   5.560   1.227
 4533SOL    HW214499   2.951   5.411   1.220
 4534SOL     OW14500   5.834   1.459   4.627
 4534SOL    HW114501   5.881   1.386   4.577
 4534SOL    HW214502   5.735   1.442   4.625
 4535SOL     OW14503   1.644   0.238   0.384
 4535SOL    HW114504   1.689   0.182   0.315
 4535SOL    HW214505   1.565   0.189   0.421
 4536SOL     OW14506   3.740   0.743   5.430
 4536SOL    HW114507   3.674   0.803   5.383
 4536SOL    HW214508   3.704   0.650   5.432
 4537SOL     OW14509   3.401   3.595   3.482
 4537SOL    HW114510   3.328   3.644   3.530
 4537SOL    HW214511   3.461   3.661   3.437
 4538SOL     OW14512   1.228   2.926   0.530
 4538SOL    HW114513   1.278   2.898   0.448
 4538SOL    HW214514   1.157   2.991   0.505
 4539SOL     OW14515   0.815   4.769   4.924
 4539SOL    HW114516   0.743   4.838   4.935
 4539SOL    HW214517   0.904   4.814   4.919
 4540SOL     OW14518   1.960   2.060   0.562
 4540SOL    HW114519   1.977   2.158   0.559
 4540SOL    HW214520   1.995   2.017   0.479
 4541SOL     OW14521   4.120   3.047   0.126
 4541SOL    HW114522   4.036   3.009   0.163
 4541SOL    HW214523   4.140   3.004   0.037
 4542SOL     OW14524   6.850   1.575   0.316
 4542SOL    HW114525   6.895   1.550   0.401
 4542SOL    HW214526   6.904   1.645   0.269
 4543SOL     OW14527   4.196   1.062   0.998
 4543SOL    HW114528   4.128   0.989   0.988
 4543SOL    HW214529   4.238   1.080   0.909
 4544SOL     OW14530   4.927   5.993   0.394
 4544SOL    HW114531   4.879   5.924   0.340
 4544SOL    HW214532   5.025   5.971   0.395
 4545SOL     OW14533   3.079   3.267   5.436
 4545SOL    HW114534   3.141   3.268   5.358
 4545SOL    HW214535   2.993   3.313   5.412
 4546SOL     OW14536   4.736   6.724   5.712
 4546SOL    HW114537   4.780   6.692   5.796
 4546SOL    HW214538   4.637   6.726   5.725
 4547SOL     OW14539   6.692   1.202   0.200
 4547SOL    HW114540   6.643   1.219   0.286
 4547SOL    HW214541   6.638   1.236   0.123
 4548SOL     OW14542   3.181   1.190   1.959
 4548SOL    HW114543   3.203   1.269   1.902
 4548SOL    HW214544   3.101   1.212   2.016
 4549SOL     OW14545   6.665   4.983   3.816
 4549SOL    HW114546   6.722   5.047   3.765
 4549SOL    HW214547   6.603   5.033   3.875
 4550SOL     OW14548   2.678   5.490   7.024
 4550SOL    HW114549   2.585   5.454   0.008
 4550SOL    HW214550   2.677   5.588   0.020
 4551SOL     OW14551   3.651   3.198   5.872
 4551SOL    HW114552   3.719   3.210   5.945
 4551SOL    HW214553   3.698   3.179   5.786
 4552SOL     OW14554   4.877   0.506   6.961
 4552SOL    HW114555   4.780   0.531   6.966
 4552SOL    HW214556   4.925   0.548   0.014
 4553SOL     OW14557   0.282   0.065   0.563
 4553SOL    HW114558   0.258   0.000   0.635
 4553SOL    HW214559   0.338   0.139   0.601
 4554SOL     OW14560   5.661   6.267   2.571
 4554SOL    HW114561   5.665   6.180   2.621
 4554SOL    HW214562   5.573   6.312   2.590
 4555SOL     OW14563   0.350   0.250   3.130
 4555SOL    HW114564   0.409   0.309   3.076
 4555SOL    HW214565   0.377   0.154   3.118
 4556SOL     OW14566   5.284   4.455   4.932
 4556SOL    HW114567   5.259   4.463   4.835
 4556SOL    HW214568   5.205   4.481   4.988
 4557SOL     OW14569   0.160   5.340   4.826
 4557SOL    HW114570   0.077   5.347   4.771
 4557SOL    HW214571   0.142   5.373   4.919
 4558SOL     OW14572   0.864   4.259   3.784
 4558SOL    HW114573   0.807   4.336   3.756
 4558SOL    HW214574   0.859   4.247   3.883
 4559SOL     OW14575   0.265   3.642   4.362
 4559SOL    HW114576   0.236   3.575   4.431
 4559SOL    HW214577   0.349   3.611   4.319
 4560SOL     OW14578   6.689   4.037   3.229
 4560SOL    HW114579   6.690   4.081   3.139
 4560SOL    HW214580   6.693   3.937   3.217
 4561SOL     OW14581   5.015   3.138   4.444
 4561SOL    HW114582   5.061   3.049   4.445
 4561SOL    HW214583   5.060   3.200   4.508
 4562SOL     OW14584   4.813   1.213   0.990
 4562SOL    HW114585   4.713   1.218   0.993
 4562SOL    HW214586   4.851   1.306   0.994
 4563SOL     OW14587   0.845   4.229   1.750
 4563SOL    HW114588   0.867   4.214   1.846
 4563SOL    HW214589   0.885   4.315   1.719
 4564SOL     OW14590   2.091   3.610   2.207
 4564SOL    HW114591   2.136   3.586   2.121
 4564SOL    HW214592   2.138   3.689   2.248
 4565SOL     OW14593   2.042   6.493   4.743
 4565SOL    HW114594   2.028   6.578   4.793
 4565SOL    HW214595   2.013   6.416   4.799
 4566SOL     OW14596   6.939   4.899   3.047
 4566SOL    HW114597   6.849   4.943   3.058
 4566SOL    HW214598   7.004   4.966   3.013
 4567SOL     OW14599   1.037   0.171   0.428
 4567SOL    HW114600   0.946   0.210   0.441
 4567SOL    HW214601   1.070   0.192   0.336
 4568SOL     OW14602   0.025   4.333   3.842
 4568SOL    HW114603   0.031   4.416   3.787
 4568SOL    HW214604   0.053   4.352   3.936
 4569SOL     OW14605   0.649   2.683   3.686
 4569SOL    HW114606   0.672   2.589   3.659
 4569SOL    HW214607   0.623   2.735   3.605
 4570SOL     OW14608   4.842   6.046   1.356
 4570SOL    HW114609   4.867   6.026   1.450
 4570SOL    HW214610   4.811   6.141   1.349
 4571SOL     OW14611   1.913   2.443   5.100
 4571SOL    HW114612   1.950   2.355   5.130
 4571SOL    HW214613   1.833   2.466   5.155
 4572SOL     OW14614   4.615   3.238   1.706
 4572SOL    HW114615   4.559   3.314   1.739
 4572SOL    HW214616   4.607   3.161   1.769
 4573SOL     OW14617   1.968   5.192   0.941
 4573SOL    HW114618   2.017   5.259   0.998
 4573SOL    HW214619   1.937   5.117   0.999
 4574SOL     OW14620   5.216   0.609   1.701
 4574SOL    HW114621   5.299   0.562   1.733
 4574SOL    HW214622   5.184   0.671   1.773
 4575SOL     OW14623   0.189   1.806   5.160
 4575SOL    HW114624   0.268   1.861   5.133
 4575SOL    HW214625   0.169   1.738   5.089
 4576SOL     OW14626   2.905   3.750   6.670
 4576SOL    HW114627   2.810   3.781   6.658
 4576SOL    HW214628   2.940   3.716   6.583
 4577SOL     OW14629   0.553   2.062   2.024
 4577SOL    HW114630   0.492   1.985   2.007
 4577SOL    HW214631   0.641   2.027   2.057
 4578SOL     OW14632   1.395   0.559   3.118
 4578SOL    HW114633   1.358   0.572   3.026
 4578SOL    HW214634   1.451   0.477   3.119
 4579SOL     OW14635   4.450   0.860   2.951
 4579SOL    HW114636   4.407   0.790   2.895
 4579SOL    HW214637   4.399   0.946   2.941
 4580SOL     OW14638   0.883   0.394   1.735
 4580SOL    HW114639   0.847   0.440   1.654
 4580SOL    HW214640   0.976   0.427   1.753
 4581SOL     OW14641   3.128   0.549   1.563
 4581SOL    HW114642   3.065   0.589   1.497
 4581SOL    HW214643   3.103   0.579   1.655
 4582SOL     OW14644   5.857   1.042   4.567
 4582SOL    HW114645   5.774   1.009   4.523
 4582SOL    HW214646   5.916   0.964   4.590
 4583SOL     OW14647   2.075   6.288   6.793
 4583SOL    HW114648   2.144   6.237   6.844
 4583SOL    HW214649   2.106   6.382   6.779
 4584SOL     OW14650   7.000   1.217   4.597
 4584SOL    HW114651   7.019   1.136   4.543
 4584SOL    HW214652   0.013   1.298   4.550
 4585SOL     OW14653   0.862   2.792   2.862
 4585SOL    HW114654   0.765   2.778   2.841
 4585SOL    HW214655   0.914   2.710   2.837
 4586SOL     OW14656   0.052   5.004   5.681
 4586SOL    HW114657   7.002   4.954   5.635
 4586SOL    HW214658   0.091   4.947   5.753
 4587SOL     OW14659   4.461   3.209   6.374
 4587SOL    HW114660   4.386   3.259   6.416
 4587SOL    HW214661   4.529   3.185   6.443
 4588SOL     OW14662   2.232   4.580   6.635
 4588SOL    HW114663   2.287   4.635   6.572
 4588SOL    HW214664   2.253   4.483   6.620
 4589SOL     OW14665   4.739   5.833   2.120
 4589SOL    HW114666   4.742   5.897   2.197
 4589SOL    HW214667   4.700   5.879   2.040
 4590SOL     OW14668   2.185   4.861   1.744
 4590SOL    HW114669   2.265   4.837   1.799
 4590SOL    HW214670   2.125   4.782   1.736
 4591SOL     OW14671   2.346   1.750   4.886
 4591SOL    HW114672   2.323   1.655   4.863
 4591SOL    HW214673   2.414   1.784   4.821
 4592SOL     OW14674   2.553   2.469   3.259
 4592SOL    HW114675   2.500   2.389   3.229
 4592SOL    HW214676   2.629   2.438   3.317
 4593SOL     OW14677   1.647   5.870   4.732
 4593SOL    HW114678   1.576   5.861   4.801
 4593SOL    HW214679   1.622   5.818   4.650
 4594SOL     OW14680   0.928   6.354   4.012
 4594SOL    HW114681   0.942   6.431   4.076
 4594SOL    HW214682   0.831   6.348   3.989
 4595SOL     OW14683   5.858   2.021   6.578
 4595SOL    HW114684   5.890   2.023   6.673
 4595SOL    HW214685   5.929   2.060   6.519
 4596SOL     OW14686   0.481   1.617   2.891
 4596SOL    HW114687   0.412   1.576   2.832
 4596SOL    HW214688   0.522   1.696   2.846
 4597SOL     OW14689   1.943   5.400   0.573
 4597SOL    HW114690   1.917   5.487   0.533
 4597SOL    HW214691   1.936   5.328   0.504
 4598SOL     OW14692   0.391   2.875   0.231
 4598SOL    HW114693   0.342   2.961   0.245
 4598SOL    HW214694   0.326   2.800   0.220
 4599SOL     OW14695   3.189   6.321   3.190
 4599SOL    HW114696   3.222   6.331   3.283
 4599SOL    HW214697   3.092   6.296   3.191
 4600SOL     OW14698   0.486   6.649   6.162
 4600SOL    HW114699   0.507   6.719   6.230
 4600SOL    HW214700   0.514   6.559   6.196
 4601SOL     OW14701   1.860   0.618   4.915
 4601SOL    HW114702   1.771   0.576   4.897
 4601SOL    HW214703   1.849   0.717   4.920
 4602SOL     OW14704   4.273   0.566   6.216
 4602SOL    HW114705   4.278   0.571   6.117
 4602SOL    HW214706   4.348   0.617   6.257
 4603SOL     OW14707   4.579   6.636   1.187
 4603SOL    HW114708   4.555   6.651   1.091
 4603SOL    HW214709   4.495   6.618   1.239
 4604SOL     OW14710   0.606   6.430   3.431
 4604SOL    HW114711   0.689   6.386   3.396
 4604SOL    HW214712   0.574   6.497   3.365
 4605SOL     OW14713   4.785   1.358   2.075
 4605SOL    HW114714   4.835   1.298   2.013
 4605SOL    HW214715   4.848   1.424   2.115
 4606SOL     OW14716   6.565   0.106   4.703
 4606SOL    HW114717   6.542   0.202   4.686
 4606SOL    HW214718   6.534   0.080   4.795
 4607SOL     OW14719   2.589   1.856   1.037
 4607SOL    HW114720   2.627   1.864   0.945
 4607SOL    HW214721   2.603   1.943   1.086
 4608SOL     OW14722   0.582   2.090   5.588
 4608SOL    HW114723   0.662   2.083   5.649
 4608SOL    HW214724   0.501   2.108   5.642
 4609SOL     OW14725   6.332   5.185   6.271
 4609SOL    HW114726   6.350   5.188   6.172
 4609SOL    HW214727   6.283   5.268   6.298
 4610SOL     OW14728   5.328   3.978   6.461
 4610SOL    HW114729   5.409   3.926   6.487
 4610SOL    HW214730   5.348   4.076   6.470
 4611SOL     OW14731   6.934   0.239   6.380
 4611SOL    HW114732   6.930   0.261   6.283
 4611SOL    HW214733   7.016   0.281   6.420
 4612SOL     OW14734   1.763   0.784   2.689
 4612SOL    HW114735   1.861   0.798   2.696
 4612SOL    HW214736   1.723   0.777   2.780
 4613SOL     OW14737   1.713   4.879   3.487
 4613SOL    HW114738   1.743   4.969   3.518
 4613SOL    HW214739   1.623   4.859   3.527
 4614SOL     OW14740   0.124   5.081   2.547
 4614SOL    HW114741   0.206   5.137   2.558
 4614SOL    HW214742   0.150   4.986   2.530
 4615SOL     OW14743   1.041   4.448   6.843
 4615SOL    HW114744   1.046   4.541   6.878
 4615SOL    HW214745   1.117   4.431   6.781
 4616SOL     OW14746   1.410   4.089   6.362
 4616SOL    HW114747   1.443   4.166   6.308
 4616SOL    HW214748   1.430   4.105   6.458
 4617SOL     OW14749   0.417   4.231   4.238
 4617SOL    HW114750   0.482   4.304   4.216
 4617SOL    HW214751   0.451   4.144   4.203
 4618SOL     OW14752   1.999   4.317   5.268
 4618SOL    HW114753   1.999   4.243   5.336
 4618SOL    HW214754   2.042   4.284   5.184
 4619SOL     OW14755   4.178   5.812   6.842
 4619SOL    HW114756   4.083   5.808   6.875
 4619SOL    HW214757   4.197   5.732   6.786
 4620SOL     OW14758   1.406   4.235   1.818
 4620SOL    HW114759   1.377   4.328   1.798
 4620SOL    HW214760   1.362   4.204   1.903
 4621SOL     OW14761   2.988   0.069   2.821
 4621SOL    HW114762   2.994   7.005   2.868
 4621SOL    HW214763   2.924   0.128   2.869
 4622SOL     OW14764   6.217   0.216   0.062
 4622SOL    HW114765   6.302   0.206   0.112
 4622SOL    HW214766   6.142   0.176   0.115
 4623SOL     OW14767   2.902   4.846   2.932
 4623SOL    HW114768   2.921   4.874   3.026
 4623SOL    HW214769   2.832   4.904   2.892
 4624SOL     OW14770   5.378   1.681   0.438
 4624SOL    HW114771   5.436   1.732   0.503
 4624SOL    HW214772   5.436   1.640   0.368
 4625SOL     OW14773   0.522   6.399   1.903
 4625SOL    HW114774   0.510   6.435   1.810
 4625SOL    HW214775   0.608   6.433   1.941
 4626SOL     OW14776   4.055   3.900   2.084
 4626SOL    HW114777   4.046   3.873   2.180
 4626SOL    HW214778   4.125   3.971   2.077
 4627SOL     OW14779   5.615   6.643   4.434
 4627SOL    HW114780   5.549   6.572   4.458
 4627SOL    HW214781   5.573   6.733   4.447
 4628SOL     OW14782   6.500   4.611   2.993
 4628SOL    HW114783   6.418   4.602   2.936
 4628SOL    HW214784   6.581   4.618   2.935
 4629SOL     OW14785   1.309   5.393   1.150
 4629SOL    HW114786   1.372   5.315   1.145
 4629SOL    HW214787   1.248   5.380   1.228
 4630SOL     OW14788   1.782   3.893   1.175
 4630SOL    HW114789   1.879   3.881   1.198
 4630SOL    HW214790   1.764   3.990   1.157
 4631SOL     OW14791   6.366   1.882   2.325
 4631SOL    HW114792   6.392   1.786   2.337
 4631SOL    HW214793   6.448   1.937   2.310
 4632SOL     OW14794   3.043   4.813   3.795
 4632SOL    HW114795   3.041   4.719   3.828
 4632SOL    HW214796   2.957   4.858   3.819
 4633SOL     OW14797   5.331   3.310   3.941
 4633SOL    HW114798   5.402   3.268   3.998
 4633SOL    HW214799   5.359   3.306   3.845
 4634SOL     OW14800   3.701   3.187   5.083
 4634SOL    HW114801   3.631   3.185   5.155
 4634SOL    HW214802   3.720   3.282   5.058
 4635SOL     OW14803   4.116   0.395   2.338
 4635SOL    HW114804   4.167   0.314   2.310
 4635SOL    HW214805   4.020   0.384   2.313
 4636SOL     OW14806   1.843   5.510   6.698
 4636SOL    HW114807   1.792   5.596   6.691
 4636SOL    HW214808   1.790   5.445   6.753
 4637SOL     OW14809   1.870   2.659   3.099
 4637SOL    HW114810   1.898   2.563   3.103
 4637SOL    HW214811   1.779   2.665   3.060
 4638SOL     OW14812   4.267   4.314   6.822
 4638SOL    HW114813   4.234   4.240   6.763
 4638SOL    HW214814   4.338   4.278   6.883
 4639SOL     OW14815   4.349   2.454   1.673
 4639SOL    HW114816   4.264   2.408   1.645
 4639SOL    HW214817   4.426   2.391   1.659
 4640SOL     OW14818   0.125   2.427   0.239
 4640SOL    HW114819   0.040   2.379   0.258
 4640SOL    HW214820   0.190   2.411   0.314
 4641SOL     OW14821   1.166   5.971   4.884
 4641SOL    HW114822   1.084   5.988   4.938
 4641SOL    HW214823   1.170   5.875   4.857
 4642SOL     OW14824   5.811   1.538   6.334
 4642SOL    HW114825   5.892   1.592   6.359
 4642SOL    HW214826   5.752   1.592   6.274
 4643SOL     OW14827   0.460   1.943   0.183
 4643SOL    HW114828   0.404   1.892   0.118
 4643SOL    HW214829   0.464   2.039   0.155
 4644SOL     OW14830   1.010   1.570   1.004
 4644SOL    HW114831   0.981   1.653   0.957
 4644SOL    HW214832   0.937   1.501   0.997
 4645SOL     OW14833   5.828   2.251   5.844
 4645SOL    HW114834   5.758   2.275   5.910
 4645SOL    HW214835   5.908   2.213   5.892
 4646SOL     OW14836   1.335   4.124   2.391
 4646SOL    HW114837   1.419   4.146   2.440
 4646SOL    HW214838   1.285   4.053   2.440
 4647SOL     OW14839   2.045   6.036   2.648
 4647SOL    HW114840   2.026   5.985   2.732
 4647SOL    HW214841   2.123   6.097   2.663
 4648SOL     OW14842   2.379   0.581   4.159
 4648SOL    HW114843   2.460   0.628   4.124
 4648SOL    HW214844   2.331   0.641   4.223
 4649SOL     OW14845   4.626   3.165   0.625
 4649SOL    HW114846   4.592   3.232   0.690
 4649SOL    HW214847   4.712   3.127   0.658
 4650SOL     OW14848   3.535   5.179   0.810
 4650SOL    HW114849   3.510   5.256   0.751
 4650SOL    HW214850   3.618   5.136   0.775
 4651SOL     OW14851   1.290   3.495   0.054
 4651SOL    HW114852   1.210   3.506   0.112
 4651SOL    HW214853   1.370   3.473   0.110
 4652SOL     OW14854   0.332   0.279   5.245
 4652SOL    HW114855   0.340   0.374   5.275
 4652SOL    HW214856   0.364   0.218   5.318
 4653SOL     OW14857   0.365   6.358   0.635
 4653SOL    HW114858   0.315   6.398   0.558
 4653SOL    HW214859   0.459   6.338   0.606
 4654SOL     OW14860   0.820   1.357   5.221
 4654SOL    HW114861   0.862   1.417   5.153
 4654SOL    HW214862   0.876   1.357   5.304
 4655SOL     OW14863   5.596   5.071   2.755
 4655SOL    HW114864   5.507   5.037   2.787
 4655SOL    HW214865   5.645   5.114   2.831
 4656SOL     OW14866   5.840   0.712   1.720
 4656SOL    HW114867   5.854   0.796   1.668
 4656SOL    HW214868   5.778   0.652   1.671
 4657SOL     OW14869   3.850   1.882   2.649
 4657SOL    HW114870   3.779   1.831   2.601
 4657SOL    HW214871   3.843   1.979   2.625
 4658SOL     OW14872   1.740   1.686   0.387
 4658SOL    HW114873   1.753   1.785   0.376
 4658SOL    HW214874   1.709   1.666   0.480
 4659SOL     OW14875   2.078   5.029   0.729
 4659SOL    HW114876   2.049   5.090   0.803
 4659SOL    HW214877   2.122   4.948   0.768
 4660SOL     OW14878   0.370   5.222   4.450
 4660SOL    HW114879   0.397   5.272   4.532
 4660SOL    HW214880   0.301   5.154   4.474
 4661SOL     OW14881   0.970   0.654   6.011
 4661SOL    HW114882   0.989   0.581   5.946
 4661SOL    HW214883   0.942   0.614   6.098
 4662SOL     OW14884   2.726   0.638   5.970
 4662SOL    HW114885   2.626   0.644   5.978
 4662SOL    HW214886   2.753   0.543   5.955
 4663SOL     OW14887   0.391   0.917   1.373
 4663SOL    HW114888   0.420   0.822   1.383
 4663SOL    HW214889   0.390   0.961   1.462
 4664SOL     OW14890   5.604   6.339   4.841
 4664SOL    HW114891   5.550   6.255   4.834
 4664SOL    HW214892   5.694   6.318   4.878
 4665SOL     OW14893   0.074   0.986   3.085
 4665SOL    HW114894   0.168   0.974   3.053
 4665SOL    HW214895   0.014   0.921   3.038
 4666SOL     OW14896   1.485   2.252   6.111
 4666SOL    HW114897   1.387   2.243   6.131
 4666SOL    HW214898   1.499   2.332   6.051
 4667SOL     OW14899   6.800   2.862   1.028
 4667SOL    HW114900   6.701   2.854   1.029
 4667SOL    HW214901   6.827   2.945   1.077
 4668SOL     OW14902   4.885   1.220   5.551
 4668SOL    HW114903   4.896   1.298   5.488
 4668SOL    HW214904   4.964   1.216   5.612
 4669SOL     OW14905   5.263   6.583   6.008
 4669SOL    HW114906   5.321   6.528   6.068
 4669SOL    HW214907   5.176   6.602   6.053
 4670SOL     OW14908   0.871   2.884   0.229
 4670SOL    HW114909   0.830   2.885   0.138
 4670SOL    HW214910   0.891   2.790   0.255
 4671SOL     OW14911   6.919   1.943   1.928
 4671SOL    HW114912   6.828   1.977   1.903
 4671SOL    HW214913   6.971   2.016   1.972
 4672SOL     OW14914   3.565   2.927   0.843
 4672SOL    HW114915   3.552   2.862   0.918
 4672SOL    HW214916   3.658   2.920   0.808
 4673SOL     OW14917   5.318   0.815   1.199
 4673SOL    HW114918   5.388   0.778   1.137
 4673SOL    HW214919   5.230   0.773   1.178
 4674SOL     OW14920   0.978   3.043   0.448
 4674SOL    HW114921   0.924   3.063   0.529
 4674SOL    HW214922   0.925   2.987   0.384
 4675SOL     OW14923   2.069   6.047   0.561
 4675SOL    HW114924   1.985   6.079   0.605
 4675SOL    HW214925   2.124   6.125   0.534
 4676SOL     OW14926   1.161   5.700   4.839
 4676SOL    HW114927   1.156   5.657   4.749
 4676SOL    HW214928   1.080   5.675   4.893
 4677SOL     OW14929   4.446   0.016   6.769
 4677SOL    HW114930   4.527   0.048   6.818
 4677SOL    HW214931   4.472   6.967   6.705
 4678SOL     OW14932   2.321   4.357   0.481
 4678SOL    HW114933   2.330   4.284   0.549
 4678SOL    HW214934   2.406   4.364   0.429
 4679SOL     OW14935   2.416   6.931   5.263
 4679SOL    HW114936   2.351   6.856   5.261
 4679SOL    HW214937   2.498   6.903   5.313
 4680SOL     OW14938   1.109   5.295   6.050
 4680SOL    HW114939   1.073   5.385   6.024
 4680SOL    HW214940   1.207   5.291   6.031
 4681SOL     OW14941   6.851   5.729   5.044
 4681SOL    HW114942   6.846   5.817   4.999
 4681SOL    HW214943   6.764   5.710   5.091
 4682SOL     OW14944   3.065   0.721   0.735
 4682SOL    HW114945   3.076   0.699   0.832
 4682SOL    HW214946   2.986   0.672   0.699
 4683SOL     OW14947   0.744   4.570   3.476
 4683SOL    HW114948   0.731   4.511   3.556
 4683SOL    HW214949   0.723   4.518   3.393
 4684SOL     OW14950   1.906   1.487   4.964
 4684SOL    HW114951   1.850   1.497   5.046
 4684SOL    HW214952   1.974   1.560   4.961
 4685SOL     OW14953   5.596   4.093   4.000
 4685SOL    HW114954   5.660   4.116   3.927
 4685SOL    HW214955   5.614   4.000   4.031
 4686SOL     OW14956   5.249   5.292   6.541
 4686SOL    HW114957   5.163   5.333   6.512
 4686SOL    HW214958   5.257   5.299   6.640
 4687SOL     OW14959   4.796   0.402   4.667
 4687SOL    HW114960   4.883   0.451   4.668
 4687SOL    HW214961   4.808   0.312   4.625
 4688SOL     OW14962   6.734   0.988   1.094
 4688SOL    HW114963   6.824   1.029   1.077
 4688SOL    HW214964   6.721   0.910   1.033
 4689SOL     OW14965   1.769   5.618   4.273
 4689SOL    HW114966   1.734   5.694   4.218
 4689SOL    HW214967   1.850   5.647   4.324
 4690SOL     OW14968   2.274   1.491   0.944
 4690SOL    HW114969   2.284   1.446   0.855
 4690SOL    HW214970   2.177   1.500   0.966
 4691SOL     OW14971   3.246   4.392   0.219
 4691SOL    HW114972   3.182   4.449   0.166
 4691SOL    HW214973   3.340   4.420   0.200
 4692SOL     OW14974   1.076   4.877   3.506
 4692SOL    HW114975   1.068   4.951   3.574
 4692SOL    HW214976   0.986   4.837   3.490
 4693SOL     OW14977   0.670   1.824   2.232
 4693SOL    HW114978   0.708   1.788   2.317
 4693SOL    HW214979   0.739   1.877   2.184
 4694SOL     OW14980   1.724   1.046   5.069
 4694SOL    HW114981   1.696   0.982   5.141
 4694SOL    HW214982   1.642   1.085   5.026
 4695SOL     OW14983   3.256   3.798   3.219
 4695SOL    HW114984   3.223   3.870   3.158
 4695SOL    HW214985   3.192   3.721   3.217
 4696SOL     OW14986   6.623   3.042   0.700
 4696SOL    HW114987   6.608   2.944   0.710
 4696SOL    HW214988   6.711   3.066   0.742
 4697SOL     OW14989   1.097   5.863   6.559
 4697SOL    HW114990   1.073   5.955   6.528
 4697SOL    HW214991   1.015   5.806   6.563
 4698SOL     OW14992   5.829   3.324   2.299
 4698SOL    HW114993   5.739   3.286   2.281
 4698SOL    HW214994   5.823   3.424   2.305
 4699SOL     OW14995   6.818   0.128   3.485
 4699SOL    HW114996   6.723   0.159   3.495
 4699SOL    HW214997   6.820   0.042   3.434
 4700SOL     OW14998   4.865   6.835   6.087
 4700SOL    HW114999   4.909   6.925   6.096
 4700SOL    HW215000   4.767   6.844   6.103
 4701SOL     OW15001   1.993   0.708   6.681
 4701SOL    HW115002   1.977   0.800   6.716
 4701SOL    HW215003   1.910   0.654   6.690
 4702SOL     OW15004   3.340   2.900   1.096
 4702SOL    HW115005   3.254   2.862   1.131
 4702SOL    HW215006   3.396   2.825   1.060
 4703SOL     OW15007   0.975   6.709   2.585
 4703SOL    HW115008   1.035   6.633   2.612
 4703SOL    HW215009   0.880   6.678   2.588
 4704SOL     OW15010   4.830   6.559   6.422
 4704SOL    HW115011   4.789   6.555   6.514
 4704SOL    HW215012   4.792   6.637   6.372
 4705SOL     OW15013   3.844   2.988   4.987
 4705SOL    HW115014   3.780   3.051   5.030
 4705SOL    HW215015   3.897   2.940   5.057
 4706SOL     OW15016   5.821   3.813   0.189
 4706SOL    HW115017   5.898   3.869   0.158
 4706SOL    HW215018   5.827   3.722   0.149
 4707SOL     OW15019   2.623   4.909   0.535
 4707SOL    HW115020   2.577   4.908   0.624
 4707SOL    HW215021   2.567   4.957   0.468
 4708SOL     OW15022   1.520   3.027   2.509
 4708SOL    HW115023   1.453   3.083   2.460
 4708SOL    HW215024   1.595   3.003   2.447
 4709SOL     OW15025   2.850   4.071   0.768
 4709SOL    HW115026   2.869   3.986   0.719
 4709SOL    HW215027   2.861   4.149   0.706
 4710SOL     OW15028   4.710   3.178   1.300
 4710SOL    HW115029   4.697   3.116   1.378
 4710SOL    HW215030   4.808   3.198   1.290
 4711SOL     OW15031   2.687   6.972   3.575
 4711SOL    HW115032   2.684   6.879   3.612
 4711SOL    HW215033   2.769   6.984   3.519
 4712SOL     OW15034   1.739   3.512   0.005
 4712SOL    HW115035   1.693   3.477   6.947
 4712SOL    HW215036   1.773   3.604   7.011
 4713SOL     OW15037   0.628   5.284   0.953
 4713SOL    HW115038   0.584   5.348   0.891
 4713SOL    HW215039   0.564   5.260   1.026
 4714SOL     OW15040   4.045   2.471   1.111
 4714SOL    HW115041   4.090   2.463   1.200
 4714SOL    HW215042   4.113   2.496   1.041
 4715SOL     OW15043   4.910   3.778   4.830
 4715SOL    HW115044   4.844   3.851   4.811
 4715SOL    HW215045   4.882   3.727   4.911
 4716SOL     OW15046   2.485   5.362   6.498
 4716SOL    HW115047   2.400   5.321   6.532
 4716SOL    HW215048   2.481   5.370   6.398
 4717SOL     OW15049   2.360   5.333   4.743
 4717SOL    HW115050   2.458   5.315   4.746
 4717SOL    HW215051   2.334   5.391   4.820
 4718SOL     OW15052   5.169   6.985   0.199
 4718SOL    HW115053   5.234   6.913   0.225
 4718SOL    HW215054   5.107   6.949   0.129
 4719SOL     OW15055   4.494   3.479   1.707
 4719SOL    HW115056   4.487   3.485   1.608
 4719SOL    HW215057   4.503   3.571   1.746
 4720SOL     OW15058   2.083   1.583   3.007
 4720SOL    HW115059   2.127   1.503   3.047
 4720SOL    HW215060   2.046   1.641   3.079
 4721SOL     OW15061   1.585   1.328   1.560
 4721SOL    HW115062   1.648   1.368   1.626
 4721SOL    HW215063   1.620   1.239   1.531
 4722SOL     OW15064   2.724   0.517   2.835
 4722SOL    HW115065   2.634   0.530   2.877
 4722SOL    HW215066   2.791   0.572   2.885
 4723SOL     OW15067   3.074   0.041   5.408
 4723SOL    HW115068   3.075   0.027   5.507
 4723SOL    HW215069   3.036   6.983   5.363
 4724SOL     OW15070   4.806   5.399   1.249
 4724SOL    HW115071   4.729   5.426   1.307
 4724SOL    HW215072   4.777   5.327   1.186
 4725SOL     OW15073   6.082   5.341   3.033
 4725SOL    HW115074   6.001   5.306   3.080
 4725SOL    HW215075   6.057   5.371   2.941
 4726SOL     OW15076   6.940   6.484   4.614
 4726SOL    HW115077   6.852   6.490   4.567
 4726SOL    HW215078   6.939   6.543   4.695
 4727SOL     OW15079   5.783   6.810   2.087
 4727SOL    HW115080   5.699   6.807   2.032
 4727SOL    HW215081   5.804   6.906   2.109
 4728SOL     OW15082   6.700   0.404   6.740
 4728SOL    HW115083   6.660   0.394   6.649
 4728SOL    HW215084   6.631   0.386   6.809
 4729SOL     OW15085   3.150   0.933   1.184
 4729SOL    HW115086   3.242   0.955   1.152
 4729SOL    HW215087   3.147   0.938   1.284
 4730SOL     OW15088   2.011   0.576   6.189
 4730SOL    HW115089   1.992   0.478   6.196
 4730SOL    HW215090   1.973   0.623   6.268
 4731SOL     OW15091   4.761   1.038   5.723
 4731SOL    HW115092   4.801   1.107   5.662
 4731SOL    HW215093   4.736   0.957   5.670
 4732SOL     OW15094   0.768   6.766   0.281
 4732SOL    HW115095   0.862   6.732   0.278
 4732SOL    HW215096   0.705   6.689   0.268
 4733SOL     OW15097   6.182   3.869   3.419
 4733SOL    HW115098   6.236   3.888   3.501
 4733SOL    HW215099   6.092   3.910   3.429
 4734SOL     OW15100   6.645   3.879   5.572
 4734SOL    HW115101   6.593   3.871   5.487
 4734SOL    HW215102   6.743   3.870   5.553
 4735SOL     OW15103   0.677   4.265   3.323
 4735SOL    HW115104   0.773   4.293   3.316
 4735SOL    HW215105   0.670   4.166   3.310
 4736SOL     OW15106   2.036   0.008   2.491
 4736SOL    HW115107   1.998   6.979   2.415
 4736SOL    HW215108   2.014   0.105   2.479
 4737SOL     OW15109   3.478   5.016   1.979
 4737SOL    HW115110   3.505   4.921   1.966
 4737SOL    HW215111   3.398   5.037   1.923
 4738SOL     OW15112   1.065   0.044   2.860
 4738SOL    HW115113   1.131   6.994   2.847
 4738SOL    HW215114   1.043   0.086   2.772
 4739SOL     OW15115   3.766   0.476   1.557
 4739SOL    HW115116   3.693   0.415   1.526
 4739SOL    HW215117   3.741   0.570   1.536
 4740SOL     OW15118   0.917   1.908   4.233
 4740SOL    HW115119   0.905   1.809   4.241
 4740SOL    HW215120   0.956   1.930   4.144
 4741SOL     OW15121   4.085   3.742   3.019
 4741SOL    HW115122   4.119   3.651   2.996
 4741SOL    HW215123   3.998   3.734   3.068
 4742SOL     OW15124   5.459   1.200   2.113
 4742SOL    HW115125   5.463   1.242   2.203
 4742SOL    HW215126   5.416   1.263   2.048
 4743SOL     OW15127   1.133   5.244   0.943
 4743SOL    HW115128   1.167   5.166   0.997
 4743SOL    HW215129   1.122   5.323   1.003
 4744SOL     OW15130   1.837   5.604   1.503
 4744SOL    HW115131   1.911   5.597   1.569
 4744SOL    HW215132   1.866   5.661   1.426
 4745SOL     OW15133   1.682   3.131   0.129
 4745SOL    HW115134   1.683   3.036   0.160
 4745SOL    HW215135   1.666   3.134   0.030
 4746SOL     OW15136   5.327   5.471   4.541
 4746SOL    HW115137   5.285   5.452   4.629
 4746SOL    HW215138   5.256   5.489   4.473
 4747SOL     OW15139   4.207   0.817   0.729
 4747SOL    HW115140   4.131   0.829   0.793
 4747SOL    HW215141   4.196   0.881   0.653
 4748SOL     OW15142   1.847   6.640   3.264
 4748SOL    HW115143   1.891   6.558   3.301
 4748SOL    HW215144   1.869   6.649   3.167
 4749SOL     OW15145   2.192   1.028   1.108
 4749SOL    HW115146   2.252   0.959   1.070
 4749SOL    HW215147   2.129   0.985   1.173
 4750SOL     OW15148   5.237   3.348   6.770
 4750SOL    HW115149   5.248   3.446   6.790
 4750SOL    HW215150   5.251   3.333   6.672
 4751SOL     OW15151   4.382   1.344   2.642
 4751SOL    HW115152   4.341   1.431   2.615
 4751SOL    HW215153   4.394   1.287   2.561
 4752SOL     OW15154   5.780   0.475   0.081
 4752SOL    HW115155   5.857   0.467   0.018
 4752SOL    HW215156   5.706   0.526   0.037
 4753SOL     OW15157   2.846   5.582   5.298
 4753SOL    HW115158   2.782   5.656   5.319
 4753SOL    HW215159   2.807   5.494   5.326
 4754SOL     OW15160   5.304   4.674   0.077
 4754SOL    HW115161   5.302   4.592   0.020
 4754SOL    HW215162   5.360   4.744   0.033
 4755SOL     OW15163   0.165   1.071   1.242
 4755SOL    HW115164   0.233   1.006   1.278
 4755SOL    HW215165   0.191   1.164   1.270
 4756SOL     OW15166   0.041   3.896   5.207
 4756SOL    HW115167   0.110   3.827   5.229
 4756SOL    HW215168   0.002   3.877   5.117
 4757SOL     OW15169   2.253   3.067   0.774
 4757SOL    HW115170   2.172   3.111   0.813
 4757SOL    HW215171   2.269   3.104   0.682
 4758SOL     OW15172   2.082   4.763   2.117
 4758SOL    HW115173   2.177   4.749   2.090
 4758SOL    HW215174   2.022   4.706   2.061
 4759SOL     OW15175   0.634   6.705   2.792
 4759SOL    HW115176   0.610   6.802   2.793
 4759SOL    HW215177   0.720   6.692   2.842
 4760SOL     OW15178   1.129   6.839   2.065
 4760SOL    HW115179   1.223   6.805   2.061
 4760SOL    HW215180   1.085   6.806   2.148
 4761SOL     OW15181   4.623   6.333   2.115
 4761SOL    HW115182   4.605   6.339   2.214
 4761SOL    HW215183   4.556   6.389   2.066
 4762SOL     OW15184   0.973   1.180   2.444
 4762SOL    HW115185   1.022   1.258   2.482
 4762SOL    HW215186   0.875   1.198   2.445
 4763SOL     OW15187   5.154   5.328   1.537
 4763SOL    HW115188   5.060   5.312   1.566
 4763SOL    HW215189   5.154   5.367   1.445
 4764SOL     OW15190   5.045   2.824   6.595
 4764SOL    HW115191   5.001   2.885   6.662
 4764SOL    HW215192   4.992   2.739   6.588
 4765SOL     OW15193   3.755   1.031   6.068
 4765SOL    HW115194   3.828   1.039   6.136
 4765SOL    HW215195   3.744   0.936   6.041
 4766SOL     OW15196   1.321   1.124   4.011
 4766SOL    HW115197   1.271   1.054   3.961
 4766SOL    HW215198   1.419   1.112   3.995
 4767SOL     OW15199   2.632   4.753   3.562
 4767SOL    HW115200   2.656   4.728   3.468
 4767SOL    HW215201   2.598   4.672   3.610
 4768SOL     OW15202   4.777   1.815   6.356
 4768SOL    HW115203   4.798   1.884   6.424
 4768SOL    HW215204   4.737   1.735   6.402
 4769SOL     OW15205   2.733   3.377   0.414
 4769SOL    HW115206   2.663   3.394   0.345
 4769SOL    HW215207   2.760   3.281   0.412
 4770SOL     OW15208   6.632   1.860   3.861
 4770SOL    HW115209   6.603   1.838   3.768
 4770SOL    HW215210   6.696   1.790   3.894
 4771SOL     OW15211   2.933   0.735   4.428
 4771SOL    HW115212   2.993   0.758   4.351
 4771SOL    HW215213   2.862   0.672   4.397
 4772SOL     OW15214   2.691   4.978   2.844
 4772SOL    HW115215   2.642   5.008   2.926
 4772SOL    HW215216   2.638   4.908   2.797
 4773SOL     OW15217   2.991   5.340   4.266
 4773SOL    HW115218   3.077   5.290   4.260
 4773SOL    HW215219   2.917   5.286   4.226
 4774SOL     OW15220   0.929   4.824   0.656
 4774SOL    HW115221   0.875   4.904   0.631
 4774SOL    HW215222   1.004   4.852   0.716
 4775SOL     OW15223   5.712   4.958   4.483
 4775SOL    HW115224   5.660   4.980   4.400
 4775SOL    HW215225   5.801   5.003   4.479
 4776SOL     OW15226   6.924   1.864   5.182
 4776SOL    HW115227   7.018   1.842   5.210
 4776SOL    HW215228   6.881   1.783   5.142
 4777SOL     OW15229   1.653   6.710   3.739
 4777SOL    HW115230   1.724   6.712   3.810
 4777SOL    HW215231   1.563   6.713   3.782
 4778SOL     OW15232   1.654   6.977   0.656
 4778SOL    HW115233   1.574   7.023   0.618
 4778SOL    HW215234   1.669   7.006   0.750
 4779SOL     OW15235   4.836   1.709   4.905
 4779SOL    HW115236   4.925   1.731   4.865
 4779SOL    HW215237   4.810   1.616   4.878
 4780SOL     OW15238   4.850   2.769   4.941
 4780SOL    HW115239   4.805   2.851   4.905
 4780SOL    HW215240   4.783   2.715   4.994
 4781SOL     OW15241   2.182   5.212   2.294
 4781SOL    HW115242   2.217   5.304   2.280
 4781SOL    HW215243   2.189   5.188   2.391
 4782SOL     OW15244   1.069   6.098   3.278
 4782SOL    HW115245   1.135   6.154   3.228
 4782SOL    HW215246   1.114   6.054   3.356
 4783SOL     OW15247   0.994   4.035   0.045
 4783SOL    HW115248   1.032   4.095   6.998
 4783SOL    HW215249   0.985   4.085   0.130
 4784SOL     OW15250   6.101   2.955   0.152
 4784SOL    HW115251   6.101   2.886   0.224
 4784SOL    HW215252   6.007   2.984   0.132
 4785SOL     OW15253   6.982   0.702   3.956
 4785SOL    HW115254   0.007   0.748   3.882
 4785SOL    HW215255   6.967   0.606   3.931
 4786SOL     OW15256   1.697   5.754   0.254
 4786SOL    HW115257   1.652   5.843   0.255
 4786SOL    HW215258   1.632   5.684   0.285
 4787SOL     OW15259   5.210   1.232   5.051
 4787SOL    HW115260   5.299   1.252   5.091
 4787SOL    HW215261   5.222   1.188   4.962
 4788SOL     OW15262   6.636   6.170   1.229
 4788SOL    HW115263   6.643   6.242   1.160
 4788SOL    HW215264   6.562   6.192   1.293
 4789SOL     OW15265   6.181   1.353   2.564
 4789SOL    HW115266   6.131   1.439   2.576
 4789SOL    HW215267   6.248   1.363   2.490
 4790SOL     OW15268   0.102   2.534   5.696
 4790SOL    HW115269   0.033   2.606   5.694
 4790SOL    HW215270   0.066   2.452   5.651
 4791SOL     OW15271   0.504   0.490   6.899
 4791SOL    HW115272   0.533   0.573   6.850
 4791SOL    HW215273   0.413   0.504   6.937
 4792SOL     OW15274   0.205   3.507   1.290
 4792SOL    HW115275   0.237   3.413   1.302
 4792SOL    HW215276   0.179   3.545   1.379
 4793SOL     OW15277   0.901   2.952   5.354
 4793SOL    HW115278   0.870   2.956   5.259
 4793SOL    HW215279   0.970   3.023   5.369
 4794SOL     OW15280   5.432   0.684   6.643
 4794SOL    HW115281   5.504   0.743   6.680
 4794SOL    HW215282   5.346   0.733   6.643
 4795SOL     OW15283   6.957   0.371   6.784
 4795SOL    HW115284   7.015   0.443   6.822
 4795SOL    HW215285   6.863   0.403   6.778
 4796SOL     OW15286   5.990   1.134   5.543
 4796SOL    HW115287   6.067   1.185   5.504
 4796SOL    HW215288   5.915   1.130   5.476
 4797SOL     OW15289   2.780   4.785   5.452
 4797SOL    HW115290   2.857   4.835   5.413
 4797SOL    HW215291   2.751   4.829   5.537
 4798SOL     OW15292   3.226   5.952   6.936
 4798SOL    HW115293   3.226   5.907   0.001
 4798SOL    HW215294   3.161   5.907   6.875
 4799SOL     OW15295   4.387   3.808   1.120
 4799SOL    HW115296   4.354   3.721   1.084
 4799SOL    HW215297   4.388   3.805   1.220
 4800SOL     OW15298   0.618   4.929   0.566
 4800SOL    HW115299   0.675   4.988   0.624
 4800SOL    HW215300   0.637   4.833   0.586
 4801SOL     OW15301   4.974   3.190   3.721
 4801SOL    HW115302   5.008   3.137   3.798
 4801SOL    HW215303   5.006   3.149   3.635
 4802SOL     OW15304   0.102   0.923   5.272
 4802SOL    HW115305   0.196   0.894   5.254
 4802SOL    HW215306   0.102   0.999   5.337
 4803SOL     OW15307   5.246   3.415   5.385
 4803SOL    HW115308   5.217   3.321   5.366
 4803SOL    HW215309   5.223   3.438   5.479
 4804SOL     OW15310   5.470   3.154   0.878
 4804SOL    HW115311   5.475   3.240   0.928
 4804SOL    HW215312   5.550   3.146   0.818
 4805SOL     OW15313   5.658   0.853   6.707
 4805SOL    HW115314   5.738   0.804   6.742
 4805SOL    HW215315   5.686   0.916   6.635
 4806SOL     OW15316   1.236   2.911   3.471
 4806SOL    HW115317   1.283   2.942   3.554
 4806SOL    HW215318   1.195   2.989   3.425
 4807SOL     OW15319   1.251   3.897   0.198
 4807SOL    HW115320   1.157   3.867   0.179
 4807SOL    HW215321   1.312   3.818   0.194
 4808SOL     OW15322   3.158   6.427   2.711
 4808SOL    HW115323   3.107   6.443   2.626
 4808SOL    HW215324   3.212   6.343   2.702
 4809SOL     OW15325   2.639   3.958   0.457
 4809SOL    HW115326   2.633   3.897   0.379
 4809SOL    HW215327   2.593   4.044   0.435
 4810SOL     OW15328   1.919   4.789   4.718
 4810SOL    HW115329   1.950   4.694   4.727
 4810SOL    HW215330   1.825   4.796   4.752
 4811SOL     OW15331   3.198   3.371   4.533
 4811SOL    HW115332   3.276   3.385   4.472
 4811SOL    HW215333   3.179   3.456   4.583
 4812SOL     OW15334   2.523   6.362   1.727
 4812SOL    HW115335   2.562   6.318   1.646
 4812SOL    HW215336   2.454   6.302   1.768
 4813SOL     OW15337   1.099   2.514   4.441
 4813SOL    HW115338   1.176   2.533   4.503
 4813SOL    HW215339   1.100   2.417   4.416
 4814SOL     OW15340   5.237   1.132   0.929
 4814SOL    HW115341   5.232   1.163   0.835
 4814SOL    HW215342   5.157   1.075   0.950
 4815SOL     OW15343   6.390   4.583   3.240
 4815SOL    HW115344   6.325   4.507   3.242
 4815SOL    HW215345   6.436   4.584   3.151
 4816SOL     OW15346   2.225   0.526   2.734
 4816SOL    HW115347   2.157   0.458   2.707
 4816SOL    HW215348   2.310   0.509   2.683
 4817SOL     OW15349   3.552   2.699   0.422
 4817SOL    HW115350   3.479   2.686   0.489
 4817SOL    HW215351   3.512   2.721   0.333
 4818SOL     OW15352   4.693   6.435   5.114
 4818SOL    HW115353   4.651   6.513   5.067
 4818SOL    HW215354   4.779   6.465   5.156
 4819SOL     OW15355   3.533   0.725   0.272
 4819SOL    HW115356   3.535   0.652   0.341
 4819SOL    HW215357   3.545   0.813   0.317
 4820SOL     OW15358   0.141   4.860   1.897
 4820SOL    HW115359   0.170   4.909   1.979
 4820SOL    HW215360   0.160   4.916   1.816
 4821SOL     OW15361   6.928   6.305   1.614
 4821SOL    HW115362   6.905   6.294   1.711
 4821SOL    HW215363   6.882   6.234   1.561
 4822SOL     OW15364   0.456   3.893   1.472
 4822SOL    HW115365   0.403   3.932   1.547
 4822SOL    HW215366   0.505   3.812   1.504
 4823SOL     OW15367   0.002   1.963   2.838
 4823SOL    HW115368   6.963   1.962   2.760
 4823SOL    HW215369   6.994   2.029   2.906
 4824SOL     OW15370   4.894   2.039   2.533
 4824SOL    HW115371   4.956   2.106   2.491
 4824SOL    HW215372   4.921   1.947   2.504
 4825SOL     OW15373   1.724   3.121   4.590
 4825SOL    HW115374   1.805   3.175   4.611
 4825SOL    HW215375   1.655   3.180   4.548
 4826SOL     OW15376   0.289   6.720   0.270
 4826SOL    HW115377   0.322   6.765   0.187
 4826SOL    HW215378   0.362   6.718   0.338
 4827SOL     OW15379   4.998   0.996   7.015
 4827SOL    HW115380   5.042   1.080   6.987
 4827SOL    HW215381   5.003   0.986   0.091
 4828SOL     OW15382   6.212   3.218   6.623
 4828SOL    HW115383   6.173   3.310   6.630
 4828SOL    HW215384   6.147   3.151   6.659
 4829SOL     OW15385   2.452   0.465   5.790
 4829SOL    HW115386   2.491   0.377   5.764
 4829SOL    HW215387   2.352   0.457   5.798
 4830SOL     OW15388   4.903   4.654   4.555
 4830SOL    HW115389   4.965   4.733   4.556
 4830SOL    HW215390   4.811   4.683   4.528
 4831SOL     OW15391   6.457   2.239   6.459
 4831SOL    HW115392   6.480   2.307   6.528
 4831SOL    HW215393   6.533   2.228   6.395
 4832SOL     OW15394   1.391   2.632   6.512
 4832SOL    HW115395   1.372   2.612   6.416
 4832SOL    HW215396   1.317   2.685   6.551
 4833SOL     OW15397   6.511   2.982   3.051
 4833SOL    HW115398   6.592   3.021   3.095
 4833SOL    HW215399   6.521   2.990   2.952
 4834SOL     OW15400   5.623   0.953   3.113
 4834SOL    HW115401   5.555   0.956   3.040
 4834SOL    HW215402   5.712   0.928   3.074
 4835SOL     OW15403   2.150   1.651   6.360
 4835SOL    HW115404   2.139   1.745   6.328
 4835SOL    HW215405   2.231   1.645   6.419
 4836SOL     OW15406   5.915   4.308   3.190
 4836SOL    HW115407   5.836   4.250   3.169
 4836SOL    HW215408   5.918   4.324   3.289
 4837SOL     OW15409   0.033   5.067   1.731
 4837SOL    HW115410   0.073   5.156   1.752
 4837SOL    HW215411   6.992   5.042   1.804
 4838SOL     OW15412   2.711   5.974   2.584
 4838SOL    HW115413   2.688   6.010   2.674
 4838SOL    HW215414   2.712   5.874   2.587
 4839SOL     OW15415   0.910   0.092   6.522
 4839SOL    HW115416   0.905   0.106   6.423
 4839SOL    HW215417   0.985   0.029   6.543
 4840SOL     OW15418   6.388   5.914   6.047
 4840SOL    HW115419   6.415   5.878   6.136
 4840SOL    HW215420   6.455   5.886   5.978
 4841SOL     OW15421   1.878   5.706   1.261
 4841SOL    HW115422   1.939   5.784   1.251
 4841SOL    HW215423   1.866   5.661   1.172
 4842SOL     OW15424   3.418   6.446   0.515
 4842SOL    HW115425   3.488   6.437   0.444
 4842SOL    HW215426   3.396   6.543   0.528
 4843SOL     OW15427   1.589   3.679   0.362
 4843SOL    HW115428   1.618   3.766   0.402
 4843SOL    HW215429   1.554   3.695   0.270
 4844SOL     OW15430   0.405   1.486   5.064
 4844SOL    HW115431   0.324   1.543   5.052
 4844SOL    HW215432   0.475   1.537   5.114
 4845SOL     OW15433   5.306   6.525   3.404
 4845SOL    HW115434   5.400   6.556   3.394
 4845SOL    HW215435   5.257   6.586   3.466
 4846SOL     OW15436   6.374   4.759   6.184
 4846SOL    HW115437   6.407   4.699   6.111
 4846SOL    HW215438   6.356   4.704   6.266
 4847SOL     OW15439   4.871   3.297   4.770
 4847SOL    HW115440   4.919   3.220   4.728
 4847SOL    HW215441   4.919   3.324   4.854
 4848SOL     OW15442   2.912   3.208   1.178
 4848SOL    HW115443   2.818   3.223   1.210
 4848SOL    HW215444   2.926   3.111   1.159
 4849SOL     OW15445   2.190   5.927   6.360
 4849SOL    HW115446   2.289   5.916   6.369
 4849SOL    HW215447   2.150   5.942   6.451
 4850SOL     OW15448   3.402   6.964   2.569
 4850SOL    HW115449   3.490   6.982   2.613
 4850SOL    HW215450   3.339   6.923   2.635
 4851SOL     OW15451   5.242   1.150   5.524
 4851SOL    HW115452   5.172   1.139   5.453
 4851SOL    HW215453   5.331   1.125   5.486
 4852SOL     OW15454   1.401   1.957   1.484
 4852SOL    HW115455   1.351   1.980   1.401
 4852SOL    HW215456   1.451   2.037   1.517
 4853SOL     OW15457   3.646   1.144   1.518
 4853SOL    HW115458   3.736   1.115   1.553
 4853SOL    HW215459   3.588   1.171   1.594
 4854SOL     OW15460   3.999   0.031   5.779
 4854SOL    HW115461   4.080   7.020   5.732
 4854SOL    HW215462   3.998   7.023   5.873
 4855SOL     OW15463   0.346   2.543   2.601
 4855SOL    HW115464   0.315   2.630   2.565
 4855SOL    HW215465   0.285   2.513   2.674
 4856SOL     OW15466   0.442   4.768   2.582
 4856SOL    HW115467   0.444   4.781   2.681
 4856SOL    HW215468   0.502   4.692   2.557
 4857SOL     OW15469   0.361   0.858   5.270
 4857SOL    HW115470   0.391   0.819   5.357
 4857SOL    HW215471   0.439   0.904   5.226
 4858SOL     OW15472   1.531   0.522   3.744
 4858SOL    HW115473   1.606   0.536   3.808
 4858SOL    HW215474   1.455   0.581   3.768
 4859SOL     OW15475   3.629   6.113   5.948
 4859SOL    HW115476   3.621   6.200   5.899
 4859SOL    HW215477   3.710   6.064   5.915
 4860SOL     OW15478   3.277   5.019   0.094
 4860SOL    HW115479   3.260   5.111   0.058
 4860SOL    HW215480   3.190   4.977   0.118
 4861SOL     OW15481   4.118   4.136   6.237
 4861SOL    HW115482   4.022   4.162   6.249
 4861SOL    HW215483   4.168   4.154   6.321
 4862SOL     OW15484   2.059   0.188   0.538
 4862SOL    HW115485   2.023   0.260   0.477
 4862SOL    HW215486   2.151   0.163   0.508
 4863SOL     OW15487   5.480   3.820   6.015
 4863SOL    HW115488   5.498   3.843   5.919
 4863SOL    HW215489   5.421   3.890   6.055
 4864SOL     OW15490   3.290   1.274   4.147
 4864SOL    HW115491   3.334   1.361   4.123
 4864SOL    HW215492   3.255   1.231   4.064
 4865SOL     OW15493   1.511   6.341   5.464
 4865SOL    HW115494   1.419   6.380   5.463
 4865SOL    HW215495   1.534   6.314   5.558
 4866SOL     OW15496   0.388   4.356   5.938
 4866SOL    HW115497   0.387   4.296   5.857
 4866SOL    HW215498   0.338   4.312   6.012
 4867SOL     OW15499   3.678   1.058   3.308
 4867SOL    HW115500   3.671   0.959   3.319
 4867SOL    HW215501   3.694   1.100   3.397
 4868SOL     OW15502   0.261   5.344   0.926
 4868SOL    HW115503   0.304   5.395   1.001
 4868SOL    HW215504   0.278   5.391   0.840
 4869SOL     OW15505   0.152   1.517   0.949
 4869SOL    HW115506   0.054   1.537   0.939
 4869SOL    HW215507   0.184   1.555   1.036
 4870SOL     OW15508   0.229   6.795   1.374
 4870SOL    HW115509   0.249   6.728   1.302
 4870SOL    HW215510   0.308   6.801   1.435
 4871SOL     OW15511   0.587   2.050   3.486
 4871SOL    HW115512   0.564   2.126   3.546
 4871SOL    HW215513   0.642   1.983   3.536
 4872SOL     OW15514   5.771   0.197   3.059
 4872SOL    HW115515   5.798   0.211   2.964
 4872SOL    HW215516   5.828   0.125   3.100
 4873SOL     OW15517   0.084   5.535   3.703
 4873SOL    HW115518   7.016   5.569   3.681
 4873SOL    HW215519   0.082   5.436   3.714
 4874SOL     OW15520   6.002   4.464   2.047
 4874SOL    HW115521   5.943   4.405   1.992
 4874SOL    HW215522   5.955   4.487   2.133
 4875SOL     OW15523   6.136   6.759   4.458
 4875SOL    HW115524   6.127   6.767   4.358
 4875SOL    HW215525   6.152   6.664   4.483
 4876SOL     OW15526   6.470   1.446   2.130
 4876SOL    HW115527   6.424   1.481   2.211
 4876SOL    HW215528   6.561   1.412   2.154
 4877SOL     OW15529   0.301   1.412   6.793
 4877SOL    HW115530   0.267   1.491   6.742
 4877SOL    HW215531   0.375   1.440   6.854
 4878SOL     OW15532   6.137   4.527   3.924
 4878SOL    HW115533   6.214   4.523   3.861
 4878SOL    HW215534   6.073   4.598   3.893
 4879SOL     OW15535   5.661   0.585   3.065
 4879SOL    HW115536   5.720   0.508   3.044
 4879SOL    HW215537   5.657   0.647   2.986
 4880SOL     OW15538   6.976   2.948   6.475
 4880SOL    HW115539   0.029   2.890   6.503
 4880SOL    HW215540   6.936   2.992   6.555
 4881SOL     OW15541   6.988   3.682   2.108
 4881SOL    HW115542   0.024   3.610   2.071
 4881SOL    HW215543   0.017   3.766   2.118
 4882SOL     OW15544   5.385   2.411   4.543
 4882SOL    HW115545   5.418   2.475   4.613
 4882SOL    HW215546   5.316   2.456   4.486
 4883SOL     OW15547   0.397   4.289   6.605
 4883SOL    HW115548   0.373   4.233   6.685
 4883SOL    HW215549   0.351   4.378   6.613
 4884SOL     OW15550   2.096   2.005   2.139
 4884SOL    HW115551   2.098   1.909   2.109
 4884SOL    HW215552   2.001   2.035   2.147
 4885SOL     OW15553   1.243   5.178   6.611
 4885SOL    HW115554   1.201   5.221   6.691
 4885SOL    HW215555   1.188   5.198   6.530
 4886SOL     OW15556   2.903   0.745   2.505
 4886SOL    HW115557   2.972   0.744   2.577
 4886SOL    HW215558   2.815   0.719   2.544
 4887SOL     OW15559   4.709   5.444   0.456
 4887SOL    HW115560   4.616   5.411   0.470
 4887SOL    HW215561   4.767   5.369   0.426
 4888SOL     OW15562   4.335   0.382   2.667
 4888SOL    HW115563   4.323   0.355   2.762
 4888SOL    HW215564   4.245   0.400   2.626
 4889SOL     OW15565   5.628   3.614   3.620
 4889SOL    HW115566   5.695   3.667   3.672
 4889SOL    HW215567   5.669   3.583   3.535
 4890SOL     OW15568   6.375   1.988   4.575
 4890SOL    HW115569   6.372   2.088   4.572
 4890SOL    HW215570   6.401   1.958   4.667
 4891SOL     OW15571   2.229   5.753   0.299
 4891SOL    HW115572   2.209   5.757   0.396
 4891SOL    HW215573   2.145   5.738   0.247
 4892SOL     OW15574   5.025   5.110   2.156
 4892SOL    HW115575   4.979   5.082   2.240
 4892SOL    HW215576   5.113   5.153   2.179
 4893SOL     OW15577   1.966   2.399   1.497
 4893SOL    HW115578   2.001   2.424   1.407
 4893SOL    HW215579   1.925   2.308   1.493
 4894SOL     OW15580   4.899   6.443   0.527
 4894SOL    HW115581   4.965   6.371   0.548
 4894SOL    HW215582   4.808   6.414   0.556
 4895SOL     OW15583   6.256   3.628   5.061
 4895SOL    HW115584   6.305   3.633   5.148
 4895SOL    HW215585   6.315   3.661   4.987
 4896SOL     OW15586   2.580   5.230   4.579
 4896SOL    HW115587   2.591   5.266   4.487
 4896SOL    HW215588   2.568   5.131   4.576
 4897SOL     OW15589   2.262   1.629   5.529
 4897SOL    HW115590   2.271   1.714   5.477
 4897SOL    HW215591   2.329   1.627   5.603
 4898SOL     OW15592   4.186   2.217   3.651
 4898SOL    HW115593   4.155   2.289   3.713
 4898SOL    HW215594   4.200   2.133   3.702
 4899SOL     OW15595   6.652   6.916   1.650
 4899SOL    HW115596   6.741   6.871   1.652
 4899SOL    HW215597   6.587   6.861   1.598
 4900SOL     OW15598   3.575   5.768   6.257
 4900SOL    HW115599   3.586   5.669   6.259
 4900SOL    HW215600   3.665   5.812   6.257
 4901SOL     OW15601   1.863   0.614   0.225
 4901SOL    HW115602   1.934   0.637   0.292
 4901SOL    HW215603   1.904   0.605   0.134
 4902SOL     OW15604   2.014   0.245   5.577
 4902SOL    HW115605   2.092   0.216   5.633
 4902SOL    HW215606   2.019   0.200   5.488
 4903SOL     OW15607   4.811   3.984   2.269
 4903SOL    HW115608   4.815   4.029   2.180
 4903SOL    HW215609   4.833   3.887   2.259
 4904SOL     OW15610   1.893   0.795   1.846
 4904SOL    HW115611   1.793   0.797   1.841
 4904SOL    HW215612   1.923   0.704   1.873
 4905SOL     OW15613   2.239   1.296   2.267
 4905SOL    HW115614   2.188   1.214   2.242
 4905SOL    HW215615   2.337   1.278   2.255
 4906SOL     OW15616   5.094   3.085   4.799
 4906SOL    HW115617   5.130   2.994   4.820
 4906SOL    HW215618   5.162   3.136   4.746
 4907SOL     OW15619   3.585   2.519   0.732
 4907SOL    HW115620   3.681   2.513   0.704
 4907SOL    HW215621   3.563   2.443   0.793
 4908SOL     OW15622   2.518   6.405   6.139
 4908SOL    HW115623   2.586   6.474   6.113
 4908SOL    HW215624   2.436   6.451   6.173
 4909SOL     OW15625   4.867   5.816   4.610
 4909SOL    HW115626   4.815   5.778   4.686
 4909SOL    HW215627   4.963   5.826   4.636
 4910SOL     OW15628   4.489   1.676   6.760
 4910SOL    HW115629   4.517   1.760   6.806
 4910SOL    HW215630   4.562   1.646   6.698
 4911SOL     OW15631   6.563   4.380   3.416
 4911SOL    HW115632   6.556   4.460   3.475
 4911SOL    HW215633   6.655   4.376   3.376
 4912SOL     OW15634   5.648   2.949   4.369
 4912SOL    HW115635   5.634   2.969   4.272
 4912SOL    HW215636   5.581   2.881   4.399
 4913SOL     OW15637   0.925   3.674   5.618
 4913SOL    HW115638   0.927   3.746   5.687
 4913SOL    HW215639   0.910   3.586   5.662
 4914SOL     OW15640   3.324   6.847   3.588
 4914SOL    HW115641   3.395   6.889   3.645
 4914SOL    HW215642   3.234   6.874   3.622
 4915SOL     OW15643   4.144   5.735   5.236
 4915SOL    HW115644   4.186   5.681   5.310
 4915SOL    HW215645   4.073   5.681   5.193
 4916SOL     OW15646   5.458   2.644   3.668
 4916SOL    HW115647   5.385   2.687   3.615
 4916SOL    HW215648   5.520   2.596   3.606
 4917SOL     OW15649   4.985   6.503   6.863
 4917SOL    HW115650   5.077   6.476   6.892
 4917SOL    HW215651   4.931   6.422   6.841
 4918SOL     OW15652   5.187   6.190   3.786
 4918SOL    HW115653   5.280   6.164   3.763
 4918SOL    HW215654   5.181   6.212   3.883
 4919SOL     OW15655   4.209   3.998   1.735
 4919SOL    HW115656   4.130   4.026   1.789
 4919SOL    HW215657   4.284   4.062   1.749
 4920SOL     OW15658   6.313   1.095   5.671
 4920SOL    HW115659   6.309   1.015   5.730
 4920SOL    HW215660   6.409   1.121   5.656
 4921SOL     OW15661   6.633   6.995   2.460
 4921SOL    HW115662   6.600   0.062   2.435
 4921SOL    HW215663   6.731   6.988   2.441
 4922SOL     OW15664   3.907   0.590   6.097
 4922SOL    HW115665   3.849   0.524   6.051
 4922SOL    HW215666   3.919   0.564   6.192
 4923SOL     OW15667   4.188   1.440   1.335
 4923SOL    HW115668   4.118   1.472   1.399
 4923SOL    HW215669   4.153   1.363   1.283
 4924SOL     OW15670   3.070   1.426   5.263
 4924SOL    HW115671   3.153   1.374   5.281
 4924SOL    HW215672   2.990   1.366   5.273
 4925SOL     OW15673   5.058   0.288   4.426
 4925SOL    HW115674   5.091   0.294   4.520
 4925SOL    HW215675   4.961   0.311   4.424
 4926SOL     OW15676   4.795   2.504   1.900
 4926SOL    HW115677   4.818   2.459   1.986
 4926SOL    HW215678   4.740   2.586   1.918
 4927SOL     OW15679   2.365   1.057   0.164
 4927SOL    HW115680   2.303   1.133   0.145
 4927SOL    HW215681   2.459   1.086   0.147
 4928SOL     OW15682   0.488   1.569   1.223
 4928SOL    HW115683   0.392   1.576   1.250
 4928SOL    HW215684   0.546   1.583   1.303
 4929SOL     OW15685   6.471   0.296   4.985
 4929SOL    HW115686   6.424   0.282   5.073
 4929SOL    HW215687   6.562   0.253   4.989
 4930SOL     OW15688   4.251   5.942   3.021
 4930SOL    HW115689   4.320   5.997   3.069
 4930SOL    HW215690   4.292   5.855   2.993
 4931SOL     OW15691   5.286   0.019   1.619
 4931SOL    HW115692   5.342   6.967   1.653
 4931SOL    HW215693   5.217   7.007   1.557
 4932SOL     OW15694   3.689   4.101   3.232
 4932SOL    HW115695   3.649   4.140   3.315
 4932SOL    HW215696   3.638   4.133   3.152
 4933SOL     OW15697   1.799   6.822   5.221
 4933SOL    HW115698   1.837   6.730   5.211
 4933SOL    HW215699   1.798   6.869   5.133
 4934SOL     OW15700   2.245   6.937   3.239
 4934SOL    HW115701   2.262   0.005   3.275
 4934SOL    HW215702   2.149   6.912   3.254
 4935SOL     OW15703   6.272   0.222   4.580
 4935SOL    HW115704   6.182   0.266   4.577
 4935SOL    HW215705   6.261   0.123   4.565
 4936SOL     OW15706   4.460   3.027   0.107
 4936SOL    HW115707   4.378   3.082   0.089
 4936SOL    HW215708   4.502   3.058   0.192
 4937SOL     OW15709   3.765   2.802   5.244
 4937SOL    HW115710   3.677   2.816   5.290
 4937SOL    HW215711   3.837   2.850   5.294
 4938SOL     OW15712   2.904   4.572   0.181
 4938SOL    HW115713   2.816   4.616   0.161
 4938SOL    HW215714   2.900   4.476   0.155
 4939SOL     OW15715   5.054   3.591   6.599
 4939SOL    HW115716   4.991   3.551   6.665
 4939SOL    HW215717   5.026   3.565   6.506
 4940SOL     OW15718   1.234   5.736   3.653
 4940SOL    HW115719   1.202   5.655   3.702
 4940SOL    HW215720   1.334   5.742   3.661
 4941SOL     OW15721   6.080   1.011   1.024
 4941SOL    HW115722   6.167   0.973   1.055
 4941SOL    HW215723   6.012   0.938   1.018
 4942SOL     OW15724   5.370   2.350   5.613
 4942SOL    HW115725   5.444   2.415   5.629
 4942SOL    HW215726   5.402   2.257   5.636
 4943SOL     OW15727   5.953   3.209   1.454
 4943SOL    HW115728   5.951   3.246   1.546
 4943SOL    HW215729   5.867   3.232   1.407
 4944SOL     OW15730   1.775   3.282   2.005
 4944SOL    HW115731   1.735   3.321   1.922
 4944SOL    HW215732   1.819   3.195   1.984
 4945SOL     OW15733   6.853   5.930   4.238
 4945SOL    HW115734   6.951   5.911   4.241
 4945SOL    HW215735   6.808   5.863   4.179
 4946SOL     OW15736   0.339   4.608   1.949
 4946SOL    HW115737   0.421   4.551   1.954
 4946SOL    HW215738   0.359   4.691   1.898
 4947SOL     OW15739   5.842   0.328   0.721
 4947SOL    HW115740   5.830   0.382   0.804
 4947SOL    HW215741   5.935   0.340   0.686
 4948SOL     OW15742   2.435   1.742   2.093
 4948SOL    HW115743   2.468   1.821   2.042
 4948SOL    HW215744   2.352   1.706   2.049
 4949SOL     OW15745   5.965   2.360   5.609
 4949SOL    HW115746   5.907   2.328   5.685
 4949SOL    HW215747   5.930   2.323   5.523
 4950SOL     OW15748   3.393   5.320   4.032
 4950SOL    HW115749   3.472   5.380   4.043
 4950SOL    HW215750   3.380   5.265   4.114
 4951SOL     OW15751   4.383   2.423   3.760
 4951SOL    HW115752   4.456   2.490   3.772
 4951SOL    HW215753   4.411   2.354   3.694
 4952SOL     OW15754   6.379   4.895   4.297
 4952SOL    HW115755   6.314   4.916   4.370
 4952SOL    HW215756   6.416   4.803   4.311
 4953SOL     OW15757   1.269   4.622   2.308
 4953SOL    HW115758   1.330   4.634   2.230
 4953SOL    HW215759   1.178   4.594   2.275
 4954SOL     OW15760   6.893   6.276   6.326
 4954SOL    HW115761   6.802   6.318   6.333
 4954SOL    HW215762   6.889   6.199   6.262
 4955SOL     OW15763   2.025   0.272   2.026
 4955SOL    HW115764   2.025   0.319   1.938
 4955SOL    HW215765   1.957   0.199   2.025
 4956SOL     OW15766   5.962   6.532   3.334
 4956SOL    HW115767   6.019   6.477   3.394
 4956SOL    HW215768   5.949   6.484   3.247
 4957SOL     OW15769   1.024   5.484   4.059
 4957SOL    HW115770   1.016   5.569   4.007
 4957SOL    HW215771   0.933   5.458   4.094
 4958SOL     OW15772   6.984   0.096   6.848
 4958SOL    HW115773   0.020   0.038   6.793
 4958SOL    HW215774   6.997   0.192   6.824
 4959SOL     OW15775   1.128   2.012   0.272
 4959SOL    HW115776   1.117   1.935   0.335
 4959SOL    HW215777   1.042   2.030   0.225
 4960SOL     OW15778   3.341   6.995   5.437
 4960SOL    HW115779   3.353   6.902   5.473
 4960SOL    HW215780   3.244   7.010   5.418
 4961SOL     OW15781   4.628   6.910   5.050
 4961SOL    HW115782   4.561   6.949   5.113
 4961SOL    HW215783   4.648   6.976   4.978
 4962SOL     OW15784   6.384   2.384   2.113
 4962SOL    HW115785   6.354   2.294   2.083
 4962SOL    HW215786   6.306   2.447   2.116
 4963SOL     OW15787   0.852   4.184   1.324
 4963SOL    HW115788   0.871   4.273   1.282
 4963SOL    HW215789   0.799   4.198   1.408
 4964SOL     OW15790   3.194   6.979   2.989
 4964SOL    HW115791   3.177   0.031   3.053
 4964SOL    HW215792   3.220   6.897   3.041
 4965SOL     OW15793   0.277   6.063   5.569
 4965SOL    HW115794   0.377   6.069   5.575
 4965SOL    HW215795   0.236   6.141   5.616
 4966SOL     OW15796   5.276   5.500   5.625
 4966SOL    HW115797   5.279   5.600   5.626
 4966SOL    HW215798   5.246   5.468   5.536
 4967SOL     OW15799   5.710   0.893   7.016
 4967SOL    HW115800   5.769   0.822   6.978
 4967SOL    HW215801   5.616   0.878   6.985
 4968SOL     OW15802   5.799   3.797   6.551
 4968SOL    HW115803   5.705   3.762   6.559
 4968SOL    HW215804   5.822   3.808   6.454
 4969SOL     OW15805   1.549   0.822   1.401
 4969SOL    HW115806   1.539   0.843   1.303
 4969SOL    HW215807   1.609   0.742   1.411
 4970SOL     OW15808   1.798   2.050   6.346
 4970SOL    HW115809   1.851   2.042   6.430
 4970SOL    HW215810   1.790   1.960   6.303
 4971SOL     OW15811   6.315   5.464   3.692
 4971SOL    HW115812   6.397   5.422   3.731
 4971SOL    HW215813   6.234   5.429   3.740
 4972SOL     OW15814   1.488   2.263   4.830
 4972SOL    HW115815   1.558   2.334   4.832
 4972SOL    HW215816   1.518   2.184   4.884
 4973SOL     OW15817   5.050   5.502   3.169
 4973SOL    HW115818   4.996   5.579   3.135
 4973SOL    HW215819   5.113   5.535   3.240
 4974SOL     OW15820   3.772   6.790   6.050
 4974SOL    HW115821   3.740   6.734   5.973
 4974SOL    HW215822   3.722   6.763   6.132
 4975SOL     OW15823   4.012   6.119   0.122
 4975SOL    HW115824   4.099   6.124   0.171
 4975SOL    HW215825   3.976   6.026   0.128
 4976SOL     OW15826   2.273   1.522   4.797
 4976SOL    HW115827   2.359   1.489   4.836
 4976SOL    HW215828   2.211   1.446   4.783
 4977SOL     OW15829   4.100   3.667   1.907
 4977SOL    HW115830   4.128   3.763   1.912
 4977SOL    HW215831   4.136   3.625   1.824
 4978SOL     OW15832   6.508   3.914   6.250
 4978SOL    HW115833   6.605   3.923   6.273
 4978SOL    HW215834   6.497   3.851   6.173
 4979SOL     OW15835   1.982   2.048   3.542
 4979SOL    HW115836   2.007   2.130   3.490
 4979SOL    HW215837   2.040   1.972   3.513
 4980SOL     OW15838   2.315   4.796   2.786
 4980SOL    HW115839   2.395   4.737   2.779
 4980SOL    HW215840   2.309   4.833   2.878
 4981SOL     OW15841   5.351   5.612   5.204
 4981SOL    HW115842   5.271   5.575   5.250
 4981SOL    HW215843   5.418   5.642   5.271
 4982SOL     OW15844   2.612   1.004   6.872
 4982SOL    HW115845   2.629   0.986   6.969
 4982SOL    HW215846   2.534   1.066   6.863
 4983SOL     OW15847   6.992   2.260   3.956
 4983SOL    HW115848   6.909   2.206   3.949
 4983SOL    HW215849   6.981   2.330   4.027
 4984SOL     OW15850   5.308   5.151   3.615
 4984SOL    HW115851   5.319   5.221   3.544
 4984SOL    HW215852   5.267   5.192   3.696
 4985SOL     OW15853   5.567   3.668   1.928
 4985SOL    HW115854   5.631   3.623   1.991
 4985SOL    HW215855   5.478   3.624   1.936
 4986SOL     OW15856   4.404   4.990   3.716
 4986SOL    HW115857   4.448   4.903   3.693
 4986SOL    HW215858   4.374   5.035   3.633
 4987SOL     OW15859   1.154   2.536   6.939
 4987SOL    HW115860   1.225   2.606   6.948
 4987SOL    HW215861   1.149   2.483   7.023
 4988SOL     OW15862   2.432   2.238   5.013
 4988SOL    HW115863   2.413   2.164   4.948
 4988SOL    HW215864   2.352   2.251   5.072
 4989SOL     OW15865   0.040   0.815   0.700
 4989SOL    HW115866   0.046   0.730   0.752
 4989SOL    HW215867   0.133   0.849   0.681
 4990SOL     OW15868   2.041   1.964   0.309
 4990SOL    HW115869   2.109   2.037   0.309
 4990SOL    HW215870   2.073   1.888   0.253
 4991SOL     OW15871   2.575   1.508   5.901
 4991SOL    HW115872   2.656   1.497   5.844
 4991SOL    HW215873   2.577   1.599   5.943
 4992SOL     OW15874   4.124   7.020   4.568
 4992SOL    HW115875   4.153   6.976   4.653
 4992SOL    HW215876   4.173   0.082   4.556
 4993SOL     OW15877   1.448   6.450   4.830
 4993SOL    HW115878   1.527   6.510   4.838
 4993SOL    HW215879   1.418   6.447   4.735
 4994SOL     OW15880   0.280   5.659   3.224
 4994SOL    HW115881   0.192   5.614   3.210
 4994SOL    HW215882   0.268   5.739   3.284
 4995SOL     OW15883   5.684   2.860   4.862
 4995SOL    HW115884   5.604   2.821   4.815
 4995SOL    HW215885   5.729   2.789   4.916
 4996SOL     OW15886   0.667   1.921   4.097
 4996SOL    HW115887   0.743   1.889   4.154
 4996SOL    HW215888   0.581   1.890   4.136
 4997SOL     OW15889   0.041   2.460   3.745
 4997SOL    HW115890   0.050   2.396   3.822
 4997SOL    HW215891   6.971   2.456   3.710
 4998SOL     OW15892   1.361   5.687   5.964
 4998SOL    HW115893   1.278   5.743   5.967
 4998SOL    HW215894   1.439   5.746   5.942
 4999SOL     OW15895   5.764   4.858   1.008
 4999SOL    HW115896   5.690   4.799   1.042
 4999SOL    HW215897   5.730   4.951   0.998
 5000SOL     OW15898   6.087   5.365   3.847
 5000SOL    HW115899   6.010   5.411   3.803
 5000SOL    HW215900   6.060   5.273   3.875
 5001SOL     OW15901   5.032   3.612   5.366
 5001SOL    HW115902   5.092   3.533   5.356
 5001SOL    HW215903   4.961   3.592   5.434
 5002SOL     OW15904   1.549   2.155   1.659
 5002SOL    HW115905   1.591   2.095   1.727
 5002SOL    HW215906   1.491   2.223   1.705
 5003SOL     OW15907   6.659   5.523   4.608
 5003SOL    HW115908   6.673   5.510   4.706
 5003SOL    HW215909   6.663   5.435   4.561
 5004SOL     OW15910   2.221   4.071   6.030
 5004SOL    HW115911   2.296   4.117   6.079
 5004SOL    HW215912   2.249   4.053   5.936
 5005SOL     OW15913   4.967   2.239   0.559
 5005SOL    HW115914   4.982   2.329   0.601
 5005SOL    HW215915   5.052   2.206   0.519
 5006SOL     OW15916   4.500   4.806   2.240
 5006SOL    HW115917   4.401   4.807   2.230
 5006SOL    HW215918   4.538   4.733   2.183
 5007SOL     OW15919   4.024   1.089   4.561
 5007SOL    HW115920   4.017   1.091   4.661
 5007SOL    HW215921   4.084   1.163   4.530
 5008SOL     OW15922   6.253   1.909   4.005
 5008SOL    HW115923   6.216   1.936   4.093
 5008SOL    HW215924   6.347   1.942   3.997
 5009SOL     OW15925   2.530   6.342   2.047
 5009SOL    HW115926   2.483   6.384   1.970
 5009SOL    HW215927   2.597   6.276   2.013
 5010SOL     OW15928   3.318   3.247   6.287
 5010SOL    HW115929   3.412   3.276   6.267
 5010SOL    HW215930   3.319   3.157   6.329
 5011SOL     OW15931   1.525   1.625   4.396
 5011SOL    HW115932   1.487   1.587   4.481
 5011SOL    HW215933   1.468   1.701   4.366
 5012SOL     OW15934   6.062   2.356   0.097
 5012SOL    HW115935   6.027   2.374   0.189
 5012SOL    HW215936   6.062   2.441   0.045
 5013SOL     OW15937   5.044   1.631   5.219
 5013SOL    HW115938   4.958   1.680   5.212
 5013SOL    HW215939   5.066   1.590   5.130
 5014SOL     OW15940   0.034   5.075   6.753
 5014SOL    HW115941   0.112   5.099   6.695
 5014SOL    HW215942   0.010   4.979   6.739
 5015SOL     OW15943   4.858   1.875   4.081
 5015SOL    HW115944   4.855   1.829   4.169
 5015SOL    HW215945   4.844   1.973   4.094
 5016SOL     OW15946   2.729   5.518   1.703
 5016SOL    HW115947   2.785   5.567   1.636
 5016SOL    HW215948   2.705   5.579   1.778
 5017SOL     OW15949   0.225   2.357   1.747
 5017SOL    HW115950   0.182   2.278   1.703
 5017SOL    HW215951   0.308   2.328   1.795
 5018SOL     OW15952   6.440   5.117   3.907
 5018SOL    HW115953   6.383   5.048   3.951
 5018SOL    HW215954   6.412   5.128   3.812
 5019SOL     OW15955   3.323   5.552   4.822
 5019SOL    HW115956   3.234   5.554   4.869
 5019SOL    HW215957   3.332   5.467   4.771
 5020SOL     OW15958   4.428   5.102   0.059
 5020SOL    HW115959   4.422   5.080   0.157
 5020SOL    HW215960   4.500   5.048   0.017
 5021SOL     OW15961   2.306   4.835   5.815
 5021SOL    HW115962   2.338   4.910   5.757
 5021SOL    HW215963   2.385   4.783   5.848
 5022SOL     OW15964   1.582   3.065   6.825
 5022SOL    HW115965   1.532   2.989   6.867
 5022SOL    HW215966   1.665   3.030   6.781
 5023SOL     OW15967   6.759   3.419   4.258
 5023SOL    HW115968   6.744   3.320   4.266
 5023SOL    HW215969   6.838   3.436   4.200
 5024SOL     OW15970   4.870   3.991   5.215
 5024SOL    HW115971   4.795   4.046   5.253
 5024SOL    HW215972   4.923   4.046   5.151
 5025SOL     OW15973   5.735   0.509   5.116
 5025SOL    HW115974   5.813   0.448   5.123
 5025SOL    HW215975   5.651   0.459   5.141
 5026SOL     OW15976   1.290   5.765   2.838
 5026SOL    HW115977   1.266   5.828   2.764
 5026SOL    HW215978   1.268   5.808   2.926
 5027SOL     OW15979   1.280   5.404   3.441
 5027SOL    HW115980   1.379   5.421   3.433
 5027SOL    HW215981   1.260   5.368   3.532
 5028SOL     OW15982   1.219   6.248   3.129
 5028SOL    HW115983   1.271   6.334   3.138
 5028SOL    HW215984   1.198   6.233   3.032
 5029SOL     OW15985   6.018   0.346   4.535
 5029SOL    HW115986   5.943   0.283   4.514
 5029SOL    HW215987   6.015   0.369   4.633
 5030SOL     OW15988   1.403   5.866   0.435
 5030SOL    HW115989   1.387   5.954   0.481
 5030SOL    HW215990   1.347   5.862   0.352
 5031SOL     OW15991   5.579   0.043   0.205
 5031SOL    HW115992   5.523   0.038   0.287
 5031SOL    HW215993   5.652   0.109   0.218
 5032SOL     OW15994   1.823   5.506   2.234
 5032SOL    HW115995   1.881   5.502   2.152
 5032SOL    HW215996   1.787   5.415   2.253
 5033SOL     OW15997   0.641   4.430   4.488
 5033SOL    HW115998   0.687   4.344   4.508
 5033SOL    HW215999   0.563   4.441   4.550
 5034SOL     OW16000   0.718   2.989   5.979
 5034SOL    HW116001   0.775   3.014   6.058
 5034SOL    HW216002   0.771   2.999   5.895
 5035SOL     OW16003   6.524   4.825   0.984
 5035SOL    HW116004   6.568   4.909   0.951
 5035SOL    HW216005   6.491   4.772   0.905
 5036SOL     OW16006   1.250   1.646   2.961
 5036SOL    HW116007   1.292   1.590   3.032
 5036SOL    HW216008   1.246   1.741   2.991
 5037SOL     OW16009   5.108   4.490   1.067
 5037SOL    HW116010   5.105   4.581   1.108
 5037SOL    HW216011   5.149   4.495   0.976
 5038SOL     OW16012   3.301   5.765   5.831
 5038SOL    HW116013   3.391   5.745   5.791
 5038SOL    HW216014   3.231   5.755   5.760
 5039SOL     OW16015   1.201   2.721   3.293
 5039SOL    HW116016   1.102   2.714   3.278
 5039SOL    HW216017   1.219   2.787   3.367
 5040SOL     OW16018   2.391   3.582   6.231
 5040SOL    HW116019   2.454   3.539   6.167
 5040SOL    HW216020   2.327   3.513   6.266
 5041SOL     OW16021   0.421   5.772   0.427
 5041SOL    HW116022   0.401   5.674   0.429
 5041SOL    HW216023   0.423   5.808   0.520
 5042SOL     OW16024   6.103   1.245   6.417
 5042SOL    HW116025   6.025   1.195   6.378
 5042SOL    HW216026   6.188   1.205   6.383
 5043SOL     OW16027   5.672   5.891   3.943
 5043SOL    HW116028   5.579   5.894   3.907
 5043SOL    HW216029   5.737   5.898   3.868
 5044SOL     OW16030   6.101   4.051   1.934
 5044SOL    HW116031   6.072   3.996   1.856
 5044SOL    HW216032   6.118   4.145   1.903
 5045SOL     OW16033   4.676   2.962   5.661
 5045SOL    HW116034   4.617   3.026   5.612
 5045SOL    HW216035   4.634   2.938   5.748
 5046SOL     OW16036   3.935   2.673   5.854
 5046SOL    HW116037   3.865   2.744   5.847
 5046SOL    HW216038   3.978   2.677   5.944
 5047SOL     OW16039   0.463   2.203   2.448
 5047SOL    HW116040   0.559   2.199   2.420
 5047SOL    HW216041   0.458   2.226   2.545
 5048SOL     OW16042   5.926   4.025   0.820
 5048SOL    HW116043   5.886   4.069   0.900
 5048SOL    HW216044   5.855   3.975   0.771
 5049SOL     OW16045   0.859   1.028   1.387
 5049SOL    HW116046   0.816   0.937   1.386
 5049SOL    HW216047   0.790   1.097   1.369
 5050SOL     OW16048   1.638   3.902   0.544
 5050SOL    HW116049   1.669   3.982   0.596
 5050SOL    HW216050   1.551   3.922   0.500
 5051SOL     OW16051   2.367   3.975   6.356
 5051SOL    HW116052   2.279   4.020   6.338
 5051SOL    HW216053   2.441   4.029   6.314
 5052SOL     OW16054   6.149   2.968   1.135
 5052SOL    HW116055   6.222   2.904   1.108
 5052SOL    HW216056   6.061   2.935   1.101
 5053SOL     OW16057   1.114   3.797   1.210
 5053SOL    HW116058   1.105   3.708   1.165
 5053SOL    HW216059   1.080   3.790   1.304
 5054SOL     OW16060   3.749   6.295   4.956
 5054SOL    HW116061   3.744   6.268   5.052
 5054SOL    HW216062   3.804   6.229   4.906
 5055SOL     OW16063   0.582   0.693   3.953
 5055SOL    HW116064   0.552   0.664   4.043
 5055SOL    HW216065   0.565   0.620   3.887
 5056SOL     OW16066   2.848   1.541   6.368
 5056SOL    HW116067   2.822   1.549   6.272
 5056SOL    HW216068   2.899   1.456   6.381
 5057SOL     OW16069   0.466   3.941   2.130
 5057SOL    HW116070   0.412   3.857   2.139
 5057SOL    HW216071   0.419   4.004   2.068
 5058SOL     OW16072   4.106   1.991   6.855
 5058SOL    HW116073   4.133   1.936   6.935
 5058SOL    HW216074   4.166   2.071   6.848
 5059SOL     OW16075   5.821   2.903   2.386
 5059SOL    HW116076   5.752   2.879   2.317
 5059SOL    HW216077   5.782   2.888   2.477
 5060SOL     OW16078   6.443   2.932   4.929
 5060SOL    HW116079   6.376   3.002   4.904
 5060SOL    HW216080   6.475   2.948   5.023
 5061SOL     OW16081   3.883   2.519   5.631
 5061SOL    HW116082   3.899   2.571   5.716
 5061SOL    HW216083   3.926   2.429   5.639
 5062SOL     OW16084   5.864   1.019   3.307
 5062SOL    HW116085   5.850   1.100   3.365
 5062SOL    HW216086   5.778   0.969   3.299
 5063SOL     OW16087   0.867   1.287   0.421
 5063SOL    HW116088   0.875   1.243   0.331
 5063SOL    HW216089   0.954   1.332   0.443
 5064SOL     OW16090   6.236   5.271   0.539
 5064SOL    HW116091   6.334   5.251   0.539
 5064SOL    HW216092   6.186   5.192   0.501
 5065SOL     OW16093   1.899   2.032   2.656
 5065SOL    HW116094   1.936   2.103   2.598
 5065SOL    HW216095   1.922   1.942   2.619
 5066SOL     OW16096   1.269   4.863   4.243
 5066SOL    HW116097   1.248   4.927   4.170
 5066SOL    HW216098   1.191   4.857   4.305
 5067SOL     OW16099   5.135   2.760   0.967
 5067SOL    HW116100   5.040   2.780   0.995
 5067SOL    HW216101   5.176   2.843   0.928
 5068SOL     OW16102   1.564   0.039   1.493
 5068SOL    HW116103   1.467   0.050   1.470
 5068SOL    HW216104   1.618   0.032   1.408
 5069SOL     OW16105   4.073   4.403   6.093
 5069SOL    HW116106   4.068   4.338   6.169
 5069SOL    HW216107   4.064   4.353   6.007
 5070SOL     OW16108   0.184   3.425   6.772
 5070SOL    HW116109   0.216   3.344   6.822
 5070SOL    HW216110   0.202   3.507   6.827
 5071SOL     OW16111   1.866   6.489   2.707
 5071SOL    HW116112   1.882   6.500   2.805
 5071SOL    HW216113   1.768   6.477   2.691
 5072SOL     OW16114   0.536   1.889   2.671
 5072SOL    HW116115   0.492   1.843   2.594
 5072SOL    HW216116   0.577   1.975   2.640
 5073SOL     OW16117   1.396   1.309   3.755
 5073SOL    HW116118   1.450   1.235   3.796
 5073SOL    HW216119   1.371   1.285   3.662
 5074SOL     OW16120   3.815   1.987   1.357
 5074SOL    HW116121   3.868   2.019   1.279
 5074SOL    HW216122   3.793   2.065   1.416
 5075SOL     OW16123   6.238   2.148   7.005
 5075SOL    HW116124   6.199   2.222   0.035
 5075SOL    HW216125   6.206   2.060   0.017
 5076SOL     OW16126   0.315   1.177   5.873
 5076SOL    HW116127   0.351   1.269   5.889
 5076SOL    HW216128   0.365   1.112   5.928
 5077SOL     OW16129   0.334   4.520   4.589
 5077SOL    HW116130   0.302   4.448   4.527
 5077SOL    HW216131   0.384   4.479   4.665
 5078SOL     OW16132   6.471   1.885   2.989
 5078SOL    HW116133   6.570   1.875   3.002
 5078SOL    HW216134   6.448   1.981   2.972
 5079SOL     OW16135   1.555   3.731   5.378
 5079SOL    HW116136   1.636   3.768   5.423
 5079SOL    HW216137   1.505   3.672   5.441
 5080SOL     OW16138   6.364   5.833   6.883
 5080SOL    HW116139   6.338   5.741   6.913
 5080SOL    HW216140   6.285   5.879   6.843
 5081SOL     OW16141   3.016   4.935   5.588
 5081SOL    HW116142   2.961   4.892   5.660
 5081SOL    HW216143   3.101   4.884   5.576
 5082SOL     OW16144   5.575   0.166   2.802
 5082SOL    HW116145   5.650   0.100   2.807
 5082SOL    HW216146   5.609   0.251   2.761
 5083SOL     OW16147   0.683   0.493   3.500
 5083SOL    HW116148   0.728   0.458   3.582
 5083SOL    HW216149   0.650   0.417   3.444
 5084SOL     OW16150   3.548   5.660   5.747
 5084SOL    HW116151   3.495   5.586   5.789
 5084SOL    HW216152   3.515   5.674   5.654
 5085SOL     OW16153   0.738   3.956   6.561
 5085SOL    HW116154   0.687   4.042   6.570
 5085SOL    HW216155   0.702   3.889   6.625
 5086SOL     OW16156   1.233   4.391   2.069
 5086SOL    HW116157   1.211   4.384   2.166
 5086SOL    HW216158   1.156   4.430   2.019
 5087SOL     OW16159   6.628   5.643   1.324
 5087SOL    HW116160   6.662   5.729   1.361
 5087SOL    HW216161   6.690   5.569   1.351
 5088SOL     OW16162   4.230   4.699   2.059
 5088SOL    HW116163   4.290   4.688   1.980
 5088SOL    HW216164   4.248   4.627   2.126
 5089SOL     OW16165   5.177   6.176   5.798
 5089SOL    HW116166   5.227   6.223   5.725
 5089SOL    HW216167   5.238   6.110   5.842
 5090SOL     OW16168   2.384   6.869   4.271
 5090SOL    HW116169   2.478   6.867   4.306
 5090SOL    HW216170   2.381   6.829   4.180
 5091SOL     OW16171   6.226   6.152   6.093
 5091SOL    HW116172   6.208   6.069   6.040
 5091SOL    HW216173   6.164   6.155   6.171
 5092SOL     OW16174   3.791   3.030   4.419
 5092SOL    HW116175   3.807   3.034   4.518
 5092SOL    HW216176   3.725   2.958   4.399
 5093SOL     OW16177   3.245   2.118   3.685
 5093SOL    HW116178   3.238   2.217   3.694
 5093SOL    HW216179   3.199   2.088   3.601
 5094SOL     OW16180   2.414   5.709   5.022
 5094SOL    HW116181   2.378   5.617   5.004
 5094SOL    HW216182   2.427   5.756   4.934
 5095SOL     OW16183   5.886   2.065   3.346
 5095SOL    HW116184   5.880   2.145   3.405
 5095SOL    HW216185   5.879   2.094   3.250
 5096SOL     OW16186   5.579   2.513   5.646
 5096SOL    HW116187   5.571   2.520   5.745
 5096SOL    HW216188   5.615   2.598   5.609
 5097SOL     OW16189   0.935   0.616   5.638
 5097SOL    HW116190   0.936   0.575   5.729
 5097SOL    HW216191   1.006   0.686   5.632
 5098SOL     OW16192   2.680   2.097   1.159
 5098SOL    HW116193   2.714   2.101   1.065
 5098SOL    HW216194   2.668   2.190   1.195
 5099SOL     OW16195   2.239   5.519   2.144
 5099SOL    HW116196   2.187   5.514   2.229
 5099SOL    HW216197   2.270   5.613   2.128
 5100SOL     OW16198   5.907   3.609   1.169
 5100SOL    HW116199   5.853   3.601   1.252
 5100SOL    HW216200   5.852   3.651   1.097
 5101SOL     OW16201   3.649   1.846   5.149
 5101SOL    HW116202   3.587   1.920   5.126
 5101SOL    HW216203   3.669   1.848   5.247
 5102SOL     OW16204   5.541   4.613   5.267
 5102SOL    HW116205   5.599   4.537   5.237
 5102SOL    HW216206   5.485   4.645   5.191
 5103SOL     OW16207   0.481   0.477   5.589
 5103SOL    HW116208   0.562   0.421   5.573
 5103SOL    HW216209   0.507   0.574   5.591
 5104SOL     OW16210   4.125   3.536   3.851
 5104SOL    HW116211   4.155   3.448   3.813
 5104SOL    HW216212   4.151   3.540   3.947
 5105SOL     OW16213   4.302   2.730   6.890
 5105SOL    HW116214   4.323   2.737   6.792
 5105SOL    HW216215   4.347   2.649   6.928
 5106SOL     OW16216   4.119   0.778   1.333
 5106SOL    HW116217   4.136   0.859   1.277
 5106SOL    HW216218   4.199   0.758   1.389
 5107SOL     OW16219   6.305   4.974   6.576
 5107SOL    HW116220   6.295   4.879   6.606
 5107SOL    HW216221   6.245   4.991   6.499
 5108SOL     OW16222   3.851   4.147   0.856
 5108SOL    HW116223   3.944   4.176   0.878
 5108SOL    HW216224   3.789   4.225   0.864
 5109SOL     OW16225   2.211   2.473   2.228
 5109SOL    HW116226   2.236   2.377   2.220
 5109SOL    HW216227   2.224   2.503   2.323
 5110SOL     OW16228   3.466   6.377   4.602
 5110SOL    HW116229   3.495   6.466   4.566
 5110SOL    HW216230   3.447   6.315   4.526
 5111SOL     OW16231   2.468   5.389   6.223
 5111SOL    HW116232   2.533   5.424   6.156
 5111SOL    HW216233   2.376   5.386   6.184
 5112SOL     OW16234   1.059   4.516   2.535
 5112SOL    HW116235   1.139   4.576   2.523
 5112SOL    HW216236   1.051   4.455   2.457
 5113SOL     OW16237   2.390   4.427   1.052
 5113SOL    HW116238   2.361   4.350   0.995
 5113SOL    HW216239   2.385   4.511   0.999
 5114SOL     OW16240   4.667   5.011   1.546
 5114SOL    HW116241   4.572   5.041   1.558
 5114SOL    HW216242   4.710   4.999   1.635
 5115SOL     OW16243   1.227   4.398   0.276
 5115SOL    HW116244   1.266   4.324   0.220
 5115SOL    HW216245   1.270   4.485   0.251
 5116SOL     OW16246   0.340   6.958   5.554
 5116SOL    HW116247   0.266   6.991   5.494
 5116SOL    HW216248   0.399   0.010   5.579
 5117SOL     OW16249   0.107   3.884   3.856
 5117SOL    HW116250   0.021   3.869   3.807
 5117SOL    HW216251   0.088   3.933   3.942
 5118SOL     OW16252   4.468   4.806   0.083
 5118SOL    HW116253   4.484   4.870   0.158
 5118SOL    HW216254   4.510   4.718   0.106
 5119SOL     OW16255   5.101   1.631   0.754
 5119SOL    HW116256   5.174   1.576   0.794
 5119SOL    HW216257   5.141   1.704   0.699
 5120SOL     OW16258   5.898   6.558   6.223
 5120SOL    HW116259   5.850   6.543   6.310
 5120SOL    HW216260   5.996   6.562   6.240
 5121SOL     OW16261   1.807   3.230   0.340
 5121SOL    HW116262   1.797   3.330   0.343
 5121SOL    HW216263   1.759   3.195   0.259
 5122SOL     OW16264   5.084   5.417   3.628
 5122SOL    HW116265   5.012   5.468   3.581
 5122SOL    HW216266   5.042   5.350   3.690
 5123SOL     OW16267   4.785   2.270   1.146
 5123SOL    HW116268   4.825   2.234   1.062
 5123SOL    HW216269   4.754   2.194   1.204
 5124SOL     OW16270   0.511   5.695   4.475
 5124SOL    HW116271   0.428   5.655   4.515
 5124SOL    HW216272   0.589   5.675   4.533
 5125SOL     OW16273   5.468   2.420   3.953
 5125SOL    HW116274   5.470   2.434   3.854
 5125SOL    HW216275   5.528   2.344   3.976
 5126SOL     OW16276   2.364   0.921   1.846
 5126SOL    HW116277   2.414   0.998   1.886
 5126SOL    HW216278   2.365   0.929   1.747
 5127SOL     OW16279   2.403   6.331   0.784
 5127SOL    HW116280   2.341   6.256   0.761
 5127SOL    HW216281   2.352   6.418   0.783
 5128SOL     OW16282   4.465   0.316   1.882
 5128SOL    HW116283   4.554   0.272   1.877
 5128SOL    HW216284   4.458   0.384   1.809
 5129SOL     OW16285   5.935   5.850   0.273
 5129SOL    HW116286   5.927   5.752   0.251
 5129SOL    HW216287   5.913   5.904   0.191
 5130SOL     OW16288   5.878   5.005   1.985
 5130SOL    HW116289   5.908   5.097   2.007
 5130SOL    HW216290   5.778   5.001   1.986
 5131SOL     OW16291   2.744   2.224   2.223
 5131SOL    HW116292   2.829   2.232   2.171
 5131SOL    HW216293   2.709   2.316   2.243
 5132SOL     OW16294   2.636   6.583   5.429
 5132SOL    HW116295   2.585   6.502   5.400
 5132SOL    HW216296   2.639   6.587   5.529
 5133SOL     OW16297   3.630   6.521   4.855
 5133SOL    HW116298   3.667   6.434   4.888
 5133SOL    HW216299   3.582   6.506   4.769
 5134SOL     OW16300   0.889   3.252   6.655
 5134SOL    HW116301   0.794   3.263   6.628
 5134SOL    HW216302   0.896   3.254   6.754
 5135SOL     OW16303   6.617   2.205   3.652
 5135SOL    HW116304   6.562   2.284   3.625
 5135SOL    HW216305   6.592   2.126   3.595
 5136SOL     OW16306   3.579   1.961   5.997
 5136SOL    HW116307   3.635   2.034   6.037
 5136SOL    HW216308   3.520   1.922   6.068
 5137SOL     OW16309   3.914   3.300   0.039
 5137SOL    HW116310   4.012   3.310   0.060
 5137SOL    HW216311   3.861   3.362   0.096
 5138SOL     OW16312   2.331   2.913   5.912
 5138SOL    HW116313   2.424   2.900   5.876
 5138SOL    HW216314   2.299   3.004   5.885
 5139SOL     OW16315   0.612   0.008   3.643
 5139SOL    HW116316   0.554   0.087   3.664
 5139SOL    HW216317   0.611   6.968   3.720
 5140SOL     OW16318   3.134   3.025   1.872
 5140SOL    HW116319   3.052   3.055   1.922
 5140SOL    HW216320   3.107   2.966   1.796
 5141SOL     OW16321   0.799   3.443   5.699
 5141SOL    HW116322   0.751   3.370   5.649
 5141SOL    HW216323   0.762   3.450   5.791
 5142SOL     OW16324   5.223   3.307   1.906
 5142SOL    HW116325   5.259   3.240   1.840
 5142SOL    HW216326   5.134   3.276   1.939
 5143SOL     OW16327   0.085   5.077   6.099
 5143SOL    HW116328   0.056   5.150   6.037
 5143SOL    HW216329   0.180   5.092   6.126
 5144SOL     OW16330   1.765   1.475   5.194
 5144SOL    HW116331   1.842   1.412   5.185
 5144SOL    HW216332   1.697   1.436   5.256
 5145SOL     OW16333   3.754   5.426   6.052
 5145SOL    HW116334   3.673   5.441   5.995
 5145SOL    HW216335   3.735   5.350   6.115
 5146SOL     OW16336   3.240   5.131   1.217
 5146SOL    HW116337   3.253   5.144   1.315
 5146SOL    HW216338   3.323   5.157   1.169
 5147SOL     OW16339   0.374   5.046   6.411
 5147SOL    HW116340   0.382   5.078   6.317
 5147SOL    HW216341   0.343   4.951   6.412
 5148SOL     OW16342   0.170   0.675   1.359
 5148SOL    HW116343   0.164   0.588   1.409
 5148SOL    HW216344   0.265   0.689   1.330
 5149SOL     OW16345   0.113   0.744   5.584
 5149SOL    HW116346   0.139   0.841   5.577
 5149SOL    HW216347   0.189   0.687   5.552
 5150SOL     OW16348   2.608   5.192   5.558
 5150SOL    HW116349   2.700   5.227   5.576
 5150SOL    HW216350   2.614   5.116   5.493
 5151SOL     OW16351   4.736   0.526   5.893
 5151SOL    HW116352   4.764   0.451   5.953
 5151SOL    HW216353   4.643   0.510   5.860
 5152SOL     OW16354   6.639   4.867   6.650
 5152SOL    HW116355   6.610   4.914   6.567
 5152SOL    HW216356   6.739   4.868   6.656
 5153SOL     OW16357   2.347   3.104   1.078
 5153SOL    HW116358   2.292   3.055   1.011
 5153SOL    HW216359   2.443   3.078   1.068
 5154SOL     OW16360   1.413   4.812   4.951
 5154SOL    HW116361   1.391   4.735   5.011
 5154SOL    HW216362   1.331   4.868   4.936
 5155SOL     OW16363   4.025   0.736   1.995
 5155SOL    HW116364   3.982   0.666   2.052
 5155SOL    HW216365   4.058   0.694   1.910
 5156SOL     OW16366   5.278   3.093   5.932
 5156SOL    HW116367   5.246   3.099   5.838
 5156SOL    HW216368   5.376   3.076   5.934
 5157SOL     OW16369   6.211   2.386   3.349
 5157SOL    HW116370   6.135   2.394   3.284
 5157SOL    HW216371   6.298   2.402   3.301
 5158SOL     OW16372   3.619   0.316   1.755
 5158SOL    HW116373   3.683   0.258   1.805
 5158SOL    HW216374   3.600   0.399   1.808
 5159SOL     OW16375   2.182   3.064   5.247
 5159SOL    HW116376   2.208   3.125   5.322
 5159SOL    HW216377   2.245   3.076   5.170
 5160SOL     OW16378   2.718   2.404   3.674
 5160SOL    HW116379   2.660   2.455   3.738
 5160SOL    HW216380   2.741   2.463   3.596
 5161SOL     OW16381   1.813   3.209   6.902
 5161SOL    HW116382   1.820   3.137   6.833
 5161SOL    HW216383   1.738   3.271   6.879
 5162SOL     OW16384   6.344   5.725   4.703
 5162SOL    HW116385   6.402   5.723   4.622
 5162SOL    HW216386   6.402   5.729   4.785
 5163SOL     OW16387   5.828   4.100   0.516
 5163SOL    HW116388   5.776   4.050   0.585
 5163SOL    HW216389   5.765   4.151   0.457
 5164SOL     OW16390   6.882   6.296   4.891
 5164SOL    HW116391   6.791   6.272   4.927
 5164SOL    HW216392   6.902   6.392   4.913
 5165SOL     OW16393   5.825   4.327   5.518
 5165SOL    HW116394   5.830   4.229   5.496
 5165SOL    HW216395   5.843   4.381   5.436
 5166SOL     OW16396   0.454   6.990   3.040
 5166SOL    HW116397   0.378   6.932   3.069
 5166SOL    HW216398   0.539   6.936   3.040
 5167SOL     OW16399   1.844   0.230   5.210
 5167SOL    HW116400   1.932   0.190   5.234
 5167SOL    HW216401   1.853   0.329   5.204
 5168SOL     OW16402   3.378   1.939   2.468
 5168SOL    HW116403   3.472   1.905   2.477
 5168SOL    HW216404   3.359   1.961   2.373
 5169SOL     OW16405   3.805   5.089   6.690
 5169SOL    HW116406   3.772   5.119   6.600
 5169SOL    HW216407   3.860   5.006   6.679
 5170SOL     OW16408   4.201   5.335   4.331
 5170SOL    HW116409   4.167   5.338   4.237
 5170SOL    HW216410   4.176   5.248   4.373
 5171SOL     OW16411   2.646   4.706   5.252
 5171SOL    HW116412   2.699   4.739   5.329
 5171SOL    HW216413   2.706   4.659   5.187
 5172SOL     OW16414   2.087   4.049   6.316
 5172SOL    HW116415   2.013   3.982   6.323
 5172SOL    HW216416   2.074   4.104   6.233
 5173SOL     OW16417   0.217   2.615   4.508
 5173SOL    HW116418   0.180   2.637   4.598
 5173SOL    HW216419   0.281   2.538   4.516
 5174SOL     OW16420   3.001   4.602   6.922
 5174SOL    HW116421   2.946   4.518   6.928
 5174SOL    HW216422   2.945   4.680   6.949
 5175SOL     OW16423   0.324   5.122   6.686
 5175SOL    HW116424   0.339   5.090   6.592
 5175SOL    HW216425   0.349   5.218   6.693
 5176SOL     OW16426   5.588   3.194   6.584
 5176SOL    HW116427   5.540   3.272   6.625
 5176SOL    HW216428   5.577   3.196   6.485
 5177SOL     OW16429   4.738   4.770   6.298
 5177SOL    HW116430   4.673   4.747   6.225
 5177SOL    HW216431   4.703   4.736   6.385
 5178SOL     OW16432   3.557   4.276   0.500
 5178SOL    HW116433   3.593   4.198   0.551
 5178SOL    HW216434   3.483   4.319   0.552
 5179SOL     OW16435   3.332   6.616   5.268
 5179SOL    HW116436   3.421   6.590   5.232
 5179SOL    HW216437   3.278   6.658   5.196
 5180SOL     OW16438   4.667   1.501   0.028
 5180SOL    HW116439   4.718   1.584   0.049
 5180SOL    HW216440   4.579   1.526   7.011
 5181SOL     OW16441   2.903   6.252   2.443
 5181SOL    HW116442   2.824   6.191   2.455
 5181SOL    HW216443   2.984   6.209   2.481
 5182SOL     OW16444   4.842   3.986   0.989
 5182SOL    HW116445   4.883   4.067   1.030
 5182SOL    HW216446   4.744   3.999   0.979
 5183SOL     OW16447   3.542   0.311   3.696
 5183SOL    HW116448   3.506   0.397   3.661
 5183SOL    HW216449   3.614   0.330   3.763
 5184SOL     OW16450   0.917   2.366   2.998
 5184SOL    HW116451   0.867   2.336   3.080
 5184SOL    HW216452   0.854   2.371   2.921
 5185SOL     OW16453   3.746   0.083   1.918
 5185SOL    HW116454   3.840   0.053   1.904
 5185SOL    HW216455   3.731   0.102   2.016
 5186SOL     OW16456   5.641   4.030   0.089
 5186SOL    HW116457   5.692   4.113   0.065
 5186SOL    HW216458   5.705   3.958   0.114
 5187SOL     OW16459   4.950   3.344   4.184
 5187SOL    HW116460   4.906   3.424   4.226
 5187SOL    HW216461   4.972   3.277   4.254
 5188SOL     OW16462   6.773   1.115   3.341
 5188SOL    HW116463   6.785   1.060   3.424
 5188SOL    HW216464   6.863   1.131   3.300
 5189SOL     OW16465   5.118   5.247   5.783
 5189SOL    HW116466   5.053   5.292   5.721
 5189SOL    HW216467   5.157   5.315   5.844
 5190SOL     OW16468   2.319   2.067   2.583
 5190SOL    HW116469   2.250   2.006   2.542
 5190SOL    HW216470   2.377   2.104   2.511
 5191SOL     OW16471   4.964   1.048   2.127
 5191SOL    HW116472   5.008   1.111   2.190
 5191SOL    HW216473   4.929   1.099   2.048
 5192SOL     OW16474   6.803   4.141   1.445
 5192SOL    HW116475   6.709   4.129   1.475
 5192SOL    HW216476   6.808   4.218   1.380
 5193SOL     OW16477   3.852   4.903   2.707
 5193SOL    HW116478   3.952   4.914   2.705
 5193SOL    HW216479   3.820   4.878   2.616
 5194SOL     OW16480   4.931   0.947   0.252
 5194SOL    HW116481   4.940   1.002   0.335
 5194SOL    HW216482   4.836   0.917   0.243
 5195SOL     OW16483   0.419   5.687   5.098
 5195SOL    HW116484   0.349   5.630   5.141
 5195SOL    HW216485   0.400   5.696   5.000
 5196SOL     OW16486   0.820   3.118   3.481
 5196SOL    HW116487   0.836   3.029   3.522
 5196SOL    HW216488   0.772   3.107   3.394
 5197SOL     OW16489   3.717   6.154   5.197
 5197SOL    HW116490   3.633   6.160   5.251
 5197SOL    HW216491   3.777   6.085   5.237
 5198SOL     OW16492   4.134   1.089   5.669
 5198SOL    HW116493   4.135   1.045   5.579
 5198SOL    HW216494   4.057   1.053   5.722
 5199SOL     OW16495   0.601   6.040   2.262
 5199SOL    HW116496   0.670   5.970   2.281
 5199SOL    HW216497   0.636   6.129   2.288
 5200SOL     OW16498   5.891   6.748   5.389
 5200SOL    HW116499   5.796   6.739   5.419
 5200SOL    HW216500   5.895   6.800   5.304
 5201SOL     OW16501   0.156   4.096   5.341
 5201SOL    HW116502   0.116   4.025   5.282
 5201SOL    HW216503   0.251   4.072   5.361
 5202SOL     OW16504   3.873   2.048   5.760
 5202SOL    HW116505   3.906   2.051   5.666
 5202SOL    HW216506   3.818   2.130   5.779
 5203SOL     OW16507   0.897   0.379   6.384
 5203SOL    HW116508   0.996   0.388   6.376
 5203SOL    HW216509   0.872   0.362   6.479
 5204SOL     OW16510   2.413   0.431   2.233
 5204SOL    HW116511   2.507   0.465   2.222
 5204SOL    HW216512   2.392   0.368   2.158
 5205SOL     OW16513   6.886   0.138   1.917
 5205SOL    HW116514   6.786   0.145   1.921
 5205SOL    HW216515   6.924   0.151   2.008
 5206SOL     OW16516   1.195   5.236   4.879
 5206SOL    HW116517   1.223   5.219   4.974
 5206SOL    HW216518   1.247   5.176   4.819
 5207SOL     OW16519   4.719   1.281   4.729
 5207SOL    HW116520   4.623   1.304   4.711
 5207SOL    HW216521   4.769   1.276   4.642
 5208SOL     OW16522   6.584   1.587   0.387
 5208SOL    HW116523   6.671   1.560   0.345
 5208SOL    HW216524   6.566   1.684   0.367
 5209SOL     OW16525   4.843   6.106   2.469
 5209SOL    HW116526   4.747   6.086   2.451
 5209SOL    HW216527   4.900   6.029   2.440
 5210SOL     OW16528   5.874   4.093   1.485
 5210SOL    HW116529   5.861   4.101   1.386
 5210SOL    HW216530   5.823   4.014   1.519
 5211SOL     OW16531   4.756   2.963   4.792
 5211SOL    HW116532   4.790   2.949   4.699
 5211SOL    HW216533   4.732   3.059   4.805
 5212SOL     OW16534   6.288   3.517   0.181
 5212SOL    HW116535   6.304   3.614   0.163
 5212SOL    HW216536   6.272   3.503   0.279
 5213SOL     OW16537   3.806   3.313   3.959
 5213SOL    HW116538   3.709   3.322   3.935
 5213SOL    HW216539   3.849   3.404   3.960
 5214SOL     OW16540   6.149   3.160   5.814
 5214SOL    HW116541   6.091   3.082   5.792
 5214SOL    HW216542   6.224   3.130   5.872
 5215SOL     OW16543   0.297   4.705   4.993
 5215SOL    HW116544   0.392   4.704   4.962
 5215SOL    HW216545   0.255   4.616   4.975
 5216SOL     OW16546   6.607   4.546   0.526
 5216SOL    HW116547   6.687   4.603   0.507
 5216SOL    HW216548   6.631   4.450   0.511
 5217SOL     OW16549   3.295   0.507   2.533
 5217SOL    HW116550   3.196   0.499   2.544
 5217SOL    HW216551   3.340   0.427   2.572
 5218SOL     OW16552   6.110   0.139   0.796
 5218SOL    HW116553   6.114   0.124   0.698
 5218SOL    HW216554   6.190   0.192   0.825
 5219SOL     OW16555   4.309   2.028   4.941
 5219SOL    HW116556   4.369   2.079   5.002
 5219SOL    HW216557   4.222   2.077   4.930
 5220SOL     OW16558   2.013   4.062   4.423
 5220SOL    HW116559   1.931   4.024   4.379
 5220SOL    HW216560   2.065   3.988   4.467
 5221SOL     OW16561   4.094   6.320   0.877
 5221SOL    HW116562   4.075   6.386   0.950
 5221SOL    HW216563   4.008   6.288   0.838
 5222SOL     OW16564   6.051   3.195   2.287
 5222SOL    HW116565   6.100   3.215   2.202
 5222SOL    HW216566   5.957   3.227   2.280
 5223SOL     OW16567   6.758   2.183   0.524
 5223SOL    HW116568   6.833   2.157   0.586
 5223SOL    HW216569   6.674   2.136   0.551
 5224SOL     OW16570   1.904   1.638   4.647
 5224SOL    HW116571   1.884   1.697   4.726
 5224SOL    HW216572   1.842   1.660   4.572
 5225SOL     OW16573   6.957   2.302   5.849
 5225SOL    HW116574   6.974   2.209   5.818
 5225SOL    HW216575   0.017   2.340   5.887
 5226SOL     OW16576   0.121   6.948   4.173
 5226SOL    HW116577   0.117   6.997   4.260
 5226SOL    HW216578   0.157   6.856   4.188
 5227SOL     OW16579   2.101   2.710   6.473
 5227SOL    HW116580   2.195   2.727   6.500
 5227SOL    HW216581   2.078   2.765   6.392
 5228SOL     OW16582   0.656   2.399   5.334
 5228SOL    HW116583   0.645   2.491   5.297
 5228SOL    HW216584   0.748   2.388   5.369
 5229SOL     OW16585   4.094   1.588   0.301
 5229SOL    HW116586   4.039   1.521   0.250
 5229SOL    HW216587   4.160   1.539   0.359
 5230SOL     OW16588   6.632   0.450   1.941
 5230SOL    HW116589   6.612   0.378   1.875
 5230SOL    HW216590   6.547   0.490   1.974
 5231SOL     OW16591   6.297   3.999   1.585
 5231SOL    HW116592   6.228   4.070   1.601
 5231SOL    HW216593   6.313   3.949   1.669
 5232SOL     OW16594   1.564   1.625   5.842
 5232SOL    HW116595   1.492   1.690   5.863
 5232SOL    HW216596   1.597   1.641   5.749
 5233SOL     OW16597   2.298   6.901   3.625
 5233SOL    HW116598   2.285   6.975   3.559
 5233SOL    HW216599   2.212   6.851   3.637
 5234SOL     OW16600   3.363   2.280   6.374
 5234SOL    HW116601   3.312   2.249   6.455
 5234SOL    HW216602   3.452   2.234   6.371
 5235SOL     OW16603   2.346   3.014   1.374
 5235SOL    HW116604   2.340   3.040   1.277
 5235SOL    HW216605   2.387   3.089   1.426
 5236SOL     OW16606   2.765   4.983   1.747
 5236SOL    HW116607   2.820   5.051   1.699
 5236SOL    HW216608   2.824   4.907   1.775
 5237SOL     OW16609   1.452   1.544   1.448
 5237SOL    HW116610   1.499   1.473   1.500
 5237SOL    HW216611   1.447   1.517   1.352
 5238SOL     OW16612   6.208   0.744   3.356
 5238SOL    HW116613   6.256   0.811   3.300
 5238SOL    HW216614   6.260   0.659   3.358
 5239SOL     OW16615   2.388   3.709   0.078
 5239SOL    HW116616   2.298   3.713   0.035
 5239SOL    HW216617   2.459   3.700   0.008
 5240SOL     OW16618   1.873   4.056   5.815
 5240SOL    HW116619   1.804   4.128   5.808
 5240SOL    HW216620   1.937   4.062   5.738
 5241SOL     OW16621   2.258   5.497   3.485
 5241SOL    HW116622   2.245   5.442   3.403
 5241SOL    HW216623   2.299   5.440   3.556
 5242SOL     OW16624   4.116   5.723   5.680
 5242SOL    HW116625   4.171   5.761   5.606
 5242SOL    HW216626   4.112   5.624   5.672
 5243SOL     OW16627   1.882   5.426   4.059
 5243SOL    HW116628   1.877   5.504   4.122
 5243SOL    HW216629   1.791   5.407   4.023
 5244SOL     OW16630   5.421   0.429   6.493
 5244SOL    HW116631   5.394   0.443   6.397
 5244SOL    HW216632   5.422   0.518   6.540
 5245SOL     OW16633   3.142   3.750   1.765
 5245SOL    HW116634   3.074   3.689   1.805
 5245SOL    HW216635   3.225   3.700   1.744
 5246SOL     OW16636   6.403   2.796   5.633
 5246SOL    HW116637   6.343   2.812   5.712
 5246SOL    HW216638   6.479   2.862   5.635
 5247SOL     OW16639   4.734   0.876   5.497
 5247SOL    HW116640   4.689   0.946   5.443
 5247SOL    HW216641   4.674   0.797   5.506
 5248SOL     OW16642   4.257   1.095   2.194
 5248SOL    HW116643   4.341   1.098   2.139
 5248SOL    HW216644   4.177   1.097   2.133
 5249SOL     OW16645   6.828   6.048   2.115
 5249SOL    HW116646   6.850   5.956   2.146
 5249SOL    HW216647   6.845   6.056   2.016
 5250SOL     OW16648   1.302   5.057   0.347
 5250SOL    HW116649   1.225   5.121   0.351
 5250SOL    HW216650   1.382   5.099   0.389
 5251SOL     OW16651   1.302   4.400   6.418
 5251SOL    HW116652   1.268   4.405   6.324
 5251SOL    HW216653   1.381   4.460   6.428
 5252SOL     OW16654   4.075   6.436   3.174
 5252SOL    HW116655   4.017   6.368   3.218
 5252SOL    HW216656   4.160   6.446   3.225
 5253SOL     OW16657   0.431   6.002   4.762
 5253SOL    HW116658   0.454   5.999   4.665
 5253SOL    HW216659   0.513   6.023   4.815
 5254SOL     OW16660   4.535   6.076   2.053
 5254SOL    HW116661   4.576   6.167   2.048
 5254SOL    HW216662   4.457   6.078   2.116
 5255SOL     OW16663   0.550   1.342   6.332
 5255SOL    HW116664   0.621   1.405   6.299
 5255SOL    HW216665   0.559   1.254   6.286
 5256SOL     OW16666   4.349   1.888   2.561
 5256SOL    HW116667   4.446   1.864   2.569
 5256SOL    HW216668   4.333   1.977   2.603
 5257SOL     OW16669   5.456   0.869   0.193
 5257SOL    HW116670   5.465   0.859   0.094
 5257SOL    HW216671   5.424   0.782   0.232
 5258SOL     OW16672   5.809   2.001   5.474
 5258SOL    HW116673   5.904   1.970   5.488
 5258SOL    HW216674   5.752   1.922   5.451
 5259SOL     OW16675   4.363   6.087   4.607
 5259SOL    HW116676   4.440   6.109   4.667
 5259SOL    HW216677   4.304   6.167   4.597
 5260SOL     OW16678   1.380   6.752   2.018
 5260SOL    HW116679   1.427   6.702   2.090
 5260SOL    HW216680   1.437   6.756   1.937
 5261SOL     OW16681   6.291   4.480   0.454
 5261SOL    HW116682   6.380   4.494   0.496
 5261SOL    HW216683   6.219   4.493   0.523
 5262SOL     OW16684   2.189   2.232   1.802
 5262SOL    HW116685   2.190   2.241   1.901
 5262SOL    HW216686   2.158   2.318   1.761
 5263SOL     OW16687   0.482   6.072   2.701
 5263SOL    HW116688   0.497   6.168   2.727
 5263SOL    HW216689   0.397   6.039   2.743
 5264SOL     OW16690   6.848   2.202   2.208
 5264SOL    HW116691   6.832   2.105   2.225
 5264SOL    HW216692   6.923   2.234   2.267
 5265SOL     OW16693   0.861   5.746   5.823
 5265SOL    HW116694   0.807   5.721   5.742
 5265SOL    HW216695   0.832   5.837   5.855
 5266SOL     OW16696   0.976   0.040   6.221
 5266SOL    HW116697   1.031   6.999   6.274
 5266SOL    HW216698   1.034   0.088   6.156
 5267SOL     OW16699   6.088   1.061   4.883
 5267SOL    HW116700   6.172   1.101   4.847
 5267SOL    HW216701   6.102   1.035   4.979
 5268SOL     OW16702   5.825   0.438   5.769
 5268SOL    HW116703   5.770   0.422   5.851
 5268SOL    HW216704   5.797   0.375   5.697
 5269SOL     OW16705   1.092   0.523   4.500
 5269SOL    HW116706   1.152   0.487   4.572
 5269SOL    HW216707   1.133   0.506   4.410
 5270SOL     OW16708   1.544   1.764   0.198
 5270SOL    HW116709   1.578   1.757   0.104
 5270SOL    HW216710   1.614   1.730   0.261
 5271SOL     OW16711   1.413   5.922   6.197
 5271SOL    HW116712   1.493   5.906   6.138
 5271SOL    HW216713   1.399   5.842   6.256
 5272SOL     OW16714   4.135   0.440   5.918
 5272SOL    HW116715   4.089   0.387   5.848
 5272SOL    HW216716   4.148   0.534   5.886
 5273SOL     OW16717   2.446   1.424   3.463
 5273SOL    HW116718   2.487   1.485   3.531
 5273SOL    HW216719   2.391   1.355   3.510
 5274SOL     OW16720   6.293   4.203   1.114
 5274SOL    HW116721   6.226   4.153   1.059
 5274SOL    HW216722   6.245   4.255   1.185
 5275SOL     OW16723   5.694   0.874   6.273
 5275SOL    HW116724   5.669   0.805   6.206
 5275SOL    HW216725   5.775   0.844   6.324
 5276SOL     OW16726   3.505   6.139   1.513
 5276SOL    HW116727   3.516   6.232   1.476
 5276SOL    HW216728   3.592   6.091   1.509
 5277SOL     OW16729   1.670   3.415   1.740
 5277SOL    HW116730   1.620   3.489   1.695
 5277SOL    HW216731   1.620   3.330   1.730
 5278SOL     OW16732   4.139   3.650   3.365
 5278SOL    HW116733   4.125   3.658   3.463
 5278SOL    HW216734   4.172   3.738   3.329
 5279SOL     OW16735   1.312   6.534   3.193
 5279SOL    HW116736   1.282   6.618   3.148
 5279SOL    HW216737   1.406   6.545   3.226
 5280SOL     OW16738   3.812   0.337   3.854
 5280SOL    HW116739   3.869   0.257   3.868
 5280SOL    HW216740   3.798   0.384   3.941
 5281SOL     OW16741   6.863   2.703   3.734
 5281SOL    HW116742   6.778   2.653   3.721
 5281SOL    HW216743   6.941   2.644   3.713
 5282SOL     OW16744   5.672   2.618   1.385
 5282SOL    HW116745   5.731   2.644   1.309
 5282SOL    HW216746   5.577   2.610   1.353
 5283SOL     OW16747   5.144   5.275   5.214
 5283SOL    HW116748   5.231   5.231   5.240
 5283SOL    HW216749   5.076   5.205   5.193
 5284SOL     OW16750   5.438   2.793   4.443
 5284SOL    HW116751   5.426   2.699   4.408
 5284SOL    HW216752   5.446   2.791   4.542
 5285SOL     OW16753   4.138   6.015   2.467
 5285SOL    HW116754   4.117   6.102   2.511
 5285SOL    HW216755   4.070   5.997   2.396
 5286SOL     OW16756   1.957   4.705   2.389
 5286SOL    HW116757   2.012   4.704   2.472
 5286SOL    HW216758   2.018   4.705   2.309
 5287SOL     OW16759   0.529   0.613   2.634
 5287SOL    HW116760   0.518   0.521   2.597
 5287SOL    HW216761   0.579   0.609   2.720
 5288SOL     OW16762   3.341   0.548   0.862
 5288SOL    HW116763   3.345   0.647   0.850
 5288SOL    HW216764   3.268   0.525   0.926
 5289SOL     OW16765   1.772   6.898   2.009
 5289SOL    HW116766   1.731   6.966   1.948
 5289SOL    HW216767   1.861   6.930   2.040
 5290SOL     OW16768   5.986   6.675   6.604
 5290SOL    HW116769   5.927   6.721   6.671
 5290SOL    HW216770   5.936   6.600   6.562
 5291SOL     OW16771   1.367   5.494   0.021
 5291SOL    HW116772   1.464   5.473   0.011
 5291SOL    HW216773   1.317   5.459   6.965
 5292SOL     OW16774   5.655   1.495   1.564
 5292SOL    HW116775   5.584   1.508   1.633
 5292SOL    HW216776   5.743   1.479   1.609
 5293SOL     OW16777   2.023   1.331   3.952
 5293SOL    HW116778   1.937   1.376   3.976
 5293SOL    HW216779   2.062   1.374   3.871
 5294SOL     OW16780   3.621   2.054   6.580
 5294SOL    HW116781   3.681   2.118   6.532
 5294SOL    HW216782   3.577   2.100   6.656
 5295SOL     OW16783   0.182   1.706   3.128
 5295SOL    HW116784   0.203   1.610   3.142
 5295SOL    HW216785   0.183   1.754   3.216
 5296SOL     OW16786   0.326   3.003   6.574
 5296SOL    HW116787   0.279   2.920   6.605
 5296SOL    HW216788   0.309   3.016   6.476
 5297SOL     OW16789   0.676   2.001   1.711
 5297SOL    HW116790   0.775   1.985   1.716
 5297SOL    HW216791   0.658   2.085   1.660
 5298SOL     OW16792   0.877   4.197   2.023
 5298SOL    HW116793   0.961   4.149   2.050
 5298SOL    HW216794   0.798   4.145   2.055
 5299SOL     OW16795   4.053   0.285   6.910
 5299SOL    HW116796   4.123   0.355   6.897
 5299SOL    HW216797   4.049   0.227   6.828
 5300SOL     OW16798   6.697   4.987   4.724
 5300SOL    HW116799   6.655   4.971   4.813
 5300SOL    HW216800   6.797   4.979   4.732
 5301SOL     OW16801   5.223   0.218   6.558
 5301SOL    HW116802   5.300   0.158   6.534
 5301SOL    HW216803   5.252   0.313   6.548
 5302SOL     OW16804   0.137   3.773   2.911
 5302SOL    HW116805   0.189   3.710   2.969
 5302SOL    HW216806   0.066   3.722   2.863
 5303SOL     OW16807   2.262   4.506   2.395
 5303SOL    HW116808   2.321   4.570   2.444
 5303SOL    HW216809   2.313   4.463   2.321
 5304SOL     OW16810   4.868   1.590   5.620
 5304SOL    HW116811   4.797   1.576   5.689
 5304SOL    HW216812   4.883   1.689   5.607
 5305SOL     OW16813   4.085   1.627   4.568
 5305SOL    HW116814   4.095   1.726   4.557
 5305SOL    HW216815   3.989   1.603   4.562
 5306SOL     OW16816   2.532   6.826   2.861
 5306SOL    HW116817   2.519   6.733   2.893
 5306SOL    HW216818   2.477   6.889   2.915
 5307SOL     OW16819   5.141   6.208   6.794
 5307SOL    HW116820   5.043   6.216   6.811
 5307SOL    HW216821   5.177   6.128   6.841
 5308SOL     OW16822   6.836   1.334   1.569
 5308SOL    HW116823   6.928   1.330   1.529
 5308SOL    HW216824   6.833   1.404   1.640
 5309SOL     OW16825   3.580   3.802   5.769
 5309SOL    HW116826   3.623   3.712   5.769
 5309SOL    HW216827   3.526   3.813   5.853
 5310SOL     OW16828   5.040   2.856   0.351
 5310SOL    HW116829   4.959   2.909   0.326
 5310SOL    HW216830   5.018   2.759   0.354
 5311SOL     OW16831   6.882   5.761   0.198
 5311SOL    HW116832   6.918   5.795   0.111
 5311SOL    HW216833   6.798   5.710   0.181
 5312SOL     OW16834   0.607   4.110   1.759
 5312SOL    HW116835   0.700   4.146   1.767
 5312SOL    HW216836   0.611   4.014   1.730
 5313SOL     OW16837   0.462   5.907   6.612
 5313SOL    HW116838   0.427   5.841   6.546
 5313SOL    HW216839   0.387   5.960   6.650
 5314SOL     OW16840   3.752   4.741   0.716
 5314SOL    HW116841   3.695   4.751   0.798
 5314SOL    HW216842   3.747   4.646   0.683
 5315SOL     OW16843   5.618   1.288   2.628
 5315SOL    HW116844   5.541   1.330   2.677
 5315SOL    HW216845   5.642   1.201   2.671
 5316SOL     OW16846   5.315   4.937   4.674
 5316SOL    HW116847   5.309   5.022   4.621
 5316SOL    HW216848   5.253   4.942   4.753
 5317SOL     OW16849   0.119   4.699   1.460
 5317SOL    HW116850   0.112   4.788   1.414
 5317SOL    HW216851   0.196   4.648   1.420
 5318SOL     OW16852   6.560   2.622   3.752
 5318SOL    HW116853   6.578   2.536   3.799
 5318SOL    HW216854   6.464   2.648   3.765
 5319SOL     OW16855   2.876   6.187   2.773
 5319SOL    HW116856   2.791   6.239   2.770
 5319SOL    HW216857   2.938   6.221   2.703
 5320SOL     OW16858   6.141   1.914   0.055
 5320SOL    HW116859   6.172   1.824   0.088
 5320SOL    HW216860   6.072   1.902   7.007
 5321SOL     OW16861   2.810   4.799   6.977
 5321SOL    HW116862   2.869   4.849   0.017
 5321SOL    HW216863   2.746   4.742   0.005
 5322SOL     OW16864   2.994   6.418   0.259
 5322SOL    HW116865   2.983   6.504   0.209
 5322SOL    HW216866   3.064   6.429   0.329
 5323SOL     OW16867   6.428   3.075   0.892
 5323SOL    HW116868   6.509   3.105   0.843
 5323SOL    HW216869   6.348   3.128   0.863
 5324SOL     OW16870   4.148   3.590   2.367
 5324SOL    HW116871   4.135   3.509   2.310
 5324SOL    HW216872   4.246   3.613   2.369
 5325SOL     OW16873   3.086   6.904   5.679
 5325SOL    HW116874   3.170   6.940   5.717
 5325SOL    HW216875   3.062   6.818   5.724
 5326SOL     OW16876   6.026   0.822   4.036
 5326SOL    HW116877   6.006   0.776   3.949
 5326SOL    HW216878   5.940   0.845   4.082
 5327SOL     OW16879   6.223   6.820   4.188
 5327SOL    HW116880   6.297   6.773   4.141
 5327SOL    HW216881   6.261   6.879   4.260
 5328SOL     OW16882   2.433   4.688   6.445
 5328SOL    HW116883   2.488   4.767   6.472
 5328SOL    HW216884   2.460   4.658   6.353
 5329SOL     OW16885   0.187   6.846   6.162
 5329SOL    HW116886   0.104   6.809   6.203
 5329SOL    HW216887   0.265   6.831   6.222
 5330SOL     OW16888   4.528   4.332   0.653
 5330SOL    HW116889   4.586   4.252   0.641
 5330SOL    HW216890   4.482   4.353   0.567
 5331SOL     OW16891   5.877   1.412   6.846
 5331SOL    HW116892   5.904   1.400   6.941
 5331SOL    HW216893   5.856   1.323   6.806
 5332SOL     OW16894   6.793   3.352   0.176
 5332SOL    HW116895   6.695   3.370   0.176
 5332SOL    HW216896   6.828   3.354   0.082
 5333SOL     OW16897   0.070   6.676   4.221
 5333SOL    HW116898   7.007   6.662   4.269
 5333SOL    HW216899   0.144   6.686   4.288
 5334SOL     OW16900   3.327   5.673   0.977
 5334SOL    HW116901   3.263   5.686   1.053
 5334SOL    HW216902   3.381   5.590   0.992
 5335SOL     OW16903   0.026   5.696   2.069
 5335SOL    HW116904   7.003   5.630   2.128
 5335SOL    HW216905   0.121   5.667   2.055
 5336SOL     OW16906   1.075   3.160   5.397
 5336SOL    HW116907   1.032   3.248   5.376
 5336SOL    HW216908   1.159   3.151   5.344
 5337SOL     OW16909   6.237   2.032   1.035
 5337SOL    HW116910   6.306   2.099   1.008
 5337SOL    HW216911   6.262   1.942   0.999
 5338SOL     OW16912   0.049   3.269   1.606
 5338SOL    HW116913   6.980   3.294   1.634
 5338SOL    HW216914   0.045   3.200   1.535
 5339SOL     OW16915   4.821   3.802   3.007
 5339SOL    HW116916   4.875   3.810   3.091
 5339SOL    HW216917   4.736   3.853   3.016
 5340SOL     OW16918   5.442   3.756   1.496
 5340SOL    HW116919   5.406   3.849   1.483
 5340SOL    HW216920   5.367   3.691   1.496
 5341SOL     OW16921   4.902   5.343   3.327
 5341SOL    HW116922   4.961   5.390   3.262
 5341SOL    HW216923   4.889   5.400   3.408
 5342SOL     OW16924   6.058   4.850   4.761
 5342SOL    HW116925   6.046   4.779   4.831
 5342SOL    HW216926   6.091   4.934   4.804
 5343SOL     OW16927   3.444   3.616   6.973
 5343SOL    HW116928   3.357   3.569   6.992
 5343SOL    HW216929   3.518   3.549   6.969
 5344SOL     OW16930   5.902   1.950   6.882
 5344SOL    HW116931   5.824   1.914   6.932
 5344SOL    HW216932   5.904   2.050   6.891
 5345SOL     OW16933   3.715   1.238   6.720
 5345SOL    HW116934   3.625   1.247   6.677
 5345SOL    HW216935   3.761   1.326   6.719
 5346SOL     OW16936   2.348   5.998   3.058
 5346SOL    HW116937   2.249   6.002   3.071
 5346SOL    HW216938   2.382   5.911   3.095
 5347SOL     OW16939   6.048   2.417   5.225
 5347SOL    HW116940   6.000   2.505   5.222
 5347SOL    HW216941   5.992   2.350   5.274
 5348SOL     OW16942   4.889   2.579   5.377
 5348SOL    HW116943   4.870   2.676   5.394
 5348SOL    HW216944   4.808   2.524   5.397
 5349SOL     OW16945   0.695   3.982   0.340
 5349SOL    HW116946   0.656   3.997   0.431
 5349SOL    HW216947   0.684   3.885   0.316
 5350SOL     OW16948   1.354   0.293   6.583
 5350SOL    HW116949   1.302   0.221   6.629
 5350SOL    HW216950   1.415   0.252   6.515
 5351SOL     OW16951   0.618   5.562   3.889
 5351SOL    HW116952   0.595   5.652   3.925
 5351SOL    HW216953   0.535   5.508   3.876
 5352SOL     OW16954   0.577   2.752   5.842
 5352SOL    HW116955   0.592   2.847   5.866
 5352SOL    HW216956   0.488   2.742   5.796
 5353SOL     OW16957   2.191   6.515   3.013
 5353SOL    HW116958   2.253   6.441   2.986
 5353SOL    HW216959   2.241   6.602   3.016
 5354SOL     OW16960   3.485   6.124   1.774
 5354SOL    HW116961   3.416   6.189   1.808
 5354SOL    HW216962   3.509   6.148   1.680
 5355SOL     OW16963   5.146   4.202   5.465
 5355SOL    HW116964   5.064   4.247   5.502
 5355SOL    HW216965   5.124   4.110   5.436
 5356SOL     OW16966   0.029   6.980   1.749
 5356SOL    HW116967   0.020   0.007   1.663
 5356SOL    HW216968   7.005   0.007   1.821
 5357SOL     OW16969   6.172   3.635   2.506
 5357SOL    HW116970   6.219   3.547   2.503
 5357SOL    HW216971   6.128   3.652   2.418
 5358SOL     OW16972   5.659   0.086   6.479
 5358SOL    HW116973   5.749   0.043   6.476
 5358SOL    HW216974   5.660   0.161   6.545
 5359SOL     OW16975   3.558   1.974   6.934
 5359SOL    HW116976   3.626   1.921   6.883
 5359SOL    HW216977   3.580   1.972   0.008
 5360SOL     OW16978   5.224   5.636   3.343
 5360SOL    HW116979   5.321   5.628   3.365
 5360SOL    HW216980   5.180   5.696   3.410
 5361SOL     OW16981   1.517   4.024   2.798
 5361SOL    HW116982   1.440   4.063   2.848
 5361SOL    HW216983   1.556   3.948   2.850
 5362SOL     OW16984   5.822   1.862   3.968
 5362SOL    HW116985   5.891   1.792   3.984
 5362SOL    HW216986   5.807   1.873   3.870
 5363SOL     OW16987   6.577   4.973   6.136
 5363SOL    HW116988   6.487   4.929   6.136
 5363SOL    HW216989   6.591   5.021   6.223
 5364SOL     OW16990   4.944   2.629   1.455
 5364SOL    HW116991   4.856   2.629   1.503
 5364SOL    HW216992   4.967   2.536   1.429
 5365SOL     OW16993   3.579   3.313   6.250
 5365SOL    HW116994   3.636   3.390   6.220
 5365SOL    HW216995   3.623   3.227   6.221
 5366SOL     OW16996   0.142   4.377   4.080
 5366SOL    HW116997   0.119   4.358   4.175
 5366SOL    HW216998   0.198   4.303   4.044
 5367SOL     OW16999   6.271   6.204   1.032
 5367SOL    HW117000   6.260   6.273   0.960
 5367SOL    HW217001   6.229   6.237   1.117
 5368SOL     OW17002   0.126   5.978   5.330
 5368SOL    HW117003   0.185   5.993   5.409
 5368SOL    HW217004   0.039   5.940   5.360
 5369SOL     OW17005   3.396   0.249   2.631
 5369SOL    HW117006   3.379   0.153   2.607
 5369SOL    HW217007   3.328   0.278   2.699
 5370SOL     OW17008   2.497   1.882   0.431
 5370SOL    HW117009   2.556   1.954   0.466
 5370SOL    HW217010   2.516   1.797   0.479
 5371SOL     OW17011   6.057   5.112   3.404
 5371SOL    HW117012   6.122   5.064   3.344
 5371SOL    HW217013   6.062   5.073   3.496
 5372SOL     OW17014   0.257   0.757   4.027
 5372SOL    HW117015   0.207   0.723   4.107
 5372SOL    HW217016   0.287   0.680   3.971
 5373SOL     OW17017   4.030   6.962   0.452
 5373SOL    HW117018   3.933   6.972   0.474
 5373SOL    HW217019   4.055   0.001   0.379
 5374SOL     OW17020   1.532   3.847   1.104
 5374SOL    HW117021   1.473   3.850   1.185
 5374SOL    HW217022   1.626   3.867   1.131
 5375SOL     OW17023   2.824   5.347   4.646
 5375SOL    HW117024   2.801   5.440   4.673
 5375SOL    HW217025   2.742   5.300   4.614
 5376SOL     OW17026   0.260   6.756   2.574
 5376SOL    HW117027   0.163   6.781   2.576
 5376SOL    HW217028   0.291   6.749   2.479
 5377SOL     OW17029   0.889   2.467   1.630
 5377SOL    HW117030   0.977   2.508   1.606
 5377SOL    HW217031   0.901   2.370   1.647
 5378SOL     OW17032   4.823   0.084   3.692
 5378SOL    HW117033   4.724   0.069   3.681
 5378SOL    HW217034   4.856   0.032   3.771
 5379SOL     OW17035   3.119   2.200   4.215
 5379SOL    HW117036   3.062   2.191   4.297
 5379SOL    HW217037   3.203   2.148   4.227
 5380SOL     OW17038   4.697   7.021   1.695
 5380SOL    HW117039   4.721   6.929   1.726
 5380SOL    HW217040   4.757   0.025   1.620
 5381SOL     OW17041   2.871   1.845   2.797
 5381SOL    HW117042   2.887   1.847   2.896
 5381SOL    HW217043   2.933   1.910   2.752
 5382SOL     OW17044   4.648   0.475   2.804
 5382SOL    HW117045   4.563   0.422   2.798
 5382SOL    HW217046   4.671   0.511   2.713
 5383SOL     OW17047   2.445   4.175   5.341
 5383SOL    HW117048   2.442   4.095   5.282
 5383SOL    HW217049   2.531   4.224   5.326
 5384SOL     OW17050   5.287   6.290   5.572
 5384SOL    HW117051   5.374   6.256   5.536
 5384SOL    HW217052   5.247   6.354   5.507
 5385SOL     OW17053   3.498   3.843   0.679
 5385SOL    HW117054   3.464   3.769   0.737
 5385SOL    HW217055   3.445   3.846   0.594
 5386SOL     OW17056   4.495   4.876   3.052
 5386SOL    HW117057   4.533   4.783   3.044
 5386SOL    HW217058   4.435   4.880   3.131
 5387SOL     OW17059   0.571   2.663   5.256
 5387SOL    HW117060   0.629   2.698   5.330
 5387SOL    HW217061   0.477   2.697   5.268
 5388SOL     OW17062   6.636   6.862   3.246
 5388SOL    HW117063   6.605   6.955   3.228
 5388SOL    HW217064   6.558   6.800   3.240
 5389SOL     OW17065   6.246   1.581   4.605
 5389SOL    HW117066   6.261   1.507   4.538
 5389SOL    HW217067   6.331   1.597   4.656
 5390SOL     OW17068   5.529   3.129   3.048
 5390SOL    HW117069   5.620   3.167   3.063
 5390SOL    HW217070   5.533   3.058   2.978
 5391SOL     OW17071   4.659   3.265   0.970
 5391SOL    HW117072   4.658   3.241   1.067
 5391SOL    HW217073   4.720   3.203   0.921
 5392SOL     OW17074   5.305   0.875   4.072
 5392SOL    HW117075   5.387   0.868   4.128
 5392SOL    HW217076   5.295   0.969   4.039
 5393SOL     OW17077   4.888   3.281   2.562
 5393SOL    HW117078   4.891   3.373   2.601
 5393SOL    HW217079   4.827   3.224   2.616
 5394SOL     OW17080   0.574   2.892   3.126
 5394SOL    HW117081   0.575   2.943   3.040
 5394SOL    HW217082   0.507   2.932   3.188
 5395SOL     OW17083   0.350   1.023   1.608
 5395SOL    HW117084   0.250   1.021   1.599
 5395SOL    HW217085   0.379   1.115   1.632
 5396SOL     OW17086   3.892   2.024   0.431
 5396SOL    HW117087   3.876   2.054   0.337
 5396SOL    HW217088   3.886   1.924   0.435
 5397SOL     OW17089   0.666   6.360   3.077
 5397SOL    HW117090   0.672   6.456   3.106
 5397SOL    HW217091   0.596   6.313   3.130
 5398SOL     OW17092   5.339   2.421   3.089
 5398SOL    HW117093   5.372   2.326   3.093
 5398SOL    HW217094   5.245   2.422   3.057
 5399SOL     OW17095   2.489   2.534   0.308
 5399SOL    HW117096   2.452   2.511   0.218
 5399SOL    HW217097   2.579   2.490   0.320
 5400SOL     OW17098   4.962   2.826   0.668
 5400SOL    HW117099   4.980   2.860   0.576
 5400SOL    HW217100   4.950   2.903   0.731
 5401SOL     OW17101   4.958   4.186   1.117
 5401SOL    HW117102   5.047   4.197   1.161
 5401SOL    HW217103   4.949   4.253   1.044
 5402SOL     OW17104   2.337   5.568   1.665
 5402SOL    HW117105   2.338   5.522   1.754
 5402SOL    HW217106   2.424   5.615   1.651
 5403SOL     OW17107   6.200   2.746   5.429
 5403SOL    HW117108   6.138   2.694   5.488
 5403SOL    HW217109   6.275   2.784   5.483
 5404SOL     OW17110   4.903   6.599   0.316
 5404SOL    HW117111   4.830   6.666   0.334
 5404SOL    HW217112   4.929   6.556   0.402
 5405SOL     OW17113   6.415   5.215   6.022
 5405SOL    HW117114   6.408   5.202   5.924
 5405SOL    HW217115   6.510   5.236   6.046
 5406SOL     OW17116   1.678   1.141   5.379
 5406SOL    HW117117   1.716   1.203   5.448
 5406SOL    HW217118   1.635   1.194   5.306
 5407SOL     OW17119   1.801   1.422   2.449
 5407SOL    HW117120   1.810   1.423   2.548
 5407SOL    HW217121   1.743   1.498   2.420
 5408SOL     OW17122   2.074   2.372   4.556
 5408SOL    HW117123   1.999   2.438   4.549
 5408SOL    HW217124   2.099   2.361   4.653
 5409SOL     OW17125   0.095   4.296   3.294
 5409SOL    HW117126   0.160   4.242   3.347
 5409SOL    HW217127   0.001   4.270   3.318
 5410SOL     OW17128   5.886   1.401   0.099
 5410SOL    HW117129   5.932   1.384   0.186
 5410SOL    HW217130   5.788   1.381   0.108
 5411SOL     OW17131   3.200   6.196   1.856
 5411SOL    HW117132   3.183   6.227   1.950
 5411SOL    HW217133   3.113   6.168   1.814
 5412SOL     OW17134   2.276   1.830   6.005
 5412SOL    HW117135   2.247   1.850   6.099
 5412SOL    HW217136   2.254   1.735   5.983
 5413SOL     OW17137   6.920   5.438   5.558
 5413SOL    HW117138   6.901   5.344   5.586
 5413SOL    HW217139   6.930   5.496   5.639
 5414SOL     OW17140   6.077   6.013   5.802
 5414SOL    HW117141   6.127   5.944   5.855
 5414SOL    HW217142   6.056   5.977   5.711
 5415SOL     OW17143   1.846   0.758   0.623
 5415SOL    HW117144   1.907   0.764   0.702
 5415SOL    HW217145   1.755   0.792   0.648
 5416SOL     OW17146   4.088   5.008   6.133
 5416SOL    HW117147   4.104   4.928   6.191
 5416SOL    HW217148   4.170   5.064   6.130
 5417SOL     OW17149   5.315   0.490   1.327
 5417SOL    HW117150   5.271   0.412   1.372
 5417SOL    HW217151   5.339   0.465   1.234
 5418SOL     OW17152   0.264   2.686   5.255
 5418SOL    HW117153   0.278   2.781   5.281
 5418SOL    HW217154   0.167   2.662   5.264
 5419SOL     OW17155   3.666   2.223   6.105
 5419SOL    HW117156   3.697   2.251   6.014
 5419SOL    HW217157   3.575   2.261   6.121
 5420SOL     OW17158   1.821   1.748   1.178
 5420SOL    HW117159   1.764   1.715   1.103
 5420SOL    HW217160   1.764   1.758   1.260
 5421SOL     OW17161   3.952   5.738   0.942
 5421SOL    HW117162   3.884   5.712   0.873
 5421SOL    HW217163   3.904   5.766   1.025
 5422SOL     OW17164   2.497   6.551   2.898
 5422SOL    HW117165   2.574   6.512   2.950
 5422SOL    HW217166   2.447   6.615   2.956
 5423SOL     OW17167   4.178   6.791   2.547
 5423SOL    HW117168   4.220   6.700   2.554
 5423SOL    HW217169   4.089   6.790   2.593
 5424SOL     OW17170   3.959   3.507   5.809
 5424SOL    HW117171   4.038   3.547   5.856
 5424SOL    HW217172   3.991   3.454   5.730
 5425SOL     OW17173   2.305   5.472   5.022
 5425SOL    HW117174   2.219   5.523   5.017
 5425SOL    HW217175   2.286   5.378   5.050
 5426SOL     OW17176   1.531   3.963   0.063
 5426SOL    HW117177   1.449   3.986   0.012
 5426SOL    HW217178   1.566   4.045   0.108
 5427SOL     OW17179   4.763   1.869   0.715
 5427SOL    HW117180   4.664   1.861   0.698
 5427SOL    HW217181   4.797   1.784   0.754
 5428SOL     OW17182   4.390   5.702   3.025
 5428SOL    HW117183   4.439   5.686   2.938
 5428SOL    HW217184   4.335   5.621   3.046
 5429SOL     OW17185   2.691   6.315   3.748
 5429SOL    HW117186   2.616   6.353   3.695
 5429SOL    HW217187   2.707   6.220   3.719
 5430SOL     OW17188   0.819   3.670   5.369
 5430SOL    HW117189   0.719   3.666   5.377
 5430SOL    HW217190   0.860   3.678   5.460
 5431SOL     OW17191   5.667   4.598   0.838
 5431SOL    HW117192   5.630   4.638   0.922
 5431SOL    HW217193   5.743   4.655   0.805
 5432SOL     OW17194   1.984   5.345   5.876
 5432SOL    HW117195   2.034   5.260   5.863
 5432SOL    HW217196   1.891   5.325   5.907
 5433SOL     OW17197   2.190   6.820   1.317
 5433SOL    HW117198   2.144   6.734   1.293
 5433SOL    HW217199   2.288   6.810   1.302
 5434SOL     OW17200   5.313   5.851   4.521
 5434SOL    HW117201   5.382   5.784   4.492
 5434SOL    HW217202   5.285   5.831   4.615
 5435SOL     OW17203   0.372   3.212   0.369
 5435SOL    HW117204   0.316   3.156   0.307
 5435SOL    HW217205   0.321   3.294   0.394
 5436SOL     OW17206   1.015   4.430   0.939
 5436SOL    HW117207   1.050   4.480   0.860
 5436SOL    HW217208   1.051   4.337   0.939
 5437SOL     OW17209   3.097   6.529   6.143
 5437SOL    HW117210   3.056   6.439   6.152
 5437SOL    HW217211   3.196   6.523   6.156
 5438SOL     OW17212   5.038   6.404   2.801
 5438SOL    HW117213   5.112   6.471   2.800
 5438SOL    HW217214   4.953   6.448   2.830
 5439SOL     OW17215   1.084   3.830   2.159
 5439SOL    HW117216   1.123   3.769   2.228
 5439SOL    HW217217   0.989   3.805   2.142
 5440SOL     OW17218   5.573   6.153   3.052
 5440SOL    HW117219   5.640   6.202   2.995
 5440SOL    HW217220   5.566   6.197   3.141
 5441SOL     OW17221   5.511   0.317   5.138
 5441SOL    HW117222   5.572   0.275   5.070
 5441SOL    HW217223   5.466   0.245   5.191
 5442SOL     OW17224   2.536   6.598   0.042
 5442SOL    HW117225   2.508   6.687   0.005
 5442SOL    HW217226   2.540   6.603   0.142
 5443SOL     OW17227   6.122   1.133   3.372
 5443SOL    HW117228   6.054   1.073   3.331
 5443SOL    HW217229   6.185   1.165   3.301
 5444SOL     OW17230   1.625   1.617   6.320
 5444SOL    HW117231   1.703   1.677   6.298
 5444SOL    HW217232   1.593   1.573   6.236
 5445SOL     OW17233   5.856   6.255   4.838
 5445SOL    HW117234   5.905   6.334   4.800
 5445SOL    HW217235   5.890   6.171   4.795
 5446SOL     OW17236   2.343   4.009   0.261
 5446SOL    HW117237   2.326   3.950   0.340
 5446SOL    HW217238   2.275   3.991   0.190
 5447SOL     OW17239   5.432   2.509   1.753
 5447SOL    HW117240   5.405   2.513   1.657
 5447SOL    HW217241   5.402   2.423   1.793
 5448SOL     OW17242   5.876   5.296   1.308
 5448SOL    HW117243   5.862   5.341   1.396
 5448SOL    HW217244   5.789   5.289   1.260
 5449SOL     OW17245   2.070   0.304   2.667
 5449SOL    HW117246   2.031   0.215   2.689
 5449SOL    HW217247   1.997   0.367   2.642
 5450SOL     OW17248   4.415   4.776   1.606
 5450SOL    HW117249   4.454   4.702   1.552
 5450SOL    HW217250   4.323   4.797   1.574
 5451SOL     OW17251   0.884   5.617   3.490
 5451SOL    HW117252   0.981   5.618   3.467
 5451SOL    HW217253   0.831   5.648   3.411
 5452SOL     OW17254   2.084   3.861   3.372
 5452SOL    HW117255   2.084   3.853   3.273
 5452SOL    HW217256   2.120   3.950   3.399
 5453SOL     OW17257   5.996   5.705   4.050
 5453SOL    HW117258   5.905   5.664   4.060
 5453SOL    HW217259   5.990   5.784   3.988
 5454SOL     OW17260   6.333   3.850   1.803
 5454SOL    HW117261   6.396   3.830   1.878
 5454SOL    HW217262   6.262   3.779   1.800
 5455SOL     OW17263   2.344   2.757   2.792
 5455SOL    HW117264   2.377   2.663   2.778
 5455SOL    HW217265   2.357   2.783   2.888
 5456SOL     OW17266   5.244   2.764   0.190
 5456SOL    HW117267   5.191   2.818   0.255
 5456SOL    HW217268   5.272   2.678   0.233
 5457SOL     OW17269   5.685   1.223   0.465
 5457SOL    HW117270   5.668   1.310   0.512
 5457SOL    HW217271   5.781   1.219   0.437
 5458SOL     OW17272   6.578   4.503   6.073
 5458SOL    HW117273   6.574   4.510   6.173
 5458SOL    HW217274   6.601   4.410   6.047
 5459SOL     OW17275   2.313   3.719   5.730
 5459SOL    HW117276   2.389   3.696   5.669
 5459SOL    HW217277   2.346   3.780   5.802
 5460SOL     OW17278   6.924   1.186   1.116
 5460SOL    HW117279   7.016   1.146   1.127
 5460SOL    HW217280   6.911   1.258   1.184
 5461SOL     OW17281   5.869   0.379   6.490
 5461SOL    HW117282   5.918   0.464   6.509
 5461SOL    HW217283   5.776   0.385   6.526
 5462SOL     OW17284   5.422   4.965   0.006
 5462SOL    HW117285   5.485   4.963   6.952
 5462SOL    HW217286   5.404   5.059   0.033
 5463SOL     OW17287   2.641   4.625   0.098
 5463SOL    HW117288   2.609   4.541   0.056
 5463SOL    HW217289   2.569   4.663   0.156
 5464SOL     OW17290   2.225   5.655   4.165
 5464SOL    HW117291   2.235   5.723   4.093
 5464SOL    HW217292   2.207   5.701   4.252
 5465SOL     OW17293   0.960   1.260   4.814
 5465SOL    HW117294   1.032   1.233   4.750
 5465SOL    HW217295   0.879   1.203   4.799
 5466SOL     OW17296   5.253   2.413   4.879
 5466SOL    HW117297   5.157   2.437   4.895
 5466SOL    HW217298   5.289   2.469   4.804
 5467SOL     OW17299   5.178   4.084   3.701
 5467SOL    HW117300   5.180   4.177   3.736
 5467SOL    HW217301   5.232   4.024   3.760
 5468SOL     OW17302   0.457   2.570   1.167
 5468SOL    HW117303   0.481   2.613   1.254
 5468SOL    HW217304   0.429   2.641   1.102
 5469SOL     OW17305   4.635   1.153   3.177
 5469SOL    HW117306   4.697   1.228   3.200
 5469SOL    HW217307   4.546   1.190   3.150
 5470SOL     OW17308   2.658   4.747   3.848
 5470SOL    HW117309   2.578   4.689   3.862
 5470SOL    HW217310   2.729   4.694   3.800
 5471SOL     OW17311   5.148   0.572   4.392
 5471SOL    HW117312   5.136   0.473   4.389
 5471SOL    HW217313   5.198   0.597   4.475
 5472SOL     OW17314   2.655   3.912   6.963
 5472SOL    HW117315   2.621   3.841   6.901
 5472SOL    HW217316   2.751   3.932   6.940
 5473SOL     OW17317   2.922   4.813   1.934
 5473SOL    HW117318   2.863   4.733   1.950
 5473SOL    HW217319   2.949   4.851   2.022
 5474SOL     OW17320   0.994   5.134   2.057
 5474SOL    HW117321   0.992   5.233   2.039
 5474SOL    HW217322   1.073   5.113   2.115
 5475SOL     OW17323   1.061   0.900   5.366
 5475SOL    HW117324   1.038   0.965   5.437
 5475SOL    HW217325   0.982   0.841   5.348
 5476SOL     OW17326   2.930   1.142   4.662
 5476SOL    HW117327   2.917   1.188   4.750
 5476SOL    HW217328   3.025   1.152   4.633
 5477SOL     OW17329   2.139   4.125   3.460
 5477SOL    HW117330   2.178   4.140   3.369
 5477SOL    HW217331   2.073   4.198   3.480
 5478SOL     OW17332   6.752   3.608   5.788
 5478SOL    HW117333   6.780   3.616   5.693
 5478SOL    HW217334   6.685   3.534   5.797
 5479SOL     OW17335   5.495   3.966   4.480
 5479SOL    HW117336   5.472   4.063   4.473
 5479SOL    HW217337   5.427   3.919   4.536
 5480SOL     OW17338   1.423   2.745   6.020
 5480SOL    HW117339   1.474   2.821   6.059
 5480SOL    HW217340   1.458   2.723   5.929
 5481SOL     OW17341   4.219   1.318   0.367
 5481SOL    HW117342   4.298   1.258   0.369
 5481SOL    HW217343   4.161   1.299   0.447
 5482SOL     OW17344   5.386   4.767   2.142
 5482SOL    HW117345   5.289   4.789   2.134
 5482SOL    HW217346   5.421   4.736   2.054
 5483SOL     OW17347   5.634   1.488   0.529
 5483SOL    HW117348   5.601   1.509   0.437
 5483SOL    HW217349   5.734   1.497   0.532
 5484SOL     OW17350   5.960   0.443   6.020
 5484SOL    HW117351   5.975   0.386   6.101
 5484SOL    HW217352   5.919   0.530   6.048
 5485SOL     OW17353   2.714   0.706   4.125
 5485SOL    HW117354   2.767   0.783   4.161
 5485SOL    HW217355   2.726   0.700   4.026
 5486SOL     OW17356   6.901   0.400   4.049
 5486SOL    HW117357   6.987   0.388   4.099
 5486SOL    HW217358   6.915   0.374   3.954
 5487SOL     OW17359   4.068   5.222   1.229
 5487SOL    HW117360   4.145   5.160   1.240
 5487SOL    HW217361   4.095   5.300   1.173
 5488SOL     OW17362   4.668   0.852   6.138
 5488SOL    HW117363   4.642   0.867   6.043
 5488SOL    HW217364   4.754   0.801   6.141
 5489SOL     OW17365   6.702   4.108   2.532
 5489SOL    HW117366   6.752   4.187   2.497
 5489SOL    HW217367   6.604   4.126   2.528
 5490SOL     OW17368   2.766   0.790   6.750
 5490SOL    HW117369   2.734   0.696   6.760
 5490SOL    HW217370   2.699   0.853   6.790
 5491SOL     OW17371   6.331   6.506   1.402
 5491SOL    HW117372   6.306   6.440   1.473
 5491SOL    HW217373   6.430   6.504   1.389
 5492SOL     OW17374   1.370   1.591   4.982
 5492SOL    HW117375   1.307   1.529   4.935
 5492SOL    HW217376   1.390   1.669   4.923
 5493SOL     OW17377   4.226   1.277   0.077
 5493SOL    HW117378   4.199   1.305   0.170
 5493SOL    HW217379   4.149   1.291   0.015
 5494SOL     OW17380   5.161   3.311   2.429
 5494SOL    HW117381   5.207   3.332   2.343
 5494SOL    HW217382   5.092   3.240   2.414
 5495SOL     OW17383   3.356   2.939   4.539
 5495SOL    HW117384   3.363   2.946   4.639
 5495SOL    HW217385   3.265   2.967   4.510
 5496SOL     OW17386   4.347   5.077   2.306
 5496SOL    HW117387   4.265   5.131   2.292
 5496SOL    HW217388   4.373   5.080   2.403
 5497SOL     OW17389   5.051   0.092   6.922
 5497SOL    HW117390   5.148   0.095   6.947
 5497SOL    HW217391   4.996   0.087   7.005
 5498SOL     OW17392   4.319   1.200   4.261
 5498SOL    HW117393   4.271   1.142   4.195
 5498SOL    HW217394   4.255   1.267   4.299
 5499SOL     OW17395   0.379   0.564   4.991
 5499SOL    HW117396   0.465   0.614   5.003
 5499SOL    HW217397   0.315   0.590   5.063
 5500SOL     OW17398   2.042   6.347   0.726
 5500SOL    HW117399   2.107   6.404   0.675
 5500SOL    HW217400   2.088   6.264   0.758
 5501SOL     OW17401   2.451   1.190   1.914
 5501SOL    HW117402   2.544   1.209   1.884
 5501SOL    HW217403   2.448   1.179   2.013
 5502SOL     OW17404   5.039   4.614   0.249
 5502SOL    HW117405   5.019   4.662   0.334
 5502SOL    HW217406   5.120   4.557   0.262
 5503SOL     OW17407   6.662   0.237   4.016
 5503SOL    HW117408   6.724   0.303   4.057
 5503SOL    HW217409   6.604   0.282   3.947
 5504SOL     OW17410   2.617   2.449   4.653
 5504SOL    HW117411   2.681   2.520   4.626
 5504SOL    HW217412   2.543   2.489   4.707
 5505SOL     OW17413   3.235   4.839   0.480
 5505SOL    HW117414   3.294   4.900   0.532
 5505SOL    HW217415   3.178   4.786   0.543
 5506SOL     OW17416   1.149   6.660   5.158
 5506SOL    HW117417   1.097   6.667   5.243
 5506SOL    HW217418   1.109   6.719   5.088
 5507SOL     OW17419   2.652   5.554   4.908
 5507SOL    HW117420   2.625   5.457   4.910
 5507SOL    HW217421   2.582   5.609   4.953
 5508SOL     OW17422   2.046   1.088   5.170
 5508SOL    HW117423   1.981   1.082   5.246
 5508SOL    HW217424   2.137   1.109   5.206
 5509SOL     OW17425   6.910   0.193   5.808
 5509SOL    HW117426   6.838   0.253   5.843
 5509SOL    HW217427   6.912   0.197   5.709
 5510SOL     OW17428   0.658   0.073   5.292
 5510SOL    HW117429   0.691   0.166   5.281
 5510SOL    HW217430   0.574   0.060   5.240
 5511SOL     OW17431   0.227   2.416   1.167
 5511SOL    HW117432   0.173   2.430   1.250
 5511SOL    HW217433   0.313   2.466   1.174
 5512SOL     OW17434   6.376   0.141   0.438
 5512SOL    HW117435   6.427   0.171   0.520
 5512SOL    HW217436   6.406   0.196   0.360
 5513SOL     OW17437   2.991   5.958   4.381
 5513SOL    HW117438   3.023   5.980   4.289
 5513SOL    HW217439   2.985   5.859   4.392
 5514SOL     OW17440   5.788   5.953   3.220
 5514SOL    HW117441   5.774   6.025   3.151
 5514SOL    HW217442   5.861   5.980   3.282
 5515SOL     OW17443   0.623   3.632   3.414
 5515SOL    HW117444   0.679   3.549   3.420
 5515SOL    HW217445   0.677   3.712   3.437
 5516SOL     OW17446   2.109   2.946   0.129
 5516SOL    HW117447   2.063   3.032   0.107
 5516SOL    HW217448   2.166   2.958   0.210
 5517SOL     OW17449   3.060   0.846   2.148
 5517SOL    HW117450   2.963   0.823   2.142
 5517SOL    HW217451   3.074   0.916   2.219
 5518SOL     OW17452   5.681   3.601   5.786
 5518SOL    HW117453   5.635   3.543   5.853
 5518SOL    HW217454   5.635   3.690   5.782
 5519SOL     OW17455   5.673   5.173   2.431
 5519SOL    HW117456   5.722   5.086   2.427
 5519SOL    HW217457   5.575   5.155   2.445
 5520SOL     OW17458   1.615   3.083   0.847
 5520SOL    HW117459   1.535   3.050   0.796
 5520SOL    HW217460   1.623   3.182   0.836
 5521SOL     OW17461   5.535   4.211   6.148
 5521SOL    HW117462   5.502   4.304   6.135
 5521SOL    HW217463   5.622   4.213   6.197
 5522SOL     OW17464   1.337   2.638   1.588
 5522SOL    HW117465   1.369   2.732   1.600
 5522SOL    HW217466   1.413   2.575   1.607
 5523SOL     OW17467   3.034   6.181   1.554
 5523SOL    HW117468   3.120   6.139   1.523
 5523SOL    HW217469   3.018   6.265   1.503
 5524SOL     OW17470   6.253   6.571   5.679
 5524SOL    HW117471   6.209   6.585   5.590
 5524SOL    HW217472   6.224   6.643   5.742
 5525SOL     OW17473   6.514   6.403   3.396
 5525SOL    HW117474   6.517   6.319   3.450
 5525SOL    HW217475   6.521   6.380   3.298
 5526SOL     OW17476   5.588   3.181   4.637
 5526SOL    HW117477   5.652   3.104   4.627
 5526SOL    HW217478   5.627   3.249   4.699
 5527SOL     OW17479   2.706   3.409   6.899
 5527SOL    HW117480   2.642   3.481   6.873
 5527SOL    HW217481   2.662   3.320   6.885
 5528SOL     OW17482   6.734   2.963   2.503
 5528SOL    HW117483   6.650   2.966   2.448
 5528SOL    HW217484   6.776   3.053   2.505
 5529SOL     OW17485   1.381   0.667   3.931
 5529SOL    HW117486   1.356   0.761   3.952
 5529SOL    HW217487   1.472   0.647   3.967
 5530SOL     OW17488   6.843   3.035   6.710
 5530SOL    HW117489   6.825   3.005   6.803
 5530SOL    HW217490   6.805   3.126   6.696
 5531SOL     OW17491   2.826   3.131   0.337
 5531SOL    HW117492   2.796   3.060   0.273
 5531SOL    HW217493   2.907   3.176   0.300
 5532SOL     OW17494   2.775   2.724   1.709
 5532SOL    HW117495   2.724   2.701   1.626
 5532SOL    HW217496   2.844   2.654   1.725
 5533SOL     OW17497   3.132   0.532   1.027
 5533SOL    HW117498   3.095   0.619   1.060
 5533SOL    HW217499   3.068   0.459   1.048
 5534SOL     OW17500   0.582   3.245   5.187
 5534SOL    HW117501   0.586   3.183   5.265
 5534SOL    HW217502   0.670   3.244   5.139
 5535SOL     OW17503   4.798   4.451   4.005
 5535SOL    HW117504   4.879   4.499   4.038
 5535SOL    HW217505   4.809   4.353   4.021
 5536SOL     OW17506   2.253   1.284   4.426
 5536SOL    HW117507   2.219   1.190   4.425
 5536SOL    HW217508   2.181   1.345   4.460
 5537SOL     OW17509   3.760   0.862   3.627
 5537SOL    HW117510   3.680   0.921   3.619
 5537SOL    HW217511   3.843   0.917   3.621
 5538SOL     OW17512   4.770   2.347   2.174
 5538SOL    HW117513   4.721   2.271   2.218
 5538SOL    HW217514   4.862   2.353   2.212
 5539SOL     OW17515   1.496   0.511   6.345
 5539SOL    HW117516   1.531   0.588   6.398
 5539SOL    HW217517   1.548   0.502   6.260
 5540SOL     OW17518   5.151   0.107   5.157
 5540SOL    HW117519   5.162   0.186   5.096
 5540SOL    HW217520   5.189   0.129   5.247
 5541SOL     OW17521   4.338   2.644   6.018
 5541SOL    HW117522   4.428   2.648   5.975
 5541SOL    HW217523   4.288   2.565   5.982
 5542SOL     OW17524   5.020   4.159   6.303
 5542SOL    HW117525   5.034   4.228   6.373
 5542SOL    HW217526   5.070   4.185   6.220
 5543SOL     OW17527   0.572   0.137   6.228
 5543SOL    HW117528   0.472   0.142   6.224
 5543SOL    HW217529   0.600   0.111   6.320
 5544SOL     OW17530   3.383   5.232   0.264
 5544SOL    HW117531   3.470   5.234   0.313
 5544SOL    HW217532   3.387   5.165   0.190
 5545SOL     OW17533   5.455   1.812   2.887
 5545SOL    HW117534   5.485   1.731   2.836
 5545SOL    HW217535   5.532   1.849   2.939
 5546SOL     OW17536   0.535   5.953   4.477
 5546SOL    HW117537   0.545   5.854   4.485
 5546SOL    HW217538   0.460   5.974   4.415
 5547SOL     OW17539   5.159   1.624   4.610
 5547SOL    HW117540   5.154   1.689   4.686
 5547SOL    HW217541   5.223   1.659   4.541
 5548SOL     OW17542   0.875   3.371   5.395
 5548SOL    HW117543   0.794   3.322   5.428
 5548SOL    HW217544   0.852   3.466   5.376
 5549SOL     OW17545   3.817   2.804   0.735
 5549SOL    HW117546   3.781   2.711   0.723
 5549SOL    HW217547   3.878   2.806   0.815
 5550SOL     OW17548   2.703   3.797   1.628
 5550SOL    HW117549   2.653   3.882   1.616
 5550SOL    HW217550   2.795   3.807   1.590
 5551SOL     OW17551   1.541   4.846   2.336
 5551SOL    HW117552   1.473   4.896   2.282
 5551SOL    HW217553   1.581   4.774   2.279
 5552SOL     OW17554   0.869   0.758   0.176
 5552SOL    HW117555   0.949   0.817   0.172
 5552SOL    HW217556   0.848   0.736   0.271
 5553SOL     OW17557   5.601   6.335   0.477
 5553SOL    HW117558   5.644   6.406   0.422
 5553SOL    HW217559   5.664   6.305   0.548
 5554SOL     OW17560   6.571   2.362   1.617
 5554SOL    HW117561   6.533   2.273   1.641
 5554SOL    HW217562   6.506   2.411   1.559
 5555SOL     OW17563   1.618   5.010   2.537
 5555SOL    HW117564   1.711   5.039   2.559
 5555SOL    HW217565   1.621   4.926   2.483
 5556SOL     OW17566   0.038   1.664   4.663
 5556SOL    HW117567   0.071   1.596   4.598
 5556SOL    HW217568   6.969   1.693   4.636
 5557SOL     OW17569   3.576   6.996   2.803
 5557SOL    HW117570   3.530   6.928   2.859
 5557SOL    HW217571   3.583   0.058   2.853
 5558SOL     OW17572   4.242   3.369   6.411
 5558SOL    HW117573   4.300   3.431   6.464
 5558SOL    HW217574   4.155   3.356   6.458
 5559SOL     OW17575   3.388   0.600   3.046
 5559SOL    HW117576   3.465   0.539   3.066
 5559SOL    HW217577   3.327   0.556   2.980
 5560SOL     OW17578   0.120   5.819   3.550
 5560SOL    HW117579   0.112   5.892   3.618
 5560SOL    HW217580   0.122   5.730   3.596
 5561SOL     OW17581   3.098   0.446   3.499
 5561SOL    HW117582   3.154   0.398   3.431
 5561SOL    HW217583   3.156   0.481   3.572
 5562SOL     OW17584   4.512   3.423   0.445
 5562SOL    HW117585   4.608   3.413   0.421
 5562SOL    HW217586   4.504   3.470   0.533
 5563SOL     OW17587   2.408   4.410   2.174
 5563SOL    HW117588   2.333   4.451   2.123
 5563SOL    HW217589   2.383   4.318   2.203
 5564SOL     OW17590   4.577   6.894   6.110
 5564SOL    HW117591   4.527   6.815   6.073
 5564SOL    HW217592   4.572   6.970   6.046
 5565SOL     OW17593   3.466   1.355   6.257
 5565SOL    HW117594   3.559   1.390   6.269
 5565SOL    HW217595   3.469   1.268   6.207
 5566SOL     OW17596   1.863   5.317   5.454
 5566SOL    HW117597   1.908   5.371   5.383
 5566SOL    HW217598   1.769   5.298   5.427
 5567SOL     OW17599   0.864   5.080   6.626
 5567SOL    HW117600   0.937   5.074   6.558
 5567SOL    HW217601   0.820   4.991   6.635
 5568SOL     OW17602   5.124   5.404   2.207
 5568SOL    HW117603   5.050   5.410   2.275
 5568SOL    HW217604   5.145   5.495   2.172
 5569SOL     OW17605   2.136   1.900   2.451
 5569SOL    HW117606   2.100   1.989   2.424
 5569SOL    HW217607   2.060   1.835   2.460
 5570SOL     OW17608   6.784   3.897   1.548
 5570SOL    HW117609   6.710   3.919   1.612
 5570SOL    HW217610   6.822   3.982   1.511
 5571SOL     OW17611   7.018   4.693   0.220
 5571SOL    HW117612   6.923   4.665   0.236
 5571SOL    HW217613   0.006   4.789   0.245
 5572SOL     OW17614   1.285   4.567   5.106
 5572SOL    HW117615   1.189   4.541   5.119
 5572SOL    HW217616   1.325   4.511   5.033
 5573SOL     OW17617   3.531   4.946   3.437
 5573SOL    HW117618   3.436   4.914   3.445
 5573SOL    HW217619   3.587   4.875   3.394
 5574SOL     OW17620   1.139   1.333   6.284
 5574SOL    HW117621   1.111   1.250   6.235
 5574SOL    HW217622   1.187   1.394   6.222
 5575SOL     OW17623   0.159   0.577   1.834
 5575SOL    HW117624   0.258   0.579   1.845
 5575SOL    HW217625   0.127   0.482   1.834
 5576SOL     OW17626   1.883   4.730   3.743
 5576SOL    HW117627   1.900   4.790   3.821
 5576SOL    HW217628   1.822   4.776   3.678
 5577SOL     OW17629   2.718   2.312   6.196
 5577SOL    HW117630   2.634   2.358   6.224
 5577SOL    HW217631   2.705   2.270   6.106
 5578SOL     OW17632   3.880   3.979   4.131
 5578SOL    HW117633   3.962   3.921   4.139
 5578SOL    HW217634   3.875   4.016   4.039
 5579SOL     OW17635   6.161   3.056   1.839
 5579SOL    HW117636   6.173   2.976   1.898
 5579SOL    HW217637   6.213   3.044   1.755
 5580SOL     OW17638   5.529   2.094   5.859
 5580SOL    HW117639   5.566   2.107   5.767
 5580SOL    HW217640   5.546   2.175   5.914
 5581SOL     OW17641   1.440   1.109   6.183
 5581SOL    HW117642   1.488   1.165   6.251
 5581SOL    HW217643   1.414   1.166   6.105
 5582SOL     OW17644   2.851   2.268   5.961
 5582SOL    HW117645   2.896   2.284   5.874
 5582SOL    HW217646   2.870   2.345   6.023
 5583SOL     OW17647   6.347   6.787   0.524
 5583SOL    HW117648   6.396   6.874   0.527
 5583SOL    HW217649   6.295   6.775   0.609
 5584SOL     OW17650   1.449   3.050   4.897
 5584SOL    HW117651   1.497   3.135   4.920
 5584SOL    HW217652   1.354   3.057   4.928
 5585SOL     OW17653   5.543   4.726   1.374
 5585SOL    HW117654   5.564   4.802   1.313
 5585SOL    HW217655   5.619   4.713   1.438
 5586SOL     OW17656   0.905   5.522   1.362
 5586SOL    HW117657   0.955   5.436   1.363
 5586SOL    HW217658   0.967   5.596   1.335
 5587SOL     OW17659   6.046   0.497   5.430
 5587SOL    HW117660   6.045   0.398   5.415
 5587SOL    HW217661   6.062   0.516   5.527
 5588SOL     OW17662   3.231   6.904   0.685
 5588SOL    HW117663   3.202   6.926   0.778
 5588SOL    HW217664   3.218   6.984   0.626
 5589SOL     OW17665   6.964   4.349   5.939
 5589SOL    HW117666   6.882   4.335   5.882
 5589SOL    HW217667   0.021   4.318   5.889
 5590SOL     OW17668   5.671   5.315   3.289
 5590SOL    HW117669   5.606   5.382   3.252
 5590SOL    HW217670   5.634   5.223   3.277
 5591SOL     OW17671   5.374   1.409   2.665
 5591SOL    HW117672   5.347   1.325   2.618
 5591SOL    HW217673   5.320   1.486   2.630
 5592SOL     OW17674   0.332   5.590   4.034
 5592SOL    HW117675   0.351   5.566   3.938
 5592SOL    HW217676   0.275   5.519   4.075
 5593SOL     OW17677   1.040   3.874   0.488
 5593SOL    HW117678   1.121   3.820   0.511
 5593SOL    HW217679   1.052   3.968   0.520
 5594SOL     OW17680   6.202   1.369   5.754
 5594SOL    HW117681   6.257   1.293   5.718
 5594SOL    HW217682   6.195   1.362   5.853
 5595SOL     OW17683   0.437   1.991   0.813
 5595SOL    HW117684   0.385   1.999   0.729
 5595SOL    HW217685   0.399   1.918   0.869
 5596SOL     OW17686   3.784   6.155   3.005
 5596SOL    HW117687   3.860   6.117   3.057
 5596SOL    HW217688   3.698   6.139   3.055
 5597SOL     OW17689   5.133   2.997   2.046
 5597SOL    HW117690   5.072   3.076   2.037
 5597SOL    HW217691   5.114   2.949   2.131
 5598SOL     OW17692   3.724   0.765   4.167
 5598SOL    HW117693   3.749   0.822   4.089
 5598SOL    HW217694   3.807   0.739   4.217
 5599SOL     OW17695   0.828   1.405   3.441
 5599SOL    HW117696   0.891   1.442   3.509
 5599SOL    HW217697   0.840   1.306   3.436
 5600SOL     OW17698   2.523   2.790   5.306
 5600SOL    HW117699   2.500   2.863   5.242
 5600SOL    HW217700   2.589   2.824   5.373
 5601SOL     OW17701   2.190   0.717   6.470
 5601SOL    HW117702   2.143   0.755   6.390
 5601SOL    HW217703   2.135   0.735   6.552
 5602SOL     OW17704   2.324   0.783   0.159
 5602SOL    HW117705   2.345   0.881   0.165
 5602SOL    HW217706   2.232   0.771   0.122
 5603SOL     OW17707   6.393   4.160   5.262
 5603SOL    HW117708   6.313   4.210   5.228
 5603SOL    HW217709   6.471   4.178   5.202
 5604SOL     OW17710   5.409   0.863   6.176
 5604SOL    HW117711   5.444   0.916   6.254
 5604SOL    HW217712   5.333   0.912   6.134
 5605SOL     OW17713   0.698   1.637   6.517
 5605SOL    HW117714   0.702   1.589   6.430
 5605SOL    HW217715   0.736   1.579   6.590
 5606SOL     OW17716   5.907   0.533   2.967
 5606SOL    HW117717   5.994   0.531   2.918
 5606SOL    HW217718   5.922   0.562   3.061
 5607SOL     OW17719   5.078   0.689   1.180
 5607SOL    HW117720   4.993   0.742   1.174
 5607SOL    HW217721   5.056   0.591   1.179
 5608SOL     OW17722   3.756   6.744   5.030
 5608SOL    HW117723   3.699   6.684   4.973
 5608SOL    HW217724   3.852   6.721   5.017
 5609SOL     OW17725   1.311   6.011   5.311
 5609SOL    HW117726   1.350   6.069   5.239
 5609SOL    HW217727   1.283   6.069   5.388
 5610SOL     OW17728   4.572   0.234   6.599
 5610SOL    HW117729   4.539   0.306   6.660
 5610SOL    HW217730   4.590   0.151   6.651
 5611SOL     OW17731   1.726   4.222   4.607
 5611SOL    HW117732   1.657   4.174   4.552
 5611SOL    HW217733   1.806   4.164   4.618
 5612SOL     OW17734   3.441   6.212   4.389
 5612SOL    HW117735   3.534   6.194   4.355
 5612SOL    HW217736   3.380   6.228   4.311
 5613SOL     OW17737   2.905   5.199   2.124
 5613SOL    HW117738   2.983   5.158   2.172
 5613SOL    HW217739   2.918   5.192   2.025
 5614SOL     OW17740   5.287   2.232   4.282
 5614SOL    HW117741   5.359   2.164   4.293
 5614SOL    HW217742   5.313   2.317   4.328
 5615SOL     OW17743   0.894   1.611   1.843
 5615SOL    HW117744   0.912   1.523   1.798
 5615SOL    HW217745   0.797   1.616   1.868
 5616SOL     OW17746   2.270   6.688   5.344
 5616SOL    HW117747   2.311   6.655   5.429
 5616SOL    HW217748   2.246   6.610   5.287
 5617SOL     OW17749   0.627   1.057   5.937
 5617SOL    HW117750   0.704   0.998   5.913
 5617SOL    HW217751   0.593   1.103   5.855
 5618SOL     OW17752   5.982   5.026   2.982
 5618SOL    HW117753   5.956   5.120   3.004
 5618SOL    HW217754   6.013   5.021   2.887
 5619SOL     OW17755   2.100   3.908   5.169
 5619SOL    HW117756   2.179   3.949   5.124
 5619SOL    HW217757   2.035   3.877   5.100
 5620SOL     OW17758   5.094   1.612   6.846
 5620SOL    HW117759   5.118   1.546   6.918
 5620SOL    HW217760   5.175   1.632   6.791
 5621SOL     OW17761   2.477   1.944   6.999
 5621SOL    HW117762   2.567   1.927   6.959
 5621SOL    HW217763   2.410   1.957   6.926
 5622SOL     OW17764   5.815   0.095   5.335
 5622SOL    HW117765   5.716   0.078   5.338
 5622SOL    HW217766   5.856   0.040   5.262
 5623SOL     OW17767   0.141   6.211   0.033
 5623SOL    HW117768   0.110   6.302   0.059
 5623SOL    HW217769   0.080   6.143   0.073
 5624SOL     OW17770   0.743   4.523   2.048
 5624SOL    HW117771   0.838   4.506   2.023
 5624SOL    HW217772   0.739   4.589   2.123
 5625SOL     OW17773   6.758   1.827   5.610
 5625SOL    HW117774   6.810   1.911   5.626
 5625SOL    HW217775   6.723   1.826   5.517
 5626SOL     OW17776   5.567   0.027   5.217
 5626SOL    HW117777   5.477   7.010   5.234
 5626SOL    HW217778   5.607   7.010   5.134
 5627SOL     OW17779   1.377   0.293   1.127
 5627SOL    HW117780   1.382   0.388   1.159
 5627SOL    HW217781   1.284   0.274   1.095
 5628SOL     OW17782   1.790   1.670   4.377
 5628SOL    HW117783   1.786   1.764   4.344
 5628SOL    HW217784   1.697   1.633   4.385
 5629SOL     OW17785   3.787   3.127   3.595
 5629SOL    HW117786   3.808   3.221   3.624
 5629SOL    HW217787   3.723   3.086   3.660
 5630SOL     OW17788   6.420   3.849   0.760
 5630SOL    HW117789   6.418   3.802   0.848
 5630SOL    HW217790   6.511   3.886   0.744
 5631SOL     OW17791   5.743   1.316   6.459
 5631SOL    HW117792   5.822   1.258   6.478
 5631SOL    HW217793   5.767   1.387   6.393
 5632SOL     OW17794   3.097   2.028   0.513
 5632SOL    HW117795   3.030   2.007   0.584
 5632SOL    HW217796   3.064   2.104   0.457
 5633SOL     OW17797   0.004   3.121   5.406
 5633SOL    HW117798   7.023   3.025   5.435
 5633SOL    HW217799   7.021   3.181   5.485
 5634SOL     OW17800   4.365   6.397   4.766
 5634SOL    HW117801   4.330   6.365   4.854
 5634SOL    HW217802   4.320   6.348   4.692
 5635SOL     OW17803   3.199   1.571   5.840
 5635SOL    HW117804   3.259   1.571   5.920
 5635SOL    HW217805   3.210   1.484   5.791
 5636SOL     OW17806   4.345   6.609   4.551
 5636SOL    HW117807   4.423   6.671   4.552
 5636SOL    HW217808   4.373   6.520   4.515
 5637SOL     OW17809   5.901   6.992   3.131
 5637SOL    HW117810   5.971   6.933   3.171
 5637SOL    HW217811   5.824   6.936   3.100
 5638SOL     OW17812   0.109   3.647   0.093
 5638SOL    HW117813   0.184   3.632   0.029
 5638SOL    HW217814   0.116   3.582   0.169
 5639SOL     OW17815   4.425   6.669   0.130
 5639SOL    HW117816   4.433   6.765   0.105
 5639SOL    HW217817   4.335   6.634   0.103
 5640SOL     OW17818   1.609   7.019   3.406
 5640SOL    HW117819   1.673   6.964   3.351
 5640SOL    HW217820   1.659   0.043   3.478
 5641SOL     OW17821   6.915   5.265   4.771
 5641SOL    HW117822   6.952   5.194   4.831
 5641SOL    HW217823   6.841   5.313   4.818
 5642SOL     OW17824   1.671   1.041   0.183
 5642SOL    HW117825   1.610   0.978   0.232
 5642SOL    HW217826   1.687   1.122   0.239
 5643SOL     OW17827   5.523   1.970   6.282
 5643SOL    HW117828   5.481   1.909   6.215
 5643SOL    HW217829   5.583   2.035   6.235
 5644SOL     OW17830   2.650   0.678   5.639
 5644SOL    HW117831   2.593   0.601   5.669
 5644SOL    HW217832   2.742   0.667   5.675
 5645SOL     OW17833   5.648   3.851   4.060
 5645SOL    HW117834   5.708   3.780   4.022
 5645SOL    HW217835   5.594   3.813   4.135
 5646SOL     OW17836   0.485   4.124   2.646
 5646SOL    HW117837   0.520   4.122   2.553
 5646SOL    HW217838   0.451   4.216   2.667
 5647SOL     OW17839   5.100   5.901   2.846
 5647SOL    HW117840   5.042   5.967   2.799
 5647SOL    HW217841   5.189   5.943   2.866
 5648SOL     OW17842   5.210   6.277   3.355
 5648SOL    HW117843   5.239   6.359   3.404
 5648SOL    HW217844   5.112   6.282   3.335
 5649SOL     OW17845   0.446   0.386   4.462
 5649SOL    HW117846   0.511   0.337   4.404
 5649SOL    HW217847   0.464   0.364   4.558
 5650SOL     OW17848   0.167   3.438   6.337
 5650SOL    HW117849   0.211   3.520   6.300
 5650SOL    HW217850   0.076   3.461   6.372
 5651SOL     OW17851   2.781   1.416   1.054
 5651SOL    HW117852   2.786   1.316   1.060
 5651SOL    HW217853   2.689   1.443   1.026
 5652SOL     OW17854   0.448   5.807   2.920
 5652SOL    HW117855   0.537   5.771   2.950
 5652SOL    HW217856   0.393   5.832   3.000
 5653SOL     OW17857   6.874   0.702   2.746
 5653SOL    HW117858   6.905   0.632   2.682
 5653SOL    HW217859   6.779   0.725   2.727
 5654SOL     OW17860   3.468   6.057   5.624
 5654SOL    HW117861   3.484   6.002   5.706
 5654SOL    HW217862   3.385   6.111   5.635
 5655SOL     OW17863   5.452   3.210   4.381
 5655SOL    HW117864   5.434   3.304   4.352
 5655SOL    HW217865   5.511   3.212   4.462
 5656SOL     OW17866   0.420   3.883   0.903
 5656SOL    HW117867   0.507   3.928   0.927
 5656SOL    HW217868   0.373   3.854   0.986
 5657SOL     OW17869   5.763   5.918   4.883
 5657SOL    HW117870   5.842   5.966   4.846
 5657SOL    HW217871   5.764   5.823   4.850
 5658SOL     OW17872   2.505   2.340   5.798
 5658SOL    HW117873   2.594   2.340   5.752
 5658SOL    HW217874   2.464   2.431   5.792
 5659SOL     OW17875   2.345   4.401   6.413
 5659SOL    HW117876   2.364   4.499   6.413
 5659SOL    HW217877   2.304   4.375   6.325
 5660SOL     OW17878   3.439   0.014   4.372
 5660SOL    HW117879   3.489   0.032   4.457
 5660SOL    HW217880   3.359   0.075   4.368
 5661SOL     OW17881   0.836   5.517   6.140
 5661SOL    HW117882   0.743   5.519   6.103
 5661SOL    HW217883   0.901   5.503   6.065
 5662SOL     OW17884   2.882   6.095   0.961
 5662SOL    HW117885   2.795   6.111   0.915
 5662SOL    HW217886   2.957   6.119   0.900
 5663SOL     OW17887   3.153   2.297   6.584
 5663SOL    HW117888   3.195   2.326   6.670
 5663SOL    HW217889   3.056   2.322   6.585
 5664SOL     OW17890   5.196   5.187   4.540
 5664SOL    HW117891   5.123   5.256   4.537
 5664SOL    HW217892   5.258   5.201   4.463
 5665SOL     OW17893   1.917   0.791   0.972
 5665SOL    HW117894   1.920   0.824   1.067
 5665SOL    HW217895   1.828   0.750   0.954
 5666SOL     OW17896   6.062   3.132   4.669
 5666SOL    HW117897   6.003   3.074   4.613
 5666SOL    HW217898   6.083   3.216   4.620
 5667SOL     OW17899   2.984   4.861   4.214
 5667SOL    HW117900   2.931   4.786   4.174
 5667SOL    HW217901   2.966   4.865   4.312
 5668SOL     OW17902   4.570   4.925   3.941
 5668SOL    HW117903   4.535   4.953   3.851
 5668SOL    HW217904   4.500   4.942   4.011
 5669SOL     OW17905   6.009   4.118   5.797
 5669SOL    HW117906   6.030   4.024   5.824
 5669SOL    HW217907   5.913   4.137   5.817
 5670SOL     OW17908   1.131   2.803   4.331
 5670SOL    HW117909   1.112   2.709   4.360
 5670SOL    HW217910   1.224   2.808   4.294
 5671SOL     OW17911   6.398   5.942   2.591
 5671SOL    HW117912   6.403   5.992   2.677
 5671SOL    HW217913   6.412   6.005   2.514
 5672SOL     OW17914   5.321   3.198   4.660
 5672SOL    HW117915   5.413   3.216   4.696
 5672SOL    HW217916   5.328   3.173   4.563
 5673SOL     OW17917   0.014   2.041   0.356
 5673SOL    HW117918   0.082   2.098   0.312
 5673SOL    HW217919   6.957   2.096   0.380
 5674SOL     OW17920   2.577   5.445   5.780
 5674SOL    HW117921   2.502   5.471   5.841
 5674SOL    HW217922   2.546   5.376   5.715
 5675SOL     OW17923   3.033   2.132   0.934
 5675SOL    HW117924   3.083   2.195   0.876
 5675SOL    HW217925   3.055   2.150   1.030
 5676SOL     OW17926   3.868   1.399   1.722
 5676SOL    HW117927   3.852   1.408   1.624
 5676SOL    HW217928   3.807   1.460   1.772
 5677SOL     OW17929   1.046   1.572   6.400
 5677SOL    HW117930   1.039   1.477   6.371
 5677SOL    HW217931   1.066   1.576   6.498
 5678SOL     OW17932   3.937   1.888   2.053
 5678SOL    HW117933   4.031   1.898   2.086
 5678SOL    HW217934   3.896   1.806   2.092
 5679SOL     OW17935   0.184   3.862   6.111
 5679SOL    HW117936   0.261   3.904   6.062
 5679SOL    HW217937   0.125   3.814   6.046
 5680SOL     OW17938   0.661   5.666   5.248
 5680SOL    HW117939   0.608   5.608   5.186
 5680SOL    HW217940   0.623   5.758   5.250
 5681SOL     OW17941   1.321   3.385   3.052
 5681SOL    HW117942   1.310   3.288   3.072
 5681SOL    HW217943   1.393   3.397   2.983
 5682SOL     OW17944   1.867   4.841   0.817
 5682SOL    HW117945   1.883   4.921   0.760
 5682SOL    HW217946   1.844   4.762   0.760
 5683SOL     OW17947   0.285   0.237   5.539
 5683SOL    HW117948   0.360   0.277   5.591
 5683SOL    HW217949   0.222   0.192   5.602
 5684SOL     OW17950   1.859   3.039   5.116
 5684SOL    HW117951   1.907   2.953   5.134
 5684SOL    HW217952   1.882   3.071   5.024
 5685SOL     OW17953   1.830   1.699   1.923
 5685SOL    HW117954   1.747   1.710   1.977
 5685SOL    HW217955   1.816   1.739   1.832
 5686SOL     OW17956   6.002   5.881   5.541
 5686SOL    HW117957   5.997   5.879   5.441
 5686SOL    HW217958   5.971   5.794   5.578
 5687SOL     OW17959   1.531   0.020   6.792
 5687SOL    HW117960   1.468   0.097   6.799
 5687SOL    HW217961   1.535   6.996   6.880
 5688SOL     OW17962   1.542   2.049   2.829
 5688SOL    HW117963   1.507   2.101   2.906
 5688SOL    HW217964   1.642   2.039   2.838
 5689SOL     OW17965   7.017   2.437   1.003
 5689SOL    HW117966   6.994   2.516   1.060
 5689SOL    HW217967   0.078   2.395   1.036
 5690SOL     OW17968   3.217   5.277   0.009
 5690SOL    HW117969   3.271   5.357   7.006
 5690SOL    HW217970   3.145   5.306   0.073
 5691SOL     OW17971   4.733   2.782   3.651
 5691SOL    HW117972   4.667   2.857   3.657
 5691SOL    HW217973   4.768   2.776   3.558
 5692SOL     OW17974   6.339   5.086   1.791
 5692SOL    HW117975   6.396   5.049   1.865
 5692SOL    HW217976   6.353   5.032   1.709
 5693SOL     OW17977   2.982   1.028   2.684
 5693SOL    HW117978   2.978   1.127   2.696
 5693SOL    HW217979   3.057   0.990   2.738
 5694SOL     OW17980   0.398   0.046   0.940
 5694SOL    HW117981   0.348   7.006   0.882
 5694SOL    HW217982   0.496   0.029   0.933
 5695SOL     OW17983   2.176   1.211   1.877
 5695SOL    HW117984   2.269   1.194   1.912
 5695SOL    HW217985   2.113   1.146   1.919
 5696SOL     OW17986   6.952   0.346   3.778
 5696SOL    HW117987   0.013   0.305   3.746
 5696SOL    HW217988   6.911   0.399   3.704
 5697SOL     OW17989   6.159   1.986   0.591
 5697SOL    HW117990   6.193   2.030   0.674
 5697SOL    HW217991   6.104   1.907   0.616
 5698SOL     OW17992   2.953   2.157   3.208
 5698SOL    HW117993   3.006   2.160   3.293
 5698SOL    HW217994   2.987   2.082   3.150
 5699SOL     OW17995   2.512   2.439   2.494
 5699SOL    HW117996   2.543   2.438   2.399
 5699SOL    HW217997   2.568   2.377   2.548
 5700SOL     OW17998   5.587   6.775   2.317
 5700SOL    HW117999   5.683   6.802   2.327
 5700SOL    HW218000   5.532   6.854   2.290
 5701SOL     OW18001   1.746   0.363   0.904
 5701SOL    HW118002   1.725   0.287   0.965
 5701SOL    HW218003   1.765   0.329   0.812
 5702SOL     OW18004   1.382   6.546   5.088
 5702SOL    HW118005   1.379   6.513   4.994
 5702SOL    HW218006   1.303   6.604   5.106
 5703SOL     OW18007   1.035   2.641   6.169
 5703SOL    HW118008   1.052   2.686   6.081
 5703SOL    HW218009   1.122   2.620   6.213
 5704SOL     OW18010   4.138   5.864   4.355
 5704SOL    HW118011   4.214   5.806   4.329
 5704SOL    HW218012   4.082   5.817   4.423
 5705SOL     OW18013   5.576   1.095   4.847
 5705SOL    HW118014   5.631   1.171   4.812
 5705SOL    HW218015   5.508   1.068   4.778
 5706SOL     OW18016   5.300   1.363   1.157
 5706SOL    HW118017   5.260   1.280   1.118
 5706SOL    HW218018   5.299   1.357   1.257
 5707SOL     OW18019   5.691   5.687   1.354
 5707SOL    HW118020   5.725   5.641   1.272
 5707SOL    HW218021   5.596   5.714   1.341
 5708SOL     OW18022   5.134   6.210   2.326
 5708SOL    HW118023   5.043   6.210   2.284
 5708SOL    HW218024   5.196   6.268   2.271
 5709SOL     OW18025   0.522   2.933   2.201
 5709SOL    HW118026   0.611   2.910   2.241
 5709SOL    HW218027   0.469   2.986   2.267
 5710SOL     OW18028   5.287   1.527   0.912
 5710SOL    HW118029   5.294   1.623   0.939
 5710SOL    HW218030   5.309   1.469   0.990
 5711SOL     OW18031   4.498   1.498   2.004
 5711SOL    HW118032   4.513   1.596   1.987
 5711SOL    HW218033   4.582   1.456   2.037
 5712SOL     OW18034   6.618   6.494   6.785
 5712SOL    HW118035   6.717   6.494   6.792
 5712SOL    HW218036   6.581   6.413   6.830
 5713SOL     OW18037   0.988   1.598   0.620
 5713SOL    HW118038   0.989   1.694   0.647
 5713SOL    HW218039   0.898   1.559   0.639
 5714SOL     OW18040   5.689   0.328   1.065
 5714SOL    HW118041   5.699   0.313   1.163
 5714SOL    HW218042   5.774   0.302   1.019
 5715SOL     OW18043   6.832   6.580   1.272
 5715SOL    HW118044   6.864   6.595   1.366
 5715SOL    HW218045   6.860   6.656   1.214
 5716SOL     OW18046   0.609   5.020   5.544
 5716SOL    HW118047   0.563   5.053   5.626
 5716SOL    HW218048   0.636   4.924   5.557
 5717SOL     OW18049   0.237   5.278   3.252
 5717SOL    HW118050   0.334   5.264   3.275
 5717SOL    HW218051   0.216   5.232   3.166
 5718SOL     OW18052   0.959   4.100   0.322
 5718SOL    HW118053   0.860   4.102   0.336
 5718SOL    HW218054   0.990   4.005   0.317
 5719SOL     OW18055   3.055   3.024   0.600
 5719SOL    HW118056   3.114   2.978   0.667
 5719SOL    HW218057   2.960   3.015   0.628
 5720SOL     OW18058   2.934   4.687   6.401
 5720SOL    HW118059   3.000   4.720   6.469
 5720SOL    HW218060   2.859   4.641   6.447
 5721SOL     OW18061   0.858   3.102   0.663
 5721SOL    HW118062   0.775   3.086   0.715
 5721SOL    HW218063   0.911   3.174   0.707
 5722SOL     OW18064   1.597   0.387   5.865
 5722SOL    HW118065   1.651   0.357   5.944
 5722SOL    HW218066   1.645   0.364   5.781
 5723SOL     OW18067   4.167   3.334   0.196
 5723SOL    HW118068   4.177   3.239   0.224
 5723SOL    HW218069   4.102   3.380   0.256
 5724SOL     OW18070   6.492   1.951   5.983
 5724SOL    HW118071   6.457   1.926   6.074
 5724SOL    HW218072   6.431   1.914   5.913
 5725SOL     OW18073   0.040   4.542   4.577
 5725SOL    HW118074   0.104   4.616   4.598
 5725SOL    HW218075   7.003   4.527   4.655
 5726SOL     OW18076   3.990   4.833   1.988
 5726SOL    HW118077   4.058   4.764   2.011
 5726SOL    HW218078   3.968   4.828   1.891
 5727SOL     OW18079   1.375   3.189   5.840
 5727SOL    HW118080   1.412   3.282   5.838
 5727SOL    HW218081   1.384   3.148   5.749
 5728SOL     OW18082   2.986   6.460   4.737
 5728SOL    HW118083   2.948   6.369   4.722
 5728SOL    HW218084   2.930   6.509   4.803
 5729SOL     OW18085   2.996   1.859   4.623
 5729SOL    HW118086   2.905   1.829   4.595
 5729SOL    HW218087   2.994   1.956   4.647
 5730SOL     OW18088   6.601   4.200   5.073
 5730SOL    HW118089   6.652   4.142   5.010
 5730SOL    HW218090   6.580   4.287   5.029
 5731SOL     OW18091   0.487   6.573   2.623
 5731SOL    HW118092   0.406   6.628   2.602
 5731SOL    HW218093   0.549   6.626   2.680
 5732SOL     OW18094   5.389   0.619   3.485
 5732SOL    HW118095   5.473   0.569   3.468
 5732SOL    HW218096   5.339   0.576   3.561
 5733SOL     OW18097   2.861   1.292   4.883
 5733SOL    HW118098   2.938   1.341   4.923
 5733SOL    HW218099   2.802   1.257   4.956
 5734SOL     OW18100   1.788   6.551   4.241
 5734SOL    HW118101   1.704   6.505   4.271
 5734SOL    HW218102   1.843   6.574   4.322
 5735SOL     OW18103   2.859   1.151   1.122
 5735SOL    HW118104   2.837   1.114   1.212
 5735SOL    HW218105   2.857   1.076   1.055
 5736SOL     OW18106   1.486   4.987   0.796
 5736SOL    HW118107   1.513   4.904   0.844
 5736SOL    HW218108   1.423   4.964   0.722
 5737SOL     OW18109   6.067   4.010   6.759
 5737SOL    HW118110   6.009   4.056   6.826
 5737SOL    HW218111   6.162   4.011   6.789
 5738SOL     OW18112   0.423   5.021   4.221
 5738SOL    HW118113   0.401   5.019   4.319
 5738SOL    HW218114   0.338   5.015   4.169
 5739SOL     OW18115   0.465   2.474   0.828
 5739SOL    HW118116   0.560   2.476   0.859
 5739SOL    HW218117   0.418   2.396   0.869
 5740SOL     OW18118   3.991   5.343   0.230
 5740SOL    HW118119   4.089   5.336   0.248
 5740SOL    HW218120   3.946   5.257   0.252
 5741SOL     OW18121   0.299   2.811   2.563
 5741SOL    HW118122   0.260   2.839   2.476
 5741SOL    HW218123   0.388   2.855   2.575
 5742SOL     OW18124   0.677   5.212   3.550
 5742SOL    HW118125   0.672   5.139   3.618
 5742SOL    HW218126   0.759   5.267   3.565
 5743SOL     OW18127   0.691   7.002   5.540
 5743SOL    HW118128   0.631   0.014   5.613
 5743SOL    HW218129   0.656   0.009   5.451
 5744SOL     OW18130   6.334   0.061   1.922
 5744SOL    HW118131   6.328   0.160   1.908
 5744SOL    HW218132   6.430   0.035   1.933
 5745SOL     OW18133   6.588   3.416   2.551
 5745SOL    HW118134   6.632   3.359   2.620
 5745SOL    HW218135   6.575   3.508   2.588
 5746SOL     OW18136   7.002   4.265   6.230
 5746SOL    HW118137   6.997   4.172   6.265
 5746SOL    HW218138   7.019   4.263   6.131
 5747SOL     OW18139   0.086   6.034   3.743
 5747SOL    HW118140   0.116   6.081   3.826
 5747SOL    HW218141   0.076   6.101   3.669
 5748SOL     OW18142   1.398   0.725   4.212
 5748SOL    HW118143   1.340   0.806   4.221
 5748SOL    HW218144   1.494   0.753   4.211
 5749SOL     OW18145   0.448   0.598   3.335
 5749SOL    HW118146   0.460   0.677   3.395
 5749SOL    HW218147   0.386   0.623   3.260
 5750SOL     OW18148   5.202   6.661   2.199
 5750SOL    HW118149   5.103   6.674   2.186
 5750SOL    HW218150   5.225   6.674   2.295
 5751SOL     OW18151   0.782   2.119   6.776
 5751SOL    HW118152   0.880   2.119   6.760
 5751SOL    HW218153   0.760   2.058   6.852
 5752SOL     OW18154   1.732   1.185   6.669
 5752SOL    HW118155   1.715   1.100   6.620
 5752SOL    HW218156   1.730   1.262   6.605
 5753SOL     OW18157   4.451   1.207   6.956
 5753SOL    HW118158   4.387   1.224   0.008
 5753SOL    HW218159   4.402   1.211   6.869
 5754SOL     OW18160   6.161   5.707   0.557
 5754SOL    HW118161   6.121   5.616   0.549
 5754SOL    HW218162   6.206   5.716   0.645
 5755SOL     OW18163   3.378   3.623   1.739
 5755SOL    HW118164   3.349   3.528   1.744
 5755SOL    HW218165   3.388   3.660   1.832
 5756SOL     OW18166   6.450   6.944   4.339
 5756SOL    HW118167   6.531   7.002   4.329
 5756SOL    HW218168   6.474   6.849   4.321
 5757SOL     OW18169   6.412   6.223   1.640
 5757SOL    HW118170   6.313   6.228   1.626
 5757SOL    HW218171   6.450   6.151   1.583
 5758SOL     OW18172   2.937   0.682   5.573
 5758SOL    HW118173   2.960   0.716   5.664
 5758SOL    HW218174   2.876   0.748   5.528
 5759SOL     OW18175   1.119   0.930   6.016
 5759SOL    HW118176   1.171   0.989   5.954
 5759SOL    HW218177   1.109   0.840   5.976
 5760SOL     OW18178   6.808   6.115   1.501
 5760SOL    HW118179   6.807   6.027   1.547
 5760SOL    HW218180   6.740   6.116   1.428
 5761SOL     OW18181   4.241   0.780   4.210
 5761SOL    HW118182   4.194   0.821   4.288
 5761SOL    HW218183   4.175   0.738   4.149
 5762SOL     OW18184   5.137   6.576   1.207
 5762SOL    HW118185   5.068   6.515   1.246
 5762SOL    HW218186   5.163   6.543   1.116
 5763SOL     OW18187   3.481   1.147   0.418
 5763SOL    HW118188   3.534   1.175   0.498
 5763SOL    HW218189   3.402   1.093   0.448
 5764SOL     OW18190   3.473   2.817   6.828
 5764SOL    HW118191   3.448   2.874   6.749
 5764SOL    HW218192   3.571   2.799   6.826
 5765SOL     OW18193   6.904   5.468   6.787
 5765SOL    HW118194   6.831   5.523   6.829
 5765SOL    HW218195   6.873   5.373   6.778
 5766SOL     OW18196   2.120   1.556   2.457
 5766SOL    HW118197   2.195   1.570   2.523
 5766SOL    HW218198   2.151   1.496   2.384
 5767SOL     OW18199   5.160   6.317   0.452
 5767SOL    HW118200   5.177   6.220   0.440
 5767SOL    HW218201   5.093   6.348   0.384
 5768SOL     OW18202   6.174   6.564   1.700
 5768SOL    HW118203   6.179   6.599   1.793
 5768SOL    HW218204   6.214   6.473   1.697
 5769SOL     OW18205   0.371   4.476   2.882
 5769SOL    HW118206   0.326   4.563   2.861
 5769SOL    HW218207   0.315   4.425   2.946
 5770SOL     OW18208   4.969   2.150   1.519
 5770SOL    HW118209   4.963   2.194   1.430
 5770SOL    HW218210   4.903   2.190   1.581
 5771SOL     OW18211   1.138   0.444   1.927
 5771SOL    HW118212   1.056   0.417   1.977
 5771SOL    HW218213   1.185   0.518   1.975
 5772SOL     OW18214   6.637   5.598   5.690
 5772SOL    HW118215   6.732   5.594   5.720
 5772SOL    HW218216   6.593   5.509   5.706
 5773SOL     OW18217   5.472   6.429   4.530
 5773SOL    HW118218   5.525   6.361   4.580
 5773SOL    HW218219   5.374   6.406   4.534
 5774SOL     OW18220   2.117   5.032   2.094
 5774SOL    HW118221   2.124   4.933   2.105
 5774SOL    HW218222   2.148   5.078   2.177
 5775SOL     OW18223   0.862   0.722   1.116
 5775SOL    HW118224   0.858   0.751   1.212
 5775SOL    HW218225   0.920   0.786   1.065
 5776SOL     OW18226   5.087   1.121   5.730
 5776SOL    HW118227   5.115   1.053   5.798
 5776SOL    HW218228   5.159   1.130   5.661
 5777SOL     OW18229   5.852   6.514   4.516
 5777SOL    HW118230   5.792   6.547   4.444
 5777SOL    HW218231   5.847   6.576   4.595
 5778SOL     OW18232   2.663   6.781   3.857
 5778SOL    HW118233   2.739   6.795   3.921
 5778SOL    HW218234   2.588   6.842   3.880
 5779SOL     OW18235   4.015   7.002   2.164
 5779SOL    HW118236   3.948   6.966   2.228
 5779SOL    HW218237   4.081   0.036   2.214
 5780SOL     OW18238   6.746   4.628   0.223
 5780SOL    HW118239   6.705   4.554   0.169
 5780SOL    HW218240   6.723   4.716   0.182
 5781SOL     OW18241   4.111   4.138   5.786
 5781SOL    HW118242   4.124   4.189   5.701
 5781SOL    HW218243   4.059   4.193   5.851
 5782SOL     OW18244   4.947   1.614   2.773
 5782SOL    HW118245   4.880   1.544   2.798
 5782SOL    HW218246   4.909   1.704   2.793
 5783SOL     OW18247   3.299   6.136   3.014
 5783SOL    HW118248   3.238   6.057   3.019
 5783SOL    HW218249   3.259   6.212   3.066
 5784SOL     OW18250   0.797   6.495   1.929
 5784SOL    HW118251   0.888   6.455   1.932
 5784SOL    HW218252   0.784   6.557   2.006
 5785SOL     OW18253   2.594   1.475   6.505
 5785SOL    HW118254   2.673   1.511   6.455
 5785SOL    HW218255   2.627   1.419   6.582
 5786SOL     OW18256   2.003   1.726   6.697
 5786SOL    HW118257   2.052   1.755   6.615
 5786SOL    HW218258   2.068   1.685   6.761
 5787SOL     OW18259   0.578   1.901   5.936
 5787SOL    HW118260   0.606   1.973   5.873
 5787SOL    HW218261   0.604   1.926   6.029
 5788SOL     OW18262   0.634   2.586   1.601
 5788SOL    HW118263   0.652   2.632   1.514
 5788SOL    HW218264   0.717   2.539   1.632
 5789SOL     OW18265   3.069   0.381   0.564
 5789SOL    HW118266   2.975   0.356   0.587
 5789SOL    HW218267   3.068   0.437   0.481
 5790SOL     OW18268   6.387   6.373   2.546
 5790SOL    HW118269   6.302   6.336   2.509
 5790SOL    HW218270   6.372   6.468   2.574
 5791SOL     OW18271   4.016   0.843   0.914
 5791SOL    HW118272   3.940   0.907   0.911
 5791SOL    HW218273   3.996   0.770   0.979
 5792SOL     OW18274   4.372   2.091   2.857
 5792SOL    HW118275   4.299   2.157   2.872
 5792SOL    HW218276   4.338   1.999   2.873
 5793SOL     OW18277   4.464   2.227   0.784
 5793SOL    HW118278   4.564   2.221   0.775
 5793SOL    HW218279   4.441   2.245   0.880
 5794SOL     OW18280   3.258   6.389   6.745
 5794SOL    HW118281   3.216   6.389   6.836
 5794SOL    HW218282   3.226   6.309   6.693
 5795SOL     OW18283   1.183   1.298   1.881
 5795SOL    HW118284   1.210   1.267   1.972
 5795SOL    HW218285   1.264   1.300   1.822
 5796SOL     OW18286   4.591   0.706   5.673
 5796SOL    HW118287   4.682   0.681   5.705
 5796SOL    HW218288   4.543   0.756   5.745
 5797SOL     OW18289   5.982   1.795   0.281
 5797SOL    HW118290   5.971   1.782   0.183
 5797SOL    HW218291   6.068   1.754   0.312
 5798SOL     OW18292   2.008   2.849   4.859
 5798SOL    HW118293   2.034   2.943   4.879
 5798SOL    HW218294   1.998   2.798   4.945
 5799SOL     OW18295   2.785   0.401   3.986
 5799SOL    HW118296   2.810   0.305   3.974
 5799SOL    HW218297   2.694   0.416   3.946
 5800SOL     OW18298   1.742   6.198   1.918
 5800SOL    HW118299   1.725   6.129   1.848
 5800SOL    HW218300   1.735   6.156   2.009
 5801SOL     OW18301   1.617   2.613   2.999
 5801SOL    HW118302   1.581   2.620   2.906
 5801SOL    HW218303   1.615   2.518   3.028
 5802SOL     OW18304   0.165   0.101   2.937
 5802SOL    HW118305   0.177   0.022   2.997
 5802SOL    HW218306   0.235   0.170   2.956
 5803SOL     OW18307   0.180   6.587   4.573
 5803SOL    HW118308   0.091   6.541   4.576
 5803SOL    HW218309   0.170   6.677   4.532
 5804SOL     OW18310   5.847   2.417   3.221
 5804SOL    HW118311   5.876   2.342   3.161
 5804SOL    HW218312   5.776   2.385   3.282
 5805SOL     OW18313   0.945   2.686   1.206
 5805SOL    HW118314   0.968   2.588   1.204
 5805SOL    HW218315   0.866   2.702   1.146
 5806SOL     OW18316   6.524   4.136   1.496
 5806SOL    HW118317   6.446   4.094   1.542
 5806SOL    HW218318   6.494   4.176   1.409
 5807SOL     OW18319   0.697   0.633   2.856
 5807SOL    HW118320   0.695   0.729   2.829
 5807SOL    HW218321   0.714   0.626   2.955
 5808SOL     OW18322   6.566   5.840   5.828
 5808SOL    HW118323   6.518   5.903   5.767
 5808SOL    HW218324   6.584   5.754   5.780
 5809SOL     OW18325   6.782   3.404   4.658
 5809SOL    HW118326   6.869   3.359   4.680
 5809SOL    HW218327   6.706   3.343   4.680
 5810SOL     OW18328   1.105   6.351   5.159
 5810SOL    HW118329   1.098   6.360   5.258
 5810SOL    HW218330   1.141   6.436   5.120
 5811SOL     OW18331   3.167   4.713   0.239
 5811SOL    HW118332   3.174   4.770   0.321
 5811SOL    HW218333   3.071   4.710   0.209
 5812SOL     OW18334   6.612   2.182   6.166
 5812SOL    HW118335   6.582   2.111   6.103
 5812SOL    HW218336   6.616   2.270   6.118
 5813SOL     OW18337   6.301   5.701   1.125
 5813SOL    HW118338   6.381   5.678   1.069
 5813SOL    HW218339   6.290   5.632   1.196
 5814SOL     OW18340   4.912   1.783   2.442
 5814SOL    HW118341   5.003   1.755   2.409
 5814SOL    HW218342   4.856   1.702   2.459
 5815SOL     OW18343   6.769   4.590   5.079
 5815SOL    HW118344   6.806   4.582   5.172
 5815SOL    HW218345   6.688   4.649   5.081
 5816SOL     OW18346   0.099   4.104   1.217
 5816SOL    HW118347   0.187   4.058   1.210
 5816SOL    HW218348   0.033   4.043   1.261
 5817SOL     OW18349   6.100   2.834   3.951
 5817SOL    HW118350   6.056   2.921   3.927
 5817SOL    HW218351   6.189   2.853   3.993
 5818SOL     OW18352   2.485   0.393   4.400
 5818SOL    HW118353   2.390   0.417   4.379
 5818SOL    HW218354   2.524   0.341   4.324
 5819SOL     OW18355   3.934   3.788   1.182
 5819SOL    HW118356   4.014   3.814   1.128
 5819SOL    HW218357   3.944   3.694   1.214
 5820SOL     OW18358   0.722   6.533   2.453
 5820SOL    HW118359   0.663   6.592   2.397
 5820SOL    HW218360   0.667   6.490   2.525
 5821SOL     OW18361   4.936   6.363   2.125
 5821SOL    HW118362   4.965   6.408   2.041
 5821SOL    HW218363   4.838   6.380   2.139
 5822SOL     OW18364   0.828   3.815   3.480
 5822SOL    HW118365   0.922   3.818   3.513
 5822SOL    HW218366   0.783   3.903   3.497
 5823SOL     OW18367   2.726   6.531   4.897
 5823SOL    HW118368   2.652   6.465   4.911
 5823SOL    HW218369   2.708   6.585   4.815
 5824SOL     OW18370   2.492   5.673   2.337
 5824SOL    HW118371   2.499   5.573   2.340
 5824SOL    HW218372   2.533   5.712   2.420
 5825SOL     OW18373   3.598   2.047   4.440
 5825SOL    HW118374   3.692   2.051   4.474
 5825SOL    HW218375   3.535   2.063   4.515
 5826SOL     OW18376   1.605   5.974   5.654
 5826SOL    HW118377   1.599   5.901   5.586
 5826SOL    HW218378   1.674   6.041   5.626
 5827SOL     OW18379   2.166   3.871   4.096
 5827SOL    HW118380   2.171   3.795   4.162
 5827SOL    HW218381   2.071   3.882   4.066
 5828SOL     OW18382   4.646   0.208   5.228
 5828SOL    HW118383   4.615   0.113   5.219
 5828SOL    HW218384   4.613   0.245   5.315
 5829SOL     OW18385   1.685   1.333   2.811
 5829SOL    HW118386   1.612   1.381   2.762
 5829SOL    HW218387   1.752   1.400   2.843
 5830SOL     OW18388   5.221   4.902   4.946
 5830SOL    HW118389   5.205   4.894   5.044
 5830SOL    HW218390   5.167   4.978   4.910
 5831SOL     OW18391   2.689   1.806   4.252
 5831SOL    HW118392   2.636   1.888   4.274
 5831SOL    HW218393   2.785   1.832   4.237
 5832SOL     OW18394   2.794   4.959   3.510
 5832SOL    HW118395   2.724   4.887   3.512
 5832SOL    HW218396   2.836   4.967   3.600
 5833SOL     OW18397   2.200   4.635   1.538
 5833SOL    HW118398   2.267   4.604   1.605
 5833SOL    HW218399   2.246   4.666   1.455
 5834SOL     OW18400   5.918   1.890   6.088
 5834SOL    HW118401   5.928   1.884   6.188
 5834SOL    HW218402   5.832   1.847   6.061
 5835SOL     OW18403   3.757   0.843   3.895
 5835SOL    HW118404   3.779   0.846   3.797
 5835SOL    HW218405   3.718   0.931   3.923
 5836SOL     OW18406   5.371   4.926   1.140
 5836SOL    HW118407   5.437   4.958   1.208
 5836SOL    HW218408   5.279   4.935   1.177
 5837SOL     OW18409   1.978   4.055   0.285
 5837SOL    HW118410   2.020   4.108   0.358
 5837SOL    HW218411   1.882   4.038   0.307
 5838SOL     OW18412   2.787   3.042   0.598
 5838SOL    HW118413   2.821   3.084   0.513
 5838SOL    HW218414   2.695   3.006   0.582
 5839SOL     OW18415   2.304   1.797   1.156
 5839SOL    HW118416   2.340   1.786   1.063
 5839SOL    HW218417   2.339   1.882   1.195
 5840SOL     OW18418   5.922   4.143   2.352
 5840SOL    HW118419   5.895   4.047   2.358
 5840SOL    HW218420   6.020   4.149   2.332
 5841SOL     OW18421   5.222   1.963   0.846
 5841SOL    HW118422   5.287   2.039   0.838
 5841SOL    HW218423   5.215   1.915   0.759
 5842SOL     OW18424   3.845   2.084   2.273
 5842SOL    HW118425   3.920   2.031   2.232
 5842SOL    HW218426   3.791   2.126   2.200
 5843SOL     OW18427   2.835   2.597   1.106
 5843SOL    HW118428   2.766   2.537   1.147
 5843SOL    HW218429   2.884   2.548   1.034
 5844SOL     OW18430   6.729   5.418   5.352
 5844SOL    HW118431   6.800   5.418   5.423
 5844SOL    HW218432   6.768   5.388   5.265
 5845SOL     OW18433   2.093   6.102   2.977
 5845SOL    HW118434   2.027   6.138   3.043
 5845SOL    HW218435   2.051   6.027   2.925
 5846SOL     OW18436   0.999   4.505   5.159
 5846SOL    HW118437   0.972   4.578   5.222
 5846SOL    HW218438   0.942   4.508   5.077
 5847SOL     OW18439   2.462   4.014   5.551
 5847SOL    HW118440   2.443   4.090   5.488
 5847SOL    HW218441   2.478   3.930   5.498
 5848SOL     OW18442   3.142   6.381   1.349
 5848SOL    HW118443   3.194   6.318   1.291
 5848SOL    HW218444   3.056   6.403   1.305
 5849SOL     OW18445   2.731   5.907   6.566
 5849SOL    HW118446   2.689   5.836   6.623
 5849SOL    HW218447   2.831   5.897   6.570
 5850SOL     OW18448   5.371   2.051   1.166
 5850SOL    HW118449   5.360   1.965   1.217
 5850SOL    HW218450   5.281   2.089   1.145
 5851SOL     OW18451   1.420   2.764   5.585
 5851SOL    HW118452   1.463   2.754   5.674
 5851SOL    HW218453   1.476   2.720   5.515
 5852SOL     OW18454   4.214   4.981   3.289
 5852SOL    HW118455   4.183   4.897   3.335
 5852SOL    HW218456   4.295   5.016   3.335
 5853SOL     OW18457   4.184   4.501   6.968
 5853SOL    HW118458   4.222   4.424   6.915
 5853SOL    HW218459   4.230   4.586   6.940
 5854SOL     OW18460   2.749   4.375   5.313
 5854SOL    HW118461   2.746   4.406   5.408
 5854SOL    HW218462   2.801   4.441   5.259
 5855SOL     OW18463   1.677   2.208   4.598
 5855SOL    HW118464   1.582   2.182   4.616
 5855SOL    HW218465   1.738   2.138   4.636
 5856SOL     OW18466   0.586   0.901   1.998
 5856SOL    HW118467   0.600   0.999   1.985
 5856SOL    HW218468   0.538   0.863   1.918
 5857SOL     OW18469   6.235   5.525   6.814
 5857SOL    HW118470   6.323   5.477   6.819
 5857SOL    HW218471   6.209   5.536   6.718
 5858SOL     OW18472   2.877   1.569   1.930
 5858SOL    HW118473   2.937   1.574   2.010
 5858SOL    HW218474   2.926   1.601   1.849
 5859SOL     OW18475   5.998   5.055   1.447
 5859SOL    HW118476   5.936   5.124   1.408
 5859SOL    HW218477   6.022   5.080   1.541
 5860SOL     OW18478   1.907   3.081   1.877
 5860SOL    HW118479   1.902   3.020   1.797
 5860SOL    HW218480   1.968   3.041   1.945
 5861SOL     OW18481   5.417   0.083   4.630
 5861SOL    HW118482   5.428   0.164   4.573
 5861SOL    HW218483   5.326   0.043   4.614
 5862SOL     OW18484   0.340   4.940   1.535
 5862SOL    HW118485   0.356   5.004   1.459
 5862SOL    HW218486   0.417   4.944   1.599
 5863SOL     OW18487   4.142   6.642   6.135
 5863SOL    HW118488   4.120   6.727   6.087
 5863SOL    HW218489   4.171   6.663   6.228
 5864SOL     OW18490   3.748   3.438   3.323
 5864SOL    HW118491   3.669   3.376   3.327
 5864SOL    HW218492   3.801   3.429   3.407
 5865SOL     OW18493   6.606   6.489   1.388
 5865SOL    HW118494   6.662   6.514   1.308
 5865SOL    HW218495   6.662   6.495   1.471
 5866SOL     OW18496   3.214   3.629   4.288
 5866SOL    HW118497   3.136   3.652   4.346
 5866SOL    HW218498   3.183   3.571   4.212
 5867SOL     OW18499   4.837   0.791   1.079
 5867SOL    HW118500   4.805   0.746   1.162
 5867SOL    HW218501   4.766   0.784   1.009
 5868SOL     OW18502   2.051   0.828   1.241
 5868SOL    HW118503   1.982   0.806   1.310
 5868SOL    HW218504   2.123   0.759   1.241
 5869SOL     OW18505   2.041   5.269   3.855
 5869SOL    HW118506   2.002   5.332   3.921
 5869SOL    HW218507   2.140   5.264   3.867
 5870SOL     OW18508   3.733   6.481   3.277
 5870SOL    HW118509   3.734   6.387   3.241
 5870SOL    HW218510   3.779   6.483   3.365
 5871SOL     OW18511   3.429   2.858   3.225
 5871SOL    HW118512   3.485   2.877   3.306
 5871SOL    HW218513   3.484   2.872   3.143
 5872SOL     OW18514   3.833   5.024   1.424
 5872SOL    HW118515   3.778   5.107   1.413
 5872SOL    HW218516   3.924   5.049   1.457
 5873SOL     OW18517   4.107   0.026   2.473
 5873SOL    HW118518   4.162   0.077   2.407
 5873SOL    HW218519   4.154   6.965   2.496
 5874SOL     OW18520   0.235   4.106   4.975
 5874SOL    HW118521   0.232   4.163   4.893
 5874SOL    HW218522   0.235   4.010   4.949
 5875SOL     OW18523   4.466   3.139   1.189
 5875SOL    HW118524   4.561   3.136   1.219
 5875SOL    HW218525   4.407   3.161   1.267
 5876SOL     OW18526   3.431   3.402   2.664
 5876SOL    HW118527   3.426   3.474   2.734
 5876SOL    HW218528   3.446   3.445   2.575
 5877SOL     OW18529   4.813   4.321   1.515
 5877SOL    HW118530   4.733   4.355   1.565
 5877SOL    HW218531   4.786   4.299   1.421
 5878SOL     OW18532   0.605   3.658   1.508
 5878SOL    HW118533   0.604   3.599   1.427
 5878SOL    HW218534   0.552   3.614   1.581
 5879SOL     OW18535   1.816   4.510   5.164
 5879SOL    HW118536   1.871   4.433   5.196
 5879SOL    HW218537   1.755   4.540   5.237
 5880SOL     OW18538   2.476   5.051   0.342
 5880SOL    HW118539   2.509   5.127   0.286
 5880SOL    HW218540   2.407   5.085   0.407
 5881SOL     OW18541   1.584   6.352   4.300
 5881SOL    HW118542   1.504   6.354   4.240
 5881SOL    HW218543   1.566   6.406   4.382
 5882SOL     OW18544   4.564   0.892   3.379
 5882SOL    HW118545   4.591   0.876   3.284
 5882SOL    HW218546   4.646   0.906   3.434
 5883SOL     OW18547   1.369   3.039   5.610
 5883SOL    HW118548   1.421   2.955   5.627
 5883SOL    HW218549   1.291   3.019   5.550
 5884SOL     OW18550   6.757   0.989   3.581
 5884SOL    HW118551   6.779   1.039   3.664
 5884SOL    HW218552   6.756   0.891   3.601
 5885SOL     OW18553   5.886   6.460   0.584
 5885SOL    HW118554   5.850   6.461   0.491
 5885SOL    HW218555   5.962   6.395   0.590
 5886SOL     OW18556   5.707   1.763   5.387
 5886SOL    HW118557   5.704   1.672   5.344
 5886SOL    HW218558   5.645   1.764   5.465
 5887SOL     OW18559   2.964   6.749   2.736
 5887SOL    HW118560   2.898   6.773   2.664
 5887SOL    HW218561   2.965   6.650   2.749
 5888SOL     OW18562   6.399   6.037   1.880
 5888SOL    HW118563   6.313   6.031   1.829
 5888SOL    HW218564   6.442   6.125   1.863
 5889SOL     OW18565   3.116   6.855   0.338
 5889SOL    HW118566   3.067   6.888   0.419
 5889SOL    HW218567   3.193   6.916   0.318
 5890SOL     OW18568   4.219   4.831   5.949
 5890SOL    HW118569   4.313   4.860   5.935
 5890SOL    HW218570   4.171   4.900   6.003
 5891SOL     OW18571   1.785   2.767   6.439
 5891SOL    HW118572   1.813   2.673   6.461
 5891SOL    HW218573   1.849   2.806   6.372
 5892SOL     OW18574   3.154   5.751   1.708
 5892SOL    HW118575   3.065   5.733   1.666
 5892SOL    HW218576   3.226   5.707   1.653
 5893SOL     OW18577   1.116   3.249   2.591
 5893SOL    HW118578   1.130   3.243   2.690
 5893SOL    HW218579   1.168   3.327   2.555
 5894SOL     OW18580   1.598   3.739   3.840
 5894SOL    HW118581   1.601   3.664   3.906
 5894SOL    HW218582   1.692   3.761   3.811
 5895SOL     OW18583   4.941   4.962   2.899
 5895SOL    HW118584   4.993   4.936   2.980
 5895SOL    HW218585   4.978   4.915   2.819
 5896SOL     OW18586   5.284   1.427   5.500
 5896SOL    HW118587   5.360   1.458   5.557
 5896SOL    HW218588   5.253   1.337   5.531
 5897SOL     OW18589   4.577   4.004   1.018
 5897SOL    HW118590   4.509   3.932   1.032
 5897SOL    HW218591   4.539   4.092   1.046
 5898SOL     OW18592   1.440   5.906   3.198
 5898SOL    HW118593   1.365   5.931   3.137
 5898SOL    HW218594   1.415   5.926   3.293
 5899SOL     OW18595   5.161   0.890   3.523
 5899SOL    HW118596   5.115   0.832   3.590
 5899SOL    HW218597   5.259   0.895   3.544
 5900SOL     OW18598   3.896   4.998   1.755
 5900SOL    HW118599   3.958   5.013   1.678
 5900SOL    HW218600   3.944   5.019   1.840
 5901SOL     OW18601   3.014   6.250   3.545
 5901SOL    HW118602   2.960   6.231   3.627
 5901SOL    HW218603   3.019   6.168   3.489
 5902SOL     OW18604   5.706   2.634   0.302
 5902SOL    HW118605   5.700   2.670   0.395
 5902SOL    HW218606   5.757   2.699   0.245
 5903SOL     OW18607   0.382   1.903   6.673
 5903SOL    HW118608   0.459   1.848   6.705
 5903SOL    HW218609   0.413   1.995   6.650
 5904SOL     OW18610   1.077   2.925   1.935
 5904SOL    HW118611   1.137   2.874   1.874
 5904SOL    HW218612   0.987   2.882   1.937
 5905SOL     OW18613   6.405   3.652   2.200
 5905SOL    HW118614   6.432   3.674   2.294
 5905SOL    HW218615   6.420   3.732   2.142
 5906SOL     OW18616   6.465   1.089   3.305
 5906SOL    HW118617   6.415   1.154   3.363
 5906SOL    HW218618   6.560   1.119   3.297
 5907SOL     OW18619   1.444   1.100   2.869
 5907SOL    HW118620   1.453   1.188   2.915
 5907SOL    HW218621   1.347   1.083   2.849
 5908SOL     OW18622   0.988   2.748   5.731
 5908SOL    HW118623   0.922   2.673   5.739
 5908SOL    HW218624   1.037   2.757   5.818
 5909SOL     OW18625   6.406   4.631   6.439
 5909SOL    HW118626   6.385   4.676   6.526
 5909SOL    HW218627   6.501   4.599   6.441
 5910SOL     OW18628   1.642   1.700   3.398
 5910SOL    HW118629   1.732   1.664   3.424
 5910SOL    HW218630   1.640   1.799   3.417
 5911SOL     OW18631   6.125   5.733   6.597
 5911SOL    HW118632   6.034   5.699   6.620
 5911SOL    HW218633   6.159   5.790   6.672
 5912SOL     OW18634   0.767   1.496   2.612
 5912SOL    HW118635   0.799   1.567   2.550
 5912SOL    HW218636   0.822   1.413   2.599
 5913SOL     OW18637   6.781   3.414   1.474
 5913SOL    HW118638   6.713   3.477   1.511
 5913SOL    HW218639   6.821   3.453   1.391
 5914SOL     OW18640   1.527   6.729   0.619
 5914SOL    HW118641   1.598   6.797   0.639
 5914SOL    HW218642   1.440   6.761   0.656
 5915SOL     OW18643   4.212   0.447   5.300
 5915SOL    HW118644   4.307   0.457   5.270
 5915SOL    HW218645   4.200   0.360   5.347
 5916SOL     OW18646   0.838   0.249   2.616
 5916SOL    HW118647   0.791   0.256   2.528
 5916SOL    HW218648   0.920   0.193   2.606
 5917SOL     OW18649   3.352   3.480   0.440
 5917SOL    HW118650   3.288   3.481   0.516
 5917SOL    HW218651   3.418   3.406   0.452
 5918SOL     OW18652   3.706   6.799   4.659
 5918SOL    HW118653   3.776   6.870   4.654
 5918SOL    HW218654   3.652   6.811   4.742
 5919SOL     OW18655   3.023   4.054   4.922
 5919SOL    HW118656   2.962   4.119   4.877
 5919SOL    HW218657   3.118   4.074   4.895
 5920SOL     OW18658   1.309   0.304   5.427
 5920SOL    HW118659   1.306   0.258   5.339
 5920SOL    HW218660   1.237   0.267   5.486
 5921SOL     OW18661   2.173   4.794   0.793
 5921SOL    HW118662   2.254   4.781   0.849
 5921SOL    HW218663   2.113   4.715   0.803
 5922SOL     OW18664   4.645   2.608   2.494
 5922SOL    HW118665   4.688   2.632   2.407
 5922SOL    HW218666   4.549   2.583   2.478
 5923SOL     OW18667   6.044   1.032   2.519
 5923SOL    HW118668   6.011   0.962   2.582
 5923SOL    HW218669   5.976   1.047   2.447
 5924SOL     OW18670   6.918   6.233   3.341
 5924SOL    HW118671   6.930   6.173   3.262
 5924SOL    HW218672   6.888   6.323   3.310
 5925SOL     OW18673   4.482   0.962   1.328
 5925SOL    HW118674   4.580   0.982   1.315
 5925SOL    HW218675   4.471   0.897   1.403
 5926SOL     OW18676   5.039   3.354   3.359
 5926SOL    HW118677   4.962   3.373   3.298
 5926SOL    HW218678   5.123   3.345   3.305
 5927SOL     OW18679   1.279   0.033   1.363
 5927SOL    HW118680   1.227   0.099   1.309
 5927SOL    HW218681   1.301   6.977   1.306
 5928SOL     OW18682   2.734   7.023   0.492
 5928SOL    HW118683   2.760   6.940   0.443
 5928SOL    HW218684   2.738   7.006   0.591
 5929SOL     OW18685   1.101   1.086   1.547
 5929SOL    HW118686   1.078   1.019   1.476
 5929SOL    HW218687   1.170   1.149   1.512
 5930SOL     OW18688   1.019   4.645   2.186
 5930SOL    HW118689   1.019   4.622   2.089
 5930SOL    HW218690   0.926   4.669   2.215
 5931SOL     OW18691   5.155   7.020   4.518
 5931SOL    HW118692   5.117   0.048   4.441
 5931SOL    HW218693   5.080   6.986   4.575
 5932SOL     OW18694   3.272   6.052   0.279
 5932SOL    HW118695   3.296   6.082   0.187
 5932SOL    HW218696   3.274   5.952   0.282
 5933SOL     OW18697   6.628   5.513   4.280
 5933SOL    HW118698   6.574   5.485   4.200
 5933SOL    HW218699   6.635   5.436   4.343
 5934SOL     OW18700   3.565   4.415   6.814
 5934SOL    HW118701   3.641   4.425   6.750
 5934SOL    HW218702   3.581   4.335   6.872
 5935SOL     OW18703   1.745   0.827   5.391
 5935SOL    HW118704   1.663   0.881   5.412
 5935SOL    HW218705   1.728   0.772   5.309
 5936SOL     OW18706   3.926   2.994   2.234
 5936SOL    HW118707   3.929   3.056   2.156
 5936SOL    HW218708   3.968   2.907   2.209
 5937SOL     OW18709   1.332   2.917   0.278
 5937SOL    HW118710   1.313   2.821   0.259
 5937SOL    HW218711   1.312   2.972   0.197
 5938SOL     OW18712   0.680   3.069   4.315
 5938SOL    HW118713   0.643   3.019   4.237
 5938SOL    HW218714   0.779   3.062   4.317
 5939SOL     OW18715   4.915   1.085   6.075
 5939SOL    HW118716   4.913   1.003   6.018
 5939SOL    HW218717   4.867   1.160   6.028
 5940SOL     OW18718   5.083   5.047   1.096
 5940SOL    HW118719   4.999   5.049   1.042
 5940SOL    HW218720   5.065   5.087   1.186
 5941SOL     OW18721   1.176   1.519   3.479
 5941SOL    HW118722   1.094   1.556   3.521
 5941SOL    HW218723   1.248   1.589   3.477
 5942SOL     OW18724   4.951   1.936   6.086
 5942SOL    HW118725   5.034   1.980   6.118
 5942SOL    HW218726   4.923   1.866   6.151
 5943SOL     OW18727   1.995   4.402   2.494
 5943SOL    HW118728   2.018   4.461   2.417
 5943SOL    HW218729   1.909   4.356   2.476
 5944SOL     OW18730   6.841   4.037   6.056
 5944SOL    HW118731   6.805   3.958   6.007
 5944SOL    HW218732   6.847   4.017   6.154
 5945SOL     OW18733   7.008   6.642   3.963
 5945SOL    HW118734   6.924   6.695   3.967
 5945SOL    HW218735   0.027   6.639   4.054
 5946SOL     OW18736   3.273   3.007   6.417
 5946SOL    HW118737   3.301   2.920   6.378
 5946SOL    HW218738   3.224   2.992   6.503
 5947SOL     OW18739   3.556   3.742   5.223
 5947SOL    HW118740   3.615   3.795   5.284
 5947SOL    HW218741   3.464   3.782   5.223
 5948SOL     OW18742   4.792   4.083   1.848
 5948SOL    HW118743   4.856   4.007   1.840
 5948SOL    HW218744   4.738   4.091   1.764
 5949SOL     OW18745   1.186   4.138   3.920
 5949SOL    HW118746   1.211   4.208   3.853
 5949SOL    HW218747   1.262   4.073   3.931
 5950SOL     OW18748   1.998   6.667   4.931
 5950SOL    HW118749   2.077   6.723   4.959
 5950SOL    HW218750   1.944   6.644   5.011
 5951SOL     OW18751   0.133   2.770   6.571
 5951SOL    HW118752   0.084   2.702   6.518
 5951SOL    HW218753   0.208   2.727   6.621
 5952SOL     OW18754   3.711   4.087   1.821
 5952SOL    HW118755   3.635   4.122   1.876
 5952SOL    HW218756   3.698   3.989   1.804
 5953SOL     OW18757   6.790   2.896   6.955
 5953SOL    HW118758   6.692   2.920   6.956
 5953SOL    HW218759   6.801   2.801   6.926
 5954SOL     OW18760   2.450   4.970   3.705
 5954SOL    HW118761   2.525   4.909   3.682
 5954SOL    HW218762   2.448   5.046   3.640
 5955SOL     OW18763   4.030   2.692   0.280
 5955SOL    HW118764   3.966   2.617   0.298
 5955SOL    HW218765   3.986   2.779   0.302
 5956SOL     OW18766   4.018   2.596   6.602
 5956SOL    HW118767   4.029   2.566   6.697
 5956SOL    HW218768   4.013   2.696   6.598
 5957SOL     OW18769   6.766   2.330   3.351
 5957SOL    HW118770   6.845   2.356   3.407
 5957SOL    HW218771   6.684   2.374   3.387
 5958SOL     OW18772   2.311   6.148   2.665
 5958SOL    HW118773   2.297   6.242   2.635
 5958SOL    HW218774   2.371   6.101   2.601
 5959SOL     OW18775   4.962   4.310   3.119
 5959SOL    HW118776   5.016   4.271   3.044
 5959SOL    HW218777   5.023   4.352   3.186
 5960SOL     OW18778   5.920   6.983   6.487
 5960SOL    HW118779   6.020   6.988   6.491
 5960SOL    HW218780   5.888   6.912   6.549
 5961SOL     OW18781   2.146   1.932   3.865
 5961SOL    HW118782   2.208   1.906   3.791
 5961SOL    HW218783   2.095   2.014   3.838
 5962SOL     OW18784   5.232   4.902   0.201
 5962SOL    HW118785   5.304   4.938   0.141
 5962SOL    HW218786   5.241   4.803   0.209
 5963SOL     OW18787   1.949   3.875   0.749
 5963SOL    HW118788   1.982   3.818   0.823
 5963SOL    HW218789   1.912   3.817   0.676
 5964SOL     OW18790   1.525   6.729   3.511
 5964SOL    HW118791   1.549   6.814   3.464
 5964SOL    HW218792   1.582   6.719   3.593
 5965SOL     OW18793   2.238   0.301   1.356
 5965SOL    HW118794   2.306   0.335   1.291
 5965SOL    HW218795   2.262   0.209   1.385
 5966SOL     OW18796   3.117   1.647   5.402
 5966SOL    HW118797   3.067   1.597   5.332
 5966SOL    HW218798   3.058   1.662   5.481
 5967SOL     OW18799   4.630   2.023   5.500
 5967SOL    HW118800   4.587   2.106   5.464
 5967SOL    HW218801   4.660   2.039   5.594
 5968SOL     OW18802   6.166   2.061   3.224
 5968SOL    HW118803   6.077   2.032   3.259
 5968SOL    HW218804   6.153   2.115   3.141
 5969SOL     OW18805   5.294   6.420   1.576
 5969SOL    HW118806   5.286   6.440   1.674
 5969SOL    HW218807   5.388   6.391   1.555
 5970SOL     OW18808   5.578   1.915   0.529
 5970SOL    HW118809   5.667   1.942   0.494
 5970SOL    HW218810   5.558   1.966   0.613
 5971SOL     OW18811   6.841   5.114   3.602
 5971SOL    HW118812   6.853   5.080   3.509
 5971SOL    HW218813   6.794   5.202   3.600
 5972SOL     OW18814   5.885   5.172   0.505
 5972SOL    HW118815   5.882   5.160   0.406
 5972SOL    HW218816   5.887   5.269   0.527
 5973SOL     OW18817   3.368   0.876   2.392
 5973SOL    HW118818   3.413   0.899   2.306
 5973SOL    HW218819   3.401   0.937   2.464
 5974SOL     OW18820   5.362   1.298   4.270
 5974SOL    HW118821   5.378   1.395   4.288
 5974SOL    HW218822   5.263   1.281   4.267
 5975SOL     OW18823   3.512   4.894   0.487
 5975SOL    HW118824   3.523   4.850   0.398
 5975SOL    HW218825   3.570   4.976   0.491
 5976SOL     OW18826   1.157   1.989   6.404
 5976SOL    HW118827   1.236   2.046   6.427
 5976SOL    HW218828   1.187   1.913   6.347
 5977SOL     OW18829   0.795   5.768   1.786
 5977SOL    HW118830   0.734   5.779   1.708
 5977SOL    HW218831   0.877   5.720   1.757
 5978SOL     OW18832   3.075   3.924   5.960
 5978SOL    HW118833   3.139   3.878   6.020
 5978SOL    HW218834   3.044   4.010   6.002
 5979SOL     OW18835   5.668   0.716   1.226
 5979SOL    HW118836   5.642   0.697   1.132
 5979SOL    HW218837   5.587   0.714   1.284
 5980SOL     OW18838   3.339   2.601   0.580
 5980SOL    HW118839   3.269   2.608   0.650
 5980SOL    HW218840   3.415   2.545   0.614
 5981SOL     OW18841   3.841   2.527   0.605
 5981SOL    HW118842   3.936   2.546   0.630
 5981SOL    HW218843   3.828   2.539   0.507
 5982SOL     OW18844   5.699   2.897   1.451
 5982SOL    HW118845   5.711   2.878   1.548
 5982SOL    HW218846   5.637   2.830   1.411
 5983SOL     OW18847   6.643   1.426   3.720
 5983SOL    HW118848   6.599   1.345   3.681
 5983SOL    HW218849   6.733   1.401   3.756
 5984SOL     OW18850   5.897   6.377   1.978
 5984SOL    HW118851   5.908   6.290   2.026
 5984SOL    HW218852   5.914   6.453   2.041
 5985SOL     OW18853   6.963   4.796   2.724
 5985SOL    HW118854   6.885   4.779   2.785
 5985SOL    HW218855   6.967   4.894   2.704
 5986SOL     OW18856   3.905   3.063   3.372
 5986SOL    HW118857   3.832   3.063   3.304
 5986SOL    HW218858   3.864   3.059   3.464
 5987SOL     OW18859   6.994   6.365   4.254
 5987SOL    HW118860   6.938   6.447   4.244
 5987SOL    HW218861   0.043   6.366   4.186
 5988SOL     OW18862   1.819   2.551   0.248
 5988SOL    HW118863   1.834   2.623   0.180
 5988SOL    HW218864   1.723   2.551   0.276
 5989SOL     OW18865   2.654   6.835   5.853
 5989SOL    HW118866   2.738   6.886   5.833
 5989SOL    HW218867   2.641   6.764   5.785
 5990SOL     OW18868   2.189   3.858   1.693
 5990SOL    HW118869   2.192   3.867   1.793
 5990SOL    HW218870   2.268   3.904   1.653
 5991SOL     OW18871   5.158   1.167   0.466
 5991SOL    HW118872   5.211   1.194   0.386
 5991SOL    HW218873   5.210   1.187   0.549
 5992SOL     OW18874   2.694   4.699   3.302
 5992SOL    HW118875   2.646   4.718   3.217
 5992SOL    HW218876   2.788   4.733   3.296
 5993SOL     OW18877   5.564   1.846   0.254
 5993SOL    HW118878   5.469   1.864   0.228
 5993SOL    HW218879   5.591   1.908   0.328
 5994SOL     OW18880   0.462   4.442   1.100
 5994SOL    HW118881   0.484   4.539   1.107
 5994SOL    HW218882   0.411   4.425   1.016
 5995SOL     OW18883   5.246   3.872   0.796
 5995SOL    HW118884   5.167   3.850   0.853
 5995SOL    HW218885   5.220   3.871   0.700
 5996SOL     OW18886   2.083   0.372   1.786
 5996SOL    HW118887   2.120   0.281   1.768
 5996SOL    HW218888   2.096   0.429   1.705
 5997SOL     OW18889   6.306   0.383   4.779
 5997SOL    HW118890   6.366   0.359   4.855
 5997SOL    HW218891   6.303   0.308   4.713
 5998SOL     OW18892   6.265   6.606   6.953
 5998SOL    HW118893   6.238   6.644   0.019
 5998SOL    HW218894   6.223   6.517   6.941
 5999SOL     OW18895   5.509   3.854   0.853
 5999SOL    HW118896   5.522   3.867   0.951
 5999SOL    HW218897   5.413   3.871   0.830
 6000SOL     OW18898   1.136   4.761   1.862
 6000SOL    HW118899   1.205   4.817   1.908
 6000SOL    HW218900   1.051   4.812   1.854
 6001SOL     OW18901   0.181   6.265   5.705
 6001SOL    HW118902   0.107   6.263   5.772
 6001SOL    HW218903   0.255   6.323   5.738
 6002SOL     OW18904   5.828   4.637   5.194
 6002SOL    HW118905   5.799   4.701   5.123
 6002SOL    HW218906   5.817   4.543   5.162
 6003SOL     OW18907   2.615   1.385   5.172
 6003SOL    HW118908   2.538   1.398   5.235
 6003SOL    HW218909   2.582   1.388   5.078
 6004SOL     OW18910   5.409   2.990   5.161
 6004SOL    HW118911   5.443   2.902   5.191
 6004SOL    HW218912   5.454   3.015   5.075
 6005SOL     OW18913   4.129   4.244   0.121
 6005SOL    HW118914   4.162   4.325   0.072
 6005SOL    HW218915   4.187   4.226   0.200
 6006SOL     OW18916   2.947   6.209   6.440
 6006SOL    HW118917   2.946   6.265   6.357
 6006SOL    HW218918   2.863   6.154   6.444
 6007SOL     OW18919   2.991   6.671   4.557
 6007SOL    HW118920   3.011   6.595   4.619
 6007SOL    HW218921   2.993   6.639   4.463
 6008SOL     OW18922   2.292   3.940   6.829
 6008SOL    HW118923   2.193   3.930   6.824
 6008SOL    HW218924   2.329   3.877   6.897
 6009SOL     OW18925   2.561   5.488   2.637
 6009SOL    HW118926   2.571   5.444   2.548
 6009SOL    HW218927   2.475   5.539   2.640
 6010SOL     OW18928   6.978   5.330   5.934
 6010SOL    HW118929   6.987   5.389   6.014
 6010SOL    HW218930   0.032   5.345   5.873
 6011SOL     OW18931   5.704   1.857   2.993
 6011SOL    HW118932   5.678   1.863   3.090
 6011SOL    HW218933   5.763   1.778   2.979
 6012SOL     OW18934   6.597   0.856   5.567
 6012SOL    HW118935   6.678   0.798   5.579
 6012SOL    HW218936   6.559   0.843   5.475
 6013SOL     OW18937   6.020   1.674   2.700
 6013SOL    HW118938   5.964   1.610   2.753
 6013SOL    HW218939   6.051   1.748   2.760
 6014SOL     OW18940   4.075   3.251   4.501
 6014SOL    HW118941   4.058   3.199   4.417
 6014SOL    HW218942   4.084   3.348   4.479
 6015SOL     OW18943   6.529   0.102   3.301
 6015SOL    HW118944   6.566   0.137   3.387
 6015SOL    HW218945   6.434   0.073   3.315
 6016SOL     OW18946   4.094   1.891   4.497
 6016SOL    HW118947   4.090   1.881   4.398
 6016SOL    HW218948   4.166   1.955   4.522
 6017SOL     OW18949   1.245   2.099   5.416
 6017SOL    HW118950   1.341   2.125   5.409
 6017SOL    HW218951   1.193   2.175   5.455
 6018SOL     OW18952   2.267   0.598   3.820
 6018SOL    HW118953   2.285   0.555   3.732
 6018SOL    HW218954   2.212   0.537   3.876
 6019SOL     OW18955   6.915   3.371   6.375
 6019SOL    HW118956   6.916   3.449   6.313
 6019SOL    HW218957   6.914   3.286   6.321
 6020SOL     OW18958   0.696   5.748   4.686
 6020SOL    HW118959   0.783   5.775   4.642
 6020SOL    HW218960   0.666   5.821   4.747
 6021SOL     OW18961   4.818   0.354   3.666
 6021SOL    HW118962   4.796   0.370   3.763
 6021SOL    HW218963   4.839   0.257   3.652
 6022SOL     OW18964   6.716   3.933   1.164
 6022SOL    HW118965   6.766   4.010   1.126
 6022SOL    HW218966   6.642   3.907   1.102
 6023SOL     OW18967   4.150   0.045   2.761
 6023SOL    HW118968   4.085   7.011   2.810
 6023SOL    HW218969   4.107   0.079   2.677
 6024SOL     OW18970   0.580   6.577   0.213
 6024SOL    HW118971   0.572   6.508   0.142
 6024SOL    HW218972   0.490   6.614   0.234
 6025SOL     OW18973   3.441   0.422   5.961
 6025SOL    HW118974   3.363   0.417   6.024
 6025SOL    HW218975   3.526   0.430   6.014
 6026SOL     OW18976   5.492   6.158   3.779
 6026SOL    HW118977   5.576   6.160   3.724
 6026SOL    HW218978   5.516   6.167   3.876
 6027SOL     OW18979   6.537   4.164   5.586
 6027SOL    HW118980   6.438   4.170   5.594
 6027SOL    HW218981   6.563   4.068   5.572
 6028SOL     OW18982   5.863   5.654   6.660
 6028SOL    HW118983   5.858   5.614   6.752
 6028SOL    HW218984   5.797   5.607   6.601
 6029SOL     OW18985   2.499   1.553   2.744
 6029SOL    HW118986   2.438   1.632   2.740
 6029SOL    HW218987   2.587   1.581   2.782
 6030SOL     OW18988   6.313   3.361   4.721
 6030SOL    HW118989   6.389   3.301   4.696
 6030SOL    HW218990   6.249   3.366   4.644
 6031SOL     OW18991   6.822   0.099   3.806
 6031SOL    HW118992   6.782   0.106   3.897
 6031SOL    HW218993   6.870   0.184   3.783
 6032SOL     OW18994   2.795   6.652   3.167
 6032SOL    HW118995   2.768   6.720   3.099
 6032SOL    HW218996   2.844   6.697   3.241
 6033SOL     OW18997   0.683   1.557   3.046
 6033SOL    HW118998   0.604   1.573   2.987
 6033SOL    HW218999   0.767   1.578   2.997
 6034SOL     OW19000   0.629   1.010   0.884
 6034SOL    HW119001   0.708   1.070   0.893
 6034SOL    HW219002   0.550   1.064   0.854
 6035SOL     OW19003   1.528   1.319   2.454
 6035SOL    HW119004   1.491   1.354   2.540
 6035SOL    HW219005   1.627   1.308   2.463
 6036SOL     OW19006   6.781   3.629   0.233
 6036SOL    HW119007   6.818   3.549   0.185
 6036SOL    HW219008   6.837   3.649   0.313
 6037SOL     OW19009   4.496   0.699   6.343
 6037SOL    HW119010   4.562   0.774   6.339
 6037SOL    HW219011   4.439   0.710   6.425
 6038SOL     OW19012   2.218   1.246   0.046
 6038SOL    HW119013   2.167   1.224   6.986
 6038SOL    HW219014   2.154   1.276   0.117
 6039SOL     OW19015   3.587   2.867   4.422
 6039SOL    HW119016   3.554   2.851   4.329
 6039SOL    HW219017   3.512   2.898   4.480
 6040SOL     OW19018   6.583   1.271   0.459
 6040SOL    HW119019   6.660   1.238   0.513
 6040SOL    HW219020   6.577   1.370   0.465
 6041SOL     OW19021   0.496   2.981   5.003
 6041SOL    HW119022   0.561   2.937   4.942
 6041SOL    HW219023   0.544   3.022   5.080
 6042SOL     OW19024   2.641   5.778   3.819
 6042SOL    HW119025   2.543   5.758   3.819
 6042SOL    HW219026   2.688   5.712   3.760
 6043SOL     OW19027   2.129   5.730   1.905
 6043SOL    HW119028   2.200   5.717   1.835
 6043SOL    HW219029   2.039   5.721   1.863
 6044SOL     OW19030   6.905   3.635   0.499
 6044SOL    HW119031   6.892   3.537   0.514
 6044SOL    HW219032   6.941   3.677   0.582
 6045SOL     OW19033   4.940   1.558   4.479
 6045SOL    HW119034   4.909   1.650   4.457
 6045SOL    HW219035   5.020   1.563   4.538
 6046SOL     OW19036   3.350   4.069   2.147
 6046SOL    HW119037   3.295   4.034   2.071
 6046SOL    HW219038   3.417   4.000   2.174
 6047SOL     OW19039   0.039   1.340   6.859
 6047SOL    HW119040   0.006   1.384   6.943
 6047SOL    HW219041   0.139   1.335   6.862
 6048SOL     OW19042   6.334   5.718   3.500
 6048SOL    HW119043   6.328   5.818   3.497
 6048SOL    HW219044   6.408   5.692   3.563
 6049SOL     OW19045   5.146   4.627   6.762
 6049SOL    HW119046   5.165   4.704   6.823
 6049SOL    HW219047   5.181   4.646   6.671
 6050SOL     OW19048   2.180   5.455   3.026
 6050SOL    HW119049   2.214   5.538   2.982
 6050SOL    HW219050   2.221   5.375   2.982
 6051SOL     OW19051   0.502   1.469   2.531
 6051SOL    HW119052   0.594   1.481   2.569
 6051SOL    HW219053   0.440   1.536   2.573
 6052SOL     OW19054   5.359   5.901   6.447
 6052SOL    HW119055   5.436   5.931   6.502
 6052SOL    HW219056   5.333   5.808   6.473
 6053SOL     OW19057   3.956   2.070   5.511
 6053SOL    HW119058   3.870   2.040   5.469
 6053SOL    HW219059   4.023   1.996   5.506
 6054SOL     OW19060   4.405   3.527   0.206
 6054SOL    HW119061   4.331   3.594   0.210
 6054SOL    HW219062   4.434   3.505   0.299
 6055SOL     OW19063   2.813   4.410   1.325
 6055SOL    HW119064   2.870   4.369   1.254
 6055SOL    HW219065   2.816   4.352   1.407
 6056SOL     OW19066   5.274   6.566   2.899
 6056SOL    HW119067   5.371   6.550   2.915
 6056SOL    HW219068   5.221   6.530   2.976
 6057SOL     OW19069   5.914   1.274   3.880
 6057SOL    HW119070   5.834   1.261   3.821
 6057SOL    HW219071   5.965   1.188   3.886
 6058SOL     OW19072   0.028   3.234   5.936
 6058SOL    HW119073   6.958   3.218   5.968
 6058SOL    HW219074   0.090   3.235   6.014
 6059SOL     OW19075   4.663   2.463   6.477
 6059SOL    HW119076   4.571   2.424   6.480
 6059SOL    HW219077   4.728   2.394   6.446
 6060SOL     OW19078   1.823   2.082   1.228
 6060SOL    HW119079   1.741   2.065   1.172
 6060SOL    HW219080   1.796   2.098   1.322
 6061SOL     OW19081   2.480   4.815   6.878
 6061SOL    HW119082   2.533   4.734   6.857
 6061SOL    HW219083   2.385   4.789   6.898
 6062SOL     OW19084   2.015   2.307   5.607
 6062SOL    HW119085   1.980   2.378   5.547
 6062SOL    HW219086   2.075   2.349   5.676
 6063SOL     OW19087   4.580   3.769   6.412
 6063SOL    HW119088   4.512   3.810   6.351
 6063SOL    HW219089   4.581   3.670   6.399
 6064SOL     OW19090   5.853   6.134   0.521
 6064SOL    HW119091   5.877   6.193   0.444
 6064SOL    HW219092   5.925   6.065   0.535
 6065SOL     OW19093   1.920   6.095   1.521
 6065SOL    HW119094   1.888   6.054   1.436
 6065SOL    HW219095   1.970   6.179   1.501
 6066SOL     OW19096   5.801   5.851   2.046
 6066SOL    HW119097   5.723   5.890   2.094
 6066SOL    HW219098   5.783   5.755   2.026
 6067SOL     OW19099   6.827   4.875   5.665
 6067SOL    HW119100   6.790   4.831   5.583
 6067SOL    HW219101   6.752   4.903   5.724
 6068SOL     OW19102   3.900   2.006   3.900
 6068SOL    HW119103   3.990   2.050   3.908
 6068SOL    HW219104   3.897   1.927   3.961
 6069SOL     OW19105   0.397   5.259   5.476
 6069SOL    HW119106   0.433   5.264   5.569
 6069SOL    HW219107   0.356   5.169   5.461
 6070SOL     OW19108   2.625   0.786   0.869
 6070SOL    HW119109   2.611   0.690   0.845
 6070SOL    HW219110   2.679   0.831   0.798
 6071SOL     OW19111   6.026   0.329   6.277
 6071SOL    HW119112   5.967   0.334   6.358
 6071SOL    HW219113   6.114   0.289   6.302
 6072SOL     OW19114   6.664   2.711   0.172
 6072SOL    HW119115   6.764   2.709   0.169
 6072SOL    HW219116   6.633   2.804   0.195
 6073SOL     OW19117   4.379   3.860   0.368
 6073SOL    HW119118   4.327   3.874   0.452
 6073SOL    HW219119   4.317   3.829   0.295
 6074SOL     OW19120   1.154   6.196   2.872
 6074SOL    HW119121   1.135   6.280   2.822
 6074SOL    HW219122   1.097   6.122   2.835
 6075SOL     OW19123   6.345   0.041   6.736
 6075SOL    HW119124   6.298   7.010   6.806
 6075SOL    HW219125   6.443   0.029   6.745
 6076SOL     OW19126   0.022   6.741   3.280
 6076SOL    HW119127   0.093   6.696   3.334
 6076SOL    HW219128   6.996   6.673   3.225
 6077SOL     OW19129   4.956   6.105   2.724
 6077SOL    HW119130   4.913   6.092   2.635
 6077SOL    HW219131   5.040   6.158   2.714
 6078SOL     OW19132   5.615   4.685   0.011
 6078SOL    HW119133   5.567   4.688   6.947
 6078SOL    HW219134   5.712   4.706   7.021
 6079SOL     OW19135   3.693   1.679   0.204
 6079SOL    HW119136   3.737   1.741   0.138
 6079SOL    HW219137   3.598   1.665   0.177
 6080SOL     OW19138   6.929   3.818   5.500
 6080SOL    HW119139   6.944   3.841   5.403
 6080SOL    HW219140   6.995   3.868   5.556
 6081SOL     OW19141   2.160   3.833   4.439
 6081SOL    HW119142   2.258   3.834   4.417
 6081SOL    HW219143   2.111   3.777   4.373
 6082SOL     OW19144   4.481   1.129   0.908
 6082SOL    HW119145   4.459   1.154   1.002
 6082SOL    HW219146   4.488   1.030   0.900
 6083SOL     OW19147   4.965   0.651   5.810
 6083SOL    HW119148   4.897   0.582   5.836
 6083SOL    HW219149   5.054   0.625   5.848
 6084SOL     OW19150   6.222   4.940   3.239
 6084SOL    HW119151   6.180   4.871   3.180
 6084SOL    HW219152   6.274   4.895   3.312
 6085SOL     OW19153   0.745   6.329   0.925
 6085SOL    HW119154   0.657   6.282   0.929
 6085SOL    HW219155   0.776   6.333   0.831
 6086SOL     OW19156   4.290   3.597   0.944
 6086SOL    HW119157   4.322   3.503   0.930
 6086SOL    HW219158   4.190   3.598   0.944
 6087SOL     OW19159   3.844   0.670   0.411
 6087SOL    HW119160   3.876   0.597   0.350
 6087SOL    HW219161   3.834   0.634   0.504
 6088SOL     OW19162   3.901   5.896   2.311
 6088SOL    HW119163   3.889   5.988   2.348
 6088SOL    HW219164   3.952   5.900   2.226
 6089SOL     OW19165   6.191   5.522   3.212
 6089SOL    HW119166   6.170   5.444   3.153
 6089SOL    HW219167   6.167   5.499   3.307
 6090SOL     OW19168   3.738   6.096   4.711
 6090SOL    HW119169   3.743   5.996   4.702
 6090SOL    HW219170   3.647   6.127   4.681
 6091SOL     OW19171   0.735   2.594   2.547
 6091SOL    HW119172   0.719   2.668   2.482
 6091SOL    HW219173   0.811   2.537   2.514
 6092SOL     OW19174   2.057   6.602   1.241
 6092SOL    HW119175   1.969   6.640   1.270
 6092SOL    HW219176   2.042   6.541   1.163
 6093SOL     OW19177   2.935   3.203   1.955
 6093SOL    HW119178   2.849   3.196   1.906
 6093SOL    HW219179   3.000   3.257   1.902
 6094SOL     OW19180   0.994   0.426   5.843
 6094SOL    HW119181   1.084   0.395   5.873
 6094SOL    HW219182   0.949   0.354   5.790
 6095SOL     OW19183   4.553   5.266   2.325
 6095SOL    HW119184   4.495   5.188   2.299
 6095SOL    HW219185   4.593   5.250   2.415
 6096SOL     OW19186   4.955   5.836   2.445
 6096SOL    HW119187   4.959   5.769   2.371
 6096SOL    HW219188   4.985   5.794   2.530
 6097SOL     OW19189   2.284   5.273   1.568
 6097SOL    HW119190   2.273   5.302   1.663
 6097SOL    HW219191   2.215   5.204   1.546
 6098SOL     OW19192   6.179   1.529   5.206
 6098SOL    HW119193   6.179   1.577   5.293
 6098SOL    HW219194   6.137   1.587   5.136
 6099SOL     OW19195   3.543   6.890   5.278
 6099SOL    HW119196   3.476   6.943   5.331
 6099SOL    HW219197   3.609   6.849   5.340
 6100SOL     OW19198   0.469   5.571   5.814
 6100SOL    HW119199   0.547   5.517   5.784
 6100SOL    HW219200   0.395   5.565   5.747
 6101SOL     OW19201   0.780   3.017   0.993
 6101SOL    HW119202   0.799   3.111   1.021
 6101SOL    HW219203   0.707   3.016   0.925
 6102SOL     OW19204   2.977   0.437   3.192
 6102SOL    HW119205   3.077   0.437   3.199
 6102SOL    HW219206   2.938   0.388   3.270
 6103SOL     OW19207   5.859   0.966   2.329
 6103SOL    HW119208   5.763   0.936   2.325
 6103SOL    HW219209   5.919   0.886   2.328
 6104SOL     OW19210   6.403   0.728   5.085
 6104SOL    HW119211   6.323   0.670   5.098
 6104SOL    HW219212   6.376   0.824   5.099
 6105SOL     OW19213   3.823   4.880   6.234
 6105SOL    HW119214   3.840   4.967   6.280
 6105SOL    HW219215   3.907   4.826   6.231
 6106SOL     OW19216   6.761   3.953   5.265
 6106SOL    HW119217   6.747   4.030   5.327
 6106SOL    HW219218   6.776   3.988   5.172
 6107SOL     OW19219   6.071   5.155   5.300
 6107SOL    HW119220   5.981   5.191   5.274
 6107SOL    HW219221   6.060   5.065   5.342
 6108SOL     OW19222   3.469   0.724   6.177
 6108SOL    HW119223   3.501   0.662   6.248
 6108SOL    HW219224   3.391   0.776   6.211
 6109SOL     OW19225   6.764   6.782   3.962
 6109SOL    HW119226   6.775   6.852   4.032
 6109SOL    HW219227   6.782   6.822   3.872
 6110SOL     OW19228   1.125   2.113   3.519
 6110SOL    HW119229   1.141   2.022   3.481
 6110SOL    HW219230   1.066   2.106   3.598
 6111SOL     OW19231   2.322   2.566   0.536
 6111SOL    HW119232   2.364   2.549   0.447
 6111SOL    HW219233   2.332   2.663   0.560
 6112SOL     OW19234   4.710   6.703   3.577
 6112SOL    HW119235   4.691   6.608   3.552
 6112SOL    HW219236   4.680   6.763   3.502
 6113SOL     OW19237   2.937   5.252   1.205
 6113SOL    HW119238   2.981   5.199   1.278
 6113SOL    HW219239   2.973   5.224   1.116
 6114SOL     OW19240   4.849   3.714   1.736
 6114SOL    HW119241   4.897   3.637   1.694
 6114SOL    HW219242   4.915   3.785   1.761
 6115SOL     OW19243   6.366   1.071   4.986
 6115SOL    HW119244   6.449   1.121   5.009
 6115SOL    HW219245   6.298   1.084   5.058
 6116SOL     OW19246   6.237   2.979   0.599
 6116SOL    HW119247   6.156   3.023   0.560
 6116SOL    HW219248   6.318   3.034   0.580
 6117SOL     OW19249   1.910   2.324   1.159
 6117SOL    HW119250   1.891   2.304   1.062
 6117SOL    HW219251   1.890   2.243   1.214
 6118SOL     OW19252   6.035   0.820   1.453
 6118SOL    HW119253   6.093   0.767   1.391
 6118SOL    HW219254   6.085   0.902   1.484
 6119SOL     OW19255   0.379   0.989   6.372
 6119SOL    HW119256   0.408   1.026   6.461
 6119SOL    HW219257   0.441   1.021   6.301
 6120SOL     OW19258   3.114   1.289   3.910
 6120SOL    HW119259   3.152   1.381   3.903
 6120SOL    HW219260   3.087   1.257   3.819
 6121SOL     OW19261   3.260   1.210   5.296
 6121SOL    HW119262   3.242   1.196   5.199
 6121SOL    HW219263   3.206   1.145   5.350
 6122SOL     OW19264   4.791   4.716   5.051
 6122SOL    HW119265   4.851   4.742   5.126
 6122SOL    HW219266   4.783   4.616   5.048
 6123SOL     OW19267   6.466   1.750   5.055
 6123SOL    HW119268   6.565   1.739   5.063
 6123SOL    HW219269   6.437   1.828   5.111
 6124SOL     OW19270   2.275   5.978   4.309
 6124SOL    HW119271   2.296   6.071   4.278
 6124SOL    HW219272   2.197   5.942   4.258
 6125SOL     OW19273   3.737   1.174   5.429
 6125SOL    HW119274   3.787   1.254   5.462
 6125SOL    HW219275   3.694   1.128   5.506
 6126SOL     OW19276   5.956   2.857   6.624
 6126SOL    HW119277   5.973   2.932   6.689
 6126SOL    HW219278   5.858   2.838   6.619
 6127SOL     OW19279   4.741   2.251   2.644
 6127SOL    HW119280   4.671   2.237   2.714
 6127SOL    HW219281   4.782   2.162   2.620
 6128SOL     OW19282   5.981   5.782   5.232
 6128SOL    HW119283   6.007   5.693   5.195
 6128SOL    HW219284   6.033   5.854   5.185
 6129SOL     OW19285   2.142   5.827   3.167
 6129SOL    HW119286   2.144   5.895   3.240
 6129SOL    HW219287   2.219   5.764   3.179
 6130SOL     OW19288   6.023   2.727   0.338
 6130SOL    HW119289   5.992   2.758   0.428
 6130SOL    HW219290   6.043   2.629   0.342
 6131SOL     OW19291   6.203   3.098   2.498
 6131SOL    HW119292   6.223   3.004   2.525
 6131SOL    HW219293   6.125   3.099   2.435
 6132SOL     OW19294   4.502   6.100   6.189
 6132SOL    HW119295   4.472   6.102   6.285
 6132SOL    HW219296   4.546   6.012   6.170
 6133SOL     OW19297   0.743   2.263   3.756
 6133SOL    HW119298   0.768   2.354   3.789
 6133SOL    HW219299   0.687   2.272   3.674
 6134SOL     OW19300   0.471   6.702   5.081
 6134SOL    HW119301   0.489   6.765   5.005
 6134SOL    HW219302   0.459   6.609   5.045
 6135SOL     OW19303   6.140   6.252   0.628
 6135SOL    HW119304   6.085   6.268   0.710
 6135SOL    HW219305   6.145   6.154   0.609
 6136SOL     OW19306   1.054   2.306   3.318
 6136SOL    HW119307   1.140   2.342   3.283
 6136SOL    HW219308   1.073   2.232   3.383
 6137SOL     OW19309   6.926   5.176   1.253
 6137SOL    HW119310   6.959   5.185   1.159
 6137SOL    HW219311   6.987   5.114   1.303
 6138SOL     OW19312   5.625   0.541   2.214
 6138SOL    HW119313   5.542   0.502   2.253
 6138SOL    HW219314   5.633   0.515   2.118
 6139SOL     OW19315   2.120   2.068   5.462
 6139SOL    HW119316   2.217   2.087   5.447
 6139SOL    HW219317   2.075   2.152   5.495
 6140SOL     OW19318   2.448   0.009   3.815
 6140SOL    HW119319   2.498   0.086   3.775
 6140SOL    HW219320   2.410   6.976   3.743
 6141SOL     OW19321   1.284   0.433   0.527
 6141SOL    HW119322   1.241   0.342   0.531
 6141SOL    HW219323   1.364   0.434   0.586
 6142SOL     OW19324   0.324   0.178   1.851
 6142SOL    HW119325   0.402   0.229   1.887
 6142SOL    HW219326   0.331   0.082   1.877
 6143SOL     OW19327   0.730   2.751   5.461
 6143SOL    HW119328   0.768   2.710   5.544
 6143SOL    HW219329   0.800   2.808   5.417
 6144SOL     OW19330   3.383   5.871   2.775
 6144SOL    HW119331   3.344   5.855   2.684
 6144SOL    HW219332   3.479   5.900   2.765
 6145SOL     OW19333   5.441   3.148   4.113
 6145SOL    HW119334   5.416   3.056   4.082
 6145SOL    HW219335   5.408   3.163   4.206
 6146SOL     OW19336   5.818   1.279   5.212
 6146SOL    HW119337   5.810   1.183   5.241
 6146SOL    HW219338   5.898   1.289   5.152
 6147SOL     OW19339   1.377   1.842   5.826
 6147SOL    HW119340   1.370   1.849   5.726
 6147SOL    HW219341   1.295   1.881   5.867
 6148SOL     OW19342   4.115   4.953   6.838
 6148SOL    HW119343   4.155   4.911   6.920
 6148SOL    HW219344   4.042   4.895   6.803
 6149SOL     OW19345   3.921   1.915   1.629
 6149SOL    HW119346   3.847   1.956   1.682
 6149SOL    HW219347   3.883   1.846   1.567
 6150SOL     OW19348   0.699   4.874   4.281
 6150SOL    HW119349   0.721   4.822   4.363
 6150SOL    HW219350   0.659   4.962   4.306
 6151SOL     OW19351   3.962   5.320   3.423
 6151SOL    HW119352   3.873   5.312   3.469
 6151SOL    HW219353   3.976   5.243   3.362
 6152SOL     OW19354   0.260   4.299   3.068
 6152SOL    HW119355   0.309   4.214   3.055
 6152SOL    HW219356   0.182   4.284   3.129
 6153SOL     OW19357   5.645   6.203   1.032
 6153SOL    HW119358   5.594   6.281   0.997
 6153SOL    HW219359   5.594   6.161   1.107
 6154SOL     OW19360   4.256   4.655   2.851
 6154SOL    HW119361   4.166   4.611   2.843
 6154SOL    HW219362   4.260   4.709   2.935
 6155SOL     OW19363   2.031   1.513   3.748
 6155SOL    HW119364   1.971   1.544   3.674
 6155SOL    HW219365   2.031   1.583   3.821
 6156SOL     OW19366   4.635   4.310   2.338
 6156SOL    HW119367   4.639   4.215   2.307
 6156SOL    HW219368   4.563   4.358   2.288
 6157SOL     OW19369   0.413   2.800   1.019
 6157SOL    HW119370   0.468   2.884   1.015
 6157SOL    HW219371   0.375   2.782   0.928
 6158SOL     OW19372   3.048   0.777   5.824
 6158SOL    HW119373   3.136   0.748   5.863
 6158SOL    HW219374   3.061   0.860   5.770
 6159SOL     OW19375   5.645   2.057   0.757
 6159SOL    HW119376   5.709   2.118   0.803
 6159SOL    HW219377   5.642   1.969   0.805
 6160SOL     OW19378   0.791   0.001   0.977
 6160SOL    HW119379   0.859   6.972   0.926
 6160SOL    HW219380   0.808   0.099   0.964
 6161SOL     OW19381   5.450   3.747   6.814
 6161SOL    HW119382   5.409   3.825   6.862
 6161SOL    HW219383   5.524   3.709   6.869
 6162SOL     OW19384   6.018   6.061   1.224
 6162SOL    HW119385   5.935   6.052   1.280
 6162SOL    HW219386   6.039   6.158   1.213
 6163SOL     OW19387   6.145   6.087   3.146
 6163SOL    HW119388   6.070   6.121   3.090
 6163SOL    HW219389   6.160   5.990   3.125
 6164SOL     OW19390   3.402   3.620   4.495
 6164SOL    HW119391   3.452   3.706   4.504
 6164SOL    HW219392   3.350   3.621   4.409
 6165SOL     OW19393   3.318   0.736   0.089
 6165SOL    HW119394   3.386   0.743   0.162
 6165SOL    HW219395   3.328   0.648   0.042
 6166SOL     OW19396   3.489   1.116   6.137
 6166SOL    HW119397   3.424   1.054   6.094
 6166SOL    HW219398   3.582   1.088   6.114
 6167SOL     OW19399   1.378   3.346   2.729
 6167SOL    HW119400   1.379   3.445   2.743
 6167SOL    HW219401   1.464   3.318   2.685
 6168SOL     OW19402   0.944   3.111   4.314
 6168SOL    HW119403   1.005   3.081   4.388
 6168SOL    HW219404   0.987   3.186   4.264
 6169SOL     OW19405   2.736   0.981   0.402
 6169SOL    HW119406   2.731   0.966   0.501
 6169SOL    HW219407   2.829   1.007   0.377
 6170SOL     OW19408   2.582   4.808   1.163
 6170SOL    HW119409   2.572   4.863   1.246
 6170SOL    HW219410   2.631   4.724   1.185
 6171SOL     OW19411   2.038   4.403   1.563
 6171SOL    HW119412   2.026   4.345   1.482
 6171SOL    HW219413   2.096   4.481   1.539
 6172SOL     OW19414   2.731   4.916   1.384
 6172SOL    HW119415   2.777   4.834   1.350
 6172SOL    HW219416   2.679   4.894   1.467
 6173SOL     OW19417   1.390   5.615   2.554
 6173SOL    HW119418   1.309   5.658   2.513
 6173SOL    HW219419   1.467   5.679   2.549
 6174SOL     OW19420   5.746   4.717   1.580
 6174SOL    HW119421   5.825   4.743   1.636
 6174SOL    HW219422   5.762   4.627   1.541
 6175SOL     OW19423   5.316   0.270   4.016
 6175SOL    HW119424   5.360   0.280   4.106
 6175SOL    HW219425   5.240   0.335   4.009
 6176SOL     OW19426   5.963   3.262   0.057
 6176SOL    HW119427   6.060   3.276   0.037
 6176SOL    HW219428   5.953   3.212   0.143
 6177SOL     OW19429   6.304   2.741   2.461
 6177SOL    HW119430   6.344   2.650   2.473
 6177SOL    HW219431   6.205   2.734   2.452
 6178SOL     OW19432   6.573   3.398   1.082
 6178SOL    HW119433   6.548   3.470   1.147
 6178SOL    HW219434   6.591   3.313   1.130
 6179SOL     OW19435   0.570   1.635   5.226
 6179SOL    HW119436   0.663   1.659   5.254
 6179SOL    HW219437   0.505   1.683   5.285
 6180SOL     OW19438   3.004   0.577   6.225
 6180SOL    HW119439   2.947   0.650   6.188
 6180SOL    HW219440   3.038   0.521   6.149
 6181SOL     OW19441   4.273   5.919   6.575
 6181SOL    HW119442   4.205   5.929   6.648
 6181SOL    HW219443   4.344   5.988   6.587
 6182SOL     OW19444   4.774   6.755   5.315
 6182SOL    HW119445   4.689   6.799   5.287
 6182SOL    HW219446   4.852   6.809   5.284
 6183SOL     OW19447   3.017   0.363   2.674
 6183SOL    HW119448   3.031   0.310   2.589
 6183SOL    HW219449   3.073   0.324   2.747
 6184SOL     OW19450   6.715   0.544   5.874
 6184SOL    HW119451   6.677   0.626   5.917
 6184SOL    HW219452   6.813   0.556   5.862
 6185SOL     OW19453   2.581   2.527   6.638
 6185SOL    HW119454   2.570   2.617   6.682
 6185SOL    HW219455   2.587   2.457   6.709
 6186SOL     OW19456   4.571   1.125   4.246
 6186SOL    HW119457   4.482   1.157   4.278
 6186SOL    HW219458   4.581   1.028   4.267
 6187SOL     OW19459   3.254   4.926   4.266
 6187SOL    HW119460   3.187   4.866   4.223
 6187SOL    HW219461   3.215   4.963   4.351
 6188SOL     OW19462   2.944   6.931   2.047
 6188SOL    HW119463   2.937   6.838   2.010
 6188SOL    HW219464   3.039   6.961   2.043
 6189SOL     OW19465   5.104   4.923   3.106
 6189SOL    HW119466   5.134   4.844   3.160
 6189SOL    HW219467   5.182   4.983   3.088
 6190SOL     OW19468   5.346   2.711   5.806
 6190SOL    HW119469   5.264   2.739   5.856
 6190SOL    HW219470   5.318   2.671   5.718
 6191SOL     OW19471   6.765   1.756   6.771
 6191SOL    HW119472   6.707   1.739   6.691
 6191SOL    HW219473   6.750   1.685   6.839
 6192SOL     OW19474   3.429   2.209   0.436
 6192SOL    HW119475   3.412   2.111   0.426
 6192SOL    HW219476   3.432   2.232   0.534
 6193SOL     OW19477   6.539   0.251   1.734
 6193SOL    HW119478   6.532   0.288   1.642
 6193SOL    HW219479   6.551   0.152   1.729
 6194SOL     OW19480   2.611   0.143   0.893
 6194SOL    HW119481   2.690   0.162   0.836
 6194SOL    HW219482   2.617   0.050   0.929
 6195SOL     OW19483   2.461   0.093   5.521
 6195SOL    HW119484   2.546   0.070   5.474
 6195SOL    HW219485   2.423   0.012   5.564
 6196SOL     OW19486   0.817   1.653   5.824
 6196SOL    HW119487   0.873   1.700   5.756
 6196SOL    HW219488   0.731   1.623   5.781
 6197SOL     OW19489   2.450   2.715   1.160
 6197SOL    HW119490   2.495   2.803   1.176
 6197SOL    HW219491   2.352   2.730   1.142
 6198SOL     OW19492   3.668   5.292   2.889
 6198SOL    HW119493   3.729   5.220   2.856
 6198SOL    HW219494   3.676   5.372   2.829
 6199SOL     OW19495   0.292   0.277   6.795
 6199SOL    HW119496   0.386   0.273   6.828
 6199SOL    HW219497   0.246   0.356   6.835
 6200SOL     OW19498   3.998   0.723   5.761
 6200SOL    HW119499   4.032   0.732   5.855
 6200SOL    HW219500   4.076   0.722   5.698
 6201SOL     OW19501   1.982   4.993   4.215
 6201SOL    HW119502   1.898   5.007   4.163
 6201SOL    HW219503   1.964   5.009   4.312
 6202SOL     OW19504   1.976   1.965   1.534
 6202SOL    HW119505   2.018   1.928   1.616
 6202SOL    HW219506   2.022   1.928   1.453
 6203SOL     OW19507   5.982   2.136   3.733
 6203SOL    HW119508   6.061   2.076   3.732
 6203SOL    HW219509   5.990   2.201   3.809
 6204SOL     OW19510   1.301   6.760   5.705
 6204SOL    HW119511   1.203   6.757   5.728
 6204SOL    HW219512   1.341   6.843   5.743
 6205SOL     OW19513   5.040   6.384   0.222
 6205SOL    HW119514   4.951   6.430   0.227
 6205SOL    HW219515   5.097   6.429   0.154
 6206SOL     OW19516   5.472   0.242   3.492
 6206SOL    HW119517   5.396   0.222   3.553
 6206SOL    HW219518   5.495   0.161   3.439
 6207SOL     OW19519   2.240   4.185   4.363
 6207SOL    HW119520   2.249   4.172   4.264
 6207SOL    HW219521   2.154   4.144   4.394
 6208SOL     OW19522   5.471   5.339   5.263
 6208SOL    HW119523   5.537   5.347   5.338
 6208SOL    HW219524   5.490   5.410   5.195
 6209SOL     OW19525   2.279   5.115   1.018
 6209SOL    HW119526   2.283   5.141   1.114
 6209SOL    HW219527   2.185   5.127   0.984
 6210SOL     OW19528   6.699   4.590   2.800
 6210SOL    HW119529   6.753   4.512   2.832
 6210SOL    HW219530   6.677   4.578   2.703
 6211SOL     OW19531   2.853   1.260   5.311
 6211SOL    HW119532   2.788   1.292   5.242
 6211SOL    HW219533   2.804   1.236   5.395
 6212SOL     OW19534   6.564   0.273   3.525
 6212SOL    HW119535   6.475   0.306   3.493
 6212SOL    HW219536   6.616   0.350   3.562
 6213SOL     OW19537   6.929   0.170   0.472
 6213SOL    HW119538   7.003   0.108   0.446
 6213SOL    HW219539   6.955   0.220   0.555
 6214SOL     OW19540   5.177   4.673   1.794
 6214SOL    HW119541   5.220   4.678   1.704
 6214SOL    HW219542   5.086   4.715   1.790
 6215SOL     OW19543   2.858   4.668   1.333
 6215SOL    HW119544   2.828   4.578   1.300
 6215SOL    HW219545   2.861   4.667   1.433
 6216SOL     OW19546   6.648   2.695   2.621
 6216SOL    HW119547   6.697   2.758   2.560
 6216SOL    HW219548   6.583   2.641   2.568
 6217SOL     OW19549   4.607   1.599   1.737
 6217SOL    HW119550   4.648   1.509   1.718
 6217SOL    HW219551   4.645   1.636   1.821
 6218SOL     OW19552   4.732   5.340   4.123
 6218SOL    HW119553   4.635   5.360   4.138
 6218SOL    HW219554   4.744   5.297   4.034
 6219SOL     OW19555   0.131   1.016   4.017
 6219SOL    HW119556   0.071   0.983   4.090
 6219SOL    HW219557   0.198   0.945   3.995
 6220SOL     OW19558   1.432   3.383   5.135
 6220SOL    HW119559   1.365   3.386   5.208
 6220SOL    HW219560   1.516   3.339   5.168
 6221SOL     OW19561   4.281   4.730   4.468
 6221SOL    HW119562   4.266   4.687   4.557
 6221SOL    HW219563   4.300   4.827   4.480
 6222SOL     OW19564   6.897   1.960   1.199
 6222SOL    HW119565   6.921   2.054   1.177
 6222SOL    HW219566   6.862   1.914   1.118
 6223SOL     OW19567   5.377   4.261   4.108
 6223SOL    HW119568   5.400   4.254   4.205
 6223SOL    HW219569   5.440   4.205   4.054
 6224SOL     OW19570   2.633   0.046   4.549
 6224SOL    HW119571   2.547   0.087   4.581
 6224SOL    HW219572   2.682   0.008   4.627
 6225SOL     OW19573   4.040   1.840   6.483
 6225SOL    HW119574   4.048   1.841   6.383
 6225SOL    HW219575   4.089   1.919   6.520
 6226SOL     OW19576   6.828   6.573   4.282
 6226SOL    HW119577   6.768   6.556   4.359
 6226SOL    HW219578   6.774   6.599   4.202
 6227SOL     OW19579   2.743   4.314   6.748
 6227SOL    HW119580   2.737   4.247   6.822
 6227SOL    HW219581   2.653   4.323   6.705
 6228SOL     OW19582   6.719   2.324   2.667
 6228SOL    HW119583   6.638   2.314   2.725
 6228SOL    HW219584   6.717   2.256   2.595
 6229SOL     OW19585   1.602   2.010   1.899
 6229SOL    HW119586   1.566   1.940   1.960
 6229SOL    HW219587   1.701   2.015   1.907
 6230SOL     OW19588   2.468   1.978   3.711
 6230SOL    HW119589   2.548   1.932   3.750
 6230SOL    HW219590   2.403   1.910   3.678
 6231SOL     OW19591   6.545   5.226   1.547
 6231SOL    HW119592   6.455   5.205   1.508
 6231SOL    HW219593   6.612   5.159   1.515
 6232SOL     OW19594   1.143   0.840   0.135
 6232SOL    HW119595   1.181   0.912   0.077
 6232SOL    HW219596   1.186   0.753   0.111
 6233SOL     OW19597   4.058   1.039   6.577
 6233SOL    HW119598   4.087   1.001   6.490
 6233SOL    HW219599   4.013   0.968   6.631
 6234SOL     OW19600   2.485   2.220   3.905
 6234SOL    HW119601   2.441   2.169   3.832
 6234SOL    HW219602   2.418   2.280   3.950
 6235SOL     OW19603   2.122   5.940   2.115
 6235SOL    HW119604   2.135   6.039   2.112
 6235SOL    HW219605   2.118   5.904   2.022
 6236SOL     OW19606   0.009   4.058   6.939
 6236SOL    HW119607   0.011   3.993   7.015
 6236SOL    HW219608   0.047   4.145   6.969
 6237SOL     OW19609   3.842   5.885   6.256
 6237SOL    HW119610   3.897   5.966   6.276
 6237SOL    HW219611   3.883   5.805   6.301
 6238SOL     OW19612   5.183   3.519   0.740
 6238SOL    HW119613   5.195   3.605   0.690
 6238SOL    HW219614   5.273   3.481   0.763
 6239SOL     OW19615   3.424   6.216   3.406
 6239SOL    HW119616   3.456   6.310   3.417
 6239SOL    HW219617   3.411   6.175   3.496
 6240SOL     OW19618   2.926   3.695   0.160
 6240SOL    HW119619   3.005   3.756   0.152
 6240SOL    HW219620   2.916   3.642   0.076
 6241SOL     OW19621   4.823   0.191   2.188
 6241SOL    HW119622   4.878   0.120   2.143
 6241SOL    HW219623   4.884   0.255   2.235
 6242SOL     OW19624   3.826   1.920   3.094
 6242SOL    HW119625   3.727   1.920   3.111
 6242SOL    HW219626   3.871   1.983   3.158
 6243SOL     OW19627   6.491   5.557   3.304
 6243SOL    HW119628   6.450   5.606   3.381
 6243SOL    HW219629   6.427   5.556   3.227
 6244SOL     OW19630   1.572   1.778   2.036
 6244SOL    HW119631   1.557   1.807   2.130
 6244SOL    HW219632   1.493   1.726   2.004
 6245SOL     OW19633   2.374   3.921   0.612
 6245SOL    HW119634   2.350   3.827   0.631
 6245SOL    HW219635   2.468   3.925   0.576
 6246SOL     OW19636   4.458   6.941   0.135
 6246SOL    HW119637   4.555   6.965   0.125
 6246SOL    HW219638   4.402   7.013   0.093
 6247SOL     OW19639   6.867   6.719   2.783
 6247SOL    HW119640   6.806   6.708   2.862
 6247SOL    HW219641   6.822   6.685   2.701
 6248SOL     OW19642   0.658   5.936   0.782
 6248SOL    HW119643   0.649   5.895   0.691
 6248SOL    HW219644   0.746   5.984   0.788
 6249SOL     OW19645   6.337   3.386   6.042
 6249SOL    HW119646   6.252   3.438   6.054
 6249SOL    HW219647   6.411   3.448   6.017
 6250SOL     OW19648   6.901   4.615   6.037
 6250SOL    HW119649   6.950   4.605   6.123
 6250SOL    HW219650   6.913   4.532   5.982
 6251SOL     OW19651   4.430   1.332   0.686
 6251SOL    HW119652   4.457   1.303   0.594
 6251SOL    HW219653   4.441   1.255   0.749
 6252SOL     OW19654   1.717   6.532   4.869
 6252SOL    HW119655   1.740   6.616   4.918
 6252SOL    HW219656   1.795   6.469   4.871
 6253SOL     OW19657   2.871   3.777   1.343
 6253SOL    HW119658   2.787   3.724   1.350
 6253SOL    HW219659   2.918   3.755   1.257
 6254SOL     OW19660   5.189   0.248   0.407
 6254SOL    HW119661   5.090   0.261   0.404
 6254SOL    HW219662   5.231   0.319   0.463
 6255SOL     OW19663   0.275   3.172   3.071
 6255SOL    HW119664   0.301   3.253   3.124
 6255SOL    HW219665   0.232   3.105   3.131
 6256SOL     OW19666   3.808   5.256   4.326
 6256SOL    HW119667   3.858   5.173   4.350
 6256SOL    HW219668   3.743   5.236   4.253
 6257SOL     OW19669   4.320   2.909   6.583
 6257SOL    HW119670   4.335   2.811   6.574
 6257SOL    HW219671   4.226   2.932   6.559
 6258SOL     OW19672   4.653   2.026   3.103
 6258SOL    HW119673   4.601   1.967   3.165
 6258SOL    HW219674   4.611   2.023   3.012
 6259SOL     OW19675   3.354   2.216   1.851
 6259SOL    HW119676   3.320   2.176   1.936
 6259SOL    HW219677   3.454   2.214   1.851
 6260SOL     OW19678   3.341   4.368   1.211
 6260SOL    HW119679   3.290   4.282   1.215
 6260SOL    HW219680   3.278   4.444   1.199
 6261SOL     OW19681   5.068   6.661   6.177
 6261SOL    HW119682   5.103   6.675   6.270
 6261SOL    HW219683   5.015   6.741   6.149
 6262SOL     OW19684   0.476   6.097   5.041
 6262SOL    HW119685   0.404   6.035   5.071
 6262SOL    HW219686   0.482   6.175   5.104
 6263SOL     OW19687   6.496   1.098   1.498
 6263SOL    HW119688   6.568   1.153   1.541
 6263SOL    HW219689   6.445   1.153   1.433
 6264SOL     OW19690   2.795   1.486   0.291
 6264SOL    HW119691   2.880   1.434   0.278
 6264SOL    HW219692   2.772   1.534   0.207
 6265SOL     OW19693   5.899   3.469   0.497
 6265SOL    HW119694   5.870   3.559   0.530
 6265SOL    HW219695   5.941   3.478   0.407
 6266SOL     OW19696   2.466   0.167   2.449
 6266SOL    HW119697   2.518   0.209   2.524
 6266SOL    HW219698   2.527   0.114   2.392
 6267SOL     OW19699   2.606   6.553   0.332
 6267SOL    HW119700   2.668   6.507   0.268
 6267SOL    HW219701   2.619   6.515   0.424
 6268SOL     OW19702   1.830   5.843   2.278
 6268SOL    HW119703   1.881   5.783   2.215
 6268SOL    HW219704   1.886   5.923   2.300
 6269SOL     OW19705   6.284   4.444   6.763
 6269SOL    HW119706   6.345   4.376   6.721
 6269SOL    HW219707   6.306   4.535   6.728
 6270SOL     OW19708   0.034   1.136   3.787
 6270SOL    HW119709   6.965   1.102   3.773
 6270SOL    HW219710   0.074   1.092   3.867
 6271SOL     OW19711   6.011   1.967   1.404
 6271SOL    HW119712   5.916   1.951   1.378
 6271SOL    HW219713   6.049   2.040   1.347
 6272SOL     OW19714   2.400   2.737   3.651
 6272SOL    HW119715   2.433   2.670   3.718
 6272SOL    HW219716   2.362   2.816   3.699
 6273SOL     OW19717   4.194   0.787   2.359
 6273SOL    HW119718   4.231   0.785   2.452
 6273SOL    HW219719   4.138   0.869   2.346
 6274SOL     OW19720   2.765   5.908   6.988
 6274SOL    HW119721   2.686   5.850   7.007
 6274SOL    HW219722   2.791   5.957   0.048
 6275SOL     OW19723   3.357   1.079   4.796
 6275SOL    HW119724   3.402   1.024   4.867
 6275SOL    HW219725   3.372   1.036   4.707
 6276SOL     OW19726   1.416   5.122   3.522
 6276SOL    HW119727   1.425   5.022   3.525
 6276SOL    HW219728   1.417   5.153   3.426
 6277SOL     OW19729   6.130   3.229   4.227
 6277SOL    HW119730   6.035   3.230   4.258
 6277SOL    HW219731   6.135   3.265   4.133
 6278SOL     OW19732   4.336   1.080   3.470
 6278SOL    HW119733   4.252   1.062   3.418
 6278SOL    HW219734   4.409   1.021   3.438
 6279SOL     OW19735   4.534   1.952   6.305
 6279SOL    HW119736   4.625   1.910   6.303
 6279SOL    HW219737   4.483   1.916   6.382
 6280SOL     OW19738   1.374   5.312   5.993
 6280SOL    HW119739   1.421   5.394   6.026
 6280SOL    HW219740   1.397   5.234   6.052
 6281SOL     OW19741   3.270   5.987   4.488
 6281SOL    HW119742   3.306   5.973   4.395
 6281SOL    HW219743   3.213   6.069   4.489
 6282SOL     OW19744   0.696   7.018   3.994
 6282SOL    HW119745   0.600   7.008   3.966
 6282SOL    HW219746   0.750   6.945   3.953
 6283SOL     OW19747   1.046   2.878   5.004
 6283SOL    HW119748   1.132   2.868   5.054
 6283SOL    HW219749   1.046   2.819   4.924
 6284SOL     OW19750   2.632   5.065   6.914
 6284SOL    HW119751   2.600   4.974   6.888
 6284SOL    HW219752   2.560   5.112   6.966
 6285SOL     OW19753   2.139   3.962   2.311
 6285SOL    HW119754   2.096   3.886   2.360
 6285SOL    HW219755   2.075   3.997   2.243
 6286SOL     OW19756   6.493   6.002   4.459
 6286SOL    HW119757   6.467   6.009   4.362
 6286SOL    HW219758   6.487   5.907   4.488
 6287SOL     OW19759   3.765   4.873   2.446
 6287SOL    HW119760   3.835   4.887   2.376
 6287SOL    HW219761   3.677   4.856   2.402
 6288SOL     OW19762   5.862   3.159   0.608
 6288SOL    HW119763   5.779   3.207   0.639
 6288SOL    HW219764   5.939   3.222   0.611
 6289SOL     OW19765   0.886   6.676   2.903
 6289SOL    HW119766   0.917   6.647   2.812
 6289SOL    HW219767   0.945   6.635   2.972
 6290SOL     OW19768   6.111   4.242   3.798
 6290SOL    HW119769   6.075   4.246   3.891
 6290SOL    HW219770   6.129   4.335   3.765
 6291SOL     OW19771   3.863   3.997   3.823
 6291SOL    HW119772   3.905   3.959   3.741
 6291SOL    HW219773   3.813   4.081   3.801
 6292SOL     OW19774   0.044   0.994   1.752
 6292SOL    HW119775   0.062   0.922   1.685
 6292SOL    HW219776   6.972   1.022   1.747
 6293SOL     OW19777   5.990   5.316   5.895
 6293SOL    HW119778   6.047   5.363   5.827
 6293SOL    HW219779   5.979   5.375   5.975
 6294SOL     OW19780   3.762   6.384   1.989
 6294SOL    HW119781   3.824   6.416   1.917
 6294SOL    HW219782   3.783   6.289   2.012
 6295SOL     OW19783   6.852   6.018   5.874
 6295SOL    HW119784   6.895   5.983   5.791
 6295SOL    HW219785   6.832   5.942   5.936
 6296SOL     OW19786   6.241   1.276   3.172
 6296SOL    HW119787   6.310   1.343   3.202
 6296SOL    HW219788   6.279   1.220   3.099
 6297SOL     OW19789   5.769   1.544   5.762
 6297SOL    HW119790   5.815   1.461   5.731
 6297SOL    HW219791   5.798   1.622   5.706
 6298SOL     OW19792   6.639   2.553   4.185
 6298SOL    HW119793   6.662   2.603   4.269
 6298SOL    HW219794   6.591   2.469   4.208
 6299SOL     OW19795   6.594   2.766   0.690
 6299SOL    HW119796   6.496   2.762   0.673
 6299SOL    HW219797   6.636   2.678   0.668
 6300SOL     OW19798   5.168   1.499   3.641
 6300SOL    HW119799   5.087   1.543   3.602
 6300SOL    HW219800   5.143   1.411   3.680
 6301SOL     OW19801   3.490   0.889   0.912
 6301SOL    HW119802   3.492   0.909   1.010
 6301SOL    HW219803   3.396   0.891   0.879
 6302SOL     OW19804   6.364   0.395   2.683
 6302SOL    HW119805   6.412   0.308   2.695
 6302SOL    HW219806   6.398   0.441   2.602
 6303SOL     OW19807   2.679   5.825   4.575
 6303SOL    HW119808   2.617   5.770   4.520
 6303SOL    HW219809   2.747   5.766   4.619
 6304SOL     OW19810   3.921   0.810   4.779
 6304SOL    HW119811   3.962   0.893   4.819
 6304SOL    HW219812   3.943   0.732   4.837
 6305SOL     OW19813   5.632   0.760   2.542
 6305SOL    HW119814   5.669   0.681   2.494
 6305SOL    HW219815   5.541   0.782   2.505
 6306SOL     OW19816   5.962   2.610   3.900
 6306SOL    HW119817   6.009   2.697   3.915
 6306SOL    HW219818   5.863   2.626   3.895
 6307SOL     OW19819   1.874   4.573   0.383
 6307SOL    HW119820   1.871   4.666   0.346
 6307SOL    HW219821   1.968   4.550   0.407
 6308SOL     OW19822   4.043   2.300   6.260
 6308SOL    HW119823   4.043   2.332   6.166
 6308SOL    HW219824   4.095   2.215   6.266
 6309SOL     OW19825   5.869   2.250   5.378
 6309SOL    HW119826   5.779   2.289   5.360
 6309SOL    HW219827   5.859   2.154   5.404
 6310SOL     OW19828   0.003   5.555   4.604
 6310SOL    HW119829   6.950   5.594   4.552
 6310SOL    HW219830   0.000   5.590   4.698
 6311SOL     OW19831   6.122   7.000   4.577
 6311SOL    HW119832   6.157   6.920   4.527
 6311SOL    HW219833   6.032   0.000   4.541
 6312SOL     OW19834   5.570   3.848   5.746
 6312SOL    HW119835   5.490   3.851   5.687
 6312SOL    HW219836   5.624   3.931   5.732
 6313SOL     OW19837   2.331   5.218   4.135
 6313SOL    HW119838   2.267   5.293   4.155
 6313SOL    HW219839   2.362   5.226   4.040
 6314SOL     OW19840   1.342   0.170   3.554
 6314SOL    HW119841   1.422   0.214   3.594
 6314SOL    HW219842   1.280   0.240   3.519
 6315SOL     OW19843   1.971   3.183   0.129
 6315SOL    HW119844   1.932   3.185   0.221
 6315SOL    HW219845   1.899   3.199   0.062
 6316SOL     OW19846   4.207   1.302   4.817
 6316SOL    HW119847   4.177   1.396   4.836
 6316SOL    HW219848   4.288   1.304   4.758
 6317SOL     OW19849   6.505   5.216   4.722
 6317SOL    HW119850   6.421   5.209   4.669
 6317SOL    HW219851   6.544   5.125   4.736
 6318SOL     OW19852   1.776   1.910   4.254
 6318SOL    HW119853   1.714   1.988   4.243
 6318SOL    HW219854   1.870   1.943   4.260
 6319SOL     OW19855   1.216   1.932   2.965
 6319SOL    HW119856   1.234   2.011   2.906
 6319SOL    HW219857   1.283   1.931   3.040
 6320SOL     OW19858   0.492   2.313   2.693
 6320SOL    HW119859   0.453   2.399   2.662
 6320SOL    HW219860   0.420   2.255   2.732
 6321SOL     OW19861   2.065   3.833   6.087
 6321SOL    HW119862   1.993   3.844   6.019
 6321SOL    HW219863   2.127   3.912   6.083
 6322SOL     OW19864   2.663   0.246   6.860
 6322SOL    HW119865   2.565   0.239   6.879
 6322SOL    HW219866   2.688   0.176   6.792
 6323SOL     OW19867   4.759   1.695   1.922
 6323SOL    HW119868   4.803   1.615   1.965
 6323SOL    HW219869   4.830   1.758   1.890
 6324SOL     OW19870   3.297   1.516   0.401
 6324SOL    HW119871   3.355   1.469   0.468
 6324SOL    HW219872   3.268   1.604   0.439
 6325SOL     OW19873   1.737   3.192   3.096
 6325SOL    HW119874   1.712   3.097   3.078
 6325SOL    HW219875   1.678   3.253   3.042
 6326SOL     OW19876   4.390   6.730   1.630
 6326SOL    HW119877   4.417   6.826   1.625
 6326SOL    HW219878   4.471   6.672   1.630
 6327SOL     OW19879   4.089   5.197   5.203
 6327SOL    HW119880   4.134   5.269   5.255
 6327SOL    HW219881   4.084   5.114   5.259
 6328SOL     OW19882   2.482   4.407   0.053
 6328SOL    HW119883   2.514   4.365   0.138
 6328SOL    HW219884   2.429   4.340   0.000
 6329SOL     OW19885   0.622   1.560   3.338
 6329SOL    HW119886   0.645   1.593   3.246
 6329SOL    HW219887   0.693   1.497   3.369
 6330SOL     OW19888   3.358   0.443   0.051
 6330SOL    HW119889   3.285   0.413   0.113
 6330SOL    HW219890   3.377   0.371   7.008
 6331SOL     OW19891   4.867   3.180   1.763
 6331SOL    HW119892   4.787   3.217   1.715
 6331SOL    HW219893   4.839   3.147   1.853
 6332SOL     OW19894   4.462   6.130   2.453
 6332SOL    HW119895   4.494   6.219   2.421
 6332SOL    HW219896   4.362   6.125   2.445
 6333SOL     OW19897   2.518   5.272   2.803
 6333SOL    HW119898   2.575   5.266   2.885
 6333SOL    HW219899   2.537   5.358   2.756
 6334SOL     OW19900   2.093   1.088   2.209
 6334SOL    HW119901   2.149   1.005   2.206
 6334SOL    HW219902   2.030   1.089   2.131
 6335SOL     OW19903   6.847   1.035   7.007
 6335SOL    HW119904   6.789   1.084   0.049
 6335SOL    HW219905   6.940   1.070   7.012
 6336SOL     OW19906   1.429   2.651   5.192
 6336SOL    HW119907   1.418   2.669   5.094
 6336SOL    HW219908   1.485   2.722   5.233
 6337SOL     OW19909   0.555   4.656   4.909
 6337SOL    HW119910   0.581   4.718   4.835
 6337SOL    HW219911   0.624   4.659   4.981
 6338SOL     OW19912   3.444   1.659   4.653
 6338SOL    HW119913   3.511   1.636   4.582
 6338SOL    HW219914   3.396   1.743   4.628
 6339SOL     OW19915   0.261   2.707   4.014
 6339SOL    HW119916   0.244   2.609   4.021
 6339SOL    HW219917   0.177   2.753   3.986
 6340SOL     OW19918   2.802   5.620   3.689
 6340SOL    HW119919   2.838   5.588   3.777
 6340SOL    HW219920   2.876   5.624   3.622
 6341SOL     OW19921   6.071   5.397   2.236
 6341SOL    HW119922   6.085   5.495   2.222
 6341SOL    HW219923   6.158   5.353   2.255
 6342SOL     OW19924   1.210   3.425   0.733
 6342SOL    HW119925   1.245   3.433   0.639
 6342SOL    HW219926   1.234   3.507   0.784
 6343SOL     OW19927   4.501   1.224   0.474
 6343SOL    HW119928   4.572   1.290   0.451
 6343SOL    HW219929   4.543   1.134   0.490
 6344SOL     OW19930   6.207   4.863   4.517
 6344SOL    HW119931   6.261   4.786   4.483
 6344SOL    HW219932   6.162   4.838   4.602
 6345SOL     OW19933   1.771   2.133   1.507
 6345SOL    HW119934   1.851   2.075   1.523
 6345SOL    HW219935   1.718   2.141   1.591
 6346SOL     OW19936   0.621   5.241   3.878
 6346SOL    HW119937   0.530   5.203   3.870
 6346SOL    HW219938   0.635   5.310   3.806
 6347SOL     OW19939   2.821   0.610   0.718
 6347SOL    HW119940   2.787   0.565   0.636
 6347SOL    HW219941   2.816   0.547   0.796
 6348SOL     OW19942   0.460   2.842   3.885
 6348SOL    HW119943   0.498   2.787   3.810
 6348SOL    HW219944   0.378   2.798   3.921
 6349SOL     OW19945   1.357   0.771   0.848
 6349SOL    HW119946   1.316   0.743   0.761
 6349SOL    HW219947   1.307   0.850   0.884
 6350SOL     OW19948   6.889   5.895   3.347
 6350SOL    HW119949   6.981   5.894   3.385
 6350SOL    HW219950   6.884   5.962   3.273
 6351SOL     OW19951   0.067   2.285   3.138
 6351SOL    HW119952   0.142   2.218   3.132
 6351SOL    HW219953   0.095   2.370   3.094
 6352SOL     OW19954   6.621   4.600   2.542
 6352SOL    HW119955   6.612   4.693   2.506
 6352SOL    HW219956   6.659   4.541   2.471
 6353SOL     OW19957   6.726   6.758   1.962
 6353SOL    HW119958   6.756   6.773   2.056
 6353SOL    HW219959   6.653   6.690   1.961
 6354SOL     OW19960   6.883   6.808   4.559
 6354SOL    HW119961   6.816   6.856   4.502
 6354SOL    HW219962   6.867   6.833   4.655
 6355SOL     OW19963   1.235   2.096   1.302
 6355SOL    HW119964   1.227   2.123   1.206
 6355SOL    HW219965   1.146   2.104   1.346
 6356SOL     OW19966   3.321   3.607   1.372
 6356SOL    HW119967   3.356   3.609   1.465
 6356SOL    HW219968   3.298   3.512   1.347
 6357SOL     OW19969   4.939   1.847   1.228
 6357SOL    HW119970   5.007   1.916   1.251
 6357SOL    HW219971   4.920   1.850   1.130
 6358SOL     OW19972   1.174   2.656   5.524
 6358SOL    HW119973   1.097   2.678   5.584
 6358SOL    HW219974   1.255   2.706   5.555
 6359SOL     OW19975   6.879   0.909   6.567
 6359SOL    HW119976   6.828   0.984   6.608
 6359SOL    HW219977   6.856   0.823   6.613
 6360SOL     OW19978   2.248   5.000   4.281
 6360SOL    HW119979   2.278   5.080   4.229
 6360SOL    HW219980   2.149   4.988   4.268
 6361SOL     OW19981   2.861   6.644   5.296
 6361SOL    HW119982   2.771   6.645   5.340
 6361SOL    HW219983   2.890   6.549   5.283
 6362SOL     OW19984   6.678   5.272   6.019
 6362SOL    HW119985   6.758   5.247   5.964
 6362SOL    HW219986   6.704   5.280   6.115
 6363SOL     OW19987   0.966   5.045   3.771
 6363SOL    HW119988   0.871   5.058   3.802
 6363SOL    HW219989   1.001   4.959   3.807
 6364SOL     OW19990   2.640   1.834   6.222
 6364SOL    HW119991   2.580   1.765   6.183
 6364SOL    HW219992   2.724   1.840   6.168
 6365SOL     OW19993   3.953   5.512   2.753
 6365SOL    HW119994   4.007   5.561   2.822
 6365SOL    HW219995   3.897   5.578   2.702
 6366SOL     OW19996   0.782   4.039   5.602
 6366SOL    HW119997   0.817   4.082   5.520
 6366SOL    HW219998   0.764   4.108   5.672
 6367SOL     OW19999   5.197   5.676   2.115
 6367SOL    HW120000   5.237   5.764   2.092
 6367SOL    HW220001   5.105   5.689   2.150
 6368SOL     OW20002   2.721   1.466   2.560
 6368SOL    HW120003   2.651   1.530   2.591
 6368SOL    HW220004   2.750   1.490   2.467
 6369SOL     OW20005   2.024   6.335   5.157
 6369SOL    HW120006   2.121   6.351   5.179
 6369SOL    HW220007   2.010   6.236   5.144
 6370SOL     OW20008   5.412   2.892   2.035
 6370SOL    HW120009   5.403   2.854   1.943
 6370SOL    HW220010   5.329   2.942   2.059
 6371SOL     OW20011   4.069   1.278   3.760
 6371SOL    HW120012   4.134   1.205   3.735
 6371SOL    HW220013   4.010   1.246   3.834
 6372SOL     OW20014   2.588   0.256   2.681
 6372SOL    HW120015   2.640   0.329   2.636
 6372SOL    HW220016   2.651   0.183   2.708
 6373SOL     OW20017   3.491   4.456   0.136
 6373SOL    HW120018   3.559   4.457   0.209
 6373SOL    HW220019   3.531   4.492   0.052
 6374SOL     OW20020   3.050   3.126   3.975
 6374SOL    HW120021   3.065   3.133   3.876
 6374SOL    HW220022   2.986   3.197   4.004
 6375SOL     OW20023   2.393   5.930   1.767
 6375SOL    HW120024   2.300   5.956   1.739
 6375SOL    HW220025   2.440   6.011   1.804
 6376SOL     OW20026   1.316   1.447   5.220
 6376SOL    HW120027   1.229   1.457   5.268
 6376SOL    HW220028   1.326   1.522   5.154
 6377SOL     OW20029   1.128   2.276   3.915
 6377SOL    HW120030   1.070   2.215   3.861
 6377SOL    HW220031   1.071   2.343   3.963
 6378SOL     OW20032   4.545   5.226   3.760
 6378SOL    HW120033   4.514   5.131   3.750
 6378SOL    HW220034   4.634   5.228   3.805
 6379SOL     OW20035   2.859   4.686   1.611
 6379SOL    HW120036   2.959   4.690   1.617
 6379SOL    HW220037   2.821   4.666   1.702
 6380SOL     OW20038   1.302   0.890   6.289
 6380SOL    HW120039   1.339   0.980   6.265
 6380SOL    HW220040   1.252   0.897   6.375
 6381SOL     OW20041   3.640   3.193   2.767
 6381SOL    HW120042   3.543   3.216   2.764
 6381SOL    HW220043   3.684   3.223   2.682
 6382SOL     OW20044   1.540   4.780   4.604
 6382SOL    HW120045   1.577   4.752   4.692
 6382SOL    HW220046   1.450   4.741   4.591
 6383SOL     OW20047   3.698   1.490   4.169
 6383SOL    HW120048   3.620   1.437   4.135
 6383SOL    HW220049   3.707   1.574   4.115
 6384SOL     OW20050   0.005   4.297   2.129
 6384SOL    HW120051   6.974   4.360   2.075
 6384SOL    HW220052   0.018   4.212   2.078
 6385SOL     OW20053   1.096   5.768   5.930
 6385SOL    HW120054   1.121   5.857   5.970
 6385SOL    HW220055   1.008   5.776   5.884
 6386SOL     OW20056   2.142   5.424   2.675
 6386SOL    HW120057   2.135   5.437   2.576
 6386SOL    HW220058   2.079   5.351   2.703
 6387SOL     OW20059   6.055   0.772   4.837
 6387SOL    HW120060   6.023   0.867   4.831
 6387SOL    HW220061   6.079   0.751   4.931
 6388SOL     OW20062   2.114   4.624   2.859
 6388SOL    HW120063   2.190   4.674   2.819
 6388SOL    HW220064   2.084   4.670   2.943
 6389SOL     OW20065   1.271   4.147   1.309
 6389SOL    HW120066   1.316   4.058   1.310
 6389SOL    HW220067   1.193   4.144   1.248
 6390SOL     OW20068   0.487   3.191   4.814
 6390SOL    HW120069   0.486   3.132   4.895
 6390SOL    HW220070   0.539   3.146   4.741
 6391SOL     OW20071   3.958   0.598   0.135
 6391SOL    HW120072   3.859   0.614   0.144
 6391SOL    HW220073   3.976   0.500   0.143
 6392SOL     OW20074   1.618   5.773   4.478
 6392SOL    HW120075   1.645   5.698   4.417
 6392SOL    HW220076   1.531   5.811   4.447
 6393SOL     OW20077   4.701   1.148   6.855
 6393SOL    HW120078   4.628   1.150   6.923
 6393SOL    HW220079   4.661   1.147   6.763
 6394SOL     OW20080   3.672   5.648   1.949
 6394SOL    HW120081   3.612   5.709   2.000
 6394SOL    HW220082   3.657   5.553   1.978
 6395SOL     OW20083   5.413   2.127   0.082
 6395SOL    HW120084   5.396   2.080   7.020
 6395SOL    HW220085   5.511   2.147   0.091
 6396SOL     OW20086   6.345   2.823   6.654
 6396SOL    HW120087   6.344   2.749   6.587
 6396SOL    HW220088   6.260   2.822   6.706
 6397SOL     OW20089   6.469   1.070   0.730
 6397SOL    HW120090   6.441   1.155   0.684
 6397SOL    HW220091   6.535   1.021   0.672
 6398SOL     OW20092   4.036   0.711   1.634
 6398SOL    HW120093   4.090   0.790   1.661
 6398SOL    HW220094   3.977   0.736   1.556
 6399SOL     OW20095   1.162   6.563   6.530
 6399SOL    HW120096   1.248   6.592   6.572
 6399SOL    HW220097   1.181   6.513   6.446
 6400SOL     OW20098   2.767   5.042   4.738
 6400SOL    HW120099   2.812   5.080   4.657
 6400SOL    HW220100   2.686   4.990   4.709
 6401SOL     OW20101   0.472   5.249   5.729
 6401SOL    HW120102   0.539   5.324   5.729
 6401SOL    HW220103   0.494   5.185   5.802
 6402SOL     OW20104   1.892   2.910   3.403
 6402SOL    HW120105   1.936   2.930   3.316
 6402SOL    HW220106   1.959   2.920   3.477
 6403SOL     OW20107   0.617   6.156   1.643
 6403SOL    HW120108   0.520   6.136   1.648
 6403SOL    HW220109   0.642   6.179   1.548
 6404SOL     OW20110   5.345   0.778   2.500
 6404SOL    HW120111   5.306   0.810   2.414
 6404SOL    HW220112   5.271   0.761   2.566
 6405SOL     OW20113   3.626   0.257   1.484
 6405SOL    HW120114   3.649   0.160   1.474
 6405SOL    HW220115   3.621   0.280   1.582
 6406SOL     OW20116   2.537   1.703   3.085
 6406SOL    HW120117   2.610   1.657   3.034
 6406SOL    HW220118   2.497   1.775   3.028
 6407SOL     OW20119   4.695   6.359   6.876
 6407SOL    HW120120   4.648   6.444   6.901
 6407SOL    HW220121   4.676   6.289   6.946
 6408SOL     OW20122   5.785   2.424   1.097
 6408SOL    HW120123   5.832   2.512   1.098
 6408SOL    HW220124   5.734   2.412   1.182
 6409SOL     OW20125   1.069   5.447   2.190
 6409SOL    HW120126   1.159   5.463   2.151
 6409SOL    HW220127   1.007   5.521   2.163
 6410SOL     OW20128   0.588   0.404   1.596
 6410SOL    HW120129   0.593   0.316   1.642
 6410SOL    HW220130   0.493   0.425   1.573
 6411SOL     OW20131   1.370   1.930   3.197
 6411SOL    HW120132   1.441   1.862   3.177
 6411SOL    HW220133   1.307   1.893   3.265
 6412SOL     OW20134   5.970   2.448   4.755
 6412SOL    HW120135   5.961   2.376   4.687
 6412SOL    HW220136   5.921   2.422   4.838
 6413SOL     OW20137   0.326   5.082   1.252
 6413SOL    HW120138   0.232   5.104   1.225
 6413SOL    HW220139   0.357   5.146   1.322
 6414SOL     OW20140   5.978   0.581   3.233
 6414SOL    HW120141   5.947   0.526   3.310
 6414SOL    HW220142   6.070   0.616   3.251
 6415SOL     OW20143   1.343   1.633   1.928
 6415SOL    HW120144   1.277   1.652   1.855
 6415SOL    HW220145   1.294   1.601   2.009
 6416SOL     OW20146   2.657   6.164   6.571
 6416SOL    HW120147   2.626   6.162   6.666
 6416SOL    HW220148   2.677   6.071   6.541
 6417SOL     OW20149   0.083   5.743   4.310
 6417SOL    HW120150   0.003   5.683   4.306
 6417SOL    HW220151   0.109   5.757   4.405
 6418SOL     OW20152   6.947   5.179   2.056
 6418SOL    HW120153   6.890   5.259   2.035
 6418SOL    HW220154   0.014   5.191   2.013
 6419SOL     OW20155   2.408   2.839   0.294
 6419SOL    HW120156   2.429   2.744   0.268
 6419SOL    HW220157   2.433   2.900   0.219
 6420SOL     OW20158   0.552   2.417   0.047
 6420SOL    HW120159   0.564   2.403   6.972
 6420SOL    HW220160   0.537   2.329   0.092
 6421SOL     OW20161   5.571   1.560   0.276
 6421SOL    HW120162   5.606   1.654   0.287
 6421SOL    HW220163   5.571   1.536   0.179
 6422SOL     OW20164   5.813   2.770   2.670
 6422SOL    HW120165   5.911   2.754   2.667
 6422SOL    HW220166   5.766   2.685   2.696
 6423SOL     OW20167   5.161   3.780   0.565
 6423SOL    HW120168   5.220   3.816   0.492
 6423SOL    HW220169   5.069   3.817   0.554
 6424SOL     OW20170   5.984   3.635   5.072
 6424SOL    HW120171   5.962   3.661   4.978
 6424SOL    HW220172   6.081   3.651   5.089
 6425SOL     OW20173   0.574   5.589   1.105
 6425SOL    HW120174   0.574   5.687   1.085
 6425SOL    HW220175   0.561   5.538   1.021
 6426SOL     OW20176   6.252   3.253   2.962
 6426SOL    HW120177   6.243   3.314   3.040
 6426SOL    HW220178   6.191   3.283   2.889
 6427SOL     OW20179   0.479   3.293   6.148
 6427SOL    HW120180   0.541   3.223   6.182
 6427SOL    HW220181   0.456   3.274   6.052
 6428SOL     OW20182   6.174   3.937   4.927
 6428SOL    HW120183   6.265   3.911   4.958
 6428SOL    HW220184   6.121   3.855   4.906
 6429SOL     OW20185   0.921   1.353   5.478
 6429SOL    HW120186   0.845   1.414   5.498
 6429SOL    HW220187   1.001   1.382   5.530
 6430SOL     OW20188   6.345   2.701   0.617
 6430SOL    HW120189   6.303   2.789   0.594
 6430SOL    HW220190   6.330   2.636   0.543
 6431SOL     OW20191   5.755   1.197   2.201
 6431SOL    HW120192   5.795   1.138   2.271
 6431SOL    HW220193   5.715   1.140   2.129
 6432SOL     OW20194   6.025   3.837   0.605
 6432SOL    HW120195   5.939   3.802   0.566
 6432SOL    HW220196   6.015   3.934   0.627
 6433SOL     OW20197   2.111   3.515   1.532
 6433SOL    HW120198   2.069   3.602   1.507
 6433SOL    HW220199   2.050   3.440   1.507
 6434SOL     OW20200   1.626   5.962   0.622
 6434SOL    HW120201   1.681   5.889   0.662
 6434SOL    HW220202   1.589   5.932   0.534
 6435SOL     OW20203   5.178   3.428   1.180
 6435SOL    HW120204   5.095   3.432   1.125
 6435SOL    HW220205   5.157   3.458   1.274
 6436SOL     OW20206   2.121   2.473   1.261
 6436SOL    HW120207   2.214   2.437   1.263
 6436SOL    HW220208   2.064   2.414   1.203
 6437SOL     OW20209   0.239   1.249   0.922
 6437SOL    HW120210   0.159   1.196   0.892
 6437SOL    HW220211   0.212   1.343   0.942
 6438SOL     OW20212   0.783   3.239   4.994
 6438SOL    HW120213   0.821   3.147   4.992
 6438SOL    HW220214   0.782   3.276   4.901
 6439SOL     OW20215   7.018   6.369   2.739
 6439SOL    HW120216   6.932   6.373   2.790
 6439SOL    HW220217   0.063   6.321   2.794
 6440SOL     OW20218   0.697   0.447   1.963
 6440SOL    HW120219   0.738   0.418   1.876
 6440SOL    HW220220   0.769   0.483   2.022
 6441SOL     OW20221   5.123   1.758   3.445
 6441SOL    HW120222   5.189   1.817   3.491
 6441SOL    HW220223   5.035   1.806   3.438
 6442SOL     OW20224   1.552   1.411   3.535
 6442SOL    HW120225   1.494   1.393   3.615
 6442SOL    HW220226   1.625   1.475   3.560
 6443SOL     OW20227   1.981   0.438   1.039
 6443SOL    HW120228   2.027   0.349   1.049
 6443SOL    HW220229   1.896   0.426   0.987
 6444SOL     OW20230   0.977   1.558   2.913
 6444SOL    HW120231   0.963   1.546   2.815
 6444SOL    HW220232   1.063   1.608   2.929
 6445SOL     OW20233   3.176   4.606   6.262
 6445SOL    HW120234   3.086   4.644   6.281
 6445SOL    HW220235   3.170   4.541   6.187
 6446SOL     OW20236   0.035   1.089   0.828
 6446SOL    HW120237   0.053   0.992   0.844
 6446SOL    HW220238   6.963   1.110   0.850
 6447SOL     OW20239   1.381   0.800   3.461
 6447SOL    HW120240   1.347   0.718   3.507
 6447SOL    HW220241   1.384   0.785   3.363
 6448SOL     OW20242   6.718   2.599   2.881
 6448SOL    HW120243   6.710   2.501   2.863
 6448SOL    HW220244   6.704   2.650   2.796
 6449SOL     OW20245   4.130   2.528   0.716
 6449SOL    HW120246   4.201   2.584   0.760
 6449SOL    HW220247   4.174   2.463   0.653
 6450SOL     OW20248   6.533   2.504   0.325
 6450SOL    HW120249   6.470   2.441   0.279
 6450SOL    HW220250   6.556   2.579   0.264
 6451SOL     OW20251   2.603   6.082   4.200
 6451SOL    HW120252   2.626   5.987   4.179
 6451SOL    HW220253   2.584   6.131   4.115
 6452SOL     OW20254   3.184   6.222   4.264
 6452SOL    HW120255   3.147   6.233   4.356
 6452SOL    HW220256   3.110   6.200   4.200
 6453SOL     OW20257   2.300   5.209   6.749
 6453SOL    HW120258   2.291   5.110   6.760
 6453SOL    HW220259   2.246   5.238   6.669
 6454SOL     OW20260   3.664   0.789   4.813
 6454SOL    HW120261   3.607   0.754   4.739
 6454SOL    HW220262   3.747   0.829   4.775
 6455SOL     OW20263   6.589   3.519   0.452
 6455SOL    HW120264   6.604   3.543   0.355
 6455SOL    HW220265   6.616   3.424   0.467
 6456SOL     OW20266   6.400   1.812   4.259
 6456SOL    HW120267   6.366   1.733   4.207
 6456SOL    HW220268   6.327   1.880   4.266
 6457SOL     OW20269   5.625   3.152   2.003
 6457SOL    HW120270   5.580   3.198   2.079
 6457SOL    HW220271   5.601   3.055   2.005
 6458SOL     OW20272   1.013   5.895   3.774
 6458SOL    HW120273   1.084   5.840   3.730
 6458SOL    HW220274   0.924   5.871   3.736
 6459SOL     OW20275   5.749   4.305   0.033
 6459SOL    HW120276   5.807   4.378   0.069
 6459SOL    HW220277   5.715   4.330   6.966
 6460SOL     OW20278   3.762   4.760   1.455
 6460SOL    HW120279   3.845   4.708   1.434
 6460SOL    HW220280   3.785   4.856   1.467
 6461SOL     OW20281   3.506   5.843   5.140
 6461SOL    HW120282   3.488   5.919   5.203
 6461SOL    HW220283   3.431   5.836   5.075
 6462SOL     OW20284   2.220   4.034   2.625
 6462SOL    HW120285   2.239   4.132   2.635
 6462SOL    HW220286   2.241   4.006   2.531
 6463SOL     OW20287   1.466   3.433   5.879
 6463SOL    HW120288   1.394   3.500   5.898
 6463SOL    HW220289   1.527   3.469   5.809
 6464SOL     OW20290   1.323   4.866   2.008
 6464SOL    HW120291   1.394   4.927   1.973
 6464SOL    HW220292   1.291   4.899   2.096
 6465SOL     OW20293   6.429   0.512   2.458
 6465SOL    HW120294   6.411   0.608   2.478
 6465SOL    HW220295   6.517   0.505   2.411
 6466SOL     OW20296   6.200   2.558   4.577
 6466SOL    HW120297   6.258   2.602   4.645
 6466SOL    HW220298   6.126   2.620   4.551
 6467SOL     OW20299   3.511   0.254   6.320
 6467SOL    HW120300   3.592   0.207   6.287
 6467SOL    HW220301   3.469   0.202   6.394
 6468SOL     OW20302   6.247   4.578   1.880
 6468SOL    HW120303   6.332   4.579   1.932
 6468SOL    HW220304   6.177   4.629   1.930
 6469SOL     OW20305   6.310   1.840   5.802
 6469SOL    HW120306   6.331   1.751   5.761
 6469SOL    HW220307   6.256   1.826   5.885
 6470SOL     OW20308   6.655   6.083   4.787
 6470SOL    HW120309   6.583   6.037   4.736
 6470SOL    HW220310   6.617   6.162   4.835
 6471SOL     OW20311   6.378   6.357   5.152
 6471SOL    HW120312   6.435   6.338   5.232
 6471SOL    HW220313   6.282   6.349   5.177
 6472SOL     OW20314   1.857   6.374   1.714
 6472SOL    HW120315   1.849   6.471   1.738
 6472SOL    HW220316   1.790   6.322   1.766
 6473SOL     OW20317   2.333   1.190   5.526
 6473SOL    HW120318   2.331   1.103   5.574
 6473SOL    HW220319   2.240   1.226   5.517
 6474SOL     OW20320   1.907   3.345   6.112
 6474SOL    HW120321   1.928   3.442   6.106
 6474SOL    HW220322   1.911   3.316   6.207
 6475SOL     OW20323   4.311   5.251   4.015
 6475SOL    HW120324   4.238   5.232   3.950
 6475SOL    HW220325   4.397   5.268   3.965
 6476SOL     OW20326   4.925   5.747   3.077
 6476SOL    HW120327   4.983   5.805   3.020
 6476SOL    HW220328   4.873   5.805   3.140
 6477SOL     OW20329   6.470   6.283   6.914
 6477SOL    HW120330   6.456   6.330   7.001
 6477SOL    HW220331   6.521   6.198   6.929
 6478SOL     OW20332   4.192   5.981   1.071
 6478SOL    HW120333   4.209   5.994   0.974
 6478SOL    HW220334   4.269   6.017   1.124
 6479SOL     OW20335   2.851   5.733   2.893
 6479SOL    HW120336   2.946   5.758   2.911
 6479SOL    HW220337   2.791   5.808   2.922
 6480SOL     OW20338   2.466   0.547   0.485
 6480SOL    HW120339   2.452   0.552   0.386
 6480SOL    HW220340   2.391   0.594   0.532
 6481SOL     OW20341   4.683   0.685   1.294
 6481SOL    HW120342   4.593   0.689   1.336
 6481SOL    HW220343   4.727   0.598   1.316
 6482SOL     OW20344   0.525   0.121   5.703
 6482SOL    HW120345   0.592   0.187   5.669
 6482SOL    HW220346   0.473   0.162   5.778
 6483SOL     OW20347   1.713   4.962   1.587
 6483SOL    HW120348   1.740   4.993   1.496
 6483SOL    HW220349   1.787   4.981   1.652
 6484SOL     OW20350   4.743   7.014   3.164
 6484SOL    HW120351   4.775   0.025   3.253
 6484SOL    HW220352   4.775   0.050   3.091
 6485SOL     OW20353   0.543   2.975   2.867
 6485SOL    HW120354   0.562   2.880   2.845
 6485SOL    HW220355   0.532   3.027   2.782
 6486SOL     OW20356   1.628   2.942   2.968
 6486SOL    HW120357   1.575   2.885   3.032
 6486SOL    HW220358   1.585   2.940   2.878
 6487SOL     OW20359   5.954   5.599   3.436
 6487SOL    HW120360   5.952   5.622   3.339
 6487SOL    HW220361   6.025   5.530   3.453
 6488SOL     OW20362   3.240   5.213   4.270
 6488SOL    HW120363   3.261   5.115   4.276
 6488SOL    HW220364   3.275   5.259   4.352
 6489SOL     OW20365   2.373   1.634   6.553
 6489SOL    HW120366   2.441   1.618   6.480
 6489SOL    HW220367   2.375   1.558   6.617
 6490SOL     OW20368   5.048   1.826   0.203
 6490SOL    HW120369   5.108   1.750   0.179
 6490SOL    HW220370   5.009   1.810   0.294
 6491SOL     OW20371   5.544   1.202   5.614
 6491SOL    HW120372   5.569   1.183   5.519
 6491SOL    HW220373   5.625   1.227   5.666
 6492SOL     OW20374   6.148   5.840   6.345
 6492SOL    HW120375   6.144   5.809   6.440
 6492SOL    HW220376   6.205   5.922   6.340
 6493SOL     OW20377   0.464   0.046   5.105
 6493SOL    HW120378   0.373   0.006   5.101
 6493SOL    HW220379   0.507   0.040   5.015
 6494SOL     OW20380   0.278   2.100   3.148
 6494SOL    HW120381   0.275   2.019   3.090
 6494SOL    HW220382   0.364   2.101   3.200
 6495SOL     OW20383   5.457   4.647   1.870
 6495SOL    HW120384   5.484   4.702   1.791
 6495SOL    HW220385   5.365   4.610   1.854
 6496SOL     OW20386   0.153   6.361   3.140
 6496SOL    HW120387   0.081   6.430   3.142
 6496SOL    HW220388   0.169   6.332   3.046
 6497SOL     OW20389   0.648   6.786   1.409
 6497SOL    HW120390   0.573   6.809   1.471
 6497SOL    HW220391   0.638   6.692   1.378
 6498SOL     OW20392   1.525   3.818   4.218
 6498SOL    HW120393   1.504   3.894   4.155
 6498SOL    HW220394   1.440   3.779   4.252
 6499SOL     OW20395   6.386   1.453   3.309
 6499SOL    HW120396   6.333   1.499   3.380
 6499SOL    HW220397   6.463   1.511   3.282
 6500SOL     OW20398   5.666   4.870   2.207
 6500SOL    HW120399   5.717   4.926   2.272
 6500SOL    HW220400   5.592   4.822   2.254
 6501SOL     OW20401   6.702   4.406   0.801
 6501SOL    HW120402   6.610   4.427   0.768
 6501SOL    HW220403   6.731   4.476   0.865
 6502SOL     OW20404   0.677   5.234   1.483
 6502SOL    HW120405   0.754   5.257   1.542
 6502SOL    HW220406   0.674   5.296   1.405
 6503SOL     OW20407   4.113   0.604   3.873
 6503SOL    HW120408   4.173   0.531   3.839
 6503SOL    HW220409   4.126   0.686   3.817
 6504SOL     OW20410   2.312   2.005   0.767
 6504SOL    HW120411   2.250   1.936   0.729
 6504SOL    HW220412   2.325   2.078   0.700
 6505SOL     OW20413   5.444   5.213   0.633
 6505SOL    HW120414   5.431   5.303   0.674
 6505SOL    HW220415   5.475   5.148   0.703
 6506SOL     OW20416   2.382   0.975   1.473
 6506SOL    HW120417   2.421   1.063   1.500
 6506SOL    HW220418   2.283   0.984   1.464
 6507SOL     OW20419   2.904   0.908   1.855
 6507SOL    HW120420   2.889   0.858   1.940
 6507SOL    HW220421   2.842   0.986   1.850
 6508SOL     OW20422   1.748   2.660   1.945
 6508SOL    HW120423   1.791   2.609   2.020
 6508SOL    HW220424   1.809   2.734   1.916
 6509SOL     OW20425   1.483   3.029   4.069
 6509SOL    HW120426   1.477   3.118   4.114
 6509SOL    HW220427   1.459   3.038   3.973
 6510SOL     OW20428   6.277   4.395   6.404
 6510SOL    HW120429   6.223   4.387   6.488
 6510SOL    HW220430   6.311   4.489   6.395
 6511SOL     OW20431   0.146   6.789   5.652
 6511SOL    HW120432   0.226   6.831   5.608
 6511SOL    HW220433   0.097   6.859   5.704
 6512SOL     OW20434   5.285   6.184   4.050
 6512SOL    HW120435   5.382   6.190   4.070
 6512SOL    HW220436   5.252   6.092   4.070
 6513SOL     OW20437   1.064   6.900   3.440
 6513SOL    HW120438   1.029   6.942   3.356
 6513SOL    HW220439   1.164   6.893   3.433
 6514SOL     OW20440   2.635   0.617   3.529
 6514SOL    HW120441   2.577   0.557   3.584
 6514SOL    HW220442   2.728   0.579   3.524
 6515SOL     OW20443   1.053   0.780   3.430
 6515SOL    HW120444   0.998   0.864   3.423
 6515SOL    HW220445   1.137   0.791   3.376
 6516SOL     OW20446   1.500   0.958   5.409
 6516SOL    HW120447   1.501   0.940   5.507
 6516SOL    HW220448   1.558   1.036   5.388
 6517SOL     OW20449   2.387   2.376   1.000
 6517SOL    HW120450   2.348   2.441   0.934
 6517SOL    HW220451   2.337   2.290   0.995
 6518SOL     OW20452   5.976   6.574   0.994
 6518SOL    HW120453   5.959   6.514   1.073
 6518SOL    HW220454   6.012   6.661   1.026
 6519SOL     OW20455   1.015   1.983   3.989
 6519SOL    HW120456   1.113   1.965   3.983
 6519SOL    HW220457   0.979   2.000   3.897
 6520SOL     OW20458   5.662   5.133   1.053
 6520SOL    HW120459   5.598   5.123   0.978
 6520SOL    HW220460   5.640   5.215   1.105
 6521SOL     OW20461   1.202   2.190   5.774
 6521SOL    HW120462   1.297   2.222   5.772
 6521SOL    HW220463   1.191   2.122   5.846
 6522SOL     OW20464   2.316   4.693   4.595
 6522SOL    HW120465   2.224   4.658   4.579
 6522SOL    HW220466   2.321   4.788   4.566
 6523SOL     OW20467   1.994   2.240   0.862
 6523SOL    HW120468   2.090   2.235   0.889
 6523SOL    HW220469   1.947   2.157   0.890
 6524SOL     OW20470   4.133   2.581   5.478
 6524SOL    HW120471   4.132   2.677   5.448
 6524SOL    HW220472   4.086   2.574   5.566
 6525SOL     OW20473   0.450   2.708   4.223
 6525SOL    HW120474   0.384   2.714   4.147
 6525SOL    HW220475   0.420   2.637   4.287
 6526SOL     OW20476   1.489   5.765   3.673
 6526SOL    HW120477   1.564   5.712   3.634
 6526SOL    HW220478   1.500   5.861   3.648
 6527SOL     OW20479   2.010   1.394   4.505
 6527SOL    HW120480   1.969   1.344   4.429
 6527SOL    HW220481   1.947   1.464   4.538
 6528SOL     OW20482   0.417   0.334   3.446
 6528SOL    HW120483   0.496   0.293   3.401
 6528SOL    HW220484   0.404   0.427   3.412
 6529SOL     OW20485   6.489   2.934   2.372
 6529SOL    HW120486   6.457   2.990   2.296
 6529SOL    HW220487   6.417   2.871   2.401
 6530SOL     OW20488   0.234   1.447   0.126
 6530SOL    HW120489   0.298   1.370   0.134
 6530SOL    HW220490   0.144   1.413   0.100
 6531SOL     OW20491   5.111   2.298   5.594
 6531SOL    HW120492   5.209   2.313   5.580
 6531SOL    HW220493   5.070   2.268   5.508
 6532SOL     OW20494   1.451   1.519   7.002
 6532SOL    HW120495   1.506   1.508   6.920
 6532SOL    HW220496   1.354   1.510   6.979
 6533SOL     OW20497   4.745   0.032   0.930
 6533SOL    HW120498   4.732   0.129   0.910
 6533SOL    HW220499   4.801   0.022   1.013
 6534SOL     OW20500   3.270   2.599   6.886
 6534SOL    HW120501   3.351   2.657   6.884
 6534SOL    HW220502   3.200   2.642   6.943
 6535SOL     OW20503   2.252   3.446   5.285
 6535SOL    HW120504   2.210   3.537   5.283
 6535SOL    HW220505   2.245   3.408   5.377
 6536SOL     OW20506   0.194   1.711   0.245
 6536SOL    HW120507   0.245   1.633   0.208
 6536SOL    HW220508   0.162   1.688   0.337
 6537SOL     OW20509   0.498   0.748   6.527
 6537SOL    HW120510   0.486   0.771   6.431
 6537SOL    HW220511   0.409   0.725   6.567
 6538SOL     OW20512   2.722   2.515   5.630
 6538SOL    HW120513   2.814   2.493   5.598
 6538SOL    HW220514   2.655   2.462   5.578
 6539SOL     OW20515   3.327   1.631   6.834
 6539SOL    HW120516   3.341   1.726   6.808
 6539SOL    HW220517   3.244   1.623   6.889
 6540SOL     OW20518   3.964   2.131   3.241
 6540SOL    HW120519   3.959   2.176   3.330
 6540SOL    HW220520   4.009   2.193   3.176
 6541SOL     OW20521   2.789   2.501   5.208
 6541SOL    HW120522   2.722   2.556   5.158
 6541SOL    HW220523   2.836   2.439   5.145
 6542SOL     OW20524   4.861   4.592   2.660
 6542SOL    HW120525   4.935   4.527   2.679
 6542SOL    HW220526   4.792   4.547   2.603
 6543SOL     OW20527   1.440   6.562   5.828
 6543SOL    HW120528   1.421   6.653   5.790
 6543SOL    HW220529   1.360   6.504   5.816
 6544SOL     OW20530   7.011   5.916   2.792
 6544SOL    HW120531   6.938   5.904   2.860
 6544SOL    HW220532   6.974   5.964   2.712
 6545SOL     OW20533   6.102   2.887   6.377
 6545SOL    HW120534   6.101   2.986   6.363
 6545SOL    HW220535   6.037   2.863   6.450
 6546SOL     OW20536   3.347   4.725   6.470
 6546SOL    HW120537   3.313   4.813   6.502
 6546SOL    HW220538   3.289   4.694   6.394
 6547SOL     OW20539   4.460   1.330   6.349
 6547SOL    HW120540   4.488   1.260   6.416
 6547SOL    HW220541   4.491   1.303   6.258
 6548SOL     OW20542   4.752   3.895   5.878
 6548SOL    HW120543   4.760   3.994   5.877
 6548SOL    HW220544   4.767   3.861   5.972
 6549SOL     OW20545   2.641   2.261   2.664
 6549SOL    HW120546   2.726   2.280   2.712
 6549SOL    HW220547   2.613   2.167   2.680
 6550SOL     OW20548   1.122   6.027   2.234
 6550SOL    HW120549   1.169   6.077   2.307
 6550SOL    HW220550   1.137   6.074   2.147
 6551SOL     OW20551   3.630   5.378   2.039
 6551SOL    HW120552   3.560   5.347   1.974
 6551SOL    HW220553   3.721   5.365   2.000
 6552SOL     OW20554   4.578   4.681   5.746
 6552SOL    HW120555   4.660   4.739   5.738
 6552SOL    HW220556   4.599   4.589   5.713
 6553SOL     OW20557   0.023   3.490   3.348
 6553SOL    HW120558   0.072   3.416   3.394
 6553SOL    HW220559   0.077   3.574   3.353
 6554SOL     OW20560   0.026   3.980   4.598
 6554SOL    HW120561   0.005   4.072   4.629
 6554SOL    HW220562   6.979   3.949   4.534
 6555SOL     OW20563   0.677   1.589   1.432
 6555SOL    HW120564   0.629   1.596   1.520
 6555SOL    HW220565   0.775   1.577   1.448
 6556SOL     OW20566   3.742   6.809   3.331
 6556SOL    HW120567   3.758   6.899   3.371
 6556SOL    HW220568   3.830   6.767   3.307
 6557SOL     OW20569   5.340   5.722   0.609
 6557SOL    HW120570   5.346   5.821   0.593
 6557SOL    HW220571   5.245   5.696   0.618
 6558SOL     OW20572   0.009   6.577   5.570
 6558SOL    HW120573   7.008   6.570   5.473
 6558SOL    HW220574   0.062   6.661   5.584
 6559SOL     OW20575   2.972   3.670   1.128
 6559SOL    HW120576   2.994   3.694   1.033
 6559SOL    HW220577   3.051   3.624   1.169
 6560SOL     OW20578   4.213   1.553   1.016
 6560SOL    HW120579   4.258   1.483   1.072
 6560SOL    HW220580   4.147   1.603   1.073
 6561SOL     OW20581   3.685   3.736   4.687
 6561SOL    HW120582   3.659   3.786   4.604
 6561SOL    HW220583   3.652   3.642   4.680
 6562SOL     OW20584   0.608   4.525   5.310
 6562SOL    HW120585   0.650   4.615   5.315
 6562SOL    HW220586   0.540   4.515   5.382
 6563SOL     OW20587   0.771   5.663   2.432
 6563SOL    HW120588   0.825   5.734   2.386
 6563SOL    HW220589   0.831   5.590   2.464
 6564SOL     OW20590   1.661   4.851   3.208
 6564SOL    HW120591   1.677   4.821   3.302
 6564SOL    HW220592   1.672   4.774   3.146
 6565SOL     OW20593   6.699   3.791   4.893
 6565SOL    HW120594   6.751   3.760   4.813
 6565SOL    HW220595   6.740   3.874   4.930
 6566SOL     OW20596   4.125   1.130   0.711
 6566SOL    HW120597   4.179   1.099   0.633
 6566SOL    HW220598   4.135   1.229   0.721
 6567SOL     OW20599   6.313   2.544   0.838
 6567SOL    HW120600   6.316   2.601   0.756
 6567SOL    HW220601   6.404   2.505   0.855
 6568SOL     OW20602   5.218   3.711   1.661
 6568SOL    HW120603   5.245   3.807   1.657
 6568SOL    HW220604   5.264   3.666   1.737
 6569SOL     OW20605   1.527   4.163   5.387
 6569SOL    HW120606   1.624   4.145   5.407
 6569SOL    HW220607   1.474   4.153   5.471
 6570SOL     OW20608   6.826   4.115   1.968
 6570SOL    HW120609   6.819   4.032   2.023
 6570SOL    HW220610   6.877   4.096   1.885
 6571SOL     OW20611   1.647   5.482   3.842
 6571SOL    HW120612   1.633   5.397   3.790
 6571SOL    HW220613   1.559   5.526   3.856
 6572SOL     OW20614   2.054   3.739   5.654
 6572SOL    HW120615   2.149   3.731   5.684
 6572SOL    HW220616   1.994   3.693   5.720
 6573SOL     OW20617   1.775   1.775   1.647
 6573SOL    HW120618   1.713   1.756   1.571
 6573SOL    HW220619   1.827   1.858   1.628
 6574SOL     OW20620   2.087   4.492   4.708
 6574SOL    HW120621   2.130   4.546   4.780
 6574SOL    HW220622   2.149   4.420   4.678
 6575SOL     OW20623   1.412   1.883   2.620
 6575SOL    HW120624   1.412   1.931   2.532
 6575SOL    HW220625   1.444   1.945   2.692
 6576SOL     OW20626   0.216   6.291   4.101
 6576SOL    HW120627   0.243   6.204   4.060
 6576SOL    HW220628   0.249   6.295   4.195
 6577SOL     OW20629   0.410   3.979   5.994
 6577SOL    HW120630   0.467   3.899   6.010
 6577SOL    HW220631   0.397   3.992   5.896
 6578SOL     OW20632   6.250   5.757   3.786
 6578SOL    HW120633   6.237   5.808   3.701
 6578SOL    HW220634   6.282   5.665   3.765
 6579SOL     OW20635   0.530   3.902   4.099
 6579SOL    HW120636   0.431   3.915   4.092
 6579SOL    HW220637   0.552   3.858   4.186
 6580SOL     OW20638   5.498   2.296   0.508
 6580SOL    HW120639   5.562   2.236   0.460
 6580SOL    HW220640   5.549   2.356   0.570
 6581SOL     OW20641   2.705   2.308   5.396
 6581SOL    HW120642   2.665   2.229   5.350
 6581SOL    HW220643   2.729   2.378   5.329
 6582SOL     OW20644   6.652   0.862   2.276
 6582SOL    HW120645   6.685   0.906   2.192
 6582SOL    HW220646   6.703   0.897   2.354
 6583SOL     OW20647   6.971   0.909   6.178
 6583SOL    HW120648   6.895   0.876   6.233
 6583SOL    HW220649   6.973   1.009   6.180
 6584SOL     OW20650   5.661   2.661   0.577
 6584SOL    HW120651   5.694   2.719   0.652
 6584SOL    HW220652   5.561   2.664   0.574
 6585SOL     OW20653   2.890   0.516   2.353
 6585SOL    HW120654   2.964   0.528   2.287
 6585SOL    HW220655   2.877   0.600   2.405
 6586SOL     OW20656   5.910   2.201   6.953
 6586SOL    HW120657   5.880   2.250   6.871
 6586SOL    HW220658   5.969   2.260   7.008
 6587SOL     OW20659   1.485   5.813   1.950
 6587SOL    HW120660   1.476   5.912   1.938
 6587SOL    HW220661   1.468   5.789   2.046
 6588SOL     OW20662   2.938   2.535   0.346
 6588SOL    HW120663   3.038   2.535   0.342
 6588SOL    HW220664   2.904   2.629   0.345
 6589SOL     OW20665   5.007   1.414   5.814
 6589SOL    HW120666   5.084   1.350   5.810
 6589SOL    HW220667   5.007   1.471   5.732
 6590SOL     OW20668   6.275   2.086   5.570
 6590SOL    HW120669   6.210   2.064   5.498
 6590SOL    HW220670   6.281   2.010   5.635
 6591SOL     OW20671   4.944   0.430   2.935
 6591SOL    HW120672   4.916   0.526   2.937
 6591SOL    HW220673   5.036   0.423   2.898
 6592SOL     OW20674   5.960   4.936   5.418
 6592SOL    HW120675   6.025   4.860   5.408
 6592SOL    HW220676   5.869   4.905   5.389
 6593SOL     OW20677   5.211   0.994   3.266
 6593SOL    HW120678   5.210   0.957   3.359
 6593SOL    HW220679   5.158   1.078   3.262
 6594SOL     OW20680   5.463   0.853   6.922
 6594SOL    HW120681   5.428   0.933   6.873
 6594SOL    HW220682   5.396   0.779   6.918
 6595SOL     OW20683   3.464   2.422   6.145
 6595SOL    HW120684   3.392   2.421   6.076
 6595SOL    HW220685   3.424   2.423   6.236
 6596SOL     OW20686   2.668   6.041   5.161
 6596SOL    HW120687   2.768   6.039   5.169
 6596SOL    HW220688   2.629   5.968   5.217
 6597SOL     OW20689   0.332   4.133   6.804
 6597SOL    HW120690   0.277   4.175   6.877
 6597SOL    HW220691   0.332   4.034   6.816
 6598SOL     OW20692   2.869   6.226   4.301
 6598SOL    HW120693   2.930   6.169   4.355
 6598SOL    HW220694   2.780   6.181   4.292
 6599SOL     OW20695   4.408   3.521   6.579
 6599SOL    HW120696   4.504   3.528   6.555
 6599SOL    HW220697   4.398   3.466   6.662
 6600SOL     OW20698   4.229   4.838   5.104
 6600SOL    HW120699   4.264   4.928   5.127
 6600SOL    HW220700   4.131   4.834   5.125
 6601SOL     OW20701   0.959   1.152   1.994
 6601SOL    HW120702   0.996   1.110   2.077
 6601SOL    HW220703   1.034   1.189   1.939
 6602SOL     OW20704   6.126   1.661   1.373
 6602SOL    HW120705   6.216   1.666   1.414
 6602SOL    HW220706   6.064   1.724   1.419
 6603SOL     OW20707   2.463   1.873   1.475
 6603SOL    HW120708   2.556   1.846   1.452
 6603SOL    HW220709   2.434   1.947   1.414
 6604SOL     OW20710   4.064   6.189   4.828
 6604SOL    HW120711   4.098   6.095   4.839
 6604SOL    HW220712   4.007   6.194   4.746
 6605SOL     OW20713   5.354   6.415   0.621
 6605SOL    HW120714   5.439   6.381   0.581
 6605SOL    HW220715   5.276   6.366   0.581
 6606SOL     OW20716   0.629   2.443   2.896
 6606SOL    HW120717   0.607   2.372   2.829
 6606SOL    HW220718   0.574   2.429   2.979
 6607SOL     OW20719   1.220   3.469   2.466
 6607SOL    HW120720   1.186   3.562   2.450
 6607SOL    HW220721   1.229   3.421   2.378
 6608SOL     OW20722   5.081   4.420   4.673
 6608SOL    HW120723   5.002   4.361   4.656
 6608SOL    HW220724   5.130   4.435   4.587
 6609SOL     OW20725   5.103   2.047   6.734
 6609SOL    HW120726   5.021   2.034   6.790
 6609SOL    HW220727   5.108   2.143   6.705
 6610SOL     OW20728   3.517   1.570   0.948
 6610SOL    HW120729   3.604   1.575   0.997
 6610SOL    HW220730   3.445   1.614   1.002
 6611SOL     OW20731   5.094   3.854   2.653
 6611SOL    HW120732   4.999   3.875   2.675
 6611SOL    HW220733   5.121   3.769   2.697
 6612SOL     OW20734   0.875   5.985   6.371
 6612SOL    HW120735   0.788   6.029   6.352
 6612SOL    HW220736   0.942   6.054   6.399
 6613SOL     OW20737   6.008   4.996   0.644
 6613SOL    HW120738   5.962   5.049   0.573
 6613SOL    HW220739   6.025   5.055   0.723
 6614SOL     OW20740   5.939   4.448   6.023
 6614SOL    HW120741   6.018   4.401   6.061
 6614SOL    HW220742   5.953   4.466   5.926
 6615SOL     OW20743   0.064   3.578   4.896
 6615SOL    HW120744   0.161   3.587   4.919
 6615SOL    HW220745   0.053   3.575   4.797
 6616SOL     OW20746   4.880   1.330   4.057
 6616SOL    HW120747   4.860   1.297   4.149
 6616SOL    HW220748   4.796   1.330   4.002
 6617SOL     OW20749   4.439   0.088   4.567
 6617SOL    HW120750   4.434   0.038   4.653
 6617SOL    HW220751   4.389   0.175   4.576
 6618SOL     OW20752   0.199   4.592   1.102
 6618SOL    HW120753   0.293   4.604   1.134
 6618SOL    HW220754   0.184   4.495   1.081
 6619SOL     OW20755   7.019   6.253   2.219
 6619SOL    HW120756   6.935   6.199   2.221
 6619SOL    HW220757   0.018   6.284   2.311
 6620SOL     OW20758   4.464   3.107   5.557
 6620SOL    HW120759   4.370   3.103   5.523
 6620SOL    HW220760   4.488   3.202   5.579
 6621SOL     OW20761   2.858   2.814   0.365
 6621SOL    HW120762   2.794   2.853   0.299
 6621SOL    HW220763   2.874   2.880   0.438
 6622SOL     OW20764   5.637   5.485   0.401
 6622SOL    HW120765   5.653   5.397   0.356
 6622SOL    HW220766   5.562   5.533   0.355
 6623SOL     OW20767   3.429   3.982   2.587
 6623SOL    HW120768   3.379   4.034   2.517
 6623SOL    HW220769   3.525   4.010   2.586
 6624SOL     OW20770   4.728   5.169   4.370
 6624SOL    HW120771   4.795   5.234   4.333
 6624SOL    HW220772   4.721   5.090   4.310
 6625SOL     OW20773   5.694   6.416   0.071
 6625SOL    HW120774   5.738   6.382   7.012
 6625SOL    HW220775   5.670   6.513   0.058
 6626SOL     OW20776   2.543   5.024   3.983
 6626SOL    HW120777   2.501   4.965   4.051
 6626SOL    HW220778   2.557   4.973   3.898
 6627SOL     OW20779   1.395   0.789   1.656
 6627SOL    HW120780   1.307   0.785   1.608
 6627SOL    HW220781   1.466   0.751   1.597
 6628SOL     OW20782   4.035   6.369   3.568
 6628SOL    HW120783   4.017   6.314   3.649
 6628SOL    HW220784   3.951   6.413   3.538
 6629SOL     OW20785   2.905   3.991   0.194
 6629SOL    HW120786   2.843   3.937   0.137
 6629SOL    HW220787   2.999   3.961   0.179
 6630SOL     OW20788   3.928   0.984   6.294
 6630SOL    HW120789   3.906   1.072   6.337
 6630SOL    HW220790   3.874   0.911   6.338
 6631SOL     OW20791   3.683   6.961   1.199
 6631SOL    HW120792   3.710   7.010   1.282
 6631SOL    HW220793   3.654   0.003   1.130
 6632SOL     OW20794   6.026   3.374   2.015
 6632SOL    HW120795   6.052   3.407   1.924
 6632SOL    HW220796   6.101   3.394   2.079
 6633SOL     OW20797   0.807   6.392   2.794
 6633SOL    HW120798   0.787   6.424   2.887
 6633SOL    HW220799   0.725   6.350   2.755
 6634SOL     OW20800   6.760   2.013   5.977
 6634SOL    HW120801   6.667   1.979   5.963
 6634SOL    HW220802   6.757   2.098   6.029
 6635SOL     OW20803   4.453   5.103   3.376
 6635SOL    HW120804   4.435   5.201   3.381
 6635SOL    HW220805   4.551   5.087   3.359
 6636SOL     OW20806   1.722   3.611   3.390
 6636SOL    HW120807   1.654   3.588   3.459
 6636SOL    HW220808   1.812   3.620   3.434
 6637SOL     OW20809   6.836   3.078   1.155
 6637SOL    HW120810   6.741   3.078   1.187
 6637SOL    HW220811   6.845   3.141   1.078
 6638SOL     OW20812   1.923   0.947   6.783
 6638SOL    HW120813   1.948   1.000   6.701
 6638SOL    HW220814   1.901   1.010   6.857
 6639SOL     OW20815   3.955   5.165   5.968
 6639SOL    HW120816   3.917   5.236   6.027
 6639SOL    HW220817   3.990   5.090   6.024
 6640SOL     OW20818   5.925   3.901   2.940
 6640SOL    HW120819   5.982   3.940   3.013
 6640SOL    HW220820   5.860   3.837   2.980
 6641SOL     OW20821   2.385   5.832   6.648
 6641SOL    HW120822   2.430   5.869   6.566
 6641SOL    HW220823   2.454   5.796   6.711
 6642SOL     OW20824   6.619   6.173   5.934
 6642SOL    HW120825   6.630   6.272   5.926
 6642SOL    HW220826   6.709   6.129   5.934
 6643SOL     OW20827   4.001   5.551   0.063
 6643SOL    HW120828   3.939   5.560   7.008
 6643SOL    HW220829   3.990   5.461   0.104
 6644SOL     OW20830   0.944   3.783   1.726
 6644SOL    HW120831   0.856   3.776   1.774
 6644SOL    HW220832   1.017   3.801   1.792
 6645SOL     OW20833   6.915   4.516   5.594
 6645SOL    HW120834   6.900   4.423   5.628
 6645SOL    HW220835   6.871   4.581   5.656
 6646SOL     OW20836   1.555   5.289   3.673
 6646SOL    HW120837   1.493   5.218   3.639
 6646SOL    HW220838   1.622   5.312   3.602
 6647SOL     OW20839   4.317   1.694   1.709
 6647SOL    HW120840   4.228   1.698   1.753
 6647SOL    HW220841   4.355   1.602   1.718
 6648SOL     OW20842   4.249   5.883   2.204
 6648SOL    HW120843   4.158   5.862   2.167
 6648SOL    HW220844   4.264   5.981   2.201
 6649SOL     OW20845   4.395   1.348   5.921
 6649SOL    HW120846   4.309   1.395   5.941
 6649SOL    HW220847   4.447   1.400   5.853
 6650SOL     OW20848   3.526   1.378   3.762
 6650SOL    HW120849   3.584   1.459   3.768
 6650SOL    HW220850   3.444   1.391   3.820
 6651SOL     OW20851   0.498   1.604   0.747
 6651SOL    HW120852   0.419   1.554   0.711
 6651SOL    HW220853   0.532   1.556   0.828
 6652SOL     OW20854   0.871   5.096   3.339
 6652SOL    HW120855   0.829   5.017   3.384
 6652SOL    HW220856   0.855   5.178   3.394
 6653SOL     OW20857   3.898   3.657   3.190
 6653SOL    HW120858   3.825   3.590   3.202
 6653SOL    HW220859   3.972   3.639   3.255
 6654SOL     OW20860   1.532   3.865   1.583
 6654SOL    HW120861   1.615   3.896   1.538
 6654SOL    HW220862   1.466   3.940   1.589
 6655SOL     OW20863   1.567   1.057   6.942
 6655SOL    HW120864   1.582   1.041   0.016
 6655SOL    HW220865   1.595   1.150   6.918
 6656SOL     OW20866   6.675   2.564   1.760
 6656SOL    HW120867   6.639   2.490   1.703
 6656SOL    HW220868   6.603   2.598   1.821
 6657SOL     OW20869   3.199   5.224   5.286
 6657SOL    HW120870   3.188   5.212   5.385
 6657SOL    HW220871   3.133   5.165   5.239
 6658SOL     OW20872   6.748   6.855   5.854
 6658SOL    HW120873   6.680   6.787   5.828
 6658SOL    HW220874   6.707   6.919   5.919
 6659SOL     OW20875   1.817   2.969   6.700
 6659SOL    HW120876   1.830   2.896   6.767
 6659SOL    HW220877   1.783   2.930   6.615
 6660SOL     OW20878   0.495   6.341   2.764
 6660SOL    HW120879   0.464   6.419   2.710
 6660SOL    HW220880   0.504   6.369   2.860
 6661SOL     OW20881   6.517   6.661   4.326
 6661SOL    HW120882   6.550   6.601   4.399
 6661SOL    HW220883   6.537   6.620   4.238
 6662SOL     OW20884   1.072   3.858   6.197
 6662SOL    HW120885   0.978   3.862   6.163
 6662SOL    HW220886   1.076   3.899   6.288
 6663SOL     OW20887   0.409   5.246   2.116
 6663SOL    HW120888   0.428   5.301   2.034
 6663SOL    HW220889   0.319   5.270   2.152
 6664SOL     OW20890   6.775   2.314   1.915
 6664SOL    HW120891   6.841   2.305   1.989
 6664SOL    HW220892   6.736   2.407   1.917
 6665SOL     OW20893   2.101   6.430   3.541
 6665SOL    HW120894   2.028   6.392   3.598
 6665SOL    HW220895   2.087   6.401   3.446
 6666SOL     OW20896   5.135   0.776   0.257
 6666SOL    HW120897   5.069   0.843   0.224
 6666SOL    HW220898   5.192   0.818   0.327
 6667SOL     OW20899   5.675   4.891   5.292
 6667SOL    HW120900   5.721   4.902   5.204
 6667SOL    HW220901   5.644   4.796   5.303
 6668SOL     OW20902   6.252   5.928   1.313
 6668SOL    HW120903   6.167   5.974   1.288
 6668SOL    HW220904   6.273   5.857   1.246
 6669SOL     OW20905   0.810   5.060   3.073
 6669SOL    HW120906   0.844   5.063   3.167
 6669SOL    HW220907   0.884   5.034   3.011
 6670SOL     OW20908   4.775   4.543   6.950
 6670SOL    HW120909   4.787   4.560   6.852
 6670SOL    HW220910   4.852   4.490   6.985
 6671SOL     OW20911   0.610   2.387   5.599
 6671SOL    HW120912   0.583   2.292   5.611
 6671SOL    HW220913   0.609   2.410   5.502
 6672SOL     OW20914   0.093   1.004   4.968
 6672SOL    HW120915   0.055   1.090   4.936
 6672SOL    HW220916   0.070   0.991   5.065
 6673SOL     OW20917   4.175   6.277   1.492
 6673SOL    HW120918   4.235   6.198   1.506
 6673SOL    HW220919   4.107   6.255   1.422
 6674SOL     OW20920   0.800   6.405   5.128
 6674SOL    HW120921   0.896   6.425   5.148
 6674SOL    HW220922   0.782   6.420   5.031
 6675SOL     OW20923   6.848   6.050   6.868
 6675SOL    HW120924   6.752   6.038   6.890
 6675SOL    HW220925   6.901   5.973   6.904
 6676SOL     OW20926   0.314   1.750   0.892
 6676SOL    HW120927   0.222   1.744   0.854
 6676SOL    HW220928   0.374   1.686   0.844
 6677SOL     OW20929   0.426   4.803   0.794
 6677SOL    HW120930   0.519   4.778   0.819
 6677SOL    HW220931   0.423   4.900   0.769
 6678SOL     OW20932   0.855   3.190   4.038
 6678SOL    HW120933   0.823   3.114   3.980
 6678SOL    HW220934   0.795   3.198   4.118
 6679SOL     OW20935   2.325   0.912   4.815
 6679SOL    HW120936   2.362   0.916   4.722
 6679SOL    HW220937   2.272   0.994   4.833
 6680SOL     OW20938   2.605   0.384   6.452
 6680SOL    HW120939   2.655   0.299   6.434
 6680SOL    HW220940   2.507   0.366   6.449
 6681SOL     OW20941   5.564   5.530   6.265
 6681SOL    HW120942   5.494   5.555   6.332
 6681SOL    HW220943   5.548   5.578   6.179
 6682SOL     OW20944   6.492   5.139   2.033
 6682SOL    HW120945   6.572   5.110   2.086
 6682SOL    HW220946   6.411   5.090   2.067
 6683SOL     OW20947   4.789   2.619   4.320
 6683SOL    HW120948   4.705   2.606   4.374
 6683SOL    HW220949   4.781   2.701   4.265
 6684SOL     OW20950   1.441   1.427   2.219
 6684SOL    HW120951   1.517   1.440   2.154
 6684SOL    HW220952   1.476   1.386   2.303
 6685SOL     OW20953   5.784   2.669   6.999
 6685SOL    HW120954   5.784   2.741   0.045
 6685SOL    HW220955   5.752   2.706   6.912
 6686SOL     OW20956   5.458   4.422   3.658
 6686SOL    HW120957   5.367   4.397   3.691
 6686SOL    HW220958   5.526   4.358   3.695
 6687SOL     OW20959   0.873   0.614   0.521
 6687SOL    HW120960   0.910   0.568   0.602
 6687SOL    HW220961   0.915   0.576   0.439
 6688SOL     OW20962   0.876   5.026   2.758
 6688SOL    HW120963   0.944   5.095   2.783
 6688SOL    HW220964   0.923   4.941   2.732
 6689SOL     OW20965   4.968   3.914   0.073
 6689SOL    HW120966   5.031   3.837   0.068
 6689SOL    HW220967   5.004   3.990   0.018
 6690SOL     OW20968   0.442   1.447   0.415
 6690SOL    HW120969   0.367   1.460   0.480
 6690SOL    HW220970   0.488   1.535   0.400
 6691SOL     OW20971   1.189   5.567   0.972
 6691SOL    HW120972   1.276   5.601   0.938
 6691SOL    HW220973   1.203   5.516   1.057
 6692SOL     OW20974   4.839   3.542   6.772
 6692SOL    HW120975   4.825   3.620   6.710
 6692SOL    HW220976   4.828   3.457   6.721
 6693SOL     OW20977   4.279   3.638   6.223
 6693SOL    HW120978   4.332   3.719   6.198
 6693SOL    HW220979   4.339   3.558   6.222
 6694SOL     OW20980   2.979   6.150   6.763
 6694SOL    HW120981   2.974   6.054   6.790
 6694SOL    HW220982   2.893   6.196   6.786
 6695SOL     OW20983   1.807   1.502   0.208
 6695SOL    HW120984   1.833   1.527   0.115
 6695SOL    HW220985   1.811   1.583   0.267
 6696SOL     OW20986   1.436   2.284   1.438
 6696SOL    HW120987   1.388   2.206   1.396
 6696SOL    HW220988   1.483   2.253   1.521
 6697SOL     OW20989   5.203   3.434   4.497
 6697SOL    HW120990   5.241   3.414   4.588
 6697SOL    HW220991   5.277   3.455   4.434
 6698SOL     OW20992   2.642   4.094   6.239
 6698SOL    HW120993   2.670   3.998   6.239
 6698SOL    HW220994   2.702   4.146   6.299
 6699SOL     OW20995   2.093   2.956   6.598
 6699SOL    HW120996   2.069   2.859   6.594
 6699SOL    HW220997   2.014   3.008   6.631
 6700SOL     OW20998   0.328   6.366   6.417
 6700SOL    HW120999   0.265   6.399   6.487
 6700SOL    HW221000   0.287   6.378   6.327
 6701SOL     OW21001   1.349   2.612   0.600
 6701SOL    HW121002   1.340   2.512   0.603
 6701SOL    HW221003   1.315   2.651   0.686
 6702SOL     OW21004   2.585   3.272   0.626
 6702SOL    HW121005   2.648   3.215   0.678
 6702SOL    HW221006   2.636   3.330   0.562
 6703SOL     OW21007   0.272   2.465   7.023
 6703SOL    HW121008   0.210   2.433   0.072
 6703SOL    HW221009   0.367   2.454   0.030
 6704SOL     OW21010   5.179   3.581   2.787
 6704SOL    HW121011   5.081   3.585   2.766
 6704SOL    HW221012   5.193   3.587   2.886
 6705SOL     OW21013   5.304   1.347   1.437
 6705SOL    HW121014   5.340   1.297   1.516
 6705SOL    HW221015   5.265   1.433   1.467
 6706SOL     OW21016   1.375   6.198   0.091
 6706SOL    HW121017   1.312   6.272   0.116
 6706SOL    HW221018   1.325   6.126   0.043
 6707SOL     OW21019   1.587   5.144   2.961
 6707SOL    HW121020   1.581   5.063   3.018
 6707SOL    HW221021   1.563   5.225   3.014
 6708SOL     OW21022   2.269   6.293   1.115
 6708SOL    HW121023   2.252   6.209   1.165
 6708SOL    HW221024   2.321   6.356   1.172
 6709SOL     OW21025   5.354   1.735   3.793
 6709SOL    HW121026   5.260   1.719   3.765
 6709SOL    HW221027   5.370   1.692   3.881
 6710SOL     OW21028   2.082   2.388   0.552
 6710SOL    HW121029   2.145   2.458   0.520
 6710SOL    HW221030   1.990   2.407   0.519
 6711SOL     OW21031   5.860   3.463   6.407
 6711SOL    HW121032   5.902   3.461   6.316
 6711SOL    HW221033   5.838   3.557   6.431
 6712SOL     OW21034   3.509   6.411   1.392
 6712SOL    HW121035   3.450   6.421   1.472
 6712SOL    HW221036   3.455   6.418   1.309
 6713SOL     OW21037   1.564   2.362   3.164
 6713SOL    HW121038   1.523   2.307   3.091
 6713SOL    HW221039   1.501   2.368   3.241
 6714SOL     OW21040   6.642   0.509   4.949
 6714SOL    HW121041   6.566   0.445   4.938
 6714SOL    HW221042   6.656   0.528   5.046
 6715SOL     OW21043   5.263   2.572   0.803
 6715SOL    HW121044   5.208   2.631   0.862
 6715SOL    HW221045   5.217   2.484   0.790
 6716SOL     OW21046   3.527   6.222   0.980
 6716SOL    HW121047   3.485   6.132   0.968
 6716SOL    HW221048   3.593   6.218   1.054
 6717SOL     OW21049   3.789   0.869   6.697
 6717SOL    HW121050   3.809   0.777   6.731
 6717SOL    HW221051   3.807   0.935   6.770
 6718SOL     OW21052   4.118   0.288   6.583
 6718SOL    HW121053   4.018   0.282   6.578
 6718SOL    HW221054   4.154   0.300   6.491
 6719SOL     OW21055   0.418   1.942   5.171
 6719SOL    HW121056   0.472   1.932   5.088
 6719SOL    HW221057   0.473   1.988   5.241
 6720SOL     OW21058   1.273   4.721   1.046
 6720SOL    HW121059   1.343   4.735   1.115
 6720SOL    HW221060   1.198   4.667   1.086
 6721SOL     OW21061   6.279   6.430   3.047
 6721SOL    HW121062   6.179   6.433   3.059
 6721SOL    HW221063   6.312   6.337   3.060
 6722SOL     OW21064   3.990   4.633   0.156
 6722SOL    HW121065   3.899   4.671   0.142
 6722SOL    HW221066   4.013   4.573   0.080
 6723SOL     OW21067   3.849   1.430   2.670
 6723SOL    HW121068   3.835   1.463   2.576
 6723SOL    HW221069   3.883   1.505   2.727
 6724SOL     OW21070   3.542   4.613   5.723
 6724SOL    HW121071   3.517   4.672   5.647
 6724SOL    HW221072   3.507   4.652   5.808
 6725SOL     OW21073   0.587   5.600   1.589
 6725SOL    HW121074   0.584   5.532   1.516
 6725SOL    HW221075   0.517   5.670   1.573
 6726SOL     OW21076   2.362   2.595   1.777
 6726SOL    HW121077   2.272   2.609   1.735
 6726SOL    HW221078   2.422   2.548   1.712
 6727SOL     OW21079   2.613   4.235   0.878
 6727SOL    HW121080   2.711   4.216   0.864
 6727SOL    HW221081   2.575   4.168   0.942
 6728SOL     OW21082   4.742   1.439   4.332
 6728SOL    HW121083   4.724   1.343   4.355
 6728SOL    HW221084   4.825   1.469   4.378
 6729SOL     OW21085   4.817   6.156   3.564
 6729SOL    HW121086   4.722   6.181   3.549
 6729SOL    HW221087   4.838   6.071   3.517
 6730SOL     OW21088   1.251   6.872   2.772
 6730SOL    HW121089   1.335   6.922   2.752
 6730SOL    HW221090   1.203   6.852   2.686
 6731SOL     OW21091   2.028   3.820   1.485
 6731SOL    HW121092   2.072   3.842   1.572
 6731SOL    HW221093   1.929   3.834   1.494
 6732SOL     OW21094   3.459   5.692   0.725
 6732SOL    HW121095   3.401   5.708   0.805
 6732SOL    HW221096   3.440   5.601   0.688
 6733SOL     OW21097   6.502   5.941   4.179
 6733SOL    HW121098   6.539   5.851   4.203
 6733SOL    HW221099   6.448   5.934   4.095
 6734SOL     OW21100   2.340   3.611   6.752
 6734SOL    HW121101   2.258   3.560   6.779
 6734SOL    HW221102   2.335   3.634   6.655
 6735SOL     OW21103   0.967   6.630   6.203
 6735SOL    HW121104   1.056   6.675   6.214
 6735SOL    HW221105   0.977   6.549   6.146
 6736SOL     OW21106   2.193   4.457   2.033
 6736SOL    HW121107   2.099   4.490   2.023
 6736SOL    HW221108   2.200   4.365   1.994
 6737SOL     OW21109   1.228   6.531   1.143
 6737SOL    HW121110   1.172   6.607   1.175
 6737SOL    HW221111   1.255   6.547   1.049
 6738SOL     OW21112   4.794   1.624   1.253
 6738SOL    HW121113   4.859   1.700   1.265
 6738SOL    HW221114   4.824   1.567   1.176
 6739SOL     OW21115   3.626   6.303   5.496
 6739SOL    HW121116   3.681   6.376   5.535
 6739SOL    HW221117   3.653   6.216   5.536
 6740SOL     OW21118   5.708   2.179   6.228
 6740SOL    HW121119   5.689   2.226   6.314
 6740SOL    HW221120   5.806   2.187   6.206
 6741SOL     OW21121   0.520   0.763   5.470
 6741SOL    HW121122   0.515   0.819   5.553
 6741SOL    HW221123   0.608   0.779   5.425
 6742SOL     OW21124   6.161   5.544   4.622
 6742SOL    HW121125   6.080   5.574   4.571
 6742SOL    HW221126   6.205   5.623   4.665
 6743SOL     OW21127   5.696   2.221   1.434
 6743SOL    HW121128   5.691   2.172   1.347
 6743SOL    HW221129   5.615   2.200   1.489
 6744SOL     OW21130   4.586   0.861   4.304
 6744SOL    HW121131   4.537   0.776   4.287
 6744SOL    HW221132   4.649   0.849   4.381
 6745SOL     OW21133   0.717   3.861   2.947
 6745SOL    HW121134   0.617   3.865   2.937
 6745SOL    HW221135   0.741   3.861   3.044
 6746SOL     OW21136   6.181   0.932   0.482
 6746SOL    HW121137   6.110   0.991   0.521
 6746SOL    HW221138   6.258   0.989   0.452
 6747SOL     OW21139   4.975   5.101   6.601
 6747SOL    HW121140   4.956   5.044   6.520
 6747SOL    HW221141   4.988   5.196   6.573
 6748SOL     OW21142   6.792   6.285   2.490
 6748SOL    HW121143   6.760   6.355   2.426
 6748SOL    HW221144   6.864   6.322   2.547
 6749SOL     OW21145   2.618   5.272   1.067
 6749SOL    HW121146   2.683   5.212   1.020
 6749SOL    HW221147   2.659   5.363   1.077
 6750SOL     OW21148   2.484   3.184   5.405
 6750SOL    HW121149   2.394   3.200   5.444
 6750SOL    HW221150   2.475   3.130   5.321
 6751SOL     OW21151   4.089   2.372   5.920
 6751SOL    HW121152   4.177   2.326   5.929
 6751SOL    HW221153   4.057   2.364   5.826
 6752SOL     OW21154   6.501   1.389   0.065
 6752SOL    HW121155   6.549   1.459   0.012
 6752SOL    HW221156   6.423   1.431   0.113
 6753SOL     OW21157   6.183   0.775   6.779
 6753SOL    HW121158   6.208   0.747   6.872
 6753SOL    HW221159   6.216   0.707   6.714
 6754SOL     OW21160   4.336   1.258   6.707
 6754SOL    HW121161   4.420   1.254   6.653
 6754SOL    HW221162   4.258   1.269   6.646
 6755SOL     OW21163   5.313   1.764   3.247
 6755SOL    HW121164   5.284   1.689   3.188
 6755SOL    HW221165   5.266   1.758   3.334
 6756SOL     OW21166   4.813   4.780   3.418
 6756SOL    HW121167   4.869   4.697   3.422
 6756SOL    HW221168   4.839   4.835   3.339
 6757SOL     OW21169   6.168   4.328   1.313
 6757SOL    HW121170   6.140   4.281   1.396
 6757SOL    HW221171   6.087   4.362   1.264
 6758SOL     OW21172   6.155   2.141   2.686
 6758SOL    HW121173   6.120   2.227   2.650
 6758SOL    HW221174   6.169   2.076   2.611
 6759SOL     OW21175   0.642   4.942   3.723
 6759SOL    HW121176   0.601   4.853   3.703
 6759SOL    HW221177   0.570   5.008   3.745
 6760SOL     OW21178   0.599   3.736   4.918
 6760SOL    HW121179   0.586   3.703   5.011
 6760SOL    HW221180   0.528   3.697   4.859
 6761SOL     OW21181   6.075   2.596   7.000
 6761SOL    HW121182   5.982   2.622   6.976
 6761SOL    HW221183   6.135   2.675   6.990
 6762SOL     OW21184   0.150   2.840   4.387
 6762SOL    HW121185   0.180   2.756   4.432
 6762SOL    HW221186   0.227   2.881   4.339
 6763SOL     OW21187   6.101   6.299   5.788
 6763SOL    HW121188   6.091   6.345   5.700
 6763SOL    HW221189   6.109   6.200   5.772
 6764SOL     OW21190   1.806   3.495   0.295
 6764SOL    HW121191   1.727   3.531   0.345
 6764SOL    HW221192   1.786   3.494   0.197
 6765SOL     OW21193   4.824   5.176   1.996
 6765SOL    HW121194   4.752   5.119   2.037
 6765SOL    HW221195   4.911   5.155   2.041
 6766SOL     OW21196   2.966   2.527   5.425
 6766SOL    HW121197   2.950   2.429   5.440
 6766SOL    HW221198   2.943   2.550   5.330
 6767SOL     OW21199   0.462   2.811   5.515
 6767SOL    HW121200   0.558   2.783   5.516
 6767SOL    HW221201   0.409   2.754   5.577
 6768SOL     OW21202   7.016   0.841   5.914
 6768SOL    HW121203   0.038   0.916   5.866
 6768SOL    HW221204   0.001   0.854   6.013
 6769SOL     OW21205   0.931   2.336   6.078
 6769SOL    HW121206   0.847   2.339   6.024
 6769SOL    HW221207   0.908   2.335   6.175
 6770SOL     OW21208   0.708   1.678   3.808
 6770SOL    HW121209   0.693   1.776   3.800
 6770SOL    HW221210   0.791   1.661   3.862
 6771SOL     OW21211   5.335   2.411   2.401
 6771SOL    HW121212   5.406   2.444   2.463
 6771SOL    HW221213   5.357   2.437   2.307
 6772SOL     OW21214   1.022   0.158   1.790
 6772SOL    HW121215   0.961   0.231   1.760
 6772SOL    HW221216   1.067   0.118   1.710
 6773SOL     OW21217   1.681   0.933   2.974
 6773SOL    HW121218   1.742   0.994   2.923
 6773SOL    HW221219   1.586   0.959   2.956
 6774SOL     OW21220   4.162   1.344   5.547
 6774SOL    HW121221   4.172   1.262   5.603
 6774SOL    HW221222   4.122   1.417   5.602
 6775SOL     OW21223   1.646   2.527   5.012
 6775SOL    HW121224   1.594   2.607   4.982
 6775SOL    HW221225   1.685   2.481   4.933
 6776SOL     OW21226   3.433   3.723   3.897
 6776SOL    HW121227   3.486   3.807   3.883
 6776SOL    HW221228   3.471   3.672   3.975
 6777SOL     OW21229   0.256   0.508   5.413
 6777SOL    HW121230   0.176   0.448   5.408
 6777SOL    HW221231   0.303   0.494   5.500
 6778SOL     OW21232   6.249   5.960   2.125
 6778SOL    HW121233   6.311   5.974   2.048
 6778SOL    HW221234   6.212   5.867   2.122
 6779SOL     OW21235   5.842   3.789   6.278
 6779SOL    HW121236   5.910   3.835   6.220
 6779SOL    HW221237   5.778   3.739   6.219
 6780SOL     OW21238   5.169   0.773   2.711
 6780SOL    HW121239   5.196   0.713   2.786
 6780SOL    HW221240   5.098   0.836   2.743
 6781SOL     OW21241   6.079   4.006   3.133
 6781SOL    HW121242   6.008   3.996   3.202
 6781SOL    HW221243   6.150   4.070   3.165
 6782SOL     OW21244   0.039   1.712   2.904
 6782SOL    HW121245   7.018   1.798   2.878
 6782SOL    HW221246   0.080   1.721   2.994
 6783SOL     OW21247   0.854   5.867   6.817
 6783SOL    HW121248   0.898   5.888   6.904
 6783SOL    HW221249   0.757   5.890   6.821
 6784SOL     OW21250   1.689   4.796   6.514
 6784SOL    HW121251   1.773   4.764   6.558
 6784SOL    HW221252   1.645   4.865   6.572
 6785SOL     OW21253   5.087   4.477   1.967
 6785SOL    HW121254   5.075   4.406   1.897
 6785SOL    HW221255   5.118   4.561   1.924
 6786SOL     OW21256   6.074   1.137   6.046
 6786SOL    HW121257   6.142   1.210   6.045
 6786SOL    HW221258   6.081   1.083   5.962
 6787SOL     OW21259   4.526   2.666   1.115
 6787SOL    HW121260   4.501   2.762   1.126
 6787SOL    HW221261   4.609   2.659   1.059
 6788SOL     OW21262   1.357   4.422   0.881
 6788SOL    HW121263   1.316   4.491   0.940
 6788SOL    HW221264   1.286   4.366   0.839
 6789SOL     OW21265   6.144   2.787   2.754
 6789SOL    HW121266   6.183   2.737   2.677
 6789SOL    HW221267   6.133   2.725   2.832
 6790SOL     OW21268   0.674   5.849   0.502
 6790SOL    HW121269   0.730   5.919   0.457
 6790SOL    HW221270   0.603   5.817   0.440
 6791SOL     OW21271   1.789   6.047   3.920
 6791SOL    HW121272   1.735   5.968   3.892
 6791SOL    HW221273   1.885   6.020   3.929
 6792SOL     OW21274   3.213   5.795   0.133
 6792SOL    HW121275   3.127   5.813   0.179
 6792SOL    HW221276   3.215   5.701   0.101
 6793SOL     OW21277   1.785   3.433   6.573
 6793SOL    HW121278   1.759   3.523   6.541
 6793SOL    HW221279   1.868   3.403   6.526
 6794SOL     OW21280   4.577   2.599   4.488
 6794SOL    HW121281   4.523   2.522   4.453
 6794SOL    HW221282   4.541   2.626   4.578
 6795SOL     OW21283   0.653   0.309   2.403
 6795SOL    HW121284   0.583   0.238   2.391
 6795SOL    HW221285   0.620   0.395   2.365
 6796SOL     OW21286   6.596   2.673   2.245
 6796SOL    HW121287   6.559   2.641   2.158
 6796SOL    HW221288   6.608   2.772   2.242
 6797SOL     OW21289   1.707   3.545   0.766
 6797SOL    HW121290   1.643   3.469   0.775
 6797SOL    HW221291   1.664   3.629   0.801
 6798SOL     OW21292   4.811   1.868   1.527
 6798SOL    HW121293   4.723   1.869   1.575
 6798SOL    HW221294   4.796   1.855   1.429
 6799SOL     OW21295   4.829   0.145   2.922
 6799SOL    HW121296   4.753   0.111   2.867
 6799SOL    HW221297   4.831   0.245   2.918
 6800SOL     OW21298   6.186   2.575   2.079
 6800SOL    HW121299   6.156   2.594   2.173
 6800SOL    HW221300   6.157   2.650   2.019
 6801SOL     OW21301   2.325   5.204   5.091
 6801SOL    HW121302   2.369   5.119   5.062
 6801SOL    HW221303   2.230   5.186   5.113
 6802SOL     OW21304   2.691   4.249   1.563
 6802SOL    HW121305   2.665   4.202   1.478
 6802SOL    HW221306   2.745   4.187   1.620
 6803SOL     OW21307   6.087   5.562   6.260
 6803SOL    HW121308   6.120   5.656   6.271
 6803SOL    HW221309   6.144   5.515   6.193
 6804SOL     OW21310   3.380   5.160   1.729
 6804SOL    HW121311   3.440   5.231   1.766
 6804SOL    HW221312   3.321   5.125   1.801
 6805SOL     OW21313   0.815   3.958   3.992
 6805SOL    HW121314   0.728   3.960   4.042
 6805SOL    HW221315   0.876   4.028   4.029
 6806SOL     OW21316   5.948   3.909   2.126
 6806SOL    HW121317   6.006   3.831   2.150
 6806SOL    HW221318   6.001   3.974   2.071
 6807SOL     OW21319   4.056   3.625   2.612
 6807SOL    HW121320   4.091   3.618   2.518
 6807SOL    HW221321   3.961   3.594   2.614
 6808SOL     OW21322   2.899   6.493   4.335
 6808SOL    HW121323   2.917   6.484   4.237
 6808SOL    HW221324   2.911   6.405   4.379
 6809SOL     OW21325   5.971   2.755   0.599
 6809SOL    HW121326   6.010   2.824   0.661
 6809SOL    HW221327   5.950   2.672   0.651
 6810SOL     OW21328   3.032   0.063   4.678
 6810SOL    HW121329   3.129   0.069   4.652
 6810SOL    HW221330   3.011   6.993   4.708
 6811SOL     OW21331   6.442   1.801   1.208
 6811SOL    HW121332   6.495   1.784   1.291
 6811SOL    HW221333   6.371   1.869   1.227
 6812SOL     OW21334   3.378   4.620   5.298
 6812SOL    HW121335   3.400   4.663   5.386
 6812SOL    HW221336   3.356   4.692   5.231
 6813SOL     OW21337   0.162   3.930   1.940
 6813SOL    HW121338   0.220   4.010   1.956
 6813SOL    HW221339   0.203   3.850   1.983
 6814SOL     OW21340   4.451   2.377   1.365
 6814SOL    HW121341   4.479   2.344   1.275
 6814SOL    HW221342   4.508   2.333   1.436
 6815SOL     OW21343   1.414   5.905   1.059
 6815SOL    HW121344   1.425   5.817   1.015
 6815SOL    HW221345   1.388   5.892   1.155
 6816SOL     OW21346   5.736   6.989   3.423
 6816SOL    HW121347   5.768   7.010   3.515
 6816SOL    HW221348   5.769   0.034   3.359
 6817SOL     OW21349   5.844   0.937   1.312
 6817SOL    HW121350   5.909   0.900   1.379
 6817SOL    HW221351   5.803   0.862   1.261
 6818SOL     OW21352   6.888   0.211   5.535
 6818SOL    HW121353   6.935   0.207   5.447
 6818SOL    HW221354   6.807   0.152   5.532
 6819SOL     OW21355   6.048   3.312   0.768
 6819SOL    HW121356   6.100   3.390   0.735
 6819SOL    HW221357   5.972   3.344   0.824
 6820SOL     OW21358   2.139   4.544   0.922
 6820SOL    HW121359   2.149   4.463   0.863
 6820SOL    HW221360   2.183   4.526   1.010
 6821SOL     OW21361   2.632   3.328   5.752
 6821SOL    HW121362   2.727   3.358   5.765
 6821SOL    HW221363   2.632   3.235   5.716
 6822SOL     OW21364   0.164   4.477   4.956
 6822SOL    HW121365   0.215   4.427   5.026
 6822SOL    HW221366   0.067   4.452   4.962
 6823SOL     OW21367   0.074   3.429   5.770
 6823SOL    HW121368   0.023   3.393   5.692
 6823SOL    HW221369   0.072   3.362   5.844
 6824SOL     OW21370   0.470   0.343   3.986
 6824SOL    HW121371   0.497   0.393   4.069
 6824SOL    HW221372   0.382   0.298   4.001
 6825SOL     OW21373   4.958   4.712   1.527
 6825SOL    HW121374   4.865   4.722   1.491
 6825SOL    HW221375   4.994   4.802   1.551
 6826SOL     OW21376   5.691   0.678   4.253
 6826SOL    HW121377   5.604   0.651   4.211
 6826SOL    HW221378   5.686   0.663   4.352
 6827SOL     OW21379   5.042   4.977   5.449
 6827SOL    HW121380   5.136   4.951   5.468
 6827SOL    HW221381   4.996   5.004   5.534
 6828SOL     OW21382   2.622   1.983   2.712
 6828SOL    HW121383   2.615   1.996   2.613
 6828SOL    HW221384   2.692   1.915   2.732
 6829SOL     OW21385   5.854   7.023   4.728
 6829SOL    HW121386   5.939   0.014   4.778
 6829SOL    HW221387   5.796   6.958   4.778
 6830SOL     OW21388   3.532   6.556   2.206
 6830SOL    HW121389   3.456   6.608   2.245
 6830SOL    HW221390   3.536   6.465   2.249
 6831SOL     OW21391   2.217   0.366   0.190
 6831SOL    HW121392   2.187   0.342   0.097
 6831SOL    HW221393   2.294   0.429   0.185
 6832SOL     OW21394   3.396   3.922   0.452
 6832SOL    HW121395   3.315   3.970   0.484
 6832SOL    HW221396   3.371   3.861   0.377
 6833SOL     OW21397   4.315   5.301   0.229
 6833SOL    HW121398   4.341   5.259   0.142
 6833SOL    HW221399   4.326   5.400   0.222
 6834SOL     OW21400   6.546   5.533   5.126
 6834SOL    HW121401   6.481   5.470   5.082
 6834SOL    HW221402   6.555   5.508   5.222
 6835SOL     OW21403   4.071   0.381   2.618
 6835SOL    HW121404   4.062   0.402   2.521
 6835SOL    HW221405   4.009   0.307   2.643
 6836SOL     OW21406   1.028   4.759   6.310
 6836SOL    HW121407   0.977   4.830   6.261
 6836SOL    HW221408   1.040   4.786   6.405
 6837SOL     OW21409   6.359   2.489   1.505
 6837SOL    HW121410   6.287   2.434   1.463
 6837SOL    HW221411   6.331   2.516   1.597
 6838SOL     OW21412   1.960   4.183   0.000
 6838SOL    HW121413   1.885   4.250   7.022
 6838SOL    HW221414   1.966   4.143   0.092
 6839SOL     OW21415   6.192   2.339   5.445
 6839SOL    HW121416   6.141   2.354   5.529
 6839SOL    HW221417   6.156   2.398   5.373
 6840SOL     OW21418   3.079   0.437   4.347
 6840SOL    HW121419   3.052   0.457   4.253
 6840SOL    HW221420   2.999   0.437   4.406
 6841SOL     OW21421   4.830   5.915   0.828
 6841SOL    HW121422   4.780   5.836   0.793
 6841SOL    HW221423   4.802   5.933   0.923
 6842SOL     OW21424   0.774   3.398   3.424
 6842SOL    HW121425   0.835   3.445   3.360
 6842SOL    HW221426   0.805   3.304   3.438
 6843SOL     OW21427   4.439   2.972   1.727
 6843SOL    HW121428   4.524   2.978   1.779
 6843SOL    HW221429   4.450   2.907   1.652
 6844SOL     OW21430   3.406   6.664   4.728
 6844SOL    HW121431   3.314   6.627   4.733
 6844SOL    HW221432   3.447   6.640   4.640
 6845SOL     OW21433   3.496   3.904   0.053
 6845SOL    HW121434   3.456   3.820   0.019
 6845SOL    HW221435   3.538   3.888   0.142
 6846SOL     OW21436   3.918   3.050   4.023
 6846SOL    HW121437   3.850   2.984   3.991
 6846SOL    HW221438   3.882   3.143   4.012
 6847SOL     OW21439   5.148   3.766   1.974
 6847SOL    HW121440   5.137   3.826   1.894
 6847SOL    HW221441   5.178   3.820   2.052
 6848SOL     OW21442   0.740   6.159   4.543
 6848SOL    HW121443   0.793   6.127   4.621
 6848SOL    HW221444   0.672   6.090   4.518
 6849SOL     OW21445   2.767   0.302   4.752
 6849SOL    HW121446   2.850   0.261   4.790
 6849SOL    HW221447   2.690   0.283   4.812
 6850SOL     OW21448   6.848   3.252   1.974
 6850SOL    HW121449   6.789   3.200   2.036
 6850SOL    HW221450   6.818   3.238   1.880
 6851SOL     OW21451   1.723   5.663   0.697
 6851SOL    HW121452   1.629   5.657   0.664
 6851SOL    HW221453   1.786   5.658   0.619
 6852SOL     OW21454   4.966   4.757   2.406
 6852SOL    HW121455   4.881   4.810   2.412
 6852SOL    HW221456   4.946   4.660   2.420
 6853SOL     OW21457   6.146   4.246   4.293
 6853SOL    HW121458   6.151   4.337   4.333
 6853SOL    HW221459   6.127   4.179   4.365
 6854SOL     OW21460   6.152   1.054   6.766
 6854SOL    HW121461   6.225   1.090   6.824
 6854SOL    HW221462   6.155   0.954   6.767
 6855SOL     OW21463   2.562   6.819   2.134
 6855SOL    HW121464   2.562   6.720   2.147
 6855SOL    HW221465   2.583   6.840   2.039
 6856SOL     OW21466   0.675   5.418   5.702
 6856SOL    HW121467   0.686   5.383   5.609
 6856SOL    HW221468   0.762   5.455   5.734
 6857SOL     OW21469   4.606   0.725   6.904
 6857SOL    HW121470   4.602   0.628   6.878
 6857SOL    HW221471   4.658   0.776   6.835
 6858SOL     OW21472   3.232   2.650   6.209
 6858SOL    HW121473   3.146   2.667   6.258
 6858SOL    HW221474   3.219   2.576   6.143
 6859SOL     OW21475   4.380   0.486   1.242
 6859SOL    HW121476   4.303   0.505   1.303
 6859SOL    HW221477   4.345   0.473   1.149
 6860SOL     OW21478   4.930   3.053   0.024
 6860SOL    HW121479   4.914   3.061   0.123
 6860SOL    HW221480   4.962   3.140   7.012
 6861SOL     OW21481   6.353   3.773   0.130
 6861SOL    HW121482   6.412   3.758   0.051
 6861SOL    HW221483   6.387   3.851   0.182
 6862SOL     OW21484   2.404   4.500   4.763
 6862SOL    HW121485   2.381   4.581   4.709
 6862SOL    HW221486   2.391   4.418   4.707
 6863SOL     OW21487   1.150   3.406   3.840
 6863SOL    HW121488   1.141   3.307   3.845
 6863SOL    HW221489   1.084   3.443   3.775
 6864SOL     OW21490   3.011   5.709   6.139
 6864SOL    HW121491   3.071   5.689   6.216
 6864SOL    HW221492   3.040   5.655   6.060
 6865SOL     OW21493   0.915   2.419   5.376
 6865SOL    HW121494   0.976   2.484   5.329
 6865SOL    HW221495   0.968   2.366   5.442
 6866SOL     OW21496   0.774   4.187   2.585
 6866SOL    HW121497   0.785   4.215   2.489
 6866SOL    HW221498   0.688   4.137   2.595
 6867SOL     OW21499   2.753   5.259   3.711
 6867SOL    HW121500   2.709   5.292   3.628
 6867SOL    HW221501   2.738   5.325   3.785
 6868SOL     OW21502   2.052   5.462   4.774
 6868SOL    HW121503   1.966   5.484   4.727
 6868SOL    HW221504   2.064   5.525   4.850
 6869SOL     OW21505   0.253   2.896   4.718
 6869SOL    HW121506   0.237   2.882   4.816
 6869SOL    HW221507   0.173   2.939   4.677
 6870SOL     OW21508   5.434   4.135   2.867
 6870SOL    HW121509   5.406   4.094   2.780
 6870SOL    HW221510   5.531   4.117   2.882
 6871SOL     OW21511   4.413   5.920   1.814
 6871SOL    HW121512   4.487   5.972   1.770
 6871SOL    HW221513   4.392   5.961   1.903
 6872SOL     OW21514   3.432   4.470   0.650
 6872SOL    HW121515   3.408   4.523   0.568
 6872SOL    HW221516   3.392   4.514   0.730
 6873SOL     OW21517   5.402   5.088   5.176
 6873SOL    HW121518   5.412   5.130   5.086
 6873SOL    HW221519   5.439   5.150   5.246
 6874SOL     OW21520   1.092   1.690   6.689
 6874SOL    HW121521   1.154   1.686   6.767
 6874SOL    HW221522   1.043   1.776   6.690
 6875SOL     OW21523   4.146   0.294   4.934
 6875SOL    HW121524   4.147   0.287   5.034
 6875SOL    HW221525   4.239   0.282   4.899
 6876SOL     OW21526   3.223   6.172   4.794
 6876SOL    HW121527   3.309   6.137   4.757
 6876SOL    HW221528   3.159   6.096   4.807
 6877SOL     OW21529   2.141   3.620   7.003
 6877SOL    HW121530   2.071   3.587   6.940
 6877SOL    HW221531   2.102   3.693   0.037
 6878SOL     OW21532   1.601   1.691   5.099
 6878SOL    HW121533   1.661   1.617   5.130
 6878SOL    HW221534   1.521   1.651   5.054
 6879SOL     OW21535   6.310   1.591   5.659
 6879SOL    HW121536   6.278   1.512   5.711
 6879SOL    HW221537   6.398   1.570   5.618
 6880SOL     OW21538   0.867   4.514   4.928
 6880SOL    HW121539   0.816   4.472   4.854
 6880SOL    HW221540   0.861   4.613   4.922
 6881SOL     OW21541   4.969   6.006   1.130
 6881SOL    HW121542   5.039   5.938   1.150
 6881SOL    HW221543   4.904   6.011   1.206
 6882SOL     OW21544   2.728   5.811   5.367
 6882SOL    HW121545   2.648   5.824   5.426
 6882SOL    HW221546   2.810   5.843   5.414
 6883SOL     OW21547   2.887   6.519   2.175
 6883SOL    HW121548   2.801   6.500   2.224
 6883SOL    HW221549   2.964   6.505   2.237
 6884SOL     OW21550   1.712   4.629   3.064
 6884SOL    HW121551   1.693   4.610   2.968
 6884SOL    HW221552   1.793   4.577   3.092
 6885SOL     OW21553   4.391   4.650   4.763
 6885SOL    HW121554   4.373   4.622   4.857
 6885SOL    HW221555   4.429   4.573   4.712
 6886SOL     OW21556   5.171   0.125   1.044
 6886SOL    HW121557   5.228   0.112   0.963
 6886SOL    HW221558   5.230   0.132   1.125
 6887SOL     OW21559   6.401   1.134   4.723
 6887SOL    HW121560   6.436   1.227   4.734
 6887SOL    HW221561   6.402   1.087   4.811
 6888SOL     OW21562   6.465   6.941   3.958
 6888SOL    HW121563   6.496   6.973   3.868
 6888SOL    HW221564   6.478   7.013   4.026
 6889SOL     OW21565   2.082   3.718   6.530
 6889SOL    HW121566   2.078   3.632   6.581
 6889SOL    HW221567   2.173   3.731   6.493
 6890SOL     OW21568   1.198   0.502   1.460
 6890SOL    HW121569   1.176   0.595   1.432
 6890SOL    HW221570   1.122   0.441   1.437
 6891SOL     OW21571   4.629   5.143   6.069
 6891SOL    HW121572   4.591   5.116   6.158
 6891SOL    HW221573   4.691   5.071   6.036
 6892SOL     OW21574   3.267   1.840   4.569
 6892SOL    HW121575   3.169   1.848   4.588
 6892SOL    HW221576   3.315   1.920   4.606
 6893SOL     OW21577   5.081   6.849   1.194
 6893SOL    HW121578   5.090   6.750   1.199
 6893SOL    HW221579   5.143   6.892   1.260
 6894SOL     OW21580   6.095   4.988   5.771
 6894SOL    HW121581   6.056   4.896   5.763
 6894SOL    HW221582   6.176   4.985   5.829
 6895SOL     OW21583   4.945   5.108   5.127
 6895SOL    HW121584   4.864   5.099   5.186
 6895SOL    HW221585   4.919   5.087   5.033
 6896SOL     OW21586   5.175   2.211   2.469
 6896SOL    HW121587   5.234   2.287   2.440
 6896SOL    HW221588   5.221   2.125   2.448
 6897SOL     OW21589   3.889   1.014   1.586
 6897SOL    HW121590   3.902   1.031   1.684
 6897SOL    HW221591   3.970   1.043   1.536
 6898SOL     OW21592   3.493   1.157   2.173
 6898SOL    HW121593   3.591   1.158   2.153
 6898SOL    HW221594   3.456   1.066   2.157
 6899SOL     OW21595   5.793   4.685   6.078
 6899SOL    HW121596   5.790   4.705   5.980
 6899SOL    HW221597   5.861   4.615   6.096
 6900SOL     OW21598   4.076   0.259   6.148
 6900SOL    HW121599   4.013   0.313   6.204
 6900SOL    HW221600   4.116   0.318   6.078
 6901SOL     OW21601   2.022   0.385   0.373
 6901SOL    HW121602   2.102   0.377   0.315
 6901SOL    HW221603   2.023   0.473   0.419
 6902SOL     OW21604   6.450   5.778   3.046
 6902SOL    HW121605   6.528   5.749   3.101
 6902SOL    HW221606   6.425   5.705   2.983
 6903SOL     OW21607   6.012   4.154   7.018
 6903SOL    HW121608   6.084   4.223   7.019
 6903SOL    HW221609   5.923   4.198   7.006
 6904SOL     OW21610   0.661   1.114   2.956
 6904SOL    HW121611   0.566   1.130   2.929
 6904SOL    HW221612   0.672   1.138   3.053
 6905SOL     OW21613   3.806   5.346   0.566
 6905SOL    HW121614   3.761   5.358   0.654
 6905SOL    HW221615   3.779   5.420   0.504
 6906SOL     OW21616   5.922   6.345   2.355
 6906SOL    HW121617   5.891   6.259   2.314
 6906SOL    HW221618   5.843   6.400   2.383
 6907SOL     OW21619   3.383   0.682   1.502
 6907SOL    HW121620   3.307   0.624   1.532
 6907SOL    HW221621   3.426   0.641   1.422
 6908SOL     OW21622   5.236   6.756   7.005
 6908SOL    HW121623   5.143   6.731   0.007
 6908SOL    HW221624   5.267   6.832   0.039
 6909SOL     OW21625   2.475   2.075   0.227
 6909SOL    HW121626   2.477   2.025   0.141
 6909SOL    HW221627   2.445   2.013   0.300
 6910SOL     OW21628   5.007   0.997   0.984
 6910SOL    HW121629   4.947   0.934   1.033
 6910SOL    HW221630   4.957   1.081   0.963
 6911SOL     OW21631   3.587   0.057   4.606
 6911SOL    HW121632   3.563   0.086   4.699
 6911SOL    HW221633   3.686   0.040   4.602
 6912SOL     OW21634   4.021   5.649   1.627
 6912SOL    HW121635   4.042   5.636   1.530
 6912SOL    HW221636   4.026   5.561   1.675
 6913SOL     OW21637   4.488   5.897   5.772
 6913SOL    HW121638   4.433   5.817   5.748
 6913SOL    HW221639   4.581   5.868   5.797
 6914SOL     OW21640   0.293   4.874   0.274
 6914SOL    HW121641   0.270   4.779   0.254
 6914SOL    HW221642   0.352   4.910   0.202
 6915SOL     OW21643   0.516   6.770   0.495
 6915SOL    HW121644   0.541   6.832   0.420
 6915SOL    HW221645   0.505   6.822   0.579
 6916SOL     OW21646   6.046   1.028   5.799
 6916SOL    HW121647   6.069   1.069   5.711
 6916SOL    HW221648   5.947   1.013   5.805
 6917SOL     OW21649   4.511   6.161   5.773
 6917SOL    HW121650   4.434   6.210   5.813
 6917SOL    HW221651   4.491   6.063   5.772
 6918SOL     OW21652   1.996   2.299   3.467
 6918SOL    HW121653   1.962   2.344   3.549
 6918SOL    HW221654   1.944   2.331   3.388
 6919SOL     OW21655   1.574   6.047   3.679
 6919SOL    HW121656   1.539   6.057   3.772
 6919SOL    HW221657   1.525   6.110   3.618
 6920SOL     OW21658   5.530   5.620   4.405
 6920SOL    HW121659   5.452   5.574   4.449
 6920SOL    HW221660   5.548   5.577   4.317
 6921SOL     OW21661   1.974   4.800   3.060
 6921SOL    HW121662   1.972   4.843   3.150
 6921SOL    HW221663   1.911   4.847   2.999
 6922SOL     OW21664   1.995   6.357   1.479
 6922SOL    HW121665   2.074   6.417   1.474
 6922SOL    HW221666   1.953   6.364   1.569
 6923SOL     OW21667   5.115   5.202   4.198
 6923SOL    HW121668   5.097   5.126   4.136
 6923SOL    HW221669   5.199   5.184   4.249
 6924SOL     OW21670   5.636   5.949   2.332
 6924SOL    HW121671   5.554   5.966   2.278
 6924SOL    HW221672   5.621   5.983   2.425
 6925SOL     OW21673   4.370   5.442   2.205
 6925SOL    HW121674   4.417   5.525   2.175
 6925SOL    HW221675   4.433   5.382   2.254
 6926SOL     OW21676   3.104   3.836   5.396
 6926SOL    HW121677   3.085   3.927   5.359
 6926SOL    HW221678   3.020   3.781   5.394
 6927SOL     OW21679   3.864   4.035   0.433
 6927SOL    HW121680   3.800   4.034   0.510
 6927SOL    HW221681   3.852   3.953   0.378
 6928SOL     OW21682   6.769   0.657   6.675
 6928SOL    HW121683   6.771   0.642   6.576
 6928SOL    HW221684   6.719   0.583   6.720
 6929SOL     OW21685   3.447   5.634   1.342
 6929SOL    HW121686   3.421   5.722   1.301
 6929SOL    HW221687   3.545   5.633   1.360
 6930SOL     OW21688   6.963   0.753   2.976
 6930SOL    HW121689   0.003   0.680   3.004
 6930SOL    HW221690   6.928   0.733   2.884
 6931SOL     OW21691   3.134   0.053   0.906
 6931SOL    HW121692   3.199   0.129   0.913
 6931SOL    HW221693   3.164   7.002   0.966
 6932SOL     OW21694   2.731   2.358   0.361
 6932SOL    HW121695   2.684   2.329   0.444
 6932SOL    HW221696   2.813   2.411   0.385
 6933SOL     OW21697   2.917   5.959   5.160
 6933SOL    HW121698   2.932   5.861   5.160
 6933SOL    HW221699   3.001   6.006   5.136
 6934SOL     OW21700   5.688   4.493   6.403
 6934SOL    HW121701   5.635   4.526   6.481
 6934SOL    HW221702   5.657   4.539   6.319
 6935SOL     OW21703   4.135   5.734   3.381
 6935SOL    HW121704   4.137   5.640   3.346
 6935SOL    HW221705   4.227   5.772   3.379
 6936SOL     OW21706   0.785   4.493   0.813
 6936SOL    HW121707   0.853   4.472   0.883
 6936SOL    HW221708   0.812   4.449   0.727
 6937SOL     OW21709   4.488   5.831   6.310
 6937SOL    HW121710   4.388   5.829   6.311
 6937SOL    HW221711   4.521   5.879   6.391
 6938SOL     OW21712   6.688   2.595   5.263
 6938SOL    HW121713   6.709   2.564   5.170
 6938SOL    HW221714   6.591   2.618   5.269
 6939SOL     OW21715   6.374   4.963   1.561
 6939SOL    HW121716   6.333   4.873   1.547
 6939SOL    HW221717   6.392   5.005   1.472
 6940SOL     OW21718   4.395   0.541   4.165
 6940SOL    HW121719   4.458   0.547   4.242
 6940SOL    HW221720   4.336   0.622   4.165
 6941SOL     OW21721   3.251   2.937   5.022
 6941SOL    HW121722   3.259   2.954   4.924
 6941SOL    HW221723   3.161   2.966   5.054
 6942SOL     OW21724   6.331   1.763   6.475
 6942SOL    HW121725   6.281   1.705   6.538
 6942SOL    HW221726   6.323   1.859   6.504
 6943SOL     OW21727   5.948   5.337   0.190
 6943SOL    HW121728   5.976   5.247   0.155
 6943SOL    HW221729   5.986   5.409   0.132
 6944SOL     OW21730   1.255   6.611   0.354
 6944SOL    HW121731   1.352   6.629   0.370
 6944SOL    HW221732   1.201   6.657   0.424
 6945SOL     OW21733   4.038   1.631   6.654
 6945SOL    HW121734   4.093   1.639   6.737
 6945SOL    HW221735   4.050   1.714   6.599
 6946SOL     OW21736   6.237   4.348   2.139
 6946SOL    HW121737   6.264   4.283   2.069
 6946SOL    HW221738   6.141   4.375   2.125
 6947SOL     OW21739   3.682   6.682   1.266
 6947SOL    HW121740   3.707   6.772   1.231
 6947SOL    HW221741   3.736   6.612   1.217
 6948SOL     OW21742   3.785   1.740   5.552
 6948SOL    HW121743   3.785   1.641   5.567
 6948SOL    HW221744   3.728   1.784   5.621
 6949SOL     OW21745   5.213   0.607   2.125
 6949SOL    HW121746   5.229   0.670   2.050
 6949SOL    HW221747   5.115   0.602   2.145
 6950SOL     OW21748   3.529   1.534   3.113
 6950SOL    HW121749   3.598   1.483   3.062
 6950SOL    HW221750   3.572   1.581   3.190
 6951SOL     OW21751   4.924   3.893   5.547
 6951SOL    HW121752   4.973   3.852   5.624
 6951SOL    HW221753   4.847   3.835   5.521
 6952SOL     OW21754   0.020   3.612   6.633
 6952SOL    HW121755   0.083   3.548   6.678
 6952SOL    HW221756   0.007   3.693   6.691
 6953SOL     OW21757   5.533   2.531   4.707
 6953SOL    HW121758   5.569   2.455   4.761
 6953SOL    HW221759   5.604   2.563   4.644
 6954SOL     OW21760   0.187   4.357   1.912
 6954SOL    HW121761   0.203   4.442   1.861
 6954SOL    HW221762   0.132   4.376   1.993
 6955SOL     OW21763   6.522   0.403   3.850
 6955SOL    HW121764   6.554   0.497   3.848
 6955SOL    HW221765   6.459   0.388   3.774
 6956SOL     OW21766   3.219   4.065   1.482
 6956SOL    HW121767   3.142   4.009   1.514
 6956SOL    HW221768   3.186   4.156   1.457
 6957SOL     OW21769   1.011   4.704   0.144
 6957SOL    HW121770   0.934   4.661   0.097
 6957SOL    HW221771   0.999   4.696   0.243
 6958SOL     OW21772   2.111   3.669   5.366
 6958SOL    HW121773   2.051   3.694   5.290
 6958SOL    HW221774   2.066   3.691   5.452
 6959SOL     OW21775   4.025   0.910   5.070
 6959SOL    HW121776   4.091   0.957   5.129
 6959SOL    HW221777   4.065   0.824   5.038
 6960SOL     OW21778   1.290   5.804   6.773
 6960SOL    HW121779   1.219   5.788   6.704
 6960SOL    HW221780   1.378   5.769   6.739
 6961SOL     OW21781   6.144   1.005   3.591
 6961SOL    HW121782   6.141   1.056   3.505
 6961SOL    HW221783   6.233   1.019   3.635
 6962SOL     OW21784   3.114   3.760   0.902
 6962SOL    HW121785   3.124   3.704   0.819
 6962SOL    HW221786   3.045   3.830   0.886
 6963SOL     OW21787   6.122   5.760   1.918
 6963SOL    HW121788   6.048   5.766   1.851
 6963SOL    HW221789   6.205   5.726   1.872
 6964SOL     OW21790   3.767   5.253   5.633
 6964SOL    HW121791   3.797   5.180   5.693
 6964SOL    HW221792   3.731   5.214   5.548
 6965SOL     OW21793   6.502   1.438   5.984
 6965SOL    HW121794   6.455   1.421   5.897
 6965SOL    HW221795   6.578   1.500   5.969
 6966SOL     OW21796   4.711   1.733   3.900
 6966SOL    HW121797   4.667   1.651   3.935
 6966SOL    HW221798   4.766   1.775   3.972
 6967SOL     OW21799   3.232   2.547   5.970
 6967SOL    HW121800   3.234   2.473   5.902
 6967SOL    HW221801   3.288   2.623   5.937
 6968SOL     OW21802   4.235   0.338   3.819
 6968SOL    HW121803   4.169   0.263   3.821
 6968SOL    HW221804   4.263   0.355   3.725
 6969SOL     OW21805   3.455   3.186   0.842
 6969SOL    HW121806   3.469   3.219   0.935
 6969SOL    HW221807   3.492   3.093   0.833
 6970SOL     OW21808   4.987   4.190   0.529
 6970SOL    HW121809   5.012   4.147   0.442
 6970SOL    HW221810   4.892   4.167   0.550
 6971SOL     OW21811   6.037   1.580   2.427
 6971SOL    HW121812   6.031   1.480   2.420
 6971SOL    HW221813   6.013   1.607   2.520
 6972SOL     OW21814   5.105   5.567   4.383
 6972SOL    HW121815   5.059   5.651   4.410
 6972SOL    HW221816   5.040   5.507   4.335
 6973SOL     OW21817   1.098   3.763   3.550
 6973SOL    HW121818   1.063   3.786   3.642
 6973SOL    HW221819   1.196   3.742   3.556
 6974SOL     OW21820   3.277   4.122   4.911
 6974SOL    HW121821   3.242   4.166   4.994
 6974SOL    HW221822   3.372   4.094   4.926
 6975SOL     OW21823   1.912   6.815   6.650
 6975SOL    HW121824   1.859   6.819   6.566
 6975SOL    HW221825   1.936   6.720   6.670
 6976SOL     OW21826   1.095   5.926   0.790
 6976SOL    HW121827   1.087   6.012   0.839
 6976SOL    HW221828   1.067   5.851   0.850
 6977SOL     OW21829   4.996   3.019   1.562
 6977SOL    HW121830   5.017   3.107   1.519
 6977SOL    HW221831   4.966   3.035   1.656
 6978SOL     OW21832   4.383   2.390   3.383
 6978SOL    HW121833   4.327   2.447   3.443
 6978SOL    HW221834   4.478   2.391   3.416
 6979SOL     OW21835   0.206   3.784   4.614
 6979SOL    HW121836   0.205   3.743   4.523
 6979SOL    HW221837   0.143   3.862   4.616
 6980SOL     OW21838   4.761   1.973   5.010
 6980SOL    HW121839   4.781   1.876   4.996
 6980SOL    HW221840   4.847   2.024   5.015
 6981SOL     OW21841   3.350   3.979   6.493
 6981SOL    HW121842   3.429   4.039   6.480
 6981SOL    HW221843   3.274   4.032   6.532
 6982SOL     OW21844   0.569   7.008   4.527
 6982SOL    HW121845   0.521   7.012   4.439
 6982SOL    HW221846   0.572   0.076   4.567
 6983SOL     OW21847   6.005   1.016   3.046
 6983SOL    HW121848   5.970   0.929   3.011
 6983SOL    HW221849   5.962   1.036   3.135
 6984SOL     OW21850   1.722   1.251   6.002
 6984SOL    HW121851   1.714   1.151   5.993
 6984SOL    HW221852   1.711   1.293   5.912
 6985SOL     OW21853   5.125   6.406   4.079
 6985SOL    HW121854   5.200   6.340   4.078
 6985SOL    HW221855   5.048   6.368   4.131
 6986SOL     OW21856   1.536   6.308   5.198
 6986SOL    HW121857   1.515   6.399   5.163
 6986SOL    HW221858   1.510   6.303   5.295
 6987SOL     OW21859   6.819   3.703   6.479
 6987SOL    HW121860   6.901   3.672   6.528
 6987SOL    HW221861   6.787   3.629   6.419
 6988SOL     OW21862   5.923   1.531   6.009
 6988SOL    HW121863   5.882   1.469   5.943
 6988SOL    HW221864   5.874   1.617   6.010
 6989SOL     OW21865   1.705   3.424   4.505
 6989SOL    HW121866   1.620   3.423   4.557
 6989SOL    HW221867   1.751   3.513   4.517
 6990SOL     OW21868   4.282   3.541   1.354
 6990SOL    HW121869   4.289   3.639   1.372
 6990SOL    HW221870   4.368   3.496   1.379
 6991SOL     OW21871   4.184   4.706   5.387
 6991SOL    HW121872   4.104   4.750   5.346
 6991SOL    HW221873   4.188   4.729   5.484
 6992SOL     OW21874   6.331   6.477   4.914
 6992SOL    HW121875   6.338   6.439   5.007
 6992SOL    HW221876   6.238   6.465   4.880
 6993SOL     OW21877   0.360   6.976   2.697
 6993SOL    HW121878   0.326   6.892   2.656
 6993SOL    HW221879   0.452   6.962   2.732
 6994SOL     OW21880   1.520   2.212   0.415
 6994SOL    HW121881   1.474   2.145   0.357
 6994SOL    HW221882   1.571   2.165   0.486
 6995SOL     OW21883   0.862   5.535   3.752
 6995SOL    HW121884   0.787   5.544   3.818
 6995SOL    HW221885   0.835   5.575   3.665
 6996SOL     OW21886   1.698   6.923   5.654
 6996SOL    HW121887   1.657   6.962   5.737
 6996SOL    HW221888   1.762   6.989   5.615
 6997SOL     OW21889   4.533   5.498   4.436
 6997SOL    HW121890   4.514   5.445   4.353
 6997SOL    HW221891   4.454   5.554   4.459
 6998SOL     OW21892   2.693   1.991   2.414
 6998SOL    HW121893   2.713   2.077   2.366
 6998SOL    HW221894   2.774   1.933   2.412
 6999SOL     OW21895   5.294   1.618   6.646
 6999SOL    HW121896   5.370   1.683   6.652
 6999SOL    HW221897   5.329   1.530   6.615
 7000SOL     OW21898   0.310   0.433   1.597
 7000SOL    HW121899   0.324   0.531   1.609
 7000SOL    HW221900   0.250   0.399   1.669
 7001SOL     OW21901   3.022   1.237   6.662
 7001SOL    HW121902   2.973   1.274   6.741
 7001SOL    HW221903   3.032   1.309   6.592
 7002SOL     OW21904   2.652   4.853   2.277
 7002SOL    HW121905   2.664   4.754   2.274
 7002SOL    HW221906   2.561   4.877   2.242
 7003SOL     OW21907   2.047   6.439   5.687
 7003SOL    HW121908   1.981   6.512   5.704
 7003SOL    HW221909   2.020   6.388   5.606
 7004SOL     OW21910   1.807   3.791   7.012
 7004SOL    HW121911   1.759   3.846   0.057
 7004SOL    HW221912   1.875   3.848   6.966
 7005SOL     OW21913   6.383   0.171   5.986
 7005SOL    HW121914   6.303   0.222   5.952
 7005SOL    HW221915   6.366   0.073   5.976
 7006SOL     OW21916   4.937   5.378   4.298
 7006SOL    HW121917   4.995   5.308   4.255
 7006SOL    HW221918   4.855   5.392   4.241
 7007SOL     OW21919   5.107   4.951   1.561
 7007SOL    HW121920   5.031   4.972   1.500
 7007SOL    HW221921   5.178   5.022   1.551
 7008SOL     OW21922   0.938   5.826   4.587
 7008SOL    HW121923   0.995   5.743   4.583
 7008SOL    HW221924   0.953   5.881   4.505
 7009SOL     OW21925   0.066   4.256   1.657
 7009SOL    HW121926   0.103   4.330   1.713
 7009SOL    HW221927   7.021   4.206   1.710
 7010SOL     OW21928   5.573   4.321   5.634
 7010SOL    HW121929   5.666   4.344   5.606
 7010SOL    HW221930   5.534   4.256   5.569
 7011SOL     OW21931   0.967   0.414   5.417
 7011SOL    HW121932   0.952   0.439   5.513
 7011SOL    HW221933   1.042   0.469   5.380
 7012SOL     OW21934   0.811   1.002   1.668
 7012SOL    HW121935   0.823   1.022   1.571
 7012SOL    HW221936   0.901   1.001   1.713
 7013SOL     OW21937   6.158   2.277   1.507
 7013SOL    HW121938   6.162   2.231   1.418
 7013SOL    HW221939   6.071   2.326   1.515
 7014SOL     OW21940   2.342   5.224   0.736
 7014SOL    HW121941   2.336   5.172   0.821
 7014SOL    HW221942   2.438   5.234   0.710
 7015SOL     OW21943   4.861   2.261   1.748
 7015SOL    HW121944   4.844   2.194   1.820
 7015SOL    HW221945   4.826   2.351   1.777
 7016SOL     OW21946   4.361   4.530   0.813
 7016SOL    HW121947   4.325   4.583   0.736
 7016SOL    HW221948   4.401   4.445   0.779
 7017SOL     OW21949   5.393   1.768   5.257
 7017SOL    HW121950   5.319   1.770   5.324
 7017SOL    HW221951   5.423   1.862   5.238
 7018SOL     OW21952   0.814   3.913   3.192
 7018SOL    HW121953   0.844   3.885   3.283
 7018SOL    HW221954   0.890   3.956   3.143
 7019SOL     OW21955   0.102   6.316   2.495
 7019SOL    HW121956   0.160   6.235   2.503
 7019SOL    HW221957   0.072   6.345   2.586
 7020SOL     OW21958   0.236   5.472   6.944
 7020SOL    HW121959   0.165   5.445   7.009
 7020SOL    HW221960   0.326   5.457   6.985
 7021SOL     OW21961   3.344   6.652   5.756
 7021SOL    HW121962   3.369   6.730   5.814
 7021SOL    HW221963   3.356   6.677   5.660
 7022SOL     OW21964   4.074   5.009   5.702
 7022SOL    HW121965   4.171   5.011   5.676
 7022SOL    HW221966   4.059   5.071   5.778
 7023SOL     OW21967   4.245   4.801   2.470
 7023SOL    HW121968   4.329   4.856   2.467
 7023SOL    HW221969   4.193   4.825   2.551
 7024SOL     OW21970   5.839   6.564   1.779
 7024SOL    HW121971   5.769   6.530   1.716
 7024SOL    HW221972   5.854   6.495   1.850
 7025SOL     OW21973   2.846   0.093   1.179
 7025SOL    HW121974   2.747   0.081   1.171
 7025SOL    HW221975   2.890   0.004   1.190
 7026SOL     OW21976   4.094   2.794   0.924
 7026SOL    HW121977   4.090   2.892   0.942
 7026SOL    HW221978   4.189   2.766   0.911
 7027SOL     OW21979   5.759   5.768   4.413
 7027SOL    HW121980   5.673   5.725   4.439
 7027SOL    HW221981   5.753   5.802   4.319
 7028SOL     OW21982   2.719   1.192   4.514
 7028SOL    HW121983   2.661   1.262   4.555
 7028SOL    HW221984   2.797   1.173   4.574
 7029SOL     OW21985   3.499   0.833   4.307
 7029SOL    HW121986   3.489   0.771   4.386
 7029SOL    HW221987   3.588   0.818   4.264
 7030SOL     OW21988   1.513   3.060   3.816
 7030SOL    HW121989   1.460   2.989   3.771
 7030SOL    HW221990   1.610   3.045   3.798
 7031SOL     OW21991   1.716   0.957   4.755
 7031SOL    HW121992   1.686   1.051   4.737
 7031SOL    HW221993   1.734   0.946   4.852
 7032SOL     OW21994   5.936   2.676   3.230
 7032SOL    HW121995   5.906   2.585   3.258
 7032SOL    HW221996   5.863   2.722   3.179
 7033SOL     OW21997   0.430   1.013   4.733
 7033SOL    HW121998   0.529   1.009   4.717
 7033SOL    HW221999   0.410   1.086   4.798
 7034SOL     OW22000   0.330   5.028   3.637
 7034SOL    HW122001   0.321   5.050   3.734
 7034SOL    HW222002   0.240   5.004   3.600
 7035SOL     OW22003   6.758   4.816   1.655
 7035SOL    HW122004   6.801   4.795   1.567
 7035SOL    HW222005   6.673   4.867   1.639
 7036SOL     OW22006   6.188   4.576   0.931
 7036SOL    HW122007   6.218   4.526   1.012
 7036SOL    HW222008   6.128   4.651   0.959
 7037SOL     OW22009   1.222   0.518   6.663
 7037SOL    HW122010   1.250   0.440   6.606
 7037SOL    HW222011   1.295   0.540   6.728
 7038SOL     OW22012   2.137   2.927   4.283
 7038SOL    HW122013   2.050   2.935   4.332
 7038SOL    HW222014   2.213   2.927   4.347
 7039SOL     OW22015   3.765   1.772   6.927
 7039SOL    HW122016   3.863   1.748   6.926
 7039SOL    HW222017   3.712   1.694   6.895
 7040SOL     OW22018   5.810   2.581   6.641
 7040SOL    HW122019   5.881   2.619   6.700
 7040SOL    HW222020   5.765   2.504   6.687
 7041SOL     OW22021   1.889   1.611   3.509
 7041SOL    HW122022   1.947   1.539   3.471
 7041SOL    HW222023   1.938   1.698   3.509
 7042SOL     OW22024   2.012   1.368   6.823
 7042SOL    HW122025   2.001   1.337   6.728
 7042SOL    HW222026   2.107   1.398   6.837
 7043SOL     OW22027   1.580   2.563   1.731
 7043SOL    HW122028   1.622   2.607   1.811
 7043SOL    HW222029   1.647   2.557   1.657
 7044SOL     OW22030   6.843   5.871   0.742
 7044SOL    HW122031   6.913   5.802   0.759
 7044SOL    HW222032   6.875   5.959   0.777
 7045SOL     OW22033   0.421   5.043   0.439
 7045SOL    HW122034   0.488   4.978   0.476
 7045SOL    HW222035   0.348   4.992   0.393
 7046SOL     OW22036   3.109   1.974   3.887
 7046SOL    HW122037   3.172   1.950   3.961
 7046SOL    HW222038   3.160   1.987   3.802
 7047SOL     OW22039   1.587   0.057   3.000
 7047SOL    HW122040   1.549   6.989   3.006
 7047SOL    HW222041   1.677   0.058   3.045
 7048SOL     OW22042   6.634   5.612   0.116
 7048SOL    HW122043   6.674   5.531   0.160
 7048SOL    HW222044   6.545   5.632   0.157
 7049SOL     OW22045   2.202   0.691   6.868
 7049SOL    HW122046   2.278   0.634   6.838
 7049SOL    HW222047   2.131   0.692   6.797
 7050SOL     OW22048   4.469   3.407   5.566
 7050SOL    HW122049   4.564   3.389   5.591
 7050SOL    HW222050   4.467   3.467   5.486
 7051SOL     OW22051   5.804   6.285   2.882
 7051SOL    HW122052   5.816   6.314   2.787
 7051SOL    HW222053   5.846   6.196   2.895
 7052SOL     OW22054   6.980   6.853   5.112
 7052SOL    HW122055   7.014   6.792   5.184
 7052SOL    HW222056   6.891   6.889   5.139
 7053SOL     OW22057   6.696   3.420   6.081
 7053SOL    HW122058   6.753   3.478   6.139
 7053SOL    HW222059   6.611   3.468   6.059
 7054SOL     OW22060   6.165   2.406   2.465
 7054SOL    HW122061   6.173   2.363   2.374
 7054SOL    HW222062   6.094   2.476   2.462
 7055SOL     OW22063   4.496   1.924   3.740
 7055SOL    HW122064   4.444   1.856   3.689
 7055SOL    HW222065   4.579   1.948   3.689
 7056SOL     OW22066   4.853   5.768   4.108
 7056SOL    HW122067   4.865   5.862   4.139
 7056SOL    HW222068   4.865   5.705   4.186
 7057SOL     OW22069   5.433   5.700   2.750
 7057SOL    HW122070   5.364   5.668   2.815
 7057SOL    HW222071   5.403   5.787   2.710
 7058SOL     OW22072   0.354   4.203   4.556
 7058SOL    HW122073   0.374   4.175   4.462
 7058SOL    HW222074   0.421   4.164   4.618
 7059SOL     OW22075   1.561   1.006   2.260
 7059SOL    HW122076   1.474   1.040   2.295
 7059SOL    HW222077   1.600   1.073   2.197
 7060SOL     OW22078   3.176   0.100   0.484
 7060SOL    HW122079   3.174   0.115   0.385
 7060SOL    HW222080   3.187   0.188   0.530
 7061SOL     OW22081   0.569   0.850   3.089
 7061SOL    HW122082   0.652   0.824   3.040
 7061SOL    HW222083   0.584   0.842   3.187
 7062SOL     OW22084   6.523   1.271   5.611
 7062SOL    HW122085   6.585   1.349   5.605
 7062SOL    HW222086   6.559   1.204   5.676
 7063SOL     OW22087   2.018   6.374   1.934
 7063SOL    HW122088   1.976   6.447   1.989
 7063SOL    HW222089   1.977   6.374   1.842
 7064SOL     OW22090   3.372   2.333   0.199
 7064SOL    HW122091   3.395   2.288   0.286
 7064SOL    HW222092   3.444   2.398   0.175
 7065SOL     OW22093   3.342   3.758   2.706
 7065SOL    HW122094   3.356   3.842   2.653
 7065SOL    HW222095   3.244   3.743   2.719
 7066SOL     OW22096   2.572   4.844   1.588
 7066SOL    HW122097   2.605   4.749   1.593
 7066SOL    HW222098   2.629   4.902   1.646
 7067SOL     OW22099   1.083   4.252   5.246
 7067SOL    HW122100   1.091   4.174   5.184
 7067SOL    HW222101   1.082   4.337   5.194
 7068SOL     OW22102   0.181   0.694   3.284
 7068SOL    HW122103   0.108   0.751   3.323
 7068SOL    HW222104   0.152   0.599   3.283
 7069SOL     OW22105   1.803   5.030   5.272
 7069SOL    HW122106   1.768   4.939   5.254
 7069SOL    HW222107   1.728   5.091   5.298
 7070SOL     OW22108   5.495   4.960   3.520
 7070SOL    HW122109   5.424   5.015   3.564
 7070SOL    HW222110   5.585   4.996   3.546
 7071SOL     OW22111   1.880   6.576   5.157
 7071SOL    HW122112   1.951   6.506   5.159
 7071SOL    HW222113   1.813   6.557   5.230
 7072SOL     OW22114   0.637   0.042   6.504
 7072SOL    HW122115   0.589   0.065   6.589
 7072SOL    HW222116   0.732   0.074   6.510
 7073SOL     OW22117   1.796   2.212   6.950
 7073SOL    HW122118   1.892   2.237   6.932
 7073SOL    HW222119   1.748   2.202   6.863
 7074SOL     OW22120   3.489   1.208   6.570
 7074SOL    HW122121   3.497   1.270   6.492
 7074SOL    HW222122   3.515   1.115   6.542
 7075SOL     OW22123   0.826   6.104   3.104
 7075SOL    HW122124   0.801   6.198   3.080
 7075SOL    HW222125   0.914   6.105   3.152
 7076SOL     OW22126   3.154   1.131   6.239
 7076SOL    HW122127   3.204   1.069   6.177
 7076SOL    HW222128   3.138   1.218   6.192
 7077SOL     OW22129   1.599   5.526   6.490
 7077SOL    HW122130   1.508   5.487   6.476
 7077SOL    HW222131   1.602   5.570   6.580
 7078SOL     OW22132   0.204   1.098   1.949
 7078SOL    HW122133   0.152   1.070   1.869
 7078SOL    HW222134   0.247   1.018   1.991
 7079SOL     OW22135   5.227   6.722   4.430
 7079SOL    HW122136   5.259   6.712   4.524
 7079SOL    HW222137   5.216   6.820   4.409
 7080SOL     OW22138   5.670   0.587   3.678
 7080SOL    HW122139   5.747   0.647   3.657
 7080SOL    HW222140   5.635   0.610   3.769
 7081SOL     OW22141   4.811   0.794   4.886
 7081SOL    HW122142   4.799   0.765   4.791
 7081SOL    HW222143   4.909   0.792   4.909
 7082SOL     OW22144   5.919   1.277   0.348
 7082SOL    HW122145   6.018   1.283   0.357
 7082SOL    HW222146   5.894   1.184   0.321
 7083SOL     OW22147   4.216   0.160   5.390
 7083SOL    HW122148   4.286   0.110   5.339
 7083SOL    HW222149   4.132   0.106   5.391
 7084SOL     OW22150   6.056   5.960   0.514
 7084SOL    HW122151   6.096   5.885   0.568
 7084SOL    HW222152   5.996   5.922   0.444
 7085SOL     OW22153   4.942   1.530   1.516
 7085SOL    HW122154   5.030   1.573   1.501
 7085SOL    HW222155   4.869   1.594   1.491
 7086SOL     OW22156   1.413   0.782   6.055
 7086SOL    HW122157   1.376   0.829   6.135
 7086SOL    HW222158   1.503   0.821   6.033
 7087SOL     OW22159   2.269   2.797   5.032
 7087SOL    HW122160   2.289   2.892   5.008
 7087SOL    HW222161   2.307   2.778   5.123
 7088SOL     OW22162   6.972   2.244   4.362
 7088SOL    HW122163   6.985   2.145   4.359
 7088SOL    HW222164   7.013   2.280   4.446
 7089SOL     OW22165   3.167   1.993   1.700
 7089SOL    HW122166   3.175   2.050   1.781
 7089SOL    HW222167   3.072   1.993   1.668
 7090SOL     OW22168   2.901   1.652   4.871
 7090SOL    HW122169   2.904   1.658   4.771
 7090SOL    HW222170   2.956   1.574   4.901
 7091SOL     OW22171   6.742   6.178   0.853
 7091SOL    HW122172   6.708   6.179   0.758
 7091SOL    HW222173   6.696   6.250   0.905
 7092SOL     OW22174   3.439   2.170   0.720
 7092SOL    HW122175   3.415   2.103   0.790
 7092SOL    HW222176   3.532   2.154   0.689
 7093SOL     OW22177   3.909   2.865   6.590
 7093SOL    HW122178   3.970   2.917   6.531
 7093SOL    HW222179   3.815   2.873   6.557
 7094SOL     OW22180   6.537   1.059   6.502
 7094SOL    HW122181   6.462   1.124   6.513
 7094SOL    HW222182   6.589   1.052   6.587
 7095SOL     OW22183   0.647   3.986   1.009
 7095SOL    HW122184   0.610   4.054   1.072
 7095SOL    HW222185   0.672   3.904   1.060
 7096SOL     OW22186   3.916   6.602   2.809
 7096SOL    HW122187   3.819   6.594   2.832
 7096SOL    HW222188   3.927   6.595   2.710
 7097SOL     OW22189   1.946   1.399   1.645
 7097SOL    HW122190   2.033   1.366   1.682
 7097SOL    HW222191   1.963   1.477   1.585
 7098SOL     OW22192   1.407   0.504   6.044
 7098SOL    HW122193   1.503   0.487   6.021
 7098SOL    HW222194   1.399   0.595   6.087
 7099SOL     OW22195   6.953   1.456   5.013
 7099SOL    HW122196   6.998   1.392   4.951
 7099SOL    HW222197   6.936   1.411   5.101
 7100SOL     OW22198   5.579   1.641   1.346
 7100SOL    HW122199   5.516   1.601   1.280
 7100SOL    HW222200   5.603   1.572   1.415
 7101SOL     OW22201   1.653   0.408   4.608
 7101SOL    HW122202   1.649   0.314   4.574
 7101SOL    HW222203   1.737   0.452   4.577
 7102SOL     OW22204   4.249   2.757   0.497
 7102SOL    HW122205   4.241   2.683   0.563
 7102SOL    HW222206   4.178   2.748   0.427
 7103SOL     OW22207   1.921   0.030   5.804
 7103SOL    HW122208   2.005   0.074   5.773
 7103SOL    HW222209   1.944   6.971   5.856
 7104SOL     OW22210   0.823   2.848   1.906
 7104SOL    HW122211   0.818   2.900   1.821
 7104SOL    HW222212   0.749   2.781   1.908
 7105SOL     OW22213   2.041   2.687   5.525
 7105SOL    HW122214   1.969   2.630   5.484
 7105SOL    HW222215   2.096   2.727   5.452
 7106SOL     OW22216   2.951   2.900   5.307
 7106SOL    HW122217   2.927   2.964   5.234
 7106SOL    HW222218   3.037   2.855   5.284
 7107SOL     OW22219   1.708   1.278   0.326
 7107SOL    HW122220   1.661   1.282   0.414
 7107SOL    HW222221   1.740   1.369   0.300
 7108SOL     OW22222   4.706   6.935   2.037
 7108SOL    HW122223   4.610   6.941   2.012
 7108SOL    HW222224   4.720   6.976   2.127
 7109SOL     OW22225   4.635   5.921   6.567
 7109SOL    HW122226   4.569   5.972   6.623
 7109SOL    HW222227   4.720   5.975   6.559
 7110SOL     OW22228   3.882   4.948   4.623
 7110SOL    HW122229   3.872   4.888   4.543
 7110SOL    HW222230   3.967   4.925   4.670
 7111SOL     OW22231   1.546   2.597   3.492
 7111SOL    HW122232   1.578   2.654   3.416
 7111SOL    HW222233   1.625   2.558   3.540
 7112SOL     OW22234   1.761   6.352   3.066
 7112SOL    HW122235   1.681   6.356   3.127
 7112SOL    HW222236   1.829   6.289   3.105
 7113SOL     OW22237   4.128   3.665   5.944
 7113SOL    HW122238   4.196   3.653   6.017
 7113SOL    HW222239   4.055   3.725   5.976
 7114SOL     OW22240   3.791   6.527   1.075
 7114SOL    HW122241   3.711   6.474   1.046
 7114SOL    HW222242   3.850   6.543   0.995
 7115SOL     OW22243   3.797   2.677   1.057
 7115SOL    HW122244   3.874   2.642   1.006
 7115SOL    HW222245   3.829   2.742   1.127
 7116SOL     OW22246   6.211   4.362   3.276
 7116SOL    HW122247   6.115   4.389   3.273
 7116SOL    HW222248   6.244   4.366   3.370
 7117SOL     OW22249   5.325   6.700   2.425
 7117SOL    HW122250   5.421   6.688   2.397
 7117SOL    HW222251   5.318   6.780   2.485
 7118SOL     OW22252   6.596   3.377   3.472
 7118SOL    HW122253   6.655   3.298   3.485
 7118SOL    HW222254   6.525   3.355   3.405
 7119SOL     OW22255   1.168   2.207   2.935
 7119SOL    HW122256   1.223   2.287   2.910
 7119SOL    HW222257   1.076   2.238   2.959
 7120SOL     OW22258   4.585   6.452   3.784
 7120SOL    HW122259   4.684   6.448   3.800
 7120SOL    HW222260   4.567   6.450   3.685
 7121SOL     OW22261   2.022   6.383   1.016
 7121SOL    HW122262   2.117   6.357   1.032
 7121SOL    HW222263   2.006   6.394   0.918
 7122SOL     OW22264   0.082   5.984   0.507
 7122SOL    HW122265   0.106   6.001   0.602
 7122SOL    HW222266   0.018   5.907   0.502
 7123SOL     OW22267   2.903   5.230   0.917
 7123SOL    HW122268   2.981   5.172   0.937
 7123SOL    HW222269   2.849   5.189   0.844
 7124SOL     OW22270   0.239   6.023   6.749
 7124SOL    HW122271   0.229   5.951   6.818
 7124SOL    HW222272   0.168   6.092   6.762
 7125SOL     OW22273   0.811   6.181   3.441
 7125SOL    HW122274   0.895   6.184   3.388
 7125SOL    HW222275   0.818   6.245   3.517
 7126SOL     OW22276   1.524   3.594   1.595
 7126SOL    HW122277   1.534   3.687   1.630
 7126SOL    HW222278   1.428   3.574   1.579
 7127SOL     OW22279   2.172   0.557   5.133
 7127SOL    HW122280   2.120   0.485   5.088
 7127SOL    HW222281   2.164   0.642   5.082
 7128SOL     OW22282   3.055   3.494   2.710
 7128SOL    HW122283   2.989   3.494   2.636
 7128SOL    HW222284   3.090   3.401   2.725
 7129SOL     OW22285   2.578   2.297   0.583
 7129SOL    HW122286   2.574   2.356   0.664
 7129SOL    HW222287   2.487   2.263   0.561
 7130SOL     OW22288   1.827   0.496   2.892
 7130SOL    HW122289   1.829   0.467   2.988
 7130SOL    HW222290   1.880   0.580   2.882
 7131SOL     OW22291   2.784   0.995   3.601
 7131SOL    HW122292   2.877   1.032   3.600
 7131SOL    HW222293   2.753   0.984   3.695
 7132SOL     OW22294   3.012   3.684   2.230
 7132SOL    HW122295   2.959   3.768   2.235
 7132SOL    HW222296   2.956   3.612   2.190
 7133SOL     OW22297   6.115   4.188   1.579
 7133SOL    HW122298   6.089   4.243   1.658
 7133SOL    HW222299   6.034   4.149   1.537
 7134SOL     OW22300   4.695   4.854   2.437
 7134SOL    HW122301   4.631   4.855   2.361
 7134SOL    HW222302   4.649   4.823   2.520
 7135SOL     OW22303   0.312   2.190   6.331
 7135SOL    HW122304   0.322   2.279   6.376
 7135SOL    HW222305   0.401   2.146   6.323
 7136SOL     OW22306   1.579   1.607   6.757
 7136SOL    HW122307   1.513   1.578   6.688
 7136SOL    HW222308   1.671   1.611   6.717
 7137SOL     OW22309   4.654   2.268   5.187
 7137SOL    HW122310   4.605   2.328   5.124
 7137SOL    HW222311   4.638   2.173   5.161
 7138SOL     OW22312   2.318   2.348   6.550
 7138SOL    HW122313   2.352   2.437   6.580
 7138SOL    HW222314   2.238   2.361   6.492
 7139SOL     OW22315   2.804   1.460   0.557
 7139SOL    HW122316   2.718   1.443   0.604
 7139SOL    HW222317   2.788   1.465   0.458
 7140SOL     OW22318   6.832   4.672   4.443
 7140SOL    HW122319   6.803   4.768   4.440
 7140SOL    HW222320   6.898   4.655   4.370
 7141SOL     OW22321   0.738   0.023   2.107
 7141SOL    HW122322   0.827   0.042   2.148
 7141SOL    HW222323   0.751   7.010   2.015
 7142SOL     OW22324   3.204   6.388   3.777
 7142SOL    HW122325   3.154   6.474   3.792
 7142SOL    HW222326   3.289   6.389   3.829
 7143SOL     OW22327   1.740   2.165   3.557
 7143SOL    HW122328   1.729   2.223   3.637
 7143SOL    HW222329   1.830   2.120   3.560
 7144SOL     OW22330   1.372   3.579   3.350
 7144SOL    HW122331   1.410   3.605   3.439
 7144SOL    HW222332   1.273   3.587   3.352
 7145SOL     OW22333   4.018   5.634   6.260
 7145SOL    HW122334   4.002   5.614   6.163
 7145SOL    HW222335   3.942   5.598   6.314
 7146SOL     OW22336   3.513   4.900   1.682
 7146SOL    HW122337   3.459   4.984   1.685
 7146SOL    HW222338   3.454   4.822   1.659
 7147SOL     OW22339   0.078   0.958   3.484
 7147SOL    HW122340   0.139   1.011   3.543
 7147SOL    HW222341   0.041   1.018   3.413
 7148SOL     OW22342   6.503   1.966   0.805
 7148SOL    HW122343   6.416   1.917   0.809
 7148SOL    HW222344   6.551   1.942   0.721
 7149SOL     OW22345   0.904   0.762   4.467
 7149SOL    HW122346   0.978   0.708   4.426
 7149SOL    HW222347   0.894   0.737   4.564
 7150SOL     OW22348   6.072   3.433   5.943
 7150SOL    HW122349   6.127   3.361   5.902
 7150SOL    HW222350   6.022   3.482   5.872
 7151SOL     OW22351   2.022   6.720   7.021
 7151SOL    HW122352   2.031   6.811   6.982
 7151SOL    HW222353   2.023   6.726   0.097
 7152SOL     OW22354   1.091   2.496   4.767
 7152SOL    HW122355   1.079   2.441   4.849
 7152SOL    HW222356   1.109   2.591   4.793
 7153SOL     OW22357   4.253   1.856   2.883
 7153SOL    HW122358   4.275   1.816   2.794
 7153SOL    HW222359   4.161   1.895   2.880
 7154SOL     OW22360   3.311   7.010   4.670
 7154SOL    HW122361   3.331   0.037   4.753
 7154SOL    HW222362   3.389   6.951   4.648
 7155SOL     OW22363   2.221   1.331   3.709
 7155SOL    HW122364   2.307   1.376   3.733
 7155SOL    HW222365   2.151   1.400   3.692
 7156SOL     OW22366   2.287   5.744   5.771
 7156SOL    HW122367   2.237   5.667   5.730
 7156SOL    HW222368   2.249   5.764   5.861
 7157SOL     OW22369   4.612   4.289   0.259
 7157SOL    HW122370   4.677   4.344   0.312
 7157SOL    HW222371   4.619   4.193   0.286
 7158SOL     OW22372   4.169   0.525   3.566
 7158SOL    HW122373   4.129   0.617   3.565
 7158SOL    HW222374   4.268   0.532   3.559
 7159SOL     OW22375   1.594   6.144   6.879
 7159SOL    HW122376   1.541   6.086   6.940
 7159SOL    HW222377   1.552   6.234   6.872
 7160SOL     OW22378   6.801   0.691   1.959
 7160SOL    HW122379   6.782   0.732   2.049
 7160SOL    HW222380   6.745   0.609   1.948
 7161SOL     OW22381   3.716   4.141   4.659
 7161SOL    HW122382   3.677   4.158   4.569
 7161SOL    HW222383   3.807   4.100   4.650
 7162SOL     OW22384   3.443   4.887   4.083
 7162SOL    HW122385   3.377   4.882   4.158
 7162SOL    HW222386   3.394   4.896   3.996
 7163SOL     OW22387   1.131   6.479   3.681
 7163SOL    HW122388   1.204   6.482   3.612
 7163SOL    HW222389   1.120   6.569   3.722
 7164SOL     OW22390   2.732   1.741   4.514
 7164SOL    HW122391   2.649   1.696   4.544
 7164SOL    HW222392   2.720   1.778   4.422
 7165SOL     OW22393   4.586   5.046   2.113
 7165SOL    HW122394   4.563   4.962   2.162
 7165SOL    HW222395   4.504   5.103   2.106
 7166SOL     OW22396   3.859   6.192   2.209
 7166SOL    HW122397   3.770   6.150   2.224
 7166SOL    HW222398   3.895   6.228   2.295
 7167SOL     OW22399   5.614   3.436   0.199
 7167SOL    HW122400   5.616   3.344   0.159
 7167SOL    HW222401   5.529   3.447   0.251
 7168SOL     OW22402   0.085   1.704   4.022
 7168SOL    HW122403   0.089   1.609   3.990
 7168SOL    HW222404   0.127   1.764   3.954
 7169SOL     OW22405   2.581   2.581   6.367
 7169SOL    HW122406   2.512   2.532   6.315
 7169SOL    HW222407   2.574   2.557   6.464
 7170SOL     OW22408   5.140   4.117   4.156
 7170SOL    HW122409   5.200   4.197   4.164
 7170SOL    HW222410   5.195   4.034   4.156
 7171SOL     OW22411   3.815   3.899   5.646
 7171SOL    HW122412   3.726   3.887   5.689
 7171SOL    HW222413   3.856   3.810   5.627
 7172SOL     OW22414   6.925   6.291   1.241
 7172SOL    HW122415   6.877   6.235   1.308
 7172SOL    HW222416   6.889   6.385   1.243
 7173SOL     OW22417   6.426   6.408   4.627
 7173SOL    HW122418   6.391   6.319   4.597
 7173SOL    HW222419   6.419   6.415   4.726
 7174SOL     OW22420   1.235   6.103   5.984
 7174SOL    HW122421   1.319   6.074   6.030
 7174SOL    HW222422   1.257   6.133   5.890
 7175SOL     OW22423   6.386   3.874   5.377
 7175SOL    HW122424   6.400   3.965   5.337
 7175SOL    HW222425   6.296   3.870   5.421
 7176SOL     OW22426   1.122   3.358   1.489
 7176SOL    HW122427   1.076   3.307   1.416
 7176SOL    HW222428   1.063   3.432   1.520
 7177SOL     OW22429   0.932   4.912   1.883
 7177SOL    HW122430   0.941   5.001   1.928
 7177SOL    HW222431   0.838   4.879   1.893
 7178SOL     OW22432   6.026   0.612   6.517
 7178SOL    HW122433   6.054   0.609   6.421
 7178SOL    HW222434   6.106   0.622   6.576
 7179SOL     OW22435   0.721   3.824   6.034
 7179SOL    HW122436   0.750   3.818   5.938
 7179SOL    HW222437   0.636   3.772   6.046
 7180SOL     OW22438   6.565   0.235   2.330
 7180SOL    HW122439   6.559   0.335   2.333
 7180SOL    HW222440   6.653   0.209   2.290
 7181SOL     OW22441   5.356   5.756   2.459
 7181SOL    HW122442   5.287   5.766   2.531
 7181SOL    HW222443   5.385   5.846   2.427
 7182SOL     OW22444   4.548   3.668   5.944
 7182SOL    HW122445   4.626   3.681   6.005
 7182SOL    HW222446   4.514   3.758   5.914
 7183SOL     OW22447   2.066   2.993   3.209
 7183SOL    HW122448   2.159   2.957   3.212
 7183SOL    HW222449   2.021   2.961   3.125
 7184SOL     OW22450   2.218   5.325   3.260
 7184SOL    HW122451   2.180   5.356   3.173
 7184SOL    HW222452   2.197   5.229   3.273
 7185SOL     OW22453   4.868   2.087   6.870
 7185SOL    HW122454   4.917   2.087   6.958
 7185SOL    HW222455   4.770   2.086   6.887
 7186SOL     OW22456   0.896   6.608   4.588
 7186SOL    HW122457   0.905   6.693   4.534
 7186SOL    HW222458   0.809   6.564   4.566
 7187SOL     OW22459   1.830   5.000   1.318
 7187SOL    HW122460   1.882   4.922   1.353
 7187SOL    HW222461   1.819   4.991   1.219
 7188SOL     OW22462   5.187   0.279   1.698
 7188SOL    HW122463   5.201   0.376   1.719
 7188SOL    HW222464   5.243   0.223   1.760
 7189SOL     OW22465   6.134   0.809   5.388
 7189SOL    HW122466   6.067   0.735   5.384
 7189SOL    HW222467   6.184   0.805   5.474
 7190SOL     OW22468   4.398   5.406   2.979
 7190SOL    HW122469   4.362   5.316   2.955
 7190SOL    HW222470   4.443   5.446   2.899
 7191SOL     OW22471   0.884   3.064   1.337
 7191SOL    HW122472   0.856   3.145   1.388
 7191SOL    HW222473   0.982   3.067   1.320
 7192SOL     OW22474   3.180   3.943   6.268
 7192SOL    HW122475   3.175   4.042   6.254
 7192SOL    HW222476   3.241   3.924   6.345
 7193SOL     OW22477   5.748   2.104   4.934
 7193SOL    HW122478   5.736   2.048   4.852
 7193SOL    HW222479   5.793   2.050   5.005
 7194SOL     OW22480   2.798   0.940   2.347
 7194SOL    HW122481   2.817   0.863   2.407
 7194SOL    HW222482   2.753   1.012   2.400
 7195SOL     OW22483   0.661   6.980   2.699
 7195SOL    HW122484   0.678   0.000   2.610
 7195SOL    HW222485   0.735   7.003   2.761
 7196SOL     OW22486   3.859   3.590   1.787
 7196SOL    HW122487   3.940   3.608   1.843
 7196SOL    HW222488   3.885   3.538   1.706
 7197SOL     OW22489   1.867   1.207   4.371
 7197SOL    HW122490   1.819   1.184   4.287
 7197SOL    HW222491   1.876   1.125   4.428
 7198SOL     OW22492   0.545   6.857   5.987
 7198SOL    HW122493   0.604   6.855   6.067
 7198SOL    HW222494   0.449   6.848   6.016
 7199SOL     OW22495   6.072   5.693   2.205
 7199SOL    HW122496   5.992   5.733   2.249
 7199SOL    HW222497   6.065   5.704   2.106
 7200SOL     OW22498   1.508   2.377   2.314
 7200SOL    HW122499   1.571   2.455   2.314
 7200SOL    HW222500   1.455   2.377   2.399
 7201SOL     OW22501   2.302   4.113   4.077
 7201SOL    HW122502   2.318   4.137   3.981
 7201SOL    HW222503   2.272   4.017   4.083
 7202SOL     OW22504   2.366   0.208   5.967
 7202SOL    HW122505   2.449   0.214   6.023
 7202SOL    HW222506   2.316   0.295   5.972
 7203SOL     OW22507   5.595   6.936   6.957
 7203SOL    HW122508   5.567   6.976   0.021
 7203SOL    HW222509   5.667   6.993   6.916
 7204SOL     OW22510   6.514   2.251   2.995
 7204SOL    HW122511   6.468   2.188   2.933
 7204SOL    HW222512   6.447   2.313   3.035
 7205SOL     OW22513   1.306   4.036   1.639
 7205SOL    HW122514   1.342   4.123   1.670
 7205SOL    HW222515   1.210   4.047   1.614
 7206SOL     OW22516   6.201   1.092   1.479
 7206SOL    HW122517   6.231   1.182   1.513
 7206SOL    HW222518   6.280   1.033   1.468
 7207SOL     OW22519   4.089   0.143   1.443
 7207SOL    HW122520   4.078   0.221   1.505
 7207SOL    HW222521   4.126   0.176   1.356
 7208SOL     OW22522   2.461   0.553   5.175
 7208SOL    HW122523   2.362   0.551   5.160
 7208SOL    HW222524   2.486   0.636   5.224
 7209SOL     OW22525   3.194   3.719   5.142
 7209SOL    HW122526   3.209   3.749   5.236
 7209SOL    HW222527   3.106   3.755   5.109
 7210SOL     OW22528   4.177   6.657   4.336
 7210SOL    HW122529   4.108   6.725   4.365
 7210SOL    HW222530   4.238   6.638   4.412
 7211SOL     OW22531   0.944   5.138   2.472
 7211SOL    HW122532   0.971   5.042   2.462
 7211SOL    HW222533   1.023   5.197   2.456
 7212SOL     OW22534   5.431   0.001   3.317
 7212SOL    HW122535   5.527   7.003   3.297
 7212SOL    HW222536   5.386   0.033   3.233
 7213SOL     OW22537   5.771   6.260   5.739
 7213SOL    HW122538   5.793   6.163   5.724
 7213SOL    HW222539   5.783   6.282   5.836
 7214SOL     OW22540   1.217   5.033   5.803
 7214SOL    HW122541   1.254   4.965   5.867
 7214SOL    HW222542   1.292   5.083   5.761
 7215SOL     OW22543   1.289   3.218   1.628
 7215SOL    HW122544   1.364   3.188   1.569
 7215SOL    HW222545   1.236   3.289   1.582
 7216SOL     OW22546   3.022   1.996   2.578
 7216SOL    HW122547   3.035   2.055   2.499
 7216SOL    HW222548   3.040   1.901   2.552
 7217SOL     OW22549   0.627   3.592   1.933
 7217SOL    HW122550   0.583   3.546   1.856
 7217SOL    HW222551   0.670   3.523   1.992
 7218SOL     OW22552   6.318   2.907   4.088
 7218SOL    HW122553   6.415   2.920   4.065
 7218SOL    HW222554   6.302   2.938   4.181
 7219SOL     OW22555   3.047   1.563   1.012
 7219SOL    HW122556   3.115   1.530   0.947
 7219SOL    HW222557   2.987   1.488   1.039
 7220SOL     OW22558   6.836   1.631   3.177
 7220SOL    HW122559   6.913   1.570   3.198
 7220SOL    HW222560   6.866   1.726   3.184
 7221SOL     OW22561   6.964   4.131   5.101
 7221SOL    HW122562   6.954   4.044   5.148
 7221SOL    HW222563   0.020   4.127   5.040
 7222SOL     OW22564   6.922   0.091   2.842
 7222SOL    HW122565   7.002   0.131   2.888
 7222SOL    HW222566   6.873   0.031   2.907
 7223SOL     OW22567   4.382   1.080   4.501
 7223SOL    HW122568   4.349   0.991   4.533
 7223SOL    HW222569   4.331   1.107   4.420
 7224SOL     OW22570   5.452   1.515   3.572
 7224SOL    HW122571   5.502   1.602   3.571
 7224SOL    HW222572   5.361   1.529   3.610
 7225SOL     OW22573   2.656   0.235   1.665
 7225SOL    HW122574   2.564   0.209   1.635
 7225SOL    HW222575   2.652   0.267   1.760
 7226SOL     OW22576   6.094   6.403   5.227
 7226SOL    HW122577   6.085   6.500   5.204
 7226SOL    HW222578   6.014   6.353   5.194
 7227SOL     OW22579   0.281   2.964   6.257
 7227SOL    HW122580   0.220   2.903   6.206
 7227SOL    HW222581   0.374   2.928   6.255
 7228SOL     OW22582   1.845   0.440   2.621
 7228SOL    HW122583   1.762   0.445   2.565
 7228SOL    HW222584   1.821   0.455   2.717
 7229SOL     OW22585   0.004   0.408   2.998
 7229SOL    HW122586   0.055   0.392   3.083
 7229SOL    HW222587   0.043   0.351   2.925
 7230SOL     OW22588   6.519   5.211   1.115
 7230SOL    HW122589   6.455   5.287   1.103
 7230SOL    HW222590   6.535   5.166   1.028
 7231SOL     OW22591   5.825   0.763   0.264
 7231SOL    HW122592   5.864   0.671   0.257
 7231SOL    HW222593   5.757   0.776   0.192
 7232SOL     OW22594   3.369   4.082   0.857
 7232SOL    HW122595   3.365   4.031   0.772
 7232SOL    HW222596   3.465   4.095   0.884
 7233SOL     OW22597   1.013   2.248   5.593
 7233SOL    HW122598   1.090   2.216   5.648
 7233SOL    HW222599   0.952   2.302   5.651
 7234SOL     OW22600   5.614   2.606   4.126
 7234SOL    HW122601   5.590   2.545   4.050
 7234SOL    HW222602   5.610   2.701   4.095
 7235SOL     OW22603   6.137   2.832   5.060
 7235SOL    HW122604   6.098   2.848   4.969
 7235SOL    HW222605   6.145   2.919   5.108
 7236SOL     OW22606   0.908   1.693   3.385
 7236SOL    HW122607   0.918   1.708   3.286
 7236SOL    HW222608   0.838   1.623   3.401
 7237SOL     OW22609   5.567   6.114   4.657
 7237SOL    HW122610   5.579   6.097   4.559
 7237SOL    HW222611   5.657   6.126   4.700
 7238SOL     OW22612   1.962   0.303   2.319
 7238SOL    HW122613   1.946   0.364   2.241
 7238SOL    HW222614   1.892   0.232   2.321
 7239SOL     OW22615   4.593   1.914   2.201
 7239SOL    HW122616   4.595   1.995   2.260
 7239SOL    HW222617   4.502   1.905   2.161
 7240SOL     OW22618   3.236   3.424   3.046
 7240SOL    HW122619   3.218   3.330   3.019
 7240SOL    HW222620   3.152   3.466   3.080
 7241SOL     OW22621   4.763   6.935   4.237
 7241SOL    HW122622   4.685   6.989   4.268
 7241SOL    HW222623   4.749   6.838   4.260
 7242SOL     OW22624   6.710   5.963   0.496
 7242SOL    HW122625   6.792   5.920   0.532
 7242SOL    HW222626   6.629   5.926   0.542
 7243SOL     OW22627   0.584   6.145   1.158
 7243SOL    HW122628   0.554   6.196   1.077
 7243SOL    HW222629   0.582   6.047   1.139
 7244SOL     OW22630   5.853   1.777   1.825
 7244SOL    HW122631   5.813   1.730   1.747
 7244SOL    HW222632   5.927   1.836   1.794
 7245SOL     OW22633   5.648   1.725   3.577
 7245SOL    HW122634   5.683   1.809   3.618
 7245SOL    HW222635   5.700   1.704   3.494
 7246SOL     OW22636   1.484   5.572   5.698
 7246SOL    HW122637   1.502   5.640   5.627
 7246SOL    HW222638   1.498   5.613   5.788
 7247SOL     OW22639   3.977   5.798   4.012
 7247SOL    HW122640   4.048   5.754   4.066
 7247SOL    HW222641   3.939   5.732   3.947
 7248SOL     OW22642   3.255   1.203   5.021
 7248SOL    HW122643   3.308   1.288   5.017
 7248SOL    HW222644   3.278   1.147   4.942
 7249SOL     OW22645   4.706   3.046   5.983
 7249SOL    HW122646   4.613   3.050   5.946
 7249SOL    HW222647   4.703   3.013   6.078
 7250SOL     OW22648   3.065   3.057   0.027
 7250SOL    HW122649   2.983   3.107   7.023
 7250SOL    HW222650   3.100   3.096   0.112
 7251SOL     OW22651   5.697   1.501   5.274
 7251SOL    HW122652   5.597   1.513   5.270
 7251SOL    HW222653   5.720   1.406   5.252
 7252SOL     OW22654   4.827   3.390   5.297
 7252SOL    HW122655   4.763   3.453   5.251
 7252SOL    HW222656   4.809   3.297   5.266
 7253SOL     OW22657   5.091   4.870   6.931
 7253SOL    HW122658   5.017   4.843   6.993
 7253SOL    HW222659   5.176   4.880   6.983
 7254SOL     OW22660   4.918   6.453   5.227
 7254SOL    HW122661   4.962   6.441   5.316
 7254SOL    HW222662   4.980   6.423   5.155
 7255SOL     OW22663   3.703   3.125   3.160
 7255SOL    HW122664   3.641   3.169   3.226
 7255SOL    HW222665   3.651   3.059   3.106
 7256SOL     OW22666   2.990   5.570   3.480
 7256SOL    HW122667   3.053   5.497   3.454
 7256SOL    HW222668   2.945   5.606   3.398
 7257SOL     OW22669   6.015   5.466   2.758
 7257SOL    HW122670   5.943   5.400   2.736
 7257SOL    HW222671   5.977   5.558   2.752
 7258SOL     OW22672   2.180   0.072   5.736
 7258SOL    HW122673   2.191   6.998   5.716
 7258SOL    HW222674   2.258   0.103   5.790
 7259SOL     OW22675   3.330   4.412   6.006
 7259SOL    HW122676   3.394   4.397   6.081
 7259SOL    HW222677   3.350   4.348   5.932
 7260SOL     OW22678   4.418   2.485   2.801
 7260SOL    HW122679   4.431   2.452   2.708
 7260SOL    HW222680   4.493   2.546   2.826
 7261SOL     OW22681   2.415   4.923   1.366
 7261SOL    HW122682   2.336   4.985   1.372
 7261SOL    HW222683   2.461   4.919   1.455
 7262SOL     OW22684   6.231   0.615   4.654
 7262SOL    HW122685   6.266   0.523   4.670
 7262SOL    HW222686   6.181   0.647   4.734
 7263SOL     OW22687   5.595   5.326   1.261
 7263SOL    HW122688   5.517   5.386   1.243
 7263SOL    HW222689   5.587   5.290   1.354
 7264SOL     OW22690   0.093   6.835   4.469
 7264SOL    HW122691   0.004   6.803   4.500
 7264SOL    HW222692   0.099   6.934   4.481
 7265SOL     OW22693   4.963   3.165   6.709
 7265SOL    HW122694   5.025   3.099   6.753
 7265SOL    HW222695   4.883   3.180   6.768
 7266SOL     OW22696   4.052   1.474   2.961
 7266SOL    HW122697   4.013   1.407   3.024
 7266SOL    HW222698   3.980   1.536   2.930
 7267SOL     OW22699   5.039   1.863   3.879
 7267SOL    HW122700   4.981   1.841   3.957
 7267SOL    HW222701   4.982   1.874   3.797
 7268SOL     OW22702   4.101   6.521   7.016
 7268SOL    HW122703   4.166   6.459   6.972
 7268SOL    HW222704   4.087   6.492   0.087
 7269SOL     OW22705   1.514   0.277   2.459
 7269SOL    HW122706   1.545   0.255   2.552
 7269SOL    HW222707   1.591   0.268   2.395
 7270SOL     OW22708   3.234   2.425   1.635
 7270SOL    HW122709   3.245   2.334   1.675
 7270SOL    HW222710   3.298   2.489   1.678
 7271SOL     OW22711   5.702   5.376   3.562
 7271SOL    HW122712   5.782   5.429   3.592
 7271SOL    HW222713   5.696   5.379   3.462
 7272SOL     OW22714   5.910   1.491   1.714
 7272SOL    HW122715   5.941   1.412   1.767
 7272SOL    HW222716   5.986   1.555   1.703
 7273SOL     OW22717   6.133   5.116   4.854
 7273SOL    HW122718   6.193   5.104   4.775
 7273SOL    HW222719   6.110   5.212   4.865
 7274SOL     OW22720   5.690   5.118   3.674
 7274SOL    HW122721   5.712   5.199   3.619
 7274SOL    HW222722   5.606   5.135   3.725
 7275SOL     OW22723   5.933   6.805   1.840
 7275SOL    HW122724   5.892   6.825   1.929
 7275SOL    HW222725   5.916   6.709   1.816
 7276SOL     OW22726   3.977   1.919   2.870
 7276SOL    HW122727   3.911   1.899   2.798
 7276SOL    HW222728   3.937   1.899   2.959
 7277SOL     OW22729   5.942   2.342   3.902
 7277SOL    HW122730   5.960   2.319   3.998
 7277SOL    HW222731   5.983   2.431   3.881
 7278SOL     OW22732   3.443   1.209   3.337
 7278SOL    HW122733   3.433   1.217   3.436
 7278SOL    HW222734   3.538   1.185   3.315
 7279SOL     OW22735   3.594   3.709   1.526
 7279SOL    HW122736   3.689   3.721   1.553
 7279SOL    HW222737   3.547   3.654   1.595
 7280SOL     OW22738   6.941   1.279   5.534
 7280SOL    HW122739   6.982   1.368   5.554
 7280SOL    HW222740   6.903   1.241   5.619
 7281SOL     OW22741   3.519   6.549   3.449
 7281SOL    HW122742   3.577   6.532   3.369
 7281SOL    HW222743   3.432   6.590   3.419
 7282SOL     OW22744   0.309   3.726   1.151
 7282SOL    HW122745   0.317   3.816   1.193
 7282SOL    HW222746   0.262   3.663   1.213
 7283SOL     OW22747   2.951   6.008   2.966
 7283SOL    HW122748   2.936   6.071   2.889
 7283SOL    HW222749   3.029   5.949   2.947
 7284SOL     OW22750   0.752   0.425   3.767
 7284SOL    HW122751   0.733   0.345   3.825
 7284SOL    HW222752   0.665   0.466   3.739
 7285SOL     OW22753   5.167   2.385   1.615
 7285SOL    HW122754   5.120   2.437   1.686
 7285SOL    HW222755   5.214   2.447   1.553
 7286SOL     OW22756   6.719   1.293   4.651
 7286SOL    HW122757   6.781   1.318   4.576
 7286SOL    HW222758   6.758   1.216   4.702
 7287SOL     OW22759   3.280   1.734   4.304
 7287SOL    HW122760   3.193   1.684   4.305
 7287SOL    HW222761   3.293   1.781   4.392
 7288SOL     OW22762   2.801   1.992   1.807
 7288SOL    HW122763   2.857   2.036   1.737
 7288SOL    HW222764   2.860   1.952   1.877
 7289SOL     OW22765   6.554   2.494   0.936
 7289SOL    HW122766   6.624   2.539   0.881
 7289SOL    HW222767   6.597   2.441   1.009
 7290SOL     OW22768   3.226   2.111   4.888
 7290SOL    HW122769   3.306   2.057   4.914
 7290SOL    HW222770   3.205   2.176   4.961
 7291SOL     OW22771   1.276   0.866   0.389
 7291SOL    HW122772   1.233   0.849   0.301
 7291SOL    HW222773   1.239   0.951   0.428
 7292SOL     OW22774   3.771   1.161   2.133
 7292SOL    HW122775   3.783   1.250   2.090
 7292SOL    HW222776   3.860   1.115   2.140
 7293SOL     OW22777   6.466   1.184   4.097
 7293SOL    HW122778   6.465   1.273   4.052
 7293SOL    HW222779   6.372   1.156   4.119
 7294SOL     OW22780   2.774   0.932   2.828
 7294SOL    HW122781   2.730   1.012   2.868
 7294SOL    HW222782   2.845   0.961   2.763
 7295SOL     OW22783   5.534   4.162   1.790
 7295SOL    HW122784   5.610   4.215   1.754
 7295SOL    HW222785   5.569   4.080   1.836
 7296SOL     OW22786   3.221   6.883   2.733
 7296SOL    HW122787   3.139   6.829   2.714
 7296SOL    HW222788   3.211   6.927   2.822
 7297SOL     OW22789   4.100   0.132   0.251
 7297SOL    HW122790   4.178   0.125   0.190
 7297SOL    HW222791   4.127   0.180   0.334
 7298SOL     OW22792   4.016   4.347   1.025
 7298SOL    HW122793   4.059   4.437   1.021
 7298SOL    HW222794   4.083   4.277   1.002
 7299SOL     OW22795   6.826   3.119   0.323
 7299SOL    HW122796   6.884   3.047   0.283
 7299SOL    HW222797   6.818   3.194   0.257
 7300SOL     OW22798   0.996   4.450   1.703
 7300SOL    HW122799   0.950   4.521   1.649
 7300SOL    HW222800   1.072   4.412   1.650
 7301SOL     OW22801   4.138   1.808   0.555
 7301SOL    HW122802   4.112   1.795   0.651
 7301SOL    HW222803   4.068   1.767   0.496
 7302SOL     OW22804   5.586   1.991   6.544
 7302SOL    HW122805   5.538   1.981   6.457
 7302SOL    HW222806   5.685   1.999   6.527
 7303SOL     OW22807   3.733   2.221   1.518
 7303SOL    HW122808   3.785   2.270   1.448
 7303SOL    HW222809   3.664   2.281   1.558
 7304SOL     OW22810   2.366   6.743   0.662
 7304SOL    HW122811   2.451   6.776   0.704
 7304SOL    HW222812   2.373   6.751   0.563
 7305SOL     OW22813   6.789   0.023   6.289
 7305SOL    HW122814   6.843   6.963   6.293
 7305SOL    HW222815   6.828   0.090   6.352
 7306SOL     OW22816   1.812   3.709   0.588
 7306SOL    HW122817   1.734   3.767   0.565
 7306SOL    HW222818   1.783   3.637   0.651
 7307SOL     OW22819   4.303   6.720   2.049
 7307SOL    HW122820   4.205   6.706   2.040
 7307SOL    HW222821   4.330   6.705   2.144
 7308SOL     OW22822   3.565   1.840   2.998
 7308SOL    HW122823   3.477   1.885   2.988
 7308SOL    HW222824   3.553   1.750   3.040
 7309SOL     OW22825   2.763   4.691   4.106
 7309SOL    HW122826   2.707   4.653   4.179
 7309SOL    HW222827   2.704   4.735   4.038
 7310SOL     OW22828   4.260   3.001   0.410
 7310SOL    HW122829   4.264   2.906   0.440
 7310SOL    HW222830   4.198   3.009   0.332
 7311SOL     OW22831   1.334   6.601   5.504
 7311SOL    HW122832   1.432   6.611   5.487
 7311SOL    HW222833   1.308   6.657   5.583
 7312SOL     OW22834   6.176   2.006   4.247
 7312SOL    HW122835   6.190   2.105   4.244
 7312SOL    HW222836   6.139   1.980   4.336
 7313SOL     OW22837   3.304   1.115   3.140
 7313SOL    HW122838   3.346   1.036   3.095
 7313SOL    HW222839   3.363   1.146   3.215
 7314SOL     OW22840   2.453   5.777   4.765
 7314SOL    HW122841   2.446   5.680   4.742
 7314SOL    HW222842   2.540   5.813   4.731
 7315SOL     OW22843   2.377   4.741   2.481
 7315SOL    HW122844   2.291   4.744   2.532
 7315SOL    HW222845   2.362   4.779   2.389
 7316SOL     OW22846   3.723   0.779   2.077
 7316SOL    HW122847   3.700   0.781   2.174
 7316SOL    HW222848   3.794   0.710   2.061
 7317SOL     OW22849   6.562   1.588   1.913
 7317SOL    HW122850   6.642   1.625   1.960
 7317SOL    HW222851   6.506   1.537   1.978
 7318SOL     OW22852   4.608   6.081   1.708
 7318SOL    HW122853   4.633   6.143   1.782
 7318SOL    HW222854   4.687   6.023   1.686
 7319SOL     OW22855   4.494   4.865   5.928
 7319SOL    HW122856   4.531   4.813   5.851
 7319SOL    HW222857   4.568   4.914   5.973
 7320SOL     OW22858   1.582   3.026   0.532
 7320SOL    HW122859   1.505   3.090   0.523
 7320SOL    HW222860   1.600   2.983   0.444
 7321SOL     OW22861   2.369   2.149   5.416
 7321SOL    HW122862   2.408   2.116   5.503
 7321SOL    HW222863   2.427   2.120   5.341
 7322SOL     OW22864   2.237   2.087   4.084
 7322SOL    HW122865   2.241   2.185   4.066
 7322SOL    HW222866   2.227   2.037   3.998
 7323SOL     OW22867   2.241   1.758   0.629
 7323SOL    HW122868   2.330   1.739   0.672
 7323SOL    HW222869   2.235   1.707   0.543
 7324SOL     OW22870   5.317   3.792   4.578
 7324SOL    HW122871   5.219   3.805   4.566
 7324SOL    HW222872   5.333   3.708   4.630
 7325SOL     OW22873   3.504   0.523   6.371
 7325SOL    HW122874   3.528   0.426   6.366
 7325SOL    HW222875   3.473   0.545   6.463
 7326SOL     OW22876   3.849   6.390   6.771
 7326SOL    HW122877   3.767   6.343   6.804
 7326SOL    HW222878   3.835   6.423   6.678
 7327SOL     OW22879   1.397   4.661   3.395
 7327SOL    HW122880   1.427   4.639   3.303
 7327SOL    HW222881   1.297   4.660   3.399
 7328SOL     OW22882   4.310   5.276   6.833
 7328SOL    HW122883   4.291   5.348   6.900
 7328SOL    HW222884   4.326   5.190   6.881
 7329SOL     OW22885   2.653   3.842   6.591
 7329SOL    HW122886   2.639   3.824   6.493
 7329SOL    HW222887   2.604   3.925   6.616
 7330SOL     OW22888   2.049   3.849   1.229
 7330SOL    HW122889   2.048   3.833   1.328
 7330SOL    HW222890   2.043   3.761   1.182
 7331SOL     OW22891   5.277   1.161   2.495
 7331SOL    HW122892   5.257   1.084   2.435
 7331SOL    HW222893   5.195   1.216   2.507
 7332SOL     OW22894   2.241   0.124   4.978
 7332SOL    HW122895   2.242   0.155   5.073
 7332SOL    HW222896   2.259   0.202   4.918
 7333SOL     OW22897   6.474   1.352   1.774
 7333SOL    HW122898   6.533   1.272   1.773
 7333SOL    HW222899   6.507   1.417   1.843
 7334SOL     OW22900   1.125   4.893   4.921
 7334SOL    HW122901   1.088   4.967   4.976
 7334SOL    HW222902   1.086   4.897   4.829
 7335SOL     OW22903   6.884   2.949   2.229
 7335SOL    HW122904   6.934   3.027   2.267
 7335SOL    HW222905   6.857   2.887   2.303
 7336SOL     OW22906   2.901   0.389   1.170
 7336SOL    HW122907   2.896   0.289   1.175
 7336SOL    HW222908   2.936   0.426   1.256
 7337SOL     OW22909   3.067   1.602   2.117
 7337SOL    HW122910   3.159   1.564   2.110
 7337SOL    HW222911   3.040   1.605   2.214
 7338SOL     OW22912   5.266   2.899   0.523
 7338SOL    HW122913   5.335   2.883   0.453
 7338SOL    HW222914   5.175   2.903   0.480
 7339SOL     OW22915   6.640   0.107   4.292
 7339SOL    HW122916   6.609   0.157   4.211
 7339SOL    HW222917   6.705   0.163   4.343
 7340SOL     OW22918   2.948   6.805   0.656
 7340SOL    HW122919   2.923   6.810   0.560
 7340SOL    HW222920   3.039   6.764   0.665
 7341SOL     OW22921   6.662   5.385   3.190
 7341SOL    HW122922   6.628   5.294   3.168
 7341SOL    HW222923   6.607   5.425   3.264
 7342SOL     OW22924   0.084   5.134   0.322
 7342SOL    HW122925   0.061   5.039   0.301
 7342SOL    HW222926   0.122   5.140   0.414
 7343SOL     OW22927   0.641   2.106   2.882
 7343SOL    HW122928   0.668   2.115   2.786
 7343SOL    HW222929   0.543   2.090   2.888
 7344SOL     OW22930   2.256   1.208   5.842
 7344SOL    HW122931   2.277   1.219   5.939
 7344SOL    HW222932   2.268   1.112   5.815
 7345SOL     OW22933   1.081   6.716   6.939
 7345SOL    HW122934   1.035   6.716   6.850
 7345SOL    HW222935   1.180   6.712   6.925
 7346SOL     OW22936   3.747   5.332   3.160
 7346SOL    HW122937   3.689   5.262   3.202
 7346SOL    HW222938   3.806   5.290   3.091
 7347SOL     OW22939   5.426   2.899   3.439
 7347SOL    HW122940   5.347   2.879   3.498
 7347SOL    HW222941   5.396   2.897   3.343
 7348SOL     OW22942   5.335   0.152   6.292
 7348SOL    HW122943   5.385   0.066   6.301
 7348SOL    HW222944   5.241   0.139   6.322
 7349SOL     OW22945   3.311   2.302   1.306
 7349SOL    HW122946   3.245   2.262   1.242
 7349SOL    HW222947   3.348   2.230   1.365
 7350SOL     OW22948   1.657   1.654   2.852
 7350SOL    HW122949   1.608   1.670   2.767
 7350SOL    HW222950   1.754   1.641   2.833
 7351SOL     OW22951   6.007   5.083   0.116
 7351SOL    HW122952   6.085   5.094   0.053
 7351SOL    HW222953   5.976   4.988   0.114
 7352SOL     OW22954   6.604   1.442   3.015
 7352SOL    HW122955   6.533   1.446   2.945
 7352SOL    HW222956   6.589   1.516   3.082
 7353SOL     OW22957   5.769   1.920   5.151
 7353SOL    HW122958   5.766   1.849   5.221
 7353SOL    HW222959   5.675   1.948   5.129
 7354SOL     OW22960   5.529   4.192   5.252
 7354SOL    HW122961   5.447   4.233   5.214
 7354SOL    HW222962   5.507   4.146   5.338
 7355SOL     OW22963   0.113   5.570   0.308
 7355SOL    HW122964   0.051   5.620   0.368
 7355SOL    HW222965   0.063   5.540   0.226
 7356SOL     OW22966   0.144   1.920   6.348
 7356SOL    HW122967   0.187   2.008   6.326
 7356SOL    HW222968   0.202   1.846   6.313
 7357SOL     OW22969   0.276   1.409   0.654
 7357SOL    HW122970   0.227   1.464   0.722
 7357SOL    HW222971   0.211   1.351   0.605
 7358SOL     OW22972   3.321   1.245   3.619
 7358SOL    HW122973   3.225   1.244   3.591
 7358SOL    HW222974   3.348   1.338   3.644
 7359SOL     OW22975   3.134   3.430   4.133
 7359SOL    HW122976   3.049   3.458   4.090
 7359SOL    HW222977   3.198   3.399   4.062
 7360SOL     OW22978   1.528   4.299   6.206
 7360SOL    HW122979   1.521   4.392   6.243
 7360SOL    HW222980   1.617   4.260   6.231
 7361SOL     OW22981   4.731   0.198   1.914
 7361SOL    HW122982   4.675   0.135   1.860
 7361SOL    HW222983   4.763   0.151   1.996
 7362SOL     OW22984   1.299   5.082   0.047
 7362SOL    HW122985   1.218   5.030   0.021
 7362SOL    HW222986   1.305   5.088   0.147
 7363SOL     OW22987   5.014   2.048   5.849
 7363SOL    HW122988   5.005   2.005   5.939
 7363SOL    HW222989   5.003   1.978   5.778
 7364SOL     OW22990   5.127   7.015   0.625
 7364SOL    HW122991   5.031   7.016   0.651
 7364SOL    HW222992   5.139   6.959   0.543
 7365SOL     OW22993   5.351   6.907   1.294
 7365SOL    HW122994   5.389   6.848   1.222
 7365SOL    HW222995   5.367   7.003   1.270
 7366SOL     OW22996   2.679   6.763   0.710
 7366SOL    HW122997   2.774   6.770   0.681
 7366SOL    HW222998   2.638   6.681   0.671
 7367SOL     OW22999   4.602   2.980   6.219
 7367SOL    HW123000   4.545   3.050   6.262
 7367SOL    HW223001   4.605   2.898   6.277
 7368SOL     OW23002   3.053   3.155   4.697
 7368SOL    HW123003   3.020   3.218   4.767
 7368SOL    HW223004   3.106   3.205   4.629
 7369SOL     OW23005   6.796   6.832   6.550
 7369SOL    HW123006   6.811   6.927   6.578
 7369SOL    HW223007   6.707   6.824   6.507
 7370SOL     OW23008   0.216   5.717   1.272
 7370SOL    HW123009   0.236   5.739   1.177
 7370SOL    HW223010   0.133   5.764   1.301
 7371SOL     OW23011   2.161   4.636   3.915
 7371SOL    HW123012   2.135   4.706   3.980
 7371SOL    HW223013   2.172   4.677   3.824
 7372SOL     OW23014   2.703   0.281   5.264
 7372SOL    HW123015   2.682   0.193   5.305
 7372SOL    HW223016   2.797   0.281   5.231
 7373SOL     OW23017   3.843   1.336   1.002
 7373SOL    HW123018   3.807   1.377   1.085
 7373SOL    HW223019   3.873   1.409   0.940
 7374SOL     OW23020   2.269   3.689   0.731
 7374SOL    HW123021   2.295   3.592   0.741
 7374SOL    HW223022   2.242   3.725   0.821
 7375SOL     OW23023   2.422   5.727   3.146
 7375SOL    HW123024   2.453   5.672   3.068
 7375SOL    HW223025   2.469   5.696   3.228
 7376SOL     OW23026   3.310   4.085   0.061
 7376SOL    HW123027   3.383   4.026   0.030
 7376SOL    HW223028   3.345   4.148   0.131
 7377SOL     OW23029   5.463   5.995   1.540
 7377SOL    HW123030   5.439   5.945   1.457
 7377SOL    HW223031   5.493   5.931   1.611
 7378SOL     OW23032   0.859   1.790   6.232
 7378SOL    HW123033   0.943   1.798   6.285
 7378SOL    HW223034   0.780   1.804   6.293
 7379SOL     OW23035   4.355   0.532   0.440
 7379SOL    HW123036   4.303   0.448   0.460
 7379SOL    HW223037   4.298   0.594   0.386
 7380SOL     OW23038   0.092   2.940   6.947
 7380SOL    HW123039   0.027   2.976   7.014
 7380SOL    HW223040   0.066   2.973   6.856
 7381SOL     OW23041   4.967   2.550   0.670
 7381SOL    HW123042   4.965   2.649   0.668
 7381SOL    HW223043   4.982   2.518   0.764
 7382SOL     OW23044   1.180   5.199   3.651
 7382SOL    HW123045   1.252   5.136   3.620
 7382SOL    HW223046   1.118   5.151   3.713
 7383SOL     OW23047   1.808   4.820   2.591
 7383SOL    HW123048   1.835   4.770   2.673
 7383SOL    HW223049   1.831   4.766   2.510
 7384SOL     OW23050   6.111   1.719   1.691
 7384SOL    HW123051   6.086   1.816   1.691
 7384SOL    HW223052   6.197   1.707   1.642
 7385SOL     OW23053   5.639   0.440   1.956
 7385SOL    HW123054   5.706   0.368   1.940
 7385SOL    HW223055   5.570   0.438   1.884
 7386SOL     OW23056   6.576   1.539   5.600
 7386SOL    HW123057   6.614   1.596   5.527
 7386SOL    HW223058   6.621   1.562   5.687
 7387SOL     OW23059   4.608   5.882   3.492
 7387SOL    HW123060   4.705   5.889   3.471
 7387SOL    HW223061   4.592   5.913   3.586
 7388SOL     OW23062   5.114   3.581   4.863
 7388SOL    HW123063   5.110   3.529   4.949
 7388SOL    HW223064   5.024   3.620   4.844
 7389SOL     OW23065   1.691   2.880   5.556
 7389SOL    HW123066   1.706   2.877   5.655
 7389SOL    HW223067   1.765   2.932   5.513
 7390SOL     OW23068   4.843   6.727   0.595
 7390SOL    HW123069   4.907   6.650   0.601
 7390SOL    HW223070   4.753   6.693   0.569
 7391SOL     OW23071   0.008   5.472   0.703
 7391SOL    HW123072   6.987   5.483   0.791
 7391SOL    HW223073   0.106   5.489   0.712
 7392SOL     OW23074   1.713   4.314   2.425
 7392SOL    HW123075   1.646   4.387   2.438
 7392SOL    HW223076   1.733   4.271   2.513
 7393SOL     OW23077   1.277   3.709   0.458
 7393SOL    HW123078   1.252   3.676   0.367
 7393SOL    HW223079   1.344   3.647   0.498
 7394SOL     OW23080   2.925   3.559   6.921
 7394SOL    HW123081   2.903   3.607   6.836
 7394SOL    HW223082   2.863   3.482   6.932
 7395SOL     OW23083   2.544   0.130   0.148
 7395SOL    HW123084   2.486   0.151   0.226
 7395SOL    HW223085   2.640   0.148   0.172
 7396SOL     OW23086   6.437   6.920   2.283
 7396SOL    HW123087   6.499   6.952   2.355
 7396SOL    HW223088   6.364   6.865   2.324
 7397SOL     OW23089   6.441   4.285   3.906
 7397SOL    HW123090   6.443   4.340   3.989
 7397SOL    HW223091   6.398   4.197   3.924
 7398SOL     OW23092   4.325   6.537   2.606
 7398SOL    HW123093   4.245   6.500   2.652
 7398SOL    HW223094   4.408   6.504   2.652
 7399SOL     OW23095   4.923   6.009   4.203
 7399SOL    HW123096   4.905   6.087   4.142
 7399SOL    HW223097   4.890   6.031   4.295
 7400SOL     OW23098   2.540   4.535   6.770
 7400SOL    HW123099   2.531   4.501   6.864
 7400SOL    HW223100   2.514   4.463   6.706
 7401SOL     OW23101   6.606   2.918   3.792
 7401SOL    HW123102   6.576   2.936   3.698
 7401SOL    HW223103   6.636   2.823   3.800
 7402SOL     OW23104   1.899   6.161   4.587
 7402SOL    HW123105   1.890   6.253   4.627
 7402SOL    HW223106   1.819   6.142   4.530
 7403SOL     OW23107   2.425   3.277   1.713
 7403SOL    HW123108   2.403   3.369   1.747
 7403SOL    HW223109   2.367   3.210   1.760
 7404SOL     OW23110   1.178   3.217   2.846
 7404SOL    HW123111   1.183   3.205   2.945
 7404SOL    HW223112   1.253   3.276   2.816
 7405SOL     OW23113   3.557   4.759   6.219
 7405SOL    HW123114   3.510   4.755   6.307
 7405SOL    HW223115   3.650   4.793   6.232
 7406SOL     OW23116   6.416   6.181   3.028
 7406SOL    HW123117   6.401   6.098   3.083
 7406SOL    HW223118   6.419   6.157   2.931
 7407SOL     OW23119   3.607   1.068   5.649
 7407SOL    HW123120   3.516   1.108   5.641
 7407SOL    HW223121   3.601   0.981   5.697
 7408SOL     OW23122   1.089   3.757   4.941
 7408SOL    HW123123   1.085   3.742   5.040
 7408SOL    HW223124   1.184   3.763   4.912
 7409SOL     OW23125   2.119   6.981   4.569
 7409SOL    HW123126   2.037   0.015   4.574
 7409SOL    HW223127   2.092   6.885   4.573
 7410SOL     OW23128   4.806   5.690   6.012
 7410SOL    HW123129   4.817   5.749   6.093
 7410SOL    HW223130   4.790   5.596   6.042
 7411SOL     OW23131   6.182   3.851   5.593
 7411SOL    HW123132   6.135   3.920   5.539
 7411SOL    HW223133   6.122   3.820   5.667
 7412SOL     OW23134   1.216   0.707   0.597
 7412SOL    HW123135   1.222   0.612   0.565
 7412SOL    HW223136   1.262   0.767   0.532
 7413SOL     OW23137   6.338   3.917   3.647
 7413SOL    HW123138   6.420   3.972   3.655
 7413SOL    HW223139   6.360   3.821   3.668
 7414SOL     OW23140   0.321   6.015   2.218
 7414SOL    HW123141   0.295   6.051   2.129
 7414SOL    HW223142   0.418   6.033   2.234
 7415SOL     OW23143   2.922   1.386   2.970
 7415SOL    HW123144   3.020   1.404   2.978
 7415SOL    HW223145   2.888   1.348   3.057
 7416SOL     OW23146   5.996   0.136   2.579
 7416SOL    HW123147   5.897   0.125   2.579
 7416SOL    HW223148   6.032   0.118   2.670
 7417SOL     OW23149   0.405   5.224   1.486
 7417SOL    HW123150   0.356   5.302   1.525
 7417SOL    HW223151   0.501   5.228   1.512
 7418SOL     OW23152   2.180   3.793   0.961
 7418SOL    HW123153   2.253   3.820   1.024
 7418SOL    HW223154   2.129   3.716   0.999
 7419SOL     OW23155   6.564   2.108   5.705
 7419SOL    HW123156   6.585   2.031   5.644
 7419SOL    HW223157   6.527   2.073   5.791
 7420SOL     OW23158   0.306   5.596   2.053
 7420SOL    HW123159   0.355   5.620   1.969
 7420SOL    HW223160   0.341   5.651   2.129
 7421SOL     OW23161   4.178   2.418   1.348
 7421SOL    HW123162   4.152   2.373   1.433
 7421SOL    HW223163   4.277   2.408   1.334
 7422SOL     OW23164   1.351   2.349   0.601
 7422SOL    HW123165   1.256   2.317   0.606
 7422SOL    HW223166   1.401   2.295   0.534
 7423SOL     OW23167   2.913   4.387   0.618
 7423SOL    HW123168   2.816   4.379   0.596
 7423SOL    HW223169   2.959   4.438   0.545
 7424SOL     OW23170   5.054   0.479   3.894
 7424SOL    HW123171   4.967   0.429   3.890
 7424SOL    HW223172   5.067   0.516   3.987
 7425SOL     OW23173   3.371   0.414   4.748
 7425SOL    HW123174   3.296   0.405   4.684
 7425SOL    HW223175   3.452   0.450   4.701
 7426SOL     OW23176   0.246   0.686   6.648
 7426SOL    HW123177   0.193   0.766   6.676
 7426SOL    HW223178   0.187   0.623   6.596
 7427SOL     OW23179   5.378   5.135   5.692
 7427SOL    HW123180   5.415   5.163   5.603
 7427SOL    HW223181   5.278   5.144   5.691
 7428SOL     OW23182   4.925   1.379   5.340
 7428SOL    HW123183   4.995   1.449   5.332
 7428SOL    HW223184   4.957   1.294   5.298
 7429SOL     OW23185   6.142   6.159   3.992
 7429SOL    HW123186   6.167   6.244   4.038
 7429SOL    HW223187   6.146   6.173   3.893
 7430SOL     OW23188   0.856   3.749   4.313
 7430SOL    HW123189   0.903   3.693   4.381
 7430SOL    HW223190   0.892   3.728   4.222
 7431SOL     OW23191   0.004   4.205   2.738
 7431SOL    HW123192   0.085   4.158   2.773
 7431SOL    HW223193   0.004   4.203   2.638
 7432SOL     OW23194   1.958   6.100   6.027
 7432SOL    HW123195   1.938   6.063   5.937
 7432SOL    HW223196   2.035   6.050   6.068
 7433SOL     OW23197   0.556   6.880   0.722
 7433SOL    HW123198   0.580   6.977   0.725
 7433SOL    HW223199   0.547   6.844   0.815
 7434SOL     OW23200   4.444   6.992   0.431
 7434SOL    HW123201   4.436   6.997   0.332
 7434SOL    HW223202   4.535   0.001   0.458
 7435SOL     OW23203   1.052   4.914   6.978
 7435SOL    HW123204   1.025   4.849   0.025
 7435SOL    HW223205   1.106   4.867   6.909
 7436SOL     OW23206   5.603   3.608   6.988
 7436SOL    HW123207   5.590   3.596   0.063
 7436SOL    HW223208   5.649   3.528   6.950
 7437SOL     OW23209   0.176   6.387   5.426
 7437SOL    HW123210   0.262   6.356   5.466
 7437SOL    HW223211   0.126   6.443   5.493
 7438SOL     OW23212   5.642   4.307   0.361
 7438SOL    HW123213   5.654   4.349   0.272
 7438SOL    HW223214   5.652   4.377   0.433
 7439SOL     OW23215   1.001   6.664   3.151
 7439SOL    HW123216   1.061   6.736   3.116
 7439SOL    HW223217   1.029   6.640   3.244
 7440SOL     OW23218   0.878   0.764   4.764
 7440SOL    HW123219   0.804   0.697   4.774
 7440SOL    HW223220   0.923   0.778   4.852
 7441SOL     OW23221   6.402   0.631   4.290
 7441SOL    HW123222   6.421   0.568   4.365
 7441SOL    HW223223   6.303   0.645   4.282
 7442SOL     OW23224   1.858   1.102   6.990
 7442SOL    HW123225   1.771   1.074   0.007
 7442SOL    HW223226   1.853   1.199   6.965
 7443SOL     OW23227   6.826   1.659   2.016
 7443SOL    HW123228   6.888   1.736   2.004
 7443SOL    HW223229   6.844   1.591   1.945
 7444SOL     OW23230   1.516   2.507   5.493
 7444SOL    HW123231   1.566   2.423   5.512
 7444SOL    HW223232   1.429   2.486   5.449
 7445SOL     OW23233   5.882   3.043   1.910
 7445SOL    HW123234   5.826   3.121   1.938
 7445SOL    HW223235   5.977   3.058   1.938
 7446SOL     OW23236   4.726   4.135   2.789
 7446SOL    HW123237   4.702   4.213   2.730
 7446SOL    HW223238   4.670   4.138   2.872
 7447SOL     OW23239   1.307   3.602   6.097
 7447SOL    HW123240   1.286   3.509   6.126
 7447SOL    HW223241   1.345   3.653   6.174
 7448SOL     OW23242   0.526   1.161   5.634
 7448SOL    HW123243   0.432   1.158   5.668
 7448SOL    HW223244   0.550   1.256   5.613
 7449SOL     OW23245   3.216   0.812   3.309
 7449SOL    HW123246   3.283   0.743   3.339
 7449SOL    HW223247   3.248   0.853   3.223
 7450SOL     OW23248   4.061   1.723   1.826
 7450SOL    HW123249   4.088   1.767   1.911
 7450SOL    HW223250   3.980   1.770   1.789
 7451SOL     OW23251   1.275   0.717   1.974
 7451SOL    HW123252   1.242   0.809   1.992
 7451SOL    HW223253   1.274   0.700   1.876
 7452SOL     OW23254   2.022   5.855   2.921
 7452SOL    HW123255   1.990   5.766   2.887
 7452SOL    HW223256   2.068   5.842   3.009
 7453SOL     OW23257   6.529   4.470   4.884
 7453SOL    HW123258   6.623   4.495   4.909
 7453SOL    HW223259   6.528   4.436   4.790
 7454SOL     OW23260   2.712   1.868   6.861
 7454SOL    HW123261   2.650   1.839   6.789
 7454SOL    HW223262   2.805   1.876   6.825
 7455SOL     OW23263   4.471   6.986   0.969
 7455SOL    HW123264   4.429   0.034   1.026
 7455SOL    HW223265   4.563   7.015   0.942
 7456SOL     OW23266   1.384   3.645   5.609
 7456SOL    HW123267   1.353   3.736   5.634
 7456SOL    HW223268   1.305   3.587   5.588
 7457SOL     OW23269   0.256   6.341   6.143
 7457SOL    HW123270   0.336   6.289   6.112
 7457SOL    HW223271   0.234   6.412   6.077
 7458SOL     OW23272   2.968   0.096   1.521
 7458SOL    HW123273   2.918   0.032   1.462
 7458SOL    HW223274   2.941   0.082   1.616
 7459SOL     OW23275   3.735   6.116   3.420
 7459SOL    HW123276   3.701   6.152   3.507
 7459SOL    HW223277   3.720   6.018   3.417
 7460SOL     OW23278   0.931   5.492   6.394
 7460SOL    HW123279   0.903   5.561   6.461
 7460SOL    HW223280   0.899   5.520   6.303
 7461SOL     OW23281   3.885   1.460   3.435
 7461SOL    HW123282   3.849   1.395   3.501
 7461SOL    HW223283   3.984   1.467   3.445
 7462SOL     OW23284   1.768   1.430   3.932
 7462SOL    HW123285   1.687   1.463   3.980
 7462SOL    HW223286   1.781   1.483   3.848
 7463SOL     OW23287   3.722   4.017   2.846
 7463SOL    HW123288   3.681   3.930   2.819
 7463SOL    HW223289   3.821   4.012   2.835
 7464SOL     OW23290   4.219   5.592   0.283
 7464SOL    HW123291   4.228   5.509   0.337
 7464SOL    HW223292   4.260   5.669   0.333
 7465SOL     OW23293   3.705   1.363   2.940
 7465SOL    HW123294   3.705   1.263   2.946
 7465SOL    HW223295   3.733   1.392   2.849
 7466SOL     OW23296   6.521   6.956   0.728
 7466SOL    HW123297   6.514   6.858   0.747
 7466SOL    HW223298   6.605   6.973   0.676
 7467SOL     OW23299   4.752   2.674   0.940
 7467SOL    HW123300   4.817   2.597   0.936
 7467SOL    HW223301   4.745   2.716   0.850
 7468SOL     OW23302   5.480   4.487   4.635
 7468SOL    HW123303   5.496   4.392   4.659
 7468SOL    HW223304   5.382   4.502   4.621
 7469SOL     OW23305   5.532   1.865   1.520
 7469SOL    HW123306   5.536   1.785   1.580
 7469SOL    HW223307   5.602   1.857   1.448
 7470SOL     OW23308   0.482   3.314   3.280
 7470SOL    HW123309   0.562   3.317   3.220
 7470SOL    HW223310   0.492   3.384   3.352
 7471SOL     OW23311   6.730   4.330   5.775
 7471SOL    HW123312   6.683   4.322   5.863
 7471SOL    HW223313   6.703   4.253   5.716
 7472SOL     OW23314   4.147   5.438   3.277
 7472SOL    HW123315   4.087   5.377   3.328
 7472SOL    HW223316   4.241   5.406   3.284
 7473SOL     OW23317   1.759   2.340   6.513
 7473SOL    HW123318   1.853   2.372   6.510
 7473SOL    HW223319   1.714   2.359   6.426
 7474SOL     OW23320   2.723   1.280   2.080
 7474SOL    HW123321   2.805   1.272   2.137
 7474SOL    HW223322   2.695   1.376   2.075
 7475SOL     OW23323   5.238   0.656   5.983
 7475SOL    HW123324   5.256   0.749   6.015
 7475SOL    HW223325   5.318   0.623   5.932
 7476SOL     OW23326   1.961   6.539   4.481
 7476SOL    HW123327   1.981   6.527   4.578
 7476SOL    HW223328   2.036   6.500   4.427
 7477SOL     OW23329   4.515   4.470   4.616
 7477SOL    HW123330   4.501   4.449   4.519
 7477SOL    HW223331   4.612   4.460   4.638
 7478SOL     OW23332   0.299   4.394   1.339
 7478SOL    HW123333   0.354   4.408   1.257
 7478SOL    HW223334   0.228   4.326   1.321
 7479SOL     OW23335   3.705   0.397   5.013
 7479SOL    HW123336   3.735   0.491   4.995
 7479SOL    HW223337   3.606   0.396   5.025
 7480SOL     OW23338   5.534   5.404   0.062
 7480SOL    HW123339   5.466   5.458   0.111
 7480SOL    HW223340   5.568   5.331   0.120
 7481SOL     OW23341   5.771   6.506   0.333
 7481SOL    HW123342   5.772   6.604   0.317
 7481SOL    HW223343   5.763   6.458   0.245
 7482SOL     OW23344   4.649   0.306   4.936
 7482SOL    HW123345   4.717   0.336   4.870
 7482SOL    HW223346   4.694   0.259   5.012
 7483SOL     OW23347   3.377   0.078   6.976
 7483SOL    HW123348   3.420   0.106   0.039
 7483SOL    HW223349   3.416   0.130   6.901
 7484SOL     OW23350   3.459   6.781   0.861
 7484SOL    HW123351   3.558   6.767   0.848
 7484SOL    HW223352   3.442   6.878   0.880
 7485SOL     OW23353   0.885   6.995   5.179
 7485SOL    HW123354   0.874   6.957   5.088
 7485SOL    HW223355   0.797   0.004   5.213
 7486SOL     OW23356   1.374   2.076   5.111
 7486SOL    HW123357   1.282   2.037   5.109
 7486SOL    HW223358   1.368   2.175   5.126
 7487SOL     OW23359   3.209   5.176   2.900
 7487SOL    HW123360   3.184   5.082   2.875
 7487SOL    HW223361   3.305   5.178   2.927
 7488SOL     OW23362   4.381   1.554   4.999
 7488SOL    HW123363   4.411   1.646   4.973
 7488SOL    HW223364   4.295   1.532   4.952
 7489SOL     OW23365   0.596   3.171   3.668
 7489SOL    HW123366   0.586   3.252   3.611
 7489SOL    HW223367   0.687   3.131   3.655
 7490SOL     OW23368   5.789   6.730   2.642
 7490SOL    HW123369   5.690   6.735   2.651
 7490SOL    HW223370   5.817   6.773   2.555
 7491SOL     OW23371   0.955   6.878   0.799
 7491SOL    HW123372   0.952   6.778   0.812
 7491SOL    HW223373   0.908   6.902   0.714
 7492SOL     OW23374   1.922   1.743   2.543
 7492SOL    HW123375   1.842   1.751   2.484
 7492SOL    HW223376   1.972   1.659   2.522
 7493SOL     OW23377   5.615   4.360   6.826
 7493SOL    HW123378   5.670   4.414   6.763
 7493SOL    HW223379   5.582   4.277   6.780
 7494SOL     OW23380   4.596   2.024   1.015
 7494SOL    HW123381   4.635   2.000   1.103
 7494SOL    HW223382   4.670   2.040   0.949
 7495SOL     OW23383   1.388   1.701   3.500
 7495SOL    HW123384   1.413   1.698   3.597
 7495SOL    HW223385   1.467   1.673   3.445
 7496SOL     OW23386   0.830   4.915   6.219
 7496SOL    HW123387   0.846   4.995   6.161
 7496SOL    HW223388   0.760   4.937   6.287
 7497SOL     OW23389   1.096   4.950   2.968
 7497SOL    HW123390   1.180   4.920   2.922
 7497SOL    HW223391   1.099   4.924   3.064
 7498SOL     OW23392   5.452   2.001   4.322
 7498SOL    HW123393   5.409   2.003   4.231
 7498SOL    HW223394   5.548   1.976   4.313
 7499SOL     OW23395   3.755   5.009   3.735
 7499SOL    HW123396   3.835   4.954   3.711
 7499SOL    HW223397   3.718   4.977   3.822
 7500SOL     OW23398   4.991   4.020   1.497
 7500SOL    HW123399   5.018   4.114   1.479
 7500SOL    HW223400   4.917   3.994   1.435
 7501SOL     OW23401   0.943   4.044   3.626
 7501SOL    HW123402   1.041   4.025   3.631
 7501SOL    HW223403   0.918   4.107   3.700
 7502SOL     OW23404   1.454   1.831   3.963
 7502SOL    HW123405   1.547   1.795   3.954
 7502SOL    HW223406   1.454   1.928   3.939
 7503SOL     OW23407   2.415   1.774   0.208
 7503SOL    HW123408   2.449   1.796   0.299
 7503SOL    HW223409   2.448   1.843   0.143
 7504SOL     OW23410   4.937   5.713   5.126
 7504SOL    HW123411   4.920   5.741   5.221
 7504SOL    HW223412   4.958   5.616   5.123
 7505SOL     OW23413   1.593   1.976   3.445
 7505SOL    HW123414   1.662   2.039   3.480
 7505SOL    HW223415   1.588   1.983   3.346
 7506SOL     OW23416   3.658   0.718   3.235
 7506SOL    HW123417   3.706   0.702   3.321
 7506SOL    HW223418   3.694   0.657   3.164
 7507SOL     OW23419   1.570   0.255   5.153
 7507SOL    HW123420   1.658   0.241   5.199
 7507SOL    HW223421   1.551   0.353   5.146
 7508SOL     OW23422   5.342   6.025   3.460
 7508SOL    HW123423   5.330   5.992   3.366
 7508SOL    HW223424   5.305   6.118   3.467
 7509SOL     OW23425   3.474   4.374   6.244
 7509SOL    HW123426   3.554   4.434   6.248
 7509SOL    HW223427   3.402   4.410   6.304
 7510SOL     OW23428   4.010   3.169   5.130
 7510SOL    HW123429   3.938   3.130   5.072
 7510SOL    HW223430   4.057   3.242   5.080
 7511SOL     OW23431   1.120   1.391   2.569
 7511SOL    HW123432   1.149   1.352   2.656
 7511SOL    HW223433   1.135   1.490   2.570
 7512SOL     OW23434   2.295   2.860   2.543
 7512SOL    HW123435   2.260   2.953   2.547
 7512SOL    HW223436   2.327   2.832   2.633
 7513SOL     OW23437   2.351   2.780   6.586
 7513SOL    HW123438   2.322   2.876   6.576
 7513SOL    HW223439   2.435   2.765   6.534
 7514SOL     OW23440   3.250   5.100   3.316
 7514SOL    HW123441   3.248   5.004   3.288
 7514SOL    HW223442   3.189   5.113   3.394
 7515SOL     OW23443   0.377   4.882   3.353
 7515SOL    HW123444   0.348   4.883   3.448
 7515SOL    HW223445   0.307   4.838   3.297
 7516SOL     OW23446   2.053   3.074   1.403
 7516SOL    HW123447   2.009   3.111   1.322
 7516SOL    HW223448   2.142   3.036   1.378
 7517SOL     OW23449   1.452   5.137   2.349
 7517SOL    HW123450   1.512   5.081   2.405
 7517SOL    HW223451   1.437   5.225   2.394
 7518SOL     OW23452   4.909   4.079   2.525
 7518SOL    HW123453   4.902   4.044   2.432
 7518SOL    HW223454   4.903   4.179   2.524
 7519SOL     OW23455   1.850   0.164   4.867
 7519SOL    HW123456   1.883   0.162   4.772
 7519SOL    HW223457   1.874   0.079   4.913
 7520SOL     OW23458   1.900   6.893   4.369
 7520SOL    HW123459   1.810   6.850   4.371
 7520SOL    HW223460   1.971   6.823   4.378
 7521SOL     OW23461   4.464   3.058   5.886
 7521SOL    HW123462   4.414   3.056   5.799
 7521SOL    HW223463   4.414   3.114   5.952
 7522SOL     OW23464   1.926   6.726   2.506
 7522SOL    HW123465   1.880   6.804   2.465
 7522SOL    HW223466   1.887   6.708   2.596
 7523SOL     OW23467   6.861   6.491   6.905
 7523SOL    HW123468   6.837   6.561   6.973
 7523SOL    HW223469   6.901   6.535   6.825
 7524SOL     OW23470   6.593   1.240   5.019
 7524SOL    HW123471   6.611   1.295   4.937
 7524SOL    HW223472   6.524   1.286   5.076
 7525SOL     OW23473   0.607   0.457   0.930
 7525SOL    HW123474   0.668   0.524   0.888
 7525SOL    HW223475   0.570   0.493   1.016
 7526SOL     OW23476   4.022   2.922   5.690
 7526SOL    HW123477   4.037   2.826   5.711
 7526SOL    HW223478   4.091   2.978   5.736
 7527SOL     OW23479   2.722   6.171   1.993
 7527SOL    HW123480   2.799   6.207   2.045
 7527SOL    HW223481   2.755   6.129   1.908
 7528SOL     OW23482   6.352   3.166   0.148
 7528SOL    HW123483   6.328   3.256   0.113
 7528SOL    HW223484   6.280   3.100   0.125
 7529SOL     OW23485   1.654   0.101   4.094
 7529SOL    HW123486   1.627   0.025   4.153
 7529SOL    HW223487   1.614   0.186   4.128
 7530SOL     OW23488   0.174   3.359   2.856
 7530SOL    HW123489   0.232   3.311   2.922
 7530SOL    HW223490   0.079   3.330   2.867
 7531SOL     OW23491   2.044   1.699   3.942
 7531SOL    HW123492   2.071   1.795   3.934
 7531SOL    HW223493   2.048   1.671   4.038
 7532SOL     OW23494   4.469   4.492   2.152
 7532SOL    HW123495   4.544   4.554   2.126
 7532SOL    HW223496   4.444   4.436   2.073
 7533SOL     OW23497   3.366   0.814   5.127
 7533SOL    HW123498   3.417   0.896   5.101
 7533SOL    HW223499   3.355   0.755   5.046
 7534SOL     OW23500   3.674   6.600   4.247
 7534SOL    HW123501   3.664   6.592   4.148
 7534SOL    HW223502   3.746   6.539   4.279
 7535SOL     OW23503   2.906   5.341   0.049
 7535SOL    HW123504   2.877   5.245   0.045
 7535SOL    HW223505   2.834   5.399   0.013
 7536SOL     OW23506   4.706   5.181   6.455
 7536SOL    HW123507   4.743   5.097   6.416
 7536SOL    HW223508   4.632   5.159   6.519
 7537SOL     OW23509   2.455   4.545   5.353
 7537SOL    HW123510   2.420   4.486   5.281
 7537SOL    HW223511   2.531   4.599   5.318
 7538SOL     OW23512   3.705   4.198   5.218
 7538SOL    HW123513   3.683   4.109   5.257
 7538SOL    HW223514   3.636   4.265   5.245
 7539SOL     OW23515   0.657   2.395   4.878
 7539SOL    HW123516   0.611   2.379   4.791
 7539SOL    HW223517   0.609   2.467   4.928
 7540SOL     OW23518   2.732   0.717   0.297
 7540SOL    HW123519   2.708   0.723   0.200
 7540SOL    HW223520   2.713   0.805   0.341
 7541SOL     OW23521   0.178   2.353   5.950
 7541SOL    HW123522   0.146   2.416   6.021
 7541SOL    HW223523   0.272   2.376   5.924
 7542SOL     OW23524   1.373   0.231   4.683
 7542SOL    HW123525   1.358   0.329   4.680
 7542SOL    HW223526   1.421   0.208   4.768
 7543SOL     OW23527   2.580   2.410   1.176
 7543SOL    HW123528   2.515   2.475   1.215
 7543SOL    HW223529   2.542   2.371   1.092
 7544SOL     OW23530   1.133   2.110   2.321
 7544SOL    HW123531   1.150   2.169   2.241
 7544SOL    HW223532   1.178   2.149   2.401
 7545SOL     OW23533   4.641   0.404   3.426
 7545SOL    HW123534   4.712   0.397   3.496
 7545SOL    HW223535   4.683   0.424   3.338
 7546SOL     OW23536   5.256   0.113   5.404
 7546SOL    HW123537   5.280   0.177   5.477
 7546SOL    HW223538   5.230   0.025   5.443
 7547SOL     OW23539   2.363   6.717   0.400
 7547SOL    HW123540   2.377   6.778   0.322
 7547SOL    HW223541   2.403   6.628   0.380
 7548SOL     OW23542   2.384   3.856   1.141
 7548SOL    HW123543   2.337   3.835   1.227
 7548SOL    HW223544   2.483   3.853   1.155
 7549SOL     OW23545   6.075   0.406   2.482
 7549SOL    HW123546   6.170   0.414   2.511
 7549SOL    HW223547   6.032   0.328   2.528
 7550SOL     OW23548   0.857   5.432   1.101
 7550SOL    HW123549   0.875   5.441   1.199
 7550SOL    HW223550   0.767   5.392   1.088
 7551SOL     OW23551   5.071   3.831   6.142
 7551SOL    HW123552   5.061   3.793   6.051
 7551SOL    HW223553   5.156   3.884   6.147
 7552SOL     OW23554   3.458   6.017   3.880
 7552SOL    HW123555   3.409   5.977   3.957
 7552SOL    HW223556   3.490   5.944   3.820
 7553SOL     OW23557   4.440   3.881   6.178
 7553SOL    HW123558   4.530   3.924   6.169
 7553SOL    HW223559   4.377   3.921   6.112
 7554SOL     OW23560   0.195   1.690   1.194
 7554SOL    HW123561   0.249   1.736   1.123
 7554SOL    HW223562   0.216   1.731   1.283
 7555SOL     OW23563   1.833   6.632   5.723
 7555SOL    HW123564   1.799   6.629   5.817
 7555SOL    HW223565   1.767   6.681   5.666
 7556SOL     OW23566   6.794   3.743   2.772
 7556SOL    HW123567   6.814   3.840   2.766
 7556SOL    HW223568   6.700   3.726   2.740
 7557SOL     OW23569   4.066   3.876   0.560
 7557SOL    HW123570   4.032   3.853   0.651
 7557SOL    HW223571   4.006   3.943   0.517
 7558SOL     OW23572   1.666   3.259   3.554
 7558SOL    HW123573   1.613   3.202   3.491
 7558SOL    HW223574   1.610   3.336   3.584
 7559SOL     OW23575   0.922   4.703   0.403
 7559SOL    HW123576   0.827   4.676   0.389
 7559SOL    HW223577   0.934   4.738   0.496
 7560SOL     OW23578   4.577   0.026   5.503
 7560SOL    HW123579   4.660   6.996   5.518
 7560SOL    HW223580   4.568   0.094   5.575
 7561SOL     OW23581   0.828   3.279   6.937
 7561SOL    HW123582   0.848   3.376   6.924
 7561SOL    HW223583   0.836   3.257   0.011
 7562SOL     OW23584   4.367   6.368   5.181
 7562SOL    HW123585   4.406   6.329   5.098
 7562SOL    HW223586   4.368   6.298   5.253
 7563SOL     OW23587   1.968   1.100   3.468
 7563SOL    HW123588   1.879   1.141   3.445
 7563SOL    HW223589   1.993   1.127   3.561
 7564SOL     OW23590   6.192   5.542   4.021
 7564SOL    HW123591   6.171   5.472   3.952
 7564SOL    HW223592   6.127   5.618   4.012
 7565SOL     OW23593   5.307   4.781   6.523
 7565SOL    HW123594   5.280   4.842   6.597
 7565SOL    HW223595   5.326   4.835   6.441
 7566SOL     OW23596   1.773   5.240   4.292
 7566SOL    HW123597   1.819   5.318   4.249
 7566SOL    HW223598   1.736   5.180   4.220
 7567SOL     OW23599   2.642   3.800   0.256
 7567SOL    HW123600   2.726   3.760   0.219
 7567SOL    HW223601   2.580   3.821   0.180
 7568SOL     OW23602   4.348   4.694   3.754
 7568SOL    HW123603   4.289   4.738   3.821
 7568SOL    HW223604   4.428   4.654   3.800
 7569SOL     OW23605   3.906   0.157   2.632
 7569SOL    HW123606   3.962   0.121   2.557
 7569SOL    HW223607   3.809   0.153   2.607
 7570SOL     OW23608   5.889   4.643   5.460
 7570SOL    HW123609   5.812   4.647   5.524
 7570SOL    HW223610   5.856   4.655   5.367
 7571SOL     OW23611   6.725   3.989   0.010
 7571SOL    HW123612   6.808   3.994   6.979
 7571SOL    HW223613   6.748   3.982   0.107
 7572SOL     OW23614   6.277   1.617   3.477
 7572SOL    HW123615   6.275   1.687   3.405
 7572SOL    HW223616   6.233   1.653   3.559
 7573SOL     OW23617   3.539   5.167   3.613
 7573SOL    HW123618   3.608   5.114   3.664
 7573SOL    HW223619   3.503   5.112   3.538
 7574SOL     OW23620   3.983   5.915   1.554
 7574SOL    HW123621   4.064   5.973   1.556
 7574SOL    HW223622   4.009   5.820   1.571
 7575SOL     OW23623   4.856   2.942   4.516
 7575SOL    HW123624   4.771   2.924   4.465
 7575SOL    HW223625   4.903   3.021   4.475
 7576SOL     OW23626   0.255   3.965   1.656
 7576SOL    HW123627   0.266   4.059   1.626
 7576SOL    HW223628   0.223   3.963   1.750
 7577SOL     OW23629   3.892   1.294   4.235
 7577SOL    HW123630   3.835   1.375   4.222
 7577SOL    HW223631   3.849   1.232   4.301
 7578SOL     OW23632   2.416   5.571   5.321
 7578SOL    HW123633   2.411   5.610   5.229
 7578SOL    HW223634   2.453   5.479   5.317
 7579SOL     OW23635   4.662   2.024   4.263
 7579SOL    HW123636   4.619   2.018   4.172
 7579SOL    HW223637   4.731   2.096   4.263
 7580SOL     OW23638   2.023   3.321   2.147
 7580SOL    HW123639   2.087   3.364   2.084
 7580SOL    HW223640   1.932   3.318   2.105
 7581SOL     OW23641   5.743   0.943   0.741
 7581SOL    HW123642   5.712   1.024   0.790
 7581SOL    HW223643   5.670   0.908   0.682
 7582SOL     OW23644   3.942   2.909   1.254
 7582SOL    HW123645   3.887   2.987   1.225
 7582SOL    HW223646   4.014   2.940   1.316
 7583SOL     OW23647   6.988   3.977   3.014
 7583SOL    HW123648   6.896   3.970   2.977
 7583SOL    HW223649   0.022   3.905   2.976
 7584SOL     OW23650   1.881   2.037   1.880
 7584SOL    HW123651   1.916   2.130   1.891
 7584SOL    HW223652   1.949   1.981   1.834
 7585SOL     OW23653   2.537   4.467   0.773
 7585SOL    HW123654   2.562   4.397   0.840
 7585SOL    HW223655   2.464   4.433   0.714
 7586SOL     OW23656   1.891   2.401   3.722
 7586SOL    HW123657   1.933   2.474   3.776
 7586SOL    HW223658   1.792   2.413   3.721
 7587SOL     OW23659   2.613   1.248   5.477
 7587SOL    HW123660   2.513   1.246   5.477
 7587SOL    HW223661   2.645   1.339   5.501
 7588SOL     OW23662   0.441   4.923   1.995
 7588SOL    HW123663   0.447   4.987   2.072
 7588SOL    HW223664   0.357   4.870   2.002
 7589SOL     OW23665   5.132   5.546   6.159
 7589SOL    HW123666   5.143   5.502   6.070
 7589SOL    HW223667   5.181   5.634   6.158
 7590SOL     OW23668   1.992   0.958   5.455
 7590SOL    HW123669   2.056   0.890   5.419
 7590SOL    HW223670   1.898   0.923   5.447
 7591SOL     OW23671   6.522   5.894   6.581
 7591SOL    HW123672   6.523   5.994   6.577
 7591SOL    HW223673   6.501   5.865   6.675
 7592SOL     OW23674   4.279   4.557   5.994
 7592SOL    HW123675   4.221   4.510   6.061
 7592SOL    HW223676   4.267   4.656   6.003
 7593SOL     OW23677   6.280   4.560   0.200
 7593SOL    HW123678   6.263   4.512   0.286
 7593SOL    HW223679   6.378   4.582   0.193
 7594SOL     OW23680   0.775   6.788   3.870
 7594SOL    HW123681   0.729   6.723   3.930
 7594SOL    HW223682   0.770   6.754   3.775
 7595SOL     OW23683   6.861   3.412   6.950
 7595SOL    HW123684   6.869   3.512   6.958
 7595SOL    HW223685   6.851   3.387   6.854
 7596SOL     OW23686   4.826   5.425   2.313
 7596SOL    HW123687   4.851   5.374   2.395
 7596SOL    HW223688   4.727   5.422   2.301
 7597SOL     OW23689   2.318   4.687   1.952
 7597SOL    HW123690   2.310   4.589   1.937
 7597SOL    HW223691   2.415   4.712   1.957
 7598SOL     OW23692   6.413   0.762   2.604
 7598SOL    HW123693   6.385   0.838   2.545
 7598SOL    HW223694   6.474   0.795   2.675
 7599SOL     OW23695   5.548   3.414   2.170
 7599SOL    HW123696   5.542   3.467   2.255
 7599SOL    HW223697   5.640   3.420   2.133
 7600SOL     OW23698   2.426   2.511   2.733
 7600SOL    HW123699   2.479   2.486   2.813
 7600SOL    HW223700   2.478   2.490   2.650
 7601SOL     OW23701   1.665   0.700   5.147
 7601SOL    HW123702   1.631   0.742   5.063
 7601SOL    HW223703   1.747   0.647   5.126
 7602SOL     OW23704   1.905   2.994   5.441
 7602SOL    HW123705   1.933   3.033   5.354
 7602SOL    HW223706   1.984   2.992   5.503
 7603SOL     OW23707   6.768   1.771   2.269
 7603SOL    HW123708   6.784   1.729   2.179
 7603SOL    HW223709   6.827   1.727   2.337
 7604SOL     OW23710   5.644   5.516   6.535
 7604SOL    HW123711   5.627   5.419   6.555
 7604SOL    HW223712   5.649   5.529   6.436
 7605SOL     OW23713   5.498   3.337   5.936
 7605SOL    HW123714   5.566   3.265   5.920
 7605SOL    HW223715   5.499   3.361   6.033
 7606SOL     OW23716   5.671   1.315   3.741
 7606SOL    HW123717   5.687   1.286   3.646
 7606SOL    HW223718   5.680   1.414   3.747
 7607SOL     OW23719   5.031   6.410   5.527
 7607SOL    HW123720   5.033   6.355   5.611
 7607SOL    HW223721   4.940   6.452   5.517
 7608SOL     OW23722   3.798   3.793   5.050
 7608SOL    HW123723   3.841   3.843   4.975
 7608SOL    HW223724   3.753   3.857   5.112
 7609SOL     OW23725   1.243   2.651   3.027
 7609SOL    HW123726   1.217   2.650   3.123
 7609SOL    HW223727   1.320   2.713   3.013
 7610SOL     OW23728   5.383   0.498   2.309
 7610SOL    HW123729   5.354   0.407   2.336
 7610SOL    HW223730   5.310   0.543   2.257
 7611SOL     OW23731   1.610   1.760   1.429
 7611SOL    HW123732   1.546   1.834   1.449
 7611SOL    HW223733   1.566   1.672   1.446
 7612SOL     OW23734   4.565   1.596   2.736
 7612SOL    HW123735   4.539   1.545   2.654
 7612SOL    HW223736   4.491   1.591   2.803
 7613SOL     OW23737   6.377   0.593   2.111
 7613SOL    HW123738   6.389   0.666   2.178
 7613SOL    HW223739   6.322   0.520   2.151
 7614SOL     OW23740   4.791   0.696   0.533
 7614SOL    HW123741   4.840   0.781   0.517
 7614SOL    HW223742   4.709   0.693   0.476
 7615SOL     OW23743   3.622   5.214   5.407
 7615SOL    HW123744   3.639   5.303   5.364
 7615SOL    HW223745   3.528   5.211   5.440
 7616SOL     OW23746   0.241   5.884   3.341
 7616SOL    HW123747   0.330   5.919   3.372
 7616SOL    HW223748   0.178   5.880   3.419
 7617SOL     OW23749   3.850   5.577   3.795
 7617SOL    HW123750   3.835   5.479   3.803
 7617SOL    HW223751   3.948   5.595   3.780
 7618SOL     OW23752   3.324   1.895   6.815
 7618SOL    HW123753   3.398   1.925   6.876
 7618SOL    HW223754   3.247   1.958   6.823
 7619SOL     OW23755   5.522   2.964   5.845
 7619SOL    HW123756   5.481   2.873   5.848
 7619SOL    HW223757   5.536   2.991   5.750
 7620SOL     OW23758   3.385   5.611   1.616
 7620SOL    HW123759   3.376   5.580   1.521
 7620SOL    HW223760   3.449   5.687   1.620
 7621SOL     OW23761   2.555   2.601   0.891
 7621SOL    HW123762   2.519   2.683   0.848
 7621SOL    HW223763   2.529   2.599   0.987
 7622SOL     OW23764   4.904   2.231   0.896
 7622SOL    HW123765   4.818   2.211   0.850
 7622SOL    HW223766   4.955   2.146   0.912
 7623SOL     OW23767   6.585   6.258   4.967
 7623SOL    HW123768   6.503   6.313   4.983
 7623SOL    HW223769   6.590   6.185   5.035
 7624SOL     OW23770   6.762   0.769   4.926
 7624SOL    HW123771   6.844   0.727   4.964
 7624SOL    HW223772   6.686   0.704   4.929
 7625SOL     OW23773   2.711   4.931   0.880
 7625SOL    HW123774   2.725   4.846   0.830
 7625SOL    HW223775   2.726   4.915   0.978
 7626SOL     OW23776   2.781   4.094   5.322
 7626SOL    HW123777   2.760   4.098   5.419
 7626SOL    HW223778   2.751   4.178   5.277
 7627SOL     OW23779   6.912   1.114   0.363
 7627SOL    HW123780   6.854   1.141   0.286
 7627SOL    HW223781   6.855   1.090   0.441
 7628SOL     OW23782   4.514   1.628   0.654
 7628SOL    HW123783   4.470   1.541   0.675
 7628SOL    HW223784   4.483   1.698   0.718
 7629SOL     OW23785   6.203   5.800   3.146
 7629SOL    HW123786   6.291   5.803   3.098
 7629SOL    HW223787   6.189   5.709   3.186
 7630SOL     OW23788   6.060   1.639   2.016
 7630SOL    HW123789   6.092   1.545   2.009
 7630SOL    HW223790   6.030   1.672   1.927
 7631SOL     OW23791   1.202   0.480   3.832
 7631SOL    HW123792   1.242   0.556   3.883
 7631SOL    HW223793   1.210   0.396   3.885
 7632SOL     OW23794   4.313   0.832   4.890
 7632SOL    HW123795   4.402   0.832   4.935
 7632SOL    HW223796   4.254   0.899   4.933
 7633SOL     OW23797   6.111   3.728   6.341
 7633SOL    HW123798   6.023   3.696   6.376
 7633SOL    HW223799   6.176   3.652   6.343
 7634SOL     OW23800   1.194   2.295   2.108
 7634SOL    HW123801   1.188   2.383   2.156
 7634SOL    HW223802   1.289   2.267   2.102
 7635SOL     OW23803   2.550   4.762   5.964
 7635SOL    HW123804   2.615   4.746   5.889
 7635SOL    HW223805   2.570   4.699   6.039
 7636SOL     OW23806   0.936   0.838   3.789
 7636SOL    HW123807   0.840   0.850   3.764
 7636SOL    HW223808   0.982   0.783   3.718
 7637SOL     OW23809   2.759   5.853   4.054
 7637SOL    HW123810   2.732   5.831   3.960
 7637SOL    HW223811   2.853   5.888   4.055
 7638SOL     OW23812   4.531   4.410   1.679
 7638SOL    HW123813   4.457   4.406   1.612
 7638SOL    HW223814   4.505   4.358   1.760
 7639SOL     OW23815   0.721   2.384   4.367
 7639SOL    HW123816   0.757   2.442   4.440
 7639SOL    HW223817   0.790   2.376   4.295
 7640SOL     OW23818   2.316   3.353   6.067
 7640SOL    HW123819   2.400   3.402   6.043
 7640SOL    HW223820   2.276   3.313   5.985
 7641SOL     OW23821   5.746   3.574   2.317
 7641SOL    HW123822   5.664   3.589   2.373
 7641SOL    HW223823   5.804   3.655   2.322
 7642SOL     OW23824   1.471   2.248   2.635
 7642SOL    HW123825   1.551   2.304   2.611
 7642SOL    HW223826   1.501   2.170   2.690
 7643SOL     OW23827   5.429   3.735   3.054
 7643SOL    HW123828   5.428   3.727   2.955
 7643SOL    HW223829   5.338   3.764   3.086
 7644SOL     OW23830   6.140   3.353   3.968
 7644SOL    HW123831   6.110   3.438   4.012
 7644SOL    HW223832   6.239   3.355   3.956
 7645SOL     OW23833   3.756   3.124   0.751
 7645SOL    HW123834   3.786   3.150   0.659
 7645SOL    HW223835   3.672   3.172   0.773
 7646SOL     OW23836   1.012   0.057   2.043
 7646SOL    HW123837   1.029   6.983   2.031
 7646SOL    HW223838   1.039   0.106   1.961
 7647SOL     OW23839   2.182   4.716   0.168
 7647SOL    HW123840   2.279   4.736   0.175
 7647SOL    HW223841   2.129   4.795   0.198
 7648SOL     OW23842   2.466   0.444   3.647
 7648SOL    HW123843   2.452   0.348   3.624
 7648SOL    HW223844   2.392   0.499   3.607
 7649SOL     OW23845   3.357   2.125   1.512
 7649SOL    HW123846   3.286   2.077   1.564
 7649SOL    HW223847   3.435   2.065   1.498
 7650SOL     OW23848   6.559   4.916   0.714
 7650SOL    HW123849   6.656   4.905   0.735
 7650SOL    HW223850   6.514   4.826   0.713
 7651SOL     OW23851   5.679   1.724   6.031
 7651SOL    HW123852   5.669   1.711   5.933
 7651SOL    HW223853   5.589   1.730   6.074
 7652SOL     OW23854   0.960   3.676   2.646
 7652SOL    HW123855   1.006   3.626   2.718
 7652SOL    HW223856   0.936   3.767   2.678
 7653SOL     OW23857   4.620   2.266   1.910
 7653SOL    HW123858   4.527   2.300   1.918
 7653SOL    HW223859   4.677   2.308   1.981
 7654SOL     OW23860   5.398   3.788   5.152
 7654SOL    HW123861   5.449   3.708   5.183
 7654SOL    HW223862   5.431   3.817   5.062
 7655SOL     OW23863   4.789   5.002   6.832
 7655SOL    HW123864   4.800   5.095   6.868
 7655SOL    HW223865   4.876   4.971   6.793
 7656SOL     OW23866   0.566   0.550   5.262
 7656SOL    HW123867   0.535   0.602   5.341
 7656SOL    HW223868   0.567   0.609   5.181
 7657SOL     OW23869   3.979   1.908   3.494
 7657SOL    HW123870   3.971   1.837   3.563
 7657SOL    HW223871   3.985   1.998   3.538
 7658SOL     OW23872   4.199   0.792   5.597
 7658SOL    HW123873   4.279   0.847   5.574
 7658SOL    HW223874   4.133   0.797   5.522
 7659SOL     OW23875   5.136   6.087   6.131
 7659SOL    HW123876   5.165   6.007   6.077
 7659SOL    HW223877   5.147   6.067   6.228
 7660SOL     OW23878   5.490   5.189   3.878
 7660SOL    HW123879   5.476   5.099   3.920
 7660SOL    HW223880   5.402   5.232   3.861
 7661SOL     OW23881   5.820   3.359   3.859
 7661SOL    HW123882   5.879   3.343   3.780
 7661SOL    HW223883   5.725   3.369   3.828
 7662SOL     OW23884   6.143   5.404   3.488
 7662SOL    HW123885   6.226   5.421   3.541
 7662SOL    HW223886   6.101   5.318   3.519
 7663SOL     OW23887   0.798   6.027   0.349
 7663SOL    HW123888   0.739   6.107   0.342
 7663SOL    HW223889   0.888   6.056   0.382
 7664SOL     OW23890   3.713   5.577   4.598
 7664SOL    HW123891   3.732   5.625   4.684
 7664SOL    HW223892   3.730   5.479   4.610
 7665SOL     OW23893   1.917   5.578   3.743
 7665SOL    HW123894   1.819   5.586   3.728
 7665SOL    HW223895   1.934   5.513   3.817
 7666SOL     OW23896   2.038   0.564   2.462
 7666SOL    HW123897   1.971   0.614   2.516
 7666SOL    HW223898   2.001   0.473   2.440
 7667SOL     OW23899   5.882   6.941   5.663
 7667SOL    HW123900   5.888   7.015   5.597
 7667SOL    HW223901   5.851   6.858   5.618
 7668SOL     OW23902   3.245   3.563   2.183
 7668SOL    HW123903   3.157   3.597   2.216
 7668SOL    HW223904   3.230   3.483   2.125
 7669SOL     OW23905   4.439   6.660   4.877
 7669SOL    HW123906   4.417   6.569   4.841
 7669SOL    HW223907   4.399   6.669   4.969
 7670SOL     OW23908   1.775   5.922   0.931
 7670SOL    HW123909   1.769   5.972   1.018
 7670SOL    HW223910   1.701   5.952   0.870
 7671SOL     OW23911   4.559   2.526   4.815
 7671SOL    HW123912   4.650   2.518   4.775
 7671SOL    HW223913   4.490   2.495   4.749
 7672SOL     OW23914   6.261   0.012   1.624
 7672SOL    HW123915   6.277   0.034   1.720
 7672SOL    HW223916   6.200   0.081   1.583
 7673SOL     OW23917   1.400   3.214   0.418
 7673SOL    HW123918   1.313   3.181   0.381
 7673SOL    HW223919   1.455   3.254   0.345
 7674SOL     OW23920   6.176   1.024   5.182
 7674SOL    HW123921   6.194   0.952   5.249
 7674SOL    HW223922   6.115   1.093   5.223
 7675SOL     OW23923   5.086   0.677   3.209
 7675SOL    HW123924   5.043   0.677   3.119
 7675SOL    HW223925   5.159   0.746   3.211
 7676SOL     OW23926   1.732   6.833   1.098
 7676SOL    HW123927   1.826   6.810   1.073
 7676SOL    HW223928   1.695   6.761   1.156
 7677SOL     OW23929   2.073   2.793   2.781
 7677SOL    HW123930   2.066   2.840   2.692
 7677SOL    HW223931   2.169   2.772   2.799
 7678SOL     OW23932   4.927   6.635   5.889
 7678SOL    HW123933   4.932   6.710   5.955
 7678SOL    HW223934   4.995   6.649   5.817
 7679SOL     OW23935   1.488   4.982   4.379
 7679SOL    HW123936   1.497   4.934   4.466
 7679SOL    HW223937   1.410   4.945   4.328
 7680SOL     OW23938   4.655   0.439   0.497
 7680SOL    HW123939   4.659   0.421   0.595
 7680SOL    HW223940   4.565   0.415   0.462
 7681SOL     OW23941   4.064   2.299   5.651
 7681SOL    HW123942   4.003   2.232   5.609
 7681SOL    HW223943   4.158   2.281   5.622
 7682SOL     OW23944   2.734   0.522   0.478
 7682SOL    HW123945   2.636   0.535   0.487
 7682SOL    HW223946   2.767   0.570   0.396
 7683SOL     OW23947   6.773   3.274   3.693
 7683SOL    HW123948   6.870   3.293   3.712
 7683SOL    HW223949   6.716   3.336   3.747
 7684SOL     OW23950   3.797   1.476   5.746
 7684SOL    HW123951   3.760   1.385   5.767
 7684SOL    HW223952   3.787   1.535   5.826
 7685SOL     OW23953   4.393   3.805   1.409
 7685SOL    HW123954   4.360   3.899   1.416
 7685SOL    HW223955   4.492   3.803   1.422
 7686SOL     OW23956   2.215   0.770   2.303
 7686SOL    HW123957   2.143   0.816   2.355
 7686SOL    HW223958   2.173   0.717   2.229
 7687SOL     OW23959   4.880   4.158   5.571
 7687SOL    HW123960   4.849   4.171   5.665
 7687SOL    HW223961   4.918   4.066   5.561
 7688SOL     OW23962   6.579   0.895   3.040
 7688SOL    HW123963   6.651   0.928   3.100
 7688SOL    HW223964   6.491   0.934   3.068
 7689SOL     OW23965   3.461   6.972   5.022
 7689SOL    HW123966   3.506   6.951   5.109
 7689SOL    HW223967   3.431   6.887   4.979
 7690SOL     OW23968   1.026   5.449   3.069
 7690SOL    HW123969   1.077   5.382   3.122
 7690SOL    HW223970   0.937   5.467   3.112
 7691SOL     OW23971   6.838   3.541   5.496
 7691SOL    HW123972   6.868   3.635   5.484
 7691SOL    HW223973   6.785   3.512   5.416
 7692SOL     OW23974   1.462   6.176   1.008
 7692SOL    HW123975   1.459   6.077   1.022
 7692SOL    HW223976   1.374   6.216   1.033
 7693SOL     OW23977   4.969   0.998   0.547
 7693SOL    HW123978   4.936   1.019   0.639
 7693SOL    HW223979   5.035   1.068   0.519
 7694SOL     OW23980   5.770   4.526   3.130
 7694SOL    HW123981   5.849   4.482   3.172
 7694SOL    HW223982   5.758   4.617   3.168
 7695SOL     OW23983   4.683   0.595   6.649
 7695SOL    HW123984   4.747   0.527   6.614
 7695SOL    HW223985   4.713   0.687   6.622
 7696SOL     OW23986   1.112   3.814   5.462
 7696SOL    HW123987   1.181   3.861   5.518
 7696SOL    HW223988   1.048   3.766   5.522
 7697SOL     OW23989   4.784   1.355   2.597
 7697SOL    HW123990   4.789   1.365   2.696
 7697SOL    HW223991   4.736   1.270   2.574
 7698SOL     OW23992   0.165   2.123   6.091
 7698SOL    HW123993   0.209   2.150   6.177
 7698SOL    HW223994   0.156   2.204   6.032
 7699SOL     OW23995   3.154   3.289   0.890
 7699SOL    HW123996   3.057   3.266   0.901
 7699SOL    HW223997   3.197   3.297   0.980
 7700SOL     OW23998   5.638   0.174   4.923
 7700SOL    HW123999   5.676   0.083   4.910
 7700SOL    HW224000   5.631   0.221   4.835
 7701SOL     OW24001   6.578   2.351   5.397
 7701SOL    HW124002   6.611   2.439   5.431
 7701SOL    HW224003   6.625   2.328   5.312
 7702SOL     OW24004   1.478   6.388   6.781
 7702SOL    HW124005   1.474   6.476   6.733
 7702SOL    HW224006   1.400   6.331   6.753
 7703SOL     OW24007   0.904   2.101   6.329
 7703SOL    HW124008   0.878   2.188   6.371
 7703SOL    HW224009   0.985   2.065   6.374
 7704SOL     OW24010   3.155   3.335   1.157
 7704SOL    HW124011   3.066   3.314   1.196
 7704SOL    HW224012   3.222   3.266   1.186
 7705SOL     OW24013   3.923   3.523   4.508
 7705SOL    HW124014   3.859   3.571   4.447
 7705SOL    HW224015   3.876   3.447   4.552
 7706SOL     OW24016   6.435   0.845   5.353
 7706SOL    HW124017   6.428   0.779   5.279
 7706SOL    HW224018   6.364   0.827   5.421
 7707SOL     OW24019   6.904   5.600   6.413
 7707SOL    HW124020   6.881   5.697   6.406
 7707SOL    HW224021   6.984   5.590   6.472
 7708SOL     OW24022   5.092   1.479   4.995
 7708SOL    HW124023   5.004   1.472   4.949
 7708SOL    HW224024   5.128   1.387   5.013
 7709SOL     OW24025   3.805   2.436   1.293
 7709SOL    HW124026   3.805   2.532   1.320
 7709SOL    HW224027   3.858   2.425   1.209
 7710SOL     OW24028   3.508   2.190   6.776
 7710SOL    HW124029   3.511   2.117   6.844
 7710SOL    HW224030   3.415   2.227   6.772
 7711SOL     OW24031   4.460   5.906   4.914
 7711SOL    HW124032   4.487   5.853   4.994
 7711SOL    HW224033   4.474   5.851   4.831
 7712SOL     OW24034   6.481   4.252   6.272
 7712SOL    HW124035   6.424   4.325   6.308
 7712SOL    HW224036   6.430   4.202   6.201
 7713SOL     OW24037   0.372   5.383   6.680
 7713SOL    HW124038   0.439   5.433   6.625
 7713SOL    HW224039   0.329   5.446   6.745
 7714SOL     OW24040   5.482   4.215   4.669
 7714SOL    HW124041   5.398   4.164   4.651
 7714SOL    HW224042   5.515   4.194   4.760
 7715SOL     OW24043   3.888   2.369   1.758
 7715SOL    HW124044   3.794   2.339   1.776
 7715SOL    HW224045   3.952   2.309   1.805
 7716SOL     OW24046   4.175   2.232   4.324
 7716SOL    HW124047   4.078   2.217   4.309
 7716SOL    HW224048   4.226   2.149   4.301
 7717SOL     OW24049   2.957   0.125   6.703
 7717SOL    HW124050   3.032   0.186   6.728
 7717SOL    HW224051   2.990   0.056   6.639
 7718SOL     OW24052   2.557   6.404   3.468
 7718SOL    HW124053   2.650   6.432   3.446
 7718SOL    HW224054   2.530   6.327   3.409
 7719SOL     OW24055   5.751   2.637   5.041
 7719SOL    HW124056   5.691   2.581   5.099
 7719SOL    HW224057   5.839   2.649   5.087
 7720SOL     OW24058   4.844   6.527   1.191
 7720SOL    HW124059   4.761   6.575   1.218
 7720SOL    HW224060   4.876   6.562   1.103
 7721SOL     OW24061   0.748   5.291   2.942
 7721SOL    HW124062   0.754   5.369   3.004
 7721SOL    HW224063   0.780   5.209   2.988
 7722SOL     OW24064   0.575   5.840   3.929
 7722SOL    HW124065   0.610   5.907   3.996
 7722SOL    HW224066   0.526   5.888   3.857
 7723SOL     OW24067   6.793   1.956   0.058
 7723SOL    HW124068   6.798   1.917   6.989
 7723SOL    HW224069   6.843   1.897   0.121
 7724SOL     OW24070   2.419   6.348   6.620
 7724SOL    HW124071   2.364   6.308   6.546
 7724SOL    HW224072   2.485   6.281   6.652
 7725SOL     OW24073   5.372   3.980   3.865
 7725SOL    HW124074   5.409   3.904   3.812
 7725SOL    HW224075   5.448   4.034   3.902
 7726SOL     OW24076   5.328   5.338   3.399
 7726SOL    HW124077   5.422   5.367   3.381
 7726SOL    HW224078   5.270   5.419   3.407
 7727SOL     OW24079   6.015   3.827   1.790
 7727SOL    HW124080   6.060   3.738   1.790
 7727SOL    HW224081   5.927   3.820   1.836
 7728SOL     OW24082   1.981   2.536   2.668
 7728SOL    HW124083   1.989   2.605   2.740
 7728SOL    HW224084   2.030   2.453   2.696
 7729SOL     OW24085   5.419   1.631   5.981
 7729SOL    HW124086   5.338   1.576   6.004
 7729SOL    HW224087   5.405   1.725   6.015
 7730SOL     OW24088   4.440   7.011   2.432
 7730SOL    HW124089   4.525   0.040   2.426
 7730SOL    HW224090   4.424   6.984   2.527
 7731SOL     OW24091   6.059   1.758   3.602
 7731SOL    HW124092   5.999   1.776   3.523
 7731SOL    HW224093   6.008   1.709   3.672
 7732SOL     OW24094   4.514   5.138   0.660
 7732SOL    HW124095   4.479   5.207   0.597
 7732SOL    HW224096   4.614   5.141   0.659
 7733SOL     OW24097   3.455   5.403   1.004
 7733SOL    HW124098   3.393   5.343   0.954
 7733SOL    HW224099   3.454   5.379   1.101
 7734SOL     OW24100   1.226   2.981   2.214
 7734SOL    HW124101   1.294   3.054   2.213
 7734SOL    HW224102   1.175   2.980   2.128
 7735SOL     OW24103   5.238   4.426   0.320
 7735SOL    HW124104   5.250   4.354   0.252
 7735SOL    HW224105   5.304   4.412   0.394
 7736SOL     OW24106   5.853   4.545   6.707
 7736SOL    HW124107   5.920   4.490   6.656
 7736SOL    HW224108   5.895   4.632   6.734
 7737SOL     OW24109   4.975   2.805   6.908
 7737SOL    HW124110   5.075   2.804   6.911
 7737SOL    HW224111   4.941   2.882   6.961
 7738SOL     OW24112   2.047   5.347   6.694
 7738SOL    HW124113   2.005   5.292   6.621
 7738SOL    HW224114   1.984   5.420   6.720
 7739SOL     OW24115   5.254   4.261   2.548
 7739SOL    HW124116   5.244   4.236   2.452
 7739SOL    HW224117   5.290   4.354   2.554
 7740SOL     OW24118   6.863   5.783   3.877
 7740SOL    HW124119   6.947   5.825   3.841
 7740SOL    HW224120   6.786   5.844   3.861
 7741SOL     OW24121   3.072   5.139   3.539
 7741SOL    HW124122   3.113   5.131   3.629
 7741SOL    HW224123   2.974   5.160   3.548
 7742SOL     OW24124   6.875   0.723   4.660
 7742SOL    HW124125   6.841   0.749   4.751
 7742SOL    HW224126   6.823   0.770   4.590
 7743SOL     OW24127   4.917   3.197   2.310
 7743SOL    HW124128   4.877   3.105   2.304
 7743SOL    HW224129   4.916   3.228   2.405
 7744SOL     OW24130   0.424   6.497   4.694
 7744SOL    HW124131   0.389   6.485   4.787
 7744SOL    HW224132   0.361   6.556   4.643
 7745SOL     OW24133   5.364   2.906   5.512
 7745SOL    HW124134   5.275   2.904   5.557
 7745SOL    HW224135   5.416   2.986   5.544
 7746SOL     OW24136   1.906   0.743   6.370
 7746SOL    HW124137   1.823   0.753   6.424
 7746SOL    HW224138   1.931   0.831   6.330
 7747SOL     OW24139   4.455   5.315   0.475
 7747SOL    HW124140   4.418   5.281   0.389
 7747SOL    HW224141   4.387   5.374   0.519
 7748SOL     OW24142   2.001   3.956   6.862
 7748SOL    HW124143   1.956   3.943   6.773
 7748SOL    HW224144   1.988   4.050   6.893
 7749SOL     OW24145   5.975   3.187   6.385
 7749SOL    HW124146   5.937   3.116   6.326
 7749SOL    HW224147   5.901   3.243   6.423
 7750SOL     OW24148   4.429   5.403   3.263
 7750SOL    HW124149   4.433   5.410   3.163
 7750SOL    HW224150   4.486   5.474   3.304
 7751SOL     OW24151   0.572   2.312   1.153
 7751SOL    HW124152   0.548   2.380   1.083
 7751SOL    HW224153   0.507   2.319   1.229
 7752SOL     OW24154   3.392   0.877   3.036
 7752SOL    HW124155   3.371   0.882   2.938
 7752SOL    HW224156   3.414   0.783   3.060
 7753SOL     OW24157   4.015   0.795   5.407
 7753SOL    HW124158   4.008   0.890   5.378
 7753SOL    HW224159   3.923   0.757   5.418
 7754SOL     OW24160   4.423   5.717   1.272
 7754SOL    HW124161   4.440   5.801   1.324
 7754SOL    HW224162   4.335   5.725   1.225
 7755SOL     OW24163   0.467   4.376   6.328
 7755SOL    HW124164   0.421   4.315   6.263
 7755SOL    HW224165   0.434   4.355   6.421
 7756SOL     OW24166   2.142   3.748   2.535
 7756SOL    HW124167   2.105   3.766   2.626
 7756SOL    HW224168   2.126   3.652   2.511
 7757SOL     OW24169   0.785   4.521   0.123
 7757SOL    HW124170   0.846   4.492   0.197
 7757SOL    HW224171   0.720   4.448   0.103
 7758SOL     OW24172   0.747   0.999   5.665
 7758SOL    HW124173   0.650   1.012   5.644
 7758SOL    HW224174   0.760   0.910   5.708
 7759SOL     OW24175   3.711   0.860   2.353
 7759SOL    HW124176   3.768   0.942   2.355
 7759SOL    HW224177   3.629   0.875   2.408
 7760SOL     OW24178   4.307   2.733   0.190
 7760SOL    HW124179   4.219   2.754   0.232
 7760SOL    HW224180   4.299   2.742   0.091
 7761SOL     OW24181   5.498   5.479   3.134
 7761SOL    HW124182   5.459   5.564   3.170
 7761SOL    HW224183   5.426   5.426   3.090
 7762SOL     OW24184   4.584   1.804   1.289
 7762SOL    HW124185   4.512   1.791   1.221
 7762SOL    HW224186   4.656   1.737   1.275
 7763SOL     OW24187   1.797   0.730   3.468
 7763SOL    HW124188   1.712   0.683   3.447
 7763SOL    HW224189   1.806   0.810   3.409
 7764SOL     OW24190   3.962   4.772   5.235
 7764SOL    HW124191   3.889   4.833   5.266
 7764SOL    HW224192   3.938   4.677   5.255
 7765SOL     OW24193   6.724   4.062   4.880
 7765SOL    HW124194   6.645   4.030   4.827
 7765SOL    HW224195   6.792   4.099   4.817
 7766SOL     OW24196   6.917   1.879   6.168
 7766SOL    HW124197   6.871   1.929   6.094
 7766SOL    HW224198   7.012   1.909   6.174
 7767SOL     OW24199   4.416   0.298   4.039
 7767SOL    HW124200   4.342   0.302   3.972
 7767SOL    HW224201   4.430   0.388   4.080
 7768SOL     OW24202   3.288   5.560   3.314
 7768SOL    HW124203   3.282   5.630   3.385
 7768SOL    HW224204   3.379   5.560   3.274
 7769SOL     OW24205   4.181   2.441   6.444
 7769SOL    HW124206   4.118   2.398   6.378
 7769SOL    HW224207   4.129   2.502   6.503
 7770SOL     OW24208   0.997   3.305   3.606
 7770SOL    HW124209   0.940   3.384   3.627
 7770SOL    HW224210   0.939   3.228   3.579
 7771SOL     OW24211   1.053   4.048   4.900
 7771SOL    HW124212   1.130   4.061   4.963
 7771SOL    HW224213   1.035   3.950   4.889
 7772SOL     OW24214   4.820   5.452   2.017
 7772SOL    HW124215   4.831   5.465   2.115
 7772SOL    HW224216   4.820   5.354   1.995
 7773SOL     OW24217   2.623   6.524   6.814
 7773SOL    HW124218   2.556   6.454   6.790
 7773SOL    HW224219   2.601   6.561   6.905
 7774SOL     OW24220   5.012   1.188   2.799
 7774SOL    HW124221   4.963   1.101   2.790
 7774SOL    HW224222   5.077   1.182   2.875
 7775SOL     OW24223   3.440   2.074   0.976
 7775SOL    HW124224   3.415   2.035   1.064
 7775SOL    HW224225   3.525   2.127   0.985
 7776SOL     OW24226   2.540   1.170   3.862
 7776SOL    HW124227   2.573   1.078   3.882
 7776SOL    HW224228   2.497   1.208   3.944
 7777SOL     OW24229   5.143   5.175   3.298
 7777SOL    HW124230   5.208   5.239   3.338
 7777SOL    HW224231   5.049   5.206   3.317
 7778SOL     OW24232   1.302   3.443   2.083
 7778SOL    HW124233   1.216   3.437   2.133
 7778SOL    HW224234   1.297   3.385   2.002
 7779SOL     OW24235   2.820   0.289   2.963
 7779SOL    HW124236   2.849   0.333   3.048
 7779SOL    HW224237   2.789   0.358   2.899
 7780SOL     OW24238   6.471   5.567   4.033
 7780SOL    HW124239   6.470   5.516   3.947
 7780SOL    HW224240   6.377   5.580   4.065
 7781SOL     OW24241   3.255   2.973   0.794
 7781SOL    HW124242   3.281   3.070   0.798
 7781SOL    HW224243   3.320   2.919   0.847
 7782SOL     OW24244   5.468   4.722   4.110
 7782SOL    HW124245   5.388   4.673   4.076
 7782SOL    HW224246   5.510   4.669   4.184
 7783SOL     OW24247   0.672   6.320   3.918
 7783SOL    HW124248   0.654   6.235   3.967
 7783SOL    HW224249   0.638   6.313   3.824
 7784SOL     OW24250   1.199   2.688   2.511
 7784SOL    HW124251   1.291   2.687   2.472
 7784SOL    HW224252   1.150   2.770   2.480
 7785SOL     OW24253   5.835   6.873   2.415
 7785SOL    HW124254   5.787   6.961   2.417
 7785SOL    HW224255   5.898   6.871   2.338
 7786SOL     OW24256   5.518   0.582   0.039
 7786SOL    HW124257   5.462   0.578   0.122
 7786SOL    HW224258   5.468   0.628   6.990
 7787SOL     OW24259   1.020   2.443   1.179
 7787SOL    HW124260   1.108   2.439   1.225
 7787SOL    HW224261   1.032   2.421   1.082
 7788SOL     OW24262   1.082   4.321   2.293
 7788SOL    HW124263   1.163   4.281   2.336
 7788SOL    HW224264   1.069   4.282   2.202
 7789SOL     OW24265   3.281   0.388   6.206
 7789SOL    HW124266   3.360   0.339   6.245
 7789SOL    HW224267   3.282   0.482   6.238
 7790SOL     OW24268   4.128   5.070   4.498
 7790SOL    HW124269   4.069   5.004   4.452
 7790SOL    HW224270   4.079   5.111   4.574
 7791SOL     OW24271   2.612   6.179   1.528
 7791SOL    HW124272   2.672   6.235   1.472
 7791SOL    HW224273   2.659   6.094   1.553
 7792SOL     OW24274   1.063   1.032   2.224
 7792SOL    HW124275   1.092   0.937   2.237
 7792SOL    HW224276   1.016   1.064   2.306
 7793SOL     OW24277   4.988   1.558   0.431
 7793SOL    HW124278   4.929   1.631   0.465
 7793SOL    HW224279   4.937   1.502   0.365
 7794SOL     OW24280   1.163   1.222   2.766
 7794SOL    HW124281   1.072   1.218   2.808
 7794SOL    HW224282   1.179   1.141   2.711
 7795SOL     OW24283   4.036   3.562   1.255
 7795SOL    HW124284   4.131   3.561   1.285
 7795SOL    HW224285   4.031   3.538   1.158
 7796SOL     OW24286   4.431   1.440   1.209
 7796SOL    HW124287   4.478   1.355   1.185
 7796SOL    HW224288   4.357   1.421   1.273
 7797SOL     OW24289   1.541   6.292   3.217
 7797SOL    HW124290   1.475   6.239   3.163
 7797SOL    HW224291   1.554   6.249   3.306
 7798SOL     OW24292   1.674   3.304   1.117
 7798SOL    HW124293   1.577   3.291   1.095
 7798SOL    HW224294   1.702   3.397   1.090
 7799SOL     OW24295   2.029   5.939   3.980
 7799SOL    HW124296   2.127   5.920   3.969
 7799SOL    HW224297   2.006   5.936   4.077
 7800SOL     OW24298   0.522   0.690   2.185
 7800SOL    HW124299   0.601   0.656   2.237
 7800SOL    HW224300   0.553   0.754   2.115
 7801SOL     OW24301   2.004   2.037   1.040
 7801SOL    HW124302   1.975   1.969   0.973
 7801SOL    HW224303   1.935   2.043   1.113
 7802SOL     OW24304   6.378   5.167   3.632
 7802SOL    HW124305   6.441   5.116   3.576
 7802SOL    HW224306   6.377   5.263   3.603
 7803SOL     OW24307   3.175   2.209   5.890
 7803SOL    HW124308   3.260   2.224   5.840
 7803SOL    HW224309   3.196   2.197   5.987
 7804SOL     OW24310   2.831   1.154   5.619
 7804SOL    HW124311   2.743   1.188   5.586
 7804SOL    HW224312   2.817   1.096   5.699
 7805SOL     OW24313   6.413   2.014   6.825
 7805SOL    HW124314   6.367   2.042   6.909
 7805SOL    HW224315   6.425   1.915   6.825
 7806SOL     OW24316   6.286   2.143   5.231
 7806SOL    HW124317   6.235   2.157   5.146
 7806SOL    HW224318   6.246   2.197   5.304
 7807SOL     OW24319   1.814   5.663   5.411
 7807SOL    HW124320   1.799   5.600   5.487
 7807SOL    HW224321   1.901   5.711   5.424
 7808SOL     OW24322   0.018   2.999   4.561
 7808SOL    HW124323   0.063   2.940   4.494
 7808SOL    HW224324   6.942   2.996   4.547
 7809SOL     OW24325   3.245   0.419   3.258
 7809SOL    HW124326   3.299   0.499   3.231
 7809SOL    HW224327   3.282   0.337   3.213
 7810SOL     OW24328   1.973   6.805   5.932
 7810SOL    HW124329   1.913   6.731   5.964
 7810SOL    HW224330   2.027   6.772   5.854
 7811SOL     OW24331   1.338   5.437   2.798
 7811SOL    HW124332   1.365   5.398   2.886
 7811SOL    HW224333   1.381   5.527   2.786
 7812SOL     OW24334   2.890   0.837   6.092
 7812SOL    HW124335   2.977   0.852   6.045
 7812SOL    HW224336   2.846   0.755   6.055
 7813SOL     OW24337   5.942   1.031   0.574
 7813SOL    HW124338   5.936   1.004   0.478
 7813SOL    HW224339   5.874   0.980   0.628
 7814SOL     OW24340   6.897   2.689   1.628
 7814SOL    HW124341   6.987   2.665   1.664
 7814SOL    HW224342   6.826   2.659   1.693
 7815SOL     OW24343   4.902   6.023   3.122
 7815SOL    HW124344   4.850   6.041   3.039
 7815SOL    HW224345   4.958   6.103   3.144
 7816SOL     OW24346   1.199   1.489   5.683
 7816SOL    HW124347   1.190   1.582   5.718
 7816SOL    HW224348   1.126   1.432   5.720
 7817SOL     OW24349   4.999   0.819   5.583
 7817SOL    HW124350   4.910   0.838   5.540
 7817SOL    HW224351   4.985   0.758   5.661
 7818SOL     OW24352   4.937   0.893   2.736
 7818SOL    HW124353   4.849   0.936   2.757
 7818SOL    HW224354   4.944   0.879   2.637
 7819SOL     OW24355   2.387   2.506   4.770
 7819SOL    HW124356   2.335   2.589   4.749
 7819SOL    HW224357   2.327   2.440   4.816
 7820SOL     OW24358   1.707   0.564   6.130
 7820SOL    HW124359   1.688   0.660   6.109
 7820SOL    HW224360   1.800   0.554   6.164
 7821SOL     OW24361   3.824   5.515   6.384
 7821SOL    HW124362   3.829   5.418   6.361
 7821SOL    HW224363   3.729   5.540   6.402
 7822SOL     OW24364   0.456   1.492   4.771
 7822SOL    HW124365   0.509   1.482   4.686
 7822SOL    HW224366   0.505   1.551   4.834
 7823SOL     OW24367   2.805   2.781   5.846
 7823SOL    HW124368   2.848   2.740   5.765
 7823SOL    HW224369   2.843   2.738   5.928
 7824SOL     OW24370   5.940   4.386   2.523
 7824SOL    HW124371   5.951   4.295   2.484
 7824SOL    HW224372   6.001   4.395   2.602
 7825SOL     OW24373   3.522   3.308   3.896
 7825SOL    HW124374   3.530   3.317   3.796
 7825SOL    HW224375   3.441   3.358   3.927
 7826SOL     OW24376   6.464   6.598   1.099
 7826SOL    HW124377   6.452   6.676   1.160
 7826SOL    HW224378   6.396   6.528   1.120
 7827SOL     OW24379   4.927   3.890   0.572
 7827SOL    HW124380   4.879   3.857   0.653
 7827SOL    HW224381   4.861   3.911   0.500
 7828SOL     OW24382   0.617   6.222   0.575
 7828SOL    HW124383   0.635   6.236   0.478
 7828SOL    HW224384   0.695   6.176   0.618
 7829SOL     OW24385   3.295   4.100   2.807
 7829SOL    HW124386   3.365   4.057   2.751
 7829SOL    HW224387   3.204   4.076   2.772
 7830SOL     OW24388   0.123   4.552   7.023
 7830SOL    HW124389   0.096   4.598   6.938
 7830SOL    HW224390   0.063   4.582   0.074
 7831SOL     OW24391   2.768   2.727   6.894
 7831SOL    HW124392   2.833   2.696   6.825
 7831SOL    HW224393   2.774   2.668   6.975
 7832SOL     OW24394   3.750   2.774   5.578
 7832SOL    HW124395   3.748   2.807   5.673
 7832SOL    HW224396   3.797   2.686   5.575
 7833SOL     OW24397   6.517   0.154   1.460
 7833SOL    HW124398   6.570   0.083   1.506
 7833SOL    HW224399   6.424   0.121   1.444
 7834SOL     OW24400   5.319   1.051   1.371
 7834SOL    HW124401   5.307   0.976   1.306
 7834SOL    HW224402   5.413   1.086   1.364
 7835SOL     OW24403   2.511   2.542   4.344
 7835SOL    HW124404   2.416   2.512   4.334
 7835SOL    HW224405   2.556   2.485   4.414
 7836SOL     OW24406   2.435   0.523   6.724
 7836SOL    HW124407   2.532   0.511   6.703
 7836SOL    HW224408   2.382   0.514   6.640
 7837SOL     OW24409   5.621   6.347   2.073
 7837SOL    HW124410   5.692   6.407   2.036
 7837SOL    HW224411   5.664   6.267   2.116
 7838SOL     OW24412   3.548   5.620   3.882
 7838SOL    HW124413   3.578   5.576   3.966
 7838SOL    HW224414   3.627   5.634   3.822
 7839SOL     OW24415   6.874   5.490   3.329
 7839SOL    HW124416   6.939   5.419   3.358
 7839SOL    HW224417   6.800   5.448   3.277
 7840SOL     OW24418   4.627   2.736   6.359
 7840SOL    HW124419   4.675   2.650   6.377
 7840SOL    HW224420   4.530   2.717   6.348
 7841SOL     OW24421   1.192   1.968   5.991
 7841SOL    HW124422   1.093   1.960   5.986
 7841SOL    HW224423   1.227   1.907   6.062
 7842SOL     OW24424   1.520   0.969   2.643
 7842SOL    HW124425   1.619   0.962   2.649
 7842SOL    HW224426   1.485   1.024   2.719
 7843SOL     OW24427   0.089   2.365   2.089
 7843SOL    HW124428   0.142   2.433   2.038
 7843SOL    HW224429   0.119   2.365   2.185
 7844SOL     OW24430   3.158   2.057   3.403
 7844SOL    HW124431   3.226   2.047   3.330
 7844SOL    HW224432   3.126   1.966   3.431
 7845SOL     OW24433   0.699   0.686   4.311
 7845SOL    HW124434   0.781   0.731   4.345
 7845SOL    HW224435   0.644   0.653   4.388
 7846SOL     OW24436   5.036   0.205   2.665
 7846SOL    HW124437   5.016   0.303   2.665
 7846SOL    HW224438   5.017   0.168   2.756
 7847SOL     OW24439   0.455   6.790   6.660
 7847SOL    HW124440   0.454   6.889   6.674
 7847SOL    HW224441   0.392   6.766   6.586
 7848SOL     OW24442   4.356   3.759   1.678
 7848SOL    HW124443   4.362   3.758   1.579
 7848SOL    HW224444   4.297   3.834   1.708
 7849SOL     OW24445   5.395   3.939   4.835
 7849SOL    HW124446   5.299   3.953   4.857
 7849SOL    HW224447   5.403   3.887   4.749
 7850SOL     OW24448   1.256   2.870   5.177
 7850SOL    HW124449   1.294   2.804   5.242
 7850SOL    HW224450   1.251   2.960   5.220
 7851SOL     OW24451   3.398   6.700   0.606
 7851SOL    HW124452   3.358   6.781   0.649
 7851SOL    HW224453   3.486   6.679   0.647
 7852SOL     OW24454   2.629   6.510   0.607
 7852SOL    HW124455   2.550   6.468   0.652
 7852SOL    HW224456   2.713   6.466   0.638
 7853SOL     OW24457   2.252   1.556   0.433
 7853SOL    HW124458   2.340   1.510   0.428
 7853SOL    HW224459   2.203   1.546   0.345
 7854SOL     OW24460   4.033   3.737   4.191
 7854SOL    HW124461   4.032   3.639   4.212
 7854SOL    HW224462   4.059   3.750   4.095
 7855SOL     OW24463   2.672   7.003   4.844
 7855SOL    HW124464   2.617   7.007   4.927
 7855SOL    HW224465   2.662   6.913   4.802
 7856SOL     OW24466   3.417   2.757   6.540
 7856SOL    HW124467   3.436   2.659   6.537
 7856SOL    HW224468   3.334   2.774   6.593
 7857SOL     OW24469   0.015   2.576   4.802
 7857SOL    HW124470   0.070   2.637   4.858
 7857SOL    HW224471   0.050   2.483   4.808
 7858SOL     OW24472   5.266   3.288   3.127
 7858SOL    HW124473   5.253   3.387   3.129
 7858SOL    HW224474   5.360   3.268   3.097
 7859SOL     OW24475   0.108   0.444   0.467
 7859SOL    HW124476   0.198   0.469   0.433
 7859SOL    HW224477   0.117   0.371   0.536
 7860SOL     OW24478   4.570   6.274   1.083
 7860SOL    HW124479   4.610   6.318   1.164
 7860SOL    HW224480   4.501   6.207   1.112
 7861SOL     OW24481   6.289   3.461   0.459
 7861SOL    HW124482   6.249   3.511   0.536
 7861SOL    HW224483   6.388   3.471   0.460
 7862SOL     OW24484   2.640   4.486   1.709
 7862SOL    HW124485   2.722   4.502   1.764
 7862SOL    HW224486   2.658   4.412   1.644
 7863SOL     OW24487   4.161   6.210   2.962
 7863SOL    HW124488   4.169   6.118   3.000
 7863SOL    HW224489   4.131   6.273   3.034
 7864SOL     OW24490   1.853   5.647   5.117
 7864SOL    HW124491   1.768   5.654   5.064
 7864SOL    HW224492   1.833   5.661   5.214
 7865SOL     OW24493   4.382   0.772   3.515
 7865SOL    HW124494   4.423   0.706   3.577
 7865SOL    HW224495   4.452   0.809   3.454
 7866SOL     OW24496   2.750   0.813   5.433
 7866SOL    HW124497   2.683   0.774   5.496
 7866SOL    HW224498   2.730   0.910   5.420
 7867SOL     OW24499   6.359   3.356   0.902
 7867SOL    HW124500   6.286   3.315   0.956
 7867SOL    HW224501   6.445   3.350   0.952
 7868SOL     OW24502   4.206   6.630   1.026
 7868SOL    HW124503   4.126   6.613   0.969
 7868SOL    HW224504   4.179   6.684   1.106
 7869SOL     OW24505   6.045   1.710   4.003
 7869SOL    HW124506   6.034   1.656   4.087
 7869SOL    HW224507   6.139   1.741   3.995
 7870SOL     OW24508   6.546   0.057   3.719
 7870SOL    HW124509   6.520   0.142   3.674
 7870SOL    HW224510   6.638   0.066   3.757
 7871SOL     OW24511   5.664   3.217   3.587
 7871SOL    HW124512   5.641   3.198   3.491
 7871SOL    HW224513   5.748   3.271   3.590
 7872SOL     OW24514   6.598   3.962   4.089
 7872SOL    HW124515   6.639   3.886   4.139
 7872SOL    HW224516   6.530   4.007   4.146
 7873SOL     OW24517   0.005   5.624   4.893
 7873SOL    HW124518   0.065   5.579   4.959
 7873SOL    HW224519   6.954   5.670   4.941
 7874SOL     OW24520   5.953   6.885   6.840
 7874SOL    HW124521   6.046   6.907   6.866
 7874SOL    HW224522   5.901   6.969   6.824
 7875SOL     OW24523   5.514   2.925   0.386
 7875SOL    HW124524   5.539   2.911   0.290
 7875SOL    HW224525   5.593   2.907   0.444
 7876SOL     OW24526   6.870   1.646   4.389
 7876SOL    HW124527   6.789   1.692   4.426
 7876SOL    HW224528   6.936   1.715   4.357
 7877SOL     OW24529   5.684   3.958   1.892
 7877SOL    HW124530   5.689   3.978   1.990
 7877SOL    HW224531   5.669   3.860   1.879
 7878SOL     OW24532   3.761   3.861   2.095
 7878SOL    HW124533   3.856   3.893   2.092
 7878SOL    HW224534   3.720   3.870   2.004
 7879SOL     OW24535   0.039   1.257   4.871
 7879SOL    HW124536   0.138   1.265   4.859
 7879SOL    HW224537   7.021   1.227   4.785
 7880SOL     OW24538   2.006   5.957   6.558
 7880SOL    HW124539   1.973   5.990   6.647
 7880SOL    HW224540   1.930   5.953   6.493
 7881SOL     OW24541   0.509   5.409   4.966
 7881SOL    HW124542   0.469   5.428   5.055
 7881SOL    HW224543   0.594   5.358   4.978
 7882SOL     OW24544   1.431   5.186   1.422
 7882SOL    HW124545   1.422   5.090   1.393
 7882SOL    HW224546   1.430   5.191   1.521
 7883SOL     OW24547   3.272   2.061   2.211
 7883SOL    HW124548   3.221   2.068   2.125
 7883SOL    HW224549   3.241   2.132   2.274
 7884SOL     OW24550   0.678   2.234   5.949
 7884SOL    HW124551   0.590   2.280   5.941
 7884SOL    HW224552   0.685   2.192   6.039
 7885SOL     OW24553   6.051   5.104   2.663
 7885SOL    HW124554   5.976   5.169   2.674
 7885SOL    HW224555   6.128   5.149   2.618
 7886SOL     OW24556   3.846   4.902   3.011
 7886SOL    HW124557   3.826   4.870   2.919
 7886SOL    HW224558   3.761   4.906   3.064
 7887SOL     OW24559   0.603   3.006   0.782
 7887SOL    HW124560   0.592   2.912   0.749
 7887SOL    HW224561   0.576   3.069   0.709
 7888SOL     OW24562   0.316   1.666   5.384
 7888SOL    HW124563   0.261   1.684   5.303
 7888SOL    HW224564   0.321   1.749   5.440
 7889SOL     OW24565   5.178   4.967   0.531
 7889SOL    HW124566   5.277   4.966   0.516
 7889SOL    HW224567   5.132   4.980   0.443
 7890SOL     OW24568   1.992   2.767   1.942
 7890SOL    HW124569   2.038   2.757   2.030
 7890SOL    HW224570   2.041   2.716   1.871
 7891SOL     OW24571   5.896   1.160   4.190
 7891SOL    HW124572   5.825   1.230   4.176
 7891SOL    HW224573   5.860   1.071   4.163
 7892SOL     OW24574   0.902   2.328   4.177
 7892SOL    HW124575   0.841   2.275   4.118
 7892SOL    HW224576   0.973   2.269   4.214
 7893SOL     OW24577   5.227   6.142   1.204
 7893SOL    HW124578   5.183   6.168   1.290
 7893SOL    HW224579   5.161   6.096   1.145
 7894SOL     OW24580   3.168   0.285   6.790
 7894SOL    HW124581   3.258   0.256   6.758
 7894SOL    HW224582   3.143   0.371   6.745
 7895SOL     OW24583   5.558   6.517   2.921
 7895SOL    HW124584   5.591   6.561   3.004
 7895SOL    HW224585   5.620   6.442   2.896
 7896SOL     OW24586   2.702   2.382   0.849
 7896SOL    HW124587   2.793   2.415   0.824
 7896SOL    HW224588   2.647   2.458   0.883
 7897SOL     OW24589   5.034   1.334   1.733
 7897SOL    HW124590   5.056   1.416   1.681
 7897SOL    HW224591   5.058   1.253   1.680
 7898SOL     OW24592   4.569   6.461   2.982
 7898SOL    HW124593   4.539   6.414   2.899
 7898SOL    HW224594   4.500   6.528   3.010
 7899SOL     OW24595   6.028   4.852   2.742
 7899SOL    HW124596   5.932   4.842   2.765
 7899SOL    HW224597   6.048   4.948   2.722
 7900SOL     OW24598   0.241   3.247   0.673
 7900SOL    HW124599   0.165   3.194   0.635
 7900SOL    HW224600   0.328   3.204   0.646
 7901SOL     OW24601   0.529   2.108   6.588
 7901SOL    HW124602   0.474   2.158   6.654
 7901SOL    HW224603   0.626   2.124   6.605
 7902SOL     OW24604   1.733   0.052   1.266
 7902SOL    HW124605   1.715   7.002   1.201
 7902SOL    HW224606   1.818   0.033   1.315
 7903SOL     OW24607   3.051   1.942   5.814
 7903SOL    HW124608   3.098   2.030   5.818
 7903SOL    HW224609   2.966   1.951   5.763
 7904SOL     OW24610   5.344   3.505   2.608
 7904SOL    HW124611   5.294   3.525   2.693
 7904SOL    HW224612   5.299   3.430   2.559
 7905SOL     OW24613   6.298   2.167   1.738
 7905SOL    HW124614   6.245   2.198   1.659
 7905SOL    HW224615   6.388   2.136   1.707
 7906SOL     OW24616   0.259   6.098   6.280
 7906SOL    HW124617   0.348   6.104   6.327
 7906SOL    HW224618   0.246   6.179   6.224
 7907SOL     OW24619   5.769   6.032   3.531
 7907SOL    HW124620   5.727   6.099   3.593
 7907SOL    HW224621   5.832   6.079   3.469
 7908SOL     OW24622   1.814   0.080   6.018
 7908SOL    HW124623   1.869   0.033   6.087
 7908SOL    HW224624   1.857   0.069   5.928
 7909SOL     OW24625   6.513   3.843   2.024
 7909SOL    HW124626   6.592   3.789   1.994
 7909SOL    HW224627   6.545   3.922   2.076
 7910SOL     OW24628   1.486   4.063   4.806
 7910SOL    HW124629   1.429   4.141   4.780
 7910SOL    HW224630   1.565   4.096   4.858
 7911SOL     OW24631   6.093   3.868   5.903
 7911SOL    HW124632   6.178   3.919   5.885
 7911SOL    HW224633   6.067   3.881   5.999
 7912SOL     OW24634   5.304   5.795   1.786
 7912SOL    HW124635   5.257   5.712   1.814
 7912SOL    HW224636   5.264   5.829   1.701
 7913SOL     OW24637   1.371   4.768   6.385
 7913SOL    HW124638   1.272   4.757   6.396
 7913SOL    HW224639   1.416   4.681   6.401
 7914SOL     OW24640   1.128   6.954   4.603
 7914SOL    HW124641   1.105   0.022   4.636
 7914SOL    HW224642   1.119   6.951   4.504
 7915SOL     OW24643   3.315   5.556   1.971
 7915SOL    HW124644   3.320   5.513   2.061
 7915SOL    HW224645   3.324   5.655   1.981
 7916SOL     OW24646   1.650   0.838   4.229
 7916SOL    HW124647   1.733   0.848   4.174
 7916SOL    HW224648   1.662   0.887   4.316
 7917SOL     OW24649   4.873   1.867   2.857
 7917SOL    HW124650   4.786   1.904   2.825
 7917SOL    HW224651   4.947   1.929   2.830
 7918SOL     OW24652   1.598   2.639   2.310
 7918SOL    HW124653   1.671   2.662   2.375
 7918SOL    HW224654   1.523   2.704   2.320
 7919SOL     OW24655   0.756   6.870   4.697
 7919SOL    HW124656   0.783   6.805   4.626
 7919SOL    HW224657   0.716   6.951   4.654
 7920SOL     OW24658   5.145   6.739   0.897
 7920SOL    HW124659   5.079   6.774   0.830
 7920SOL    HW224660   5.126   6.778   0.986
 7921SOL     OW24661   5.359   3.382   0.997
 7921SOL    HW124662   5.308   3.458   0.956
 7921SOL    HW224663   5.314   3.353   1.082
 7922SOL     OW24664   2.351   6.373   3.669
 7922SOL    HW124665   2.272   6.407   3.618
 7922SOL    HW224666   2.435   6.399   3.622
 7923SOL     OW24667   4.917   0.044   1.170
 7923SOL    HW124668   4.946   6.975   1.191
 7923SOL    HW224669   4.990   0.093   1.122
 7924SOL     OW24670   5.554   5.876   6.957
 7924SOL    HW124671   5.564   5.841   6.864
 7924SOL    HW224672   5.595   5.812   7.022
 7925SOL     OW24673   1.952   5.032   6.101
 7925SOL    HW124674   1.998   4.957   6.053
 7925SOL    HW224675   1.868   4.997   6.142
 7926SOL     OW24676   4.314   5.591   5.936
 7926SOL    HW124677   4.283   5.499   5.959
 7926SOL    HW224678   4.236   5.653   5.937
 7927SOL     OW24679   5.051   0.438   3.363
 7927SOL    HW124680   5.066   0.534   3.337
 7927SOL    HW224681   5.040   0.432   3.462
 7928SOL     OW24682   5.838   2.065   4.142
 7928SOL    HW124683   5.848   1.982   4.087
 7928SOL    HW224684   5.807   2.040   4.234
 7929SOL     OW24685   4.405   3.585   5.325
 7929SOL    HW124686   4.401   3.684   5.313
 7929SOL    HW224687   4.476   3.547   5.265
 7930SOL     OW24688   4.065   5.364   0.821
 7930SOL    HW124689   4.085   5.310   0.740
 7930SOL    HW224690   3.970   5.394   0.819
 7931SOL     OW24691   4.965   0.499   0.651
 7931SOL    HW124692   4.903   0.555   0.595
 7931SOL    HW224693   4.991   0.417   0.600
 7932SOL     OW24694   1.000   3.585   1.055
 7932SOL    HW124695   1.069   3.595   0.984
 7932SOL    HW224696   0.909   3.604   1.016
 7933SOL     OW24697   1.658   1.796   0.766
 7933SOL    HW124698   1.702   1.718   0.720
 7933SOL    HW224699   1.563   1.802   0.736
 7934SOL     OW24700   6.775   5.444   0.901
 7934SOL    HW124701   6.760   5.346   0.887
 7934SOL    HW224702   6.688   5.493   0.892
 7935SOL     OW24703   6.025   3.636   3.326
 7935SOL    HW124704   6.090   3.710   3.342
 7935SOL    HW224705   6.000   3.594   3.413
 7936SOL     OW24706   2.301   6.133   3.516
 7936SOL    HW124707   2.386   6.145   3.465
 7936SOL    HW224708   2.290   6.209   3.581
 7937SOL     OW24709   3.678   1.601   1.174
 7937SOL    HW124710   3.719   1.690   1.154
 7937SOL    HW224711   3.645   1.600   1.268
 7938SOL     OW24712   2.455   6.621   3.340
 7938SOL    HW124713   2.491   6.531   3.366
 7938SOL    HW224714   2.408   6.662   3.419
 7939SOL     OW24715   1.399   0.299   2.913
 7939SOL    HW124716   1.429   0.286   3.008
 7939SOL    HW224717   1.456   0.244   2.852
 7940SOL     OW24718   6.671   1.839   5.345
 7940SOL    HW124719   6.608   1.886   5.284
 7940SOL    HW224720   6.756   1.817   5.296
 7941SOL     OW24721   3.328   0.431   0.603
 7941SOL    HW124722   3.349   0.455   0.698
 7941SOL    HW224723   3.235   0.393   0.598
 7942SOL     OW24724   1.002   4.039   1.125
 7942SOL    HW124725   0.924   4.077   1.174
 7942SOL    HW224726   1.024   3.948   1.162
 7943SOL     OW24727   2.001   5.447   0.128
 7943SOL    HW124728   2.011   5.542   0.155
 7943SOL    HW224729   2.074   5.392   0.169
 7944SOL     OW24730   1.076   1.884   0.978
 7944SOL    HW124731   1.109   1.943   0.904
 7944SOL    HW224732   1.054   1.941   1.058
 7945SOL     OW24733   6.344   4.150   3.091
 7945SOL    HW124734   6.364   4.059   3.126
 7945SOL    HW224735   6.352   4.217   3.166
 7946SOL     OW24736   4.783   1.252   5.891
 7946SOL    HW124737   4.860   1.308   5.859
 7946SOL    HW224738   4.767   1.178   5.826
 7947SOL     OW24739   0.972   3.841   6.884
 7947SOL    HW124740   0.872   3.845   6.885
 7947SOL    HW224741   1.009   3.901   6.954
 7948SOL     OW24742   1.314   5.506   1.411
 7948SOL    HW124743   1.289   5.600   1.389
 7948SOL    HW224744   1.378   5.471   1.342
 7949SOL     OW24745   3.244   5.507   5.230
 7949SOL    HW124746   3.180   5.430   5.229
 7949SOL    HW224747   3.336   5.473   5.252
 7950SOL     OW24748   6.745   3.156   5.765
 7950SOL    HW124749   6.738   3.152   5.865
 7950SOL    HW224750   6.653   3.155   5.726
 7951SOL     OW24751   3.710   0.530   2.938
 7951SOL    HW124752   3.803   0.501   2.962
 7951SOL    HW224753   3.714   0.599   2.866
 7952SOL     OW24754   6.937   3.266   5.193
 7952SOL    HW124755   6.884   3.347   5.217
 7952SOL    HW224756   6.954   3.212   5.275
 7953SOL     OW24757   1.717   6.857   0.400
 7953SOL    HW124758   1.627   6.819   0.379
 7953SOL    HW224759   1.714   6.900   0.491
 7954SOL     OW24760   3.531   2.546   0.133
 7954SOL    HW124761   3.554   2.544   0.036
 7954SOL    HW224762   3.614   2.535   0.187
 7955SOL     OW24763   6.721   0.841   6.305
 7955SOL    HW124764   6.664   0.906   6.355
 7955SOL    HW224765   6.732   0.757   6.359
 7956SOL     OW24766   0.138   0.319   0.813
 7956SOL    HW124767   0.235   0.297   0.822
 7956SOL    HW224768   0.085   0.235   0.803
 7957SOL     OW24769   5.579   1.817   5.624
 7957SOL    HW124770   5.499   1.875   5.606
 7957SOL    HW224771   5.643   1.866   5.684
 7958SOL     OW24772   4.882   2.333   6.748
 7958SOL    HW124773   4.966   2.363   6.793
 7958SOL    HW224774   4.873   2.234   6.759
 7959SOL     OW24775   5.318   3.187   6.986
 7959SOL    HW124776   5.297   3.265   6.927
 7959SOL    HW224777   5.261   3.109   6.959
 7960SOL     OW24778   0.674   1.645   4.870
 7960SOL    HW124779   0.736   1.680   4.801
 7960SOL    HW224780   0.622   1.722   4.910
 7961SOL     OW24781   6.233   0.263   6.630
 7961SOL    HW124782   6.257   0.187   6.691
 7961SOL    HW224783   6.245   0.234   6.535
 7962SOL     OW24784   5.729   6.920   4.992
 7962SOL    HW124785   5.819   6.917   5.035
 7962SOL    HW224786   5.716   6.837   4.937
 7963SOL     OW24787   5.385   6.006   2.720
 7963SOL    HW124788   5.339   6.073   2.662
 7963SOL    HW224789   5.369   6.028   2.816
 7964SOL     OW24790   6.934   3.726   1.437
 7964SOL    HW124791   6.897   3.665   1.368
 7964SOL    HW224792   6.860   3.781   1.476
 7965SOL     OW24793   4.384   1.785   6.537
 7965SOL    HW124794   4.336   1.706   6.498
 7965SOL    HW224795   4.414   1.762   6.630
 7966SOL     OW24796   5.807   3.463   5.170
 7966SOL    HW124797   5.879   3.527   5.145
 7966SOL    HW224798   5.824   3.428   5.262
 7967SOL     OW24799   1.655   4.207   1.694
 7967SOL    HW124800   1.674   4.110   1.707
 7967SOL    HW224801   1.590   4.238   1.763
 7968SOL     OW24802   2.505   2.548   3.818
 7968SOL    HW124803   2.449   2.473   3.782
 7968SOL    HW224804   2.508   2.542   3.918
 7969SOL     OW24805   3.130   4.080   6.601
 7969SOL    HW124806   3.060   4.104   6.668
 7969SOL    HW224807   3.110   4.127   6.515
 7970SOL     OW24808   6.586   3.307   3.061
 7970SOL    HW124809   6.675   3.279   3.098
 7970SOL    HW224810   6.515   3.246   3.097
 7971SOL     OW24811   3.072   0.435   0.011
 7971SOL    HW124812   3.100   0.410   6.942
 7971SOL    HW224813   3.057   0.534   0.016
 7972SOL     OW24814   4.044   3.592   4.738
 7972SOL    HW124815   4.033   3.685   4.773
 7972SOL    HW224816   3.991   3.580   4.655
 7973SOL     OW24817   0.145   5.256   1.910
 7973SOL    HW124818   0.163   5.327   1.842
 7973SOL    HW224819   0.230   5.236   1.960
 7974SOL     OW24820   6.955   2.592   4.531
 7974SOL    HW124821   6.975   2.597   4.629
 7974SOL    HW224822   0.015   2.611   4.480
 7975SOL     OW24823   3.872   7.014   6.687
 7975SOL    HW124824   3.820   6.980   6.765
 7975SOL    HW224825   3.969   7.022   6.712
 7976SOL     OW24826   0.572   0.841   0.671
 7976SOL    HW124827   0.620   0.887   0.596
 7976SOL    HW224828   0.606   0.875   0.758
 7977SOL     OW24829   4.768   5.364   3.073
 7977SOL    HW124830   4.814   5.379   3.161
 7977SOL    HW224831   4.738   5.269   3.068
 7978SOL     OW24832   0.251   4.107   0.818
 7978SOL    HW124833   0.302   4.165   0.754
 7978SOL    HW224834   0.306   4.025   0.838
 7979SOL     OW24835   3.254   2.858   5.487
 7979SOL    HW124836   3.253   2.834   5.390
 7979SOL    HW224837   3.260   2.774   5.542
 7980SOL     OW24838   3.874   6.108   2.471
 7980SOL    HW124839   3.930   6.149   2.543
 7980SOL    HW224840   3.798   6.058   2.512
 7981SOL     OW24841   1.199   3.168   4.970
 7981SOL    HW124842   1.131   3.096   4.977
 7981SOL    HW224843   1.154   3.256   4.959
 7982SOL     OW24844   6.673   0.126   0.563
 7982SOL    HW124845   6.761   0.149   0.522
 7982SOL    HW224846   6.618   0.210   0.572
 7983SOL     OW24847   3.547   1.405   1.394
 7983SOL    HW124848   3.614   1.350   1.345
 7983SOL    HW224849   3.456   1.366   1.379
 7984SOL     OW24850   6.332   3.044   2.766
 7984SOL    HW124851   6.274   3.115   2.807
 7984SOL    HW224852   6.285   2.956   2.769
 7985SOL     OW24853   3.338   3.570   5.897
 7985SOL    HW124854   3.363   3.474   5.884
 7985SOL    HW224855   3.376   3.603   5.983
 7986SOL     OW24856   3.137   0.971   3.736
 7986SOL    HW124857   3.096   0.914   3.665
 7986SOL    HW224858   3.090   1.059   3.739
 7987SOL     OW24859   1.709   3.155   5.705
 7987SOL    HW124860   1.609   3.150   5.718
 7987SOL    HW224861   1.752   3.077   5.749
 7988SOL     OW24862   6.463   0.424   1.512
 7988SOL    HW124863   6.469   0.516   1.549
 7988SOL    HW224864   6.527   0.414   1.436
 7989SOL     OW24865   0.763   4.665   1.233
 7989SOL    HW124866   0.823   4.744   1.231
 7989SOL    HW224867   0.676   4.688   1.189
 7990SOL     OW24868   4.241   5.329   5.381
 7990SOL    HW124869   4.271   5.419   5.412
 7990SOL    HW224870   4.272   5.260   5.446
 7991SOL     OW24871   5.364   0.762   4.512
 7991SOL    HW124872   5.338   0.782   4.607
 7991SOL    HW224873   5.322   0.829   4.451
 7992SOL     OW24874   1.952   0.626   6.980
 7992SOL    HW124875   2.051   0.619   6.968
 7992SOL    HW224876   1.912   0.671   6.900
 7993SOL     OW24877   6.225   6.471   0.940
 7993SOL    HW124878   6.143   6.489   0.993
 7993SOL    HW224879   6.244   6.548   0.879
 7994SOL     OW24880   0.751   1.762   4.611
 7994SOL    HW124881   0.806   1.759   4.528
 7994SOL    HW224882   0.715   1.855   4.623
 7995SOL     OW24883   0.324   6.452   1.354
 7995SOL    HW124884   0.243   6.437   1.410
 7995SOL    HW224885   0.371   6.365   1.338
 7996SOL     OW24886   2.270   6.599   3.845
 7996SOL    HW124887   2.336   6.553   3.785
 7996SOL    HW224888   2.222   6.530   3.899
 7997SOL     OW24889   2.785   1.021   5.849
 7997SOL    HW124890   2.687   1.003   5.844
 7997SOL    HW224891   2.826   0.967   5.923
 7998SOL     OW24892   2.525   0.832   1.299
 7998SOL    HW124893   2.476   0.806   1.216
 7998SOL    HW224894   2.473   0.902   1.348
 7999SOL     OW24895   0.161   1.118   2.714
 7999SOL    HW124896   0.177   1.020   2.703
 7999SOL    HW224897   0.126   1.137   2.806
 8000SOL     OW24898   4.633   5.734   1.090
 8000SOL    HW124899   4.624   5.818   1.035
 8000SOL    HW224900   4.554   5.726   1.150
 8001SOL     OW24901   5.120   4.853   2.145
 8001SOL    HW124902   5.089   4.939   2.104
 8001SOL    HW224903   5.048   4.817   2.205
 8002SOL     OW24904   1.429   0.690   4.809
 8002SOL    HW124905   1.454   0.700   4.713
 8002SOL    HW224906   1.488   0.624   4.853
 8003SOL     OW24907   2.464   5.574   2.935
 8003SOL    HW124908   2.555   5.540   2.911
 8003SOL    HW224909   2.431   5.634   2.862
 8004SOL     OW24910   2.130   3.529   3.972
 8004SOL    HW124911   2.178   3.600   3.921
 8004SOL    HW224912   2.038   3.519   3.936
 8005SOL     OW24913   2.851   0.423   4.501
 8005SOL    HW124914   2.785   0.469   4.442
 8005SOL    HW224915   2.804   0.356   4.559
 8006SOL     OW24916   4.916   4.971   6.383
 8006SOL    HW124917   4.981   4.961   6.307
 8006SOL    HW224918   4.851   4.895   6.382
 8007SOL     OW24919   7.011   0.868   1.275
 8007SOL    HW124920   0.054   0.806   1.317
 8007SOL    HW224921   0.030   0.957   1.260
 8008SOL     OW24922   5.259   5.256   0.860
 8008SOL    HW124923   5.328   5.186   0.879
 8008SOL    HW224924   5.304   5.338   0.824
 8009SOL     OW24925   6.285   0.842   1.143
 8009SOL    HW124926   6.327   0.856   1.053
 8009SOL    HW224927   6.357   0.837   1.213
 8010SOL     OW24928   2.763   0.166   6.319
 8010SOL    HW124929   2.704   0.090   6.349
 8010SOL    HW224930   2.859   0.142   6.336
 8011SOL     OW24931   3.812   2.135   2.568
 8011SOL    HW124932   3.888   2.183   2.611
 8011SOL    HW224933   3.809   2.158   2.471
 8012SOL     OW24934   6.639   0.677   5.226
 8012SOL    HW124935   6.564   0.696   5.163
 8012SOL    HW224936   6.713   0.742   5.210
 8013SOL     OW24937   3.572   0.414   3.238
 8013SOL    HW124938   3.647   0.401   3.304
 8013SOL    HW224939   3.570   0.336   3.175
 8014SOL     OW24940   2.321   2.930   3.324
 8014SOL    HW124941   2.298   2.895   3.415
 8014SOL    HW224942   2.362   2.856   3.270
 8015SOL     OW24943   3.396   5.970   4.753
 8015SOL    HW124944   3.485   5.940   4.788
 8015SOL    HW224945   3.399   5.972   4.653
 8016SOL     OW24946   3.024   3.083   5.112
 8016SOL    HW124947   3.097   3.148   5.134
 8016SOL    HW224948   2.961   3.124   5.046
 8017SOL     OW24949   5.166   6.488   1.816
 8017SOL    HW124950   5.224   6.412   1.846
 8017SOL    HW224951   5.206   6.574   1.847
 8018SOL     OW24952   2.808   2.786   0.874
 8018SOL    HW124953   2.766   2.716   0.931
 8018SOL    HW224954   2.736   2.840   0.829
 8019SOL     OW24955   2.697   3.584   1.186
 8019SOL    HW124956   2.790   3.560   1.212
 8019SOL    HW224957   2.684   3.563   1.089
 8020SOL     OW24958   0.692   0.094   0.385
 8020SOL    HW124959   0.708   0.081   0.483
 8020SOL    HW224960   0.620   0.032   0.355
 8021SOL     OW24961   0.806   2.305   0.721
 8021SOL    HW124962   0.773   2.250   0.797
 8021SOL    HW224963   0.822   2.399   0.752
 8022SOL     OW24964   4.323   0.663   2.763
 8022SOL    HW124965   4.228   0.637   2.744
 8022SOL    HW224966   4.385   0.599   2.719
 8023SOL     OW24967   3.752   4.896   2.140
 8023SOL    HW124968   3.826   4.828   2.147
 8023SOL    HW224969   3.676   4.857   2.088
 8024SOL     OW24970   2.525   0.907   5.865
 8024SOL    HW124971   2.581   0.839   5.819
 8024SOL    HW224972   2.488   0.868   5.950
 8025SOL     OW24973   1.291   6.860   1.160
 8025SOL    HW124974   1.318   6.852   1.064
 8025SOL    HW224975   1.192   6.851   1.168
 8026SOL     OW24976   0.569   6.683   5.775
 8026SOL    HW124977   0.578   6.724   5.684
 8026SOL    HW224978   0.531   6.750   5.838
 8027SOL     OW24979   4.474   6.907   6.532
 8027SOL    HW124980   4.444   6.988   6.482
 8027SOL    HW224981   4.468   6.827   6.472
 8028SOL     OW24982   4.218   5.811   6.339
 8028SOL    HW124983   4.158   5.731   6.343
 8028SOL    HW224984   4.237   5.843   6.431
 8029SOL     OW24985   1.139   6.763   1.533
 8029SOL    HW124986   1.184   6.683   1.492
 8029SOL    HW224987   1.122   6.745   1.630
 8030SOL     OW24988   0.626   3.747   1.171
 8030SOL    HW124989   0.541   3.694   1.180
 8030SOL    HW224990   0.657   3.774   1.262
 8031SOL     OW24991   6.797   0.696   3.685
 8031SOL    HW124992   6.710   0.647   3.690
 8031SOL    HW224993   6.824   0.705   3.589
 8032SOL     OW24994   0.385   3.276   1.475
 8032SOL    HW124995   0.312   3.283   1.543
 8032SOL    HW224996   0.428   3.186   1.481
 8033SOL     OW24997   4.235   4.951   0.953
 8033SOL    HW124998   4.156   4.932   1.011
 8033SOL    HW224999   4.204   4.963   0.858
 8034SOL     OW25000   1.531   1.248   5.192
 8034SOL    HW125001   1.491   1.339   5.200
 8034SOL    HW225002   1.489   1.200   5.114
 8035SOL     OW25003   5.802   0.655   4.733
 8035SOL    HW125004   5.725   0.692   4.786
 8035SOL    HW225005   5.882   0.713   4.746
 8036SOL     OW25006   5.238   4.426   4.464
 8036SOL    HW125007   5.148   4.414   4.421
 8036SOL    HW225008   5.306   4.373   4.413
 8037SOL     OW25009   2.743   1.332   6.687
 8037SOL    HW125010   2.746   1.332   6.787
 8037SOL    HW225011   2.753   1.239   6.653
 8038SOL     OW25012   6.523   5.479   1.620
 8038SOL    HW125013   6.571   5.407   1.569
 8038SOL    HW225014   6.490   5.442   1.706
 8039SOL     OW25015   1.918   2.747   5.125
 8039SOL    HW125016   1.956   2.658   5.151
 8039SOL    HW225017   1.823   2.753   5.157
 8040SOL     OW25018   1.029   6.792   5.759
 8040SOL    HW125019   0.962   6.808   5.687
 8040SOL    HW225020   1.039   6.874   5.815
 8041SOL     OW25021   3.276   1.901   2.935
 8041SOL    HW125022   3.271   1.802   2.926
 8041SOL    HW225023   3.327   1.939   2.858
 8042SOL     OW25024   4.409   3.959   5.789
 8042SOL    HW125025   4.349   3.991   5.862
 8042SOL    HW225026   4.471   4.032   5.762
 8043SOL     OW25027   5.321   5.219   0.083
 8043SOL    HW125028   5.355   5.307   0.116
 8043SOL    HW225029   5.233   5.232   0.037
 8044SOL     OW25030   1.155   3.076   1.339
 8044SOL    HW125031   1.173   2.980   1.316
 8044SOL    HW225032   1.241   3.125   1.351
 8045SOL     OW25033   5.905   3.307   4.966
 8045SOL    HW125034   5.860   3.340   5.048
 8045SOL    HW225035   5.998   3.344   4.961
 8046SOL     OW25036   0.342   4.313   0.660
 8046SOL    HW125037   0.270   4.380   0.672
 8046SOL    HW225038   0.421   4.337   0.717
 8047SOL     OW25039   3.461   6.634   6.496
 8047SOL    HW125040   3.550   6.679   6.505
 8047SOL    HW225041   3.465   6.542   6.534
 8048SOL     OW25042   4.394   2.055   6.553
 8048SOL    HW125043   4.338   1.974   6.538
 8048SOL    HW225044   4.490   2.034   6.536
 8049SOL     OW25045   2.275   1.303   1.172
 8049SOL    HW125046   2.285   1.356   1.087
 8049SOL    HW225047   2.285   1.206   1.152
 8050SOL     OW25048   0.269   5.616   5.646
 8050SOL    HW125049   0.229   5.572   5.566
 8050SOL    HW225050   0.201   5.672   5.691
 8051SOL     OW25051   4.384   6.660   3.040
 8051SOL    HW125052   4.297   6.685   2.998
 8051SOL    HW225053   4.441   6.741   3.048
 8052SOL     OW25054   2.456   1.240   3.077
 8052SOL    HW125055   2.500   1.299   3.145
 8052SOL    HW225056   2.359   1.264   3.070
 8053SOL     OW25057   1.419   1.608   6.502
 8053SOL    HW125058   1.494   1.619   6.437
 8053SOL    HW225059   1.395   1.697   6.541
 8054SOL     OW25060   5.130   3.835   5.151
 8054SOL    HW125061   5.220   3.792   5.148
 8054SOL    HW225062   5.125   3.908   5.083
 8055SOL     OW25063   6.799   0.595   6.389
 8055SOL    HW125064   6.894   0.578   6.364
 8055SOL    HW225065   6.754   0.508   6.408
 8056SOL     OW25066   2.044   2.238   2.894
 8056SOL    HW125067   2.087   2.302   2.831
 8056SOL    HW225068   2.100   2.155   2.902
 8057SOL     OW25069   3.324   1.772   1.778
 8057SOL    HW125070   3.274   1.855   1.755
 8057SOL    HW225071   3.258   1.697   1.792
 8058SOL     OW25072   3.682   6.497   1.701
 8058SOL    HW125073   3.690   6.594   1.721
 8058SOL    HW225074   3.601   6.460   1.746
 8059SOL     OW25075   4.459   3.872   5.368
 8059SOL    HW125076   4.533   3.860   5.434
 8059SOL    HW225077   4.391   3.935   5.407
 8060SOL     OW25078   0.369   1.280   5.236
 8060SOL    HW125079   0.366   1.338   5.155
 8060SOL    HW225080   0.462   1.281   5.274
 8061SOL     OW25081   6.773   0.971   1.381
 8061SOL    HW125082   6.872   0.965   1.388
 8061SOL    HW225083   6.747   0.979   1.285
 8062SOL     OW25084   4.268   4.530   6.379
 8062SOL    HW125085   4.283   4.559   6.474
 8062SOL    HW225086   4.356   4.519   6.333
 8063SOL     OW25087   2.526   4.596   2.799
 8063SOL    HW125088   2.572   4.580   2.712
 8063SOL    HW225089   2.464   4.521   2.819
 8064SOL     OW25090   0.079   2.912   0.457
 8064SOL    HW125091   0.162   2.873   0.499
 8064SOL    HW225092   0.013   2.839   0.440
 8065SOL     OW25093   4.647   0.479   6.252
 8065SOL    HW125094   4.591   0.549   6.296
 8065SOL    HW225095   4.656   0.400   6.312
 8066SOL     OW25096   6.668   0.786   6.019
 8066SOL    HW125097   6.735   0.839   5.968
 8066SOL    HW225098   6.679   0.805   6.117
 8067SOL     OW25099   5.250   0.960   4.363
 8067SOL    HW125100   5.164   0.958   4.415
 8067SOL    HW225101   5.231   0.980   4.267
 8068SOL     OW25102   6.943   4.591   1.136
 8068SOL    HW125103   0.015   4.563   1.127
 8068SOL    HW225104   6.939   4.689   1.156
 8069SOL     OW25105   1.088   2.727   1.701
 8069SOL    HW125106   1.180   2.766   1.690
 8069SOL    HW225107   1.096   2.634   1.735
 8070SOL     OW25108   5.337   4.342   1.620
 8070SOL    HW125109   5.367   4.435   1.601
 8070SOL    HW225110   5.409   4.278   1.594
 8071SOL     OW25111   1.951   0.310   6.189
 8071SOL    HW125112   2.028   0.252   6.215
 8071SOL    HW225113   1.882   0.254   6.142
 8072SOL     OW25114   2.457   2.457   5.499
 8072SOL    HW125115   2.455   2.364   5.464
 8072SOL    HW225116   2.435   2.521   5.425
 8073SOL     OW25117   5.433   6.866   6.767
 8073SOL    HW125118   5.496   6.885   6.842
 8073SOL    HW225119   5.339   6.870   6.800
 8074SOL     OW25120   6.346   0.858   0.877
 8074SOL    HW125121   6.362   0.949   0.838
 8074SOL    HW225122   6.349   0.790   0.804
 8075SOL     OW25123   0.521   0.349   1.198
 8075SOL    HW125124   0.457   0.328   1.124
 8075SOL    HW225125   0.562   0.265   1.232
 8076SOL     OW25126   6.938   5.757   0.455
 8076SOL    HW125127   6.907   5.763   0.360
 8076SOL    HW225128   6.881   5.691   0.504
 8077SOL     OW25129   6.436   3.956   1.145
 8077SOL    HW125130   6.463   3.931   1.238
 8077SOL    HW225131   6.407   4.051   1.143
 8078SOL     OW25132   6.019   1.984   1.703
 8078SOL    HW125133   6.008   1.985   1.604
 8078SOL    HW225134   6.044   2.075   1.734
 8079SOL     OW25135   0.089   1.140   0.077
 8079SOL    HW125136   0.092   1.061   0.137
 8079SOL    HW225137   0.157   1.130   0.005
 8080SOL     OW25138   0.674   3.503   3.873
 8080SOL    HW125139   0.598   3.566   3.886
 8080SOL    HW225140   0.639   3.413   3.845
 8081SOL     OW25141   6.054   0.220   5.402
 8081SOL    HW125142   6.094   0.175   5.322
 8081SOL    HW225143   5.955   0.215   5.397
 8082SOL     OW25144   5.266   2.146   4.781
 8082SOL    HW125145   5.281   2.238   4.818
 8082SOL    HW225146   5.341   2.123   4.719
 8083SOL     OW25147   6.716   3.124   4.225
 8083SOL    HW125148   6.809   3.088   4.221
 8083SOL    HW225149   6.666   3.097   4.143
 8084SOL     OW25150   5.446   1.648   6.950
 8084SOL    HW125151   5.397   1.726   6.987
 8084SOL    HW225152   5.466   1.664   6.853
 8085SOL     OW25153   1.481   6.186   4.534
 8085SOL    HW125154   1.546   6.128   4.484
 8085SOL    HW225155   1.522   6.276   4.551
 8086SOL     OW25156   0.372   2.691   2.204
 8086SOL    HW125157   0.427   2.774   2.196
 8086SOL    HW225158   0.413   2.630   2.271
 8087SOL     OW25159   6.361   0.533   5.999
 8087SOL    HW125160   6.318   0.594   5.932
 8087SOL    HW225161   6.338   0.438   5.977
 8088SOL     OW25162   0.192   6.940   5.049
 8088SOL    HW125163   0.094   6.930   5.067
 8088SOL    HW225164   0.221   6.871   4.983
 8089SOL     OW25165   6.206   1.236   0.296
 8089SOL    HW125166   6.272   1.168   0.328
 8089SOL    HW225167   6.247   1.327   0.299
 8090SOL     OW25168   4.521   2.179   4.735
 8090SOL    HW125169   4.620   2.177   4.748
 8090SOL    HW225170   4.489   2.274   4.738
 8091SOL     OW25171   1.030   3.380   4.962
 8091SOL    HW125172   1.013   3.436   4.881
 8091SOL    HW225173   0.943   3.339   4.992
 8092SOL     OW25174   4.475   7.004   5.254
 8092SOL    HW125175   4.382   6.966   5.246
 8092SOL    HW225176   4.494   7.022   5.350
 8093SOL     OW25177   3.638   0.056   3.429
 8093SOL    HW125178   3.638   0.152   3.400
 8093SOL    HW225179   3.545   0.019   3.419
 8094SOL     OW25180   1.873   4.488   3.900
 8094SOL    HW125181   1.954   4.447   3.941
 8094SOL    HW225182   1.900   4.564   3.841
 8095SOL     OW25183   1.159   5.573   4.341
 8095SOL    HW125184   1.115   5.652   4.299
 8095SOL    HW225185   1.168   5.500   4.274
 8096SOL     OW25186   0.609   4.942   1.054
 8096SOL    HW125187   0.608   4.970   1.150
 8096SOL    HW225188   0.689   4.982   1.009
 8097SOL     OW25189   4.856   6.969   0.478
 8097SOL    HW125190   4.849   6.878   0.518
 8097SOL    HW225191   4.949   6.981   0.442
 8098SOL     OW25192   2.402   6.369   4.916
 8098SOL    HW125193   2.322   6.312   4.901
 8098SOL    HW225194   2.483   6.310   4.926
 8099SOL     OW25195   2.104   3.577   2.743
 8099SOL    HW125196   2.117   3.496   2.799
 8099SOL    HW225197   2.082   3.550   2.649
 8100SOL     OW25198   6.797   6.636   0.369
 8100SOL    HW125199   6.882   6.601   0.409
 8100SOL    HW225200   6.787   6.733   0.392
 8101SOL     OW25201   2.467   4.774   0.264
 8101SOL    HW125202   2.475   4.868   0.298
 8101SOL    HW225203   2.510   4.711   0.329
 8102SOL     OW25204   1.539   4.468   3.785
 8102SOL    HW125205   1.597   4.491   3.707
 8102SOL    HW225206   1.585   4.494   3.870
 8103SOL     OW25207   4.674   0.479   1.583
 8103SOL    HW125208   4.590   0.509   1.628
 8103SOL    HW225209   4.661   0.386   1.547
 8104SOL     OW25210   1.222   6.038   6.965
 8104SOL    HW125211   1.147   6.086   6.918
 8104SOL    HW225212   1.255   5.963   6.907
 8105SOL     OW25213   6.877   0.243   2.616
 8105SOL    HW125214   6.861   0.175   2.545
 8105SOL    HW225215   6.909   0.197   2.699
 8106SOL     OW25216   3.663   6.096   6.471
 8106SOL    HW125217   3.646   6.094   6.372
 8106SOL    HW225218   3.705   6.183   6.496
 8107SOL     OW25219   0.960   6.502   0.462
 8107SOL    HW125220   0.874   6.533   0.502
 8107SOL    HW225221   0.941   6.442   0.384
 8108SOL     OW25222   1.708   1.021   1.076
 8108SOL    HW125223   1.757   1.064   1.153
 8108SOL    HW225224   1.769   1.013   0.998
 8109SOL     OW25225   0.262   3.732   2.084
 8109SOL    HW125226   0.238   3.642   2.047
 8109SOL    HW225227   0.302   3.721   2.175
 8110SOL     OW25228   4.466   4.229   6.995
 8110SOL    HW125229   4.466   4.142   6.946
 8110SOL    HW225230   4.539   4.228   0.040
 8111SOL     OW25231   5.563   2.062   2.337
 8111SOL    HW125232   5.468   2.042   2.360
 8111SOL    HW225233   5.622   2.042   2.415
 8112SOL     OW25234   1.970   4.697   6.612
 8112SOL    HW125235   1.968   4.781   6.667
 8112SOL    HW225236   2.061   4.656   6.618
 8113SOL     OW25237   5.605   4.984   6.512
 8113SOL    HW125238   5.512   4.974   6.477
 8113SOL    HW225239   5.670   4.955   6.443
 8114SOL     OW25240   2.053   3.328   2.819
 8114SOL    HW125241   1.964   3.283   2.809
 8114SOL    HW225242   2.085   3.317   2.913
 8115SOL     OW25243   2.460   1.616   6.196
 8115SOL    HW125244   2.384   1.607   6.132
 8115SOL    HW225245   2.488   1.525   6.227
 8116SOL     OW25246   3.978   3.232   2.410
 8116SOL    HW125247   4.034   3.292   2.354
 8116SOL    HW225248   3.951   3.151   2.357
 8117SOL     OW25249   0.947   0.336   4.074
 8117SOL    HW125250   0.948   0.436   4.066
 8117SOL    HW225251   0.866   0.300   4.029
 8118SOL     OW25252   6.715   2.496   6.293
 8118SOL    HW125253   6.756   2.409   6.268
 8118SOL    HW225254   6.647   2.521   6.224
 8119SOL     OW25255   5.456   4.540   6.604
 8119SOL    HW125256   5.387   4.511   6.669
 8119SOL    HW225257   5.413   4.594   6.532
 8120SOL     OW25258   1.989   6.413   2.329
 8120SOL    HW125259   1.999   6.402   2.428
 8120SOL    HW225260   2.070   6.377   2.283
 8121SOL     OW25261   1.522   2.615   2.723
 8121SOL    HW125262   1.515   2.715   2.719
 8121SOL    HW225263   1.572   2.582   2.643
 8122SOL     OW25264   1.100   5.016   1.411
 8122SOL    HW125265   1.107   4.920   1.437
 8122SOL    HW225266   1.069   5.070   1.490
 8123SOL     OW25267   6.906   1.358   6.034
 8123SOL    HW125268   7.000   1.341   6.064
 8123SOL    HW225269   6.852   1.392   6.112
 8124SOL     OW25270   6.294   5.983   5.313
 8124SOL    HW125271   6.268   6.078   5.329
 8124SOL    HW225272   6.361   5.955   5.382
 8125SOL     OW25273   0.748   6.297   2.282
 8125SOL    HW125274   0.745   6.384   2.330
 8125SOL    HW225275   0.815   6.303   2.208
 8126SOL     OW25276   3.579   5.651   4.358
 8126SOL    HW125277   3.632   5.645   4.442
 8126SOL    HW225278   3.586   5.744   4.321
 8127SOL     OW25279   4.342   1.092   5.846
 8127SOL    HW125280   4.359   1.177   5.895
 8127SOL    HW225281   4.259   1.101   5.790
 8128SOL     OW25282   3.334   3.119   1.258
 8128SOL    HW125283   3.405   3.100   1.326
 8128SOL    HW225284   3.317   3.036   1.205
 8129SOL     OW25285   6.790   2.705   3.348
 8129SOL    HW125286   6.714   2.771   3.354
 8129SOL    HW225287   6.786   2.658   3.261
 8130SOL     OW25288   6.863   6.681   0.098
 8130SOL    HW125289   6.835   6.684   0.193
 8130SOL    HW225290   6.885   6.773   0.066
 8131SOL     OW25291   2.010   2.601   0.857
 8131SOL    HW125292   2.064   2.517   0.858
 8131SOL    HW225293   2.007   2.638   0.764
 8132SOL     OW25294   6.023   1.537   4.295
 8132SOL    HW125295   6.001   1.451   4.341
 8132SOL    HW225296   6.121   1.540   4.277
 8133SOL     OW25297   3.926   5.356   1.436
 8133SOL    HW125298   3.980   5.329   1.357
 8133SOL    HW225299   3.832   5.322   1.426
 8134SOL     OW25300   5.535   1.782   6.688
 8134SOL    HW125301   5.606   1.713   6.678
 8134SOL    HW225302   5.557   1.861   6.630
 8135SOL     OW25303   2.429   6.091   2.169
 8135SOL    HW125304   2.436   6.040   2.083
 8135SOL    HW225305   2.519   6.095   2.213
 8136SOL     OW25306   4.416   5.056   2.566
 8136SOL    HW125307   4.432   4.975   2.622
 8136SOL    HW225308   4.490   5.122   2.581
 8137SOL     OW25309   4.486   0.684   5.429
 8137SOL    HW125310   4.438   0.766   5.400
 8137SOL    HW225311   4.516   0.694   5.524
 8138SOL     OW25312   5.993   0.705   2.359
 8138SOL    HW125313   6.042   0.689   2.445
 8138SOL    HW225314   5.989   0.621   2.306
 8139SOL     OW25315   0.731   1.412   4.341
 8139SOL    HW125316   0.687   1.429   4.252
 8139SOL    HW225317   0.756   1.316   4.348
 8140SOL     OW25318   4.679   2.829   3.147
 8140SOL    HW125319   4.626   2.744   3.141
 8140SOL    HW225320   4.732   2.841   3.063
 8141SOL     OW25321   5.725   3.978   3.697
 8141SOL    HW125322   5.769   3.900   3.741
 8141SOL    HW225323   5.652   3.946   3.637
 8142SOL     OW25324   0.311   6.125   0.445
 8142SOL    HW125325   0.337   6.180   0.525
 8142SOL    HW225326   0.226   6.076   0.464
 8143SOL     OW25327   6.599   2.672   5.877
 8143SOL    HW125328   6.584   2.677   5.778
 8143SOL    HW225329   6.674   2.732   5.903
 8144SOL     OW25330   4.851   6.194   0.095
 8144SOL    HW125331   4.890   6.114   0.050
 8144SOL    HW225332   4.924   6.247   0.137
 8145SOL     OW25333   4.940   6.361   4.306
 8145SOL    HW125334   4.856   6.412   4.326
 8145SOL    HW225335   4.916   6.271   4.268
 8146SOL     OW25336   3.505   1.633   3.505
 8146SOL    HW125337   3.554   1.684   3.433
 8146SOL    HW225338   3.455   1.557   3.464
 8147SOL     OW25339   4.796   1.349   3.246
 8147SOL    HW125340   4.836   1.396   3.325
 8147SOL    HW225341   4.847   1.373   3.164
 8148SOL     OW25342   0.296   3.625   3.059
 8148SOL    HW125343   0.322   3.545   3.005
 8148SOL    HW225344   0.336   3.618   3.150
 8149SOL     OW25345   4.001   5.331   4.066
 8149SOL    HW125346   4.024   5.305   3.973
 8149SOL    HW225347   3.924   5.275   4.098
 8150SOL     OW25348   1.257   6.189   1.394
 8150SOL    HW125349   1.318   6.268   1.390
 8150SOL    HW225350   1.258   6.150   1.486
 8151SOL     OW25351   0.565   1.887   4.942
 8151SOL    HW125352   0.626   1.961   4.914
 8151SOL    HW225353   0.486   1.884   4.881
 8152SOL     OW25354   0.995   0.471   3.661
 8152SOL    HW125355   0.913   0.468   3.718
 8152SOL    HW225356   1.076   0.478   3.719
 8153SOL     OW25357   2.116   5.779   0.544
 8153SOL    HW125358   2.207   5.757   0.579
 8153SOL    HW225359   2.104   5.878   0.543
 8154SOL     OW25360   1.794   5.986   3.519
 8154SOL    HW125361   1.716   5.998   3.580
 8154SOL    HW225362   1.815   5.889   3.510
 8155SOL     OW25363   3.271   3.721   4.872
 8155SOL    HW125364   3.245   3.734   4.968
 8155SOL    HW225365   3.338   3.790   4.846
 8156SOL     OW25366   0.512   6.870   4.884
 8156SOL    HW125367   0.604   6.891   4.851
 8156SOL    HW225368   0.460   6.827   4.811
 8157SOL     OW25369   5.798   2.293   6.708
 8157SOL    HW125370   5.863   2.245   6.649
 8157SOL    HW225371   5.705   2.279   6.673
 8158SOL     OW25372   1.238   5.814   2.405
 8158SOL    HW125373   1.161   5.853   2.355
 8158SOL    HW225374   1.242   5.854   2.496
 8159SOL     OW25375   0.497   6.032   0.229
 8159SOL    HW125376   0.500   5.932   0.226
 8159SOL    HW225377   0.430   6.061   0.297
 8160SOL     OW25378   5.091   2.102   1.202
 8160SOL    HW125379   5.136   2.125   1.289
 8160SOL    HW225380   5.041   2.181   1.168
 8161SOL     OW25381   3.984   3.534   1.548
 8161SOL    HW125382   4.072   3.518   1.591
 8161SOL    HW225383   3.996   3.542   1.449
 8162SOL     OW25384   6.330   1.199   2.289
 8162SOL    HW125385   6.338   1.174   2.193
 8162SOL    HW225386   6.392   1.275   2.309
 8163SOL     OW25387   2.140   2.552   5.282
 8163SOL    HW125388   2.217   2.506   5.238
 8163SOL    HW225389   2.160   2.650   5.292
 8164SOL     OW25390   5.035   3.945   1.762
 8164SOL    HW125391   5.019   3.966   1.665
 8164SOL    HW225392   5.085   4.020   1.804
 8165SOL     OW25393   1.725   3.959   1.764
 8165SOL    HW125394   1.803   3.927   1.818
 8165SOL    HW225395   1.682   3.881   1.719
 8166SOL     OW25396   3.014   6.625   1.632
 8166SOL    HW125397   2.920   6.598   1.614
 8166SOL    HW225398   3.041   6.592   1.723
 8167SOL     OW25399   5.805   2.966   4.568
 8167SOL    HW125400   5.731   2.964   4.501
 8167SOL    HW225401   5.818   2.874   4.606
 8168SOL     OW25402   2.760   1.579   2.856
 8168SOL    HW125403   2.815   1.527   2.921
 8168SOL    HW225404   2.813   1.655   2.820
 8169SOL     OW25405   5.376   3.879   5.556
 8169SOL    HW125406   5.448   3.854   5.492
 8169SOL    HW225407   5.288   3.883   5.508
 8170SOL     OW25408   1.308   5.007   3.984
 8170SOL    HW125409   1.250   5.088   3.992
 8170SOL    HW225410   1.404   5.034   3.987
 8171SOL     OW25411   1.980   0.888   0.107
 8171SOL    HW125412   1.950   0.802   0.066
 8171SOL    HW225413   1.938   0.965   0.058
 8172SOL     OW25414   0.378   6.386   2.350
 8172SOL    HW125415   0.427   6.394   2.437
 8172SOL    HW225416   0.280   6.384   2.367
 8173SOL     OW25417   6.638   3.251   0.513
 8173SOL    HW125418   6.599   3.179   0.571
 8173SOL    HW225419   6.693   3.210   0.440
 8174SOL     OW25420   4.851   6.384   2.540
 8174SOL    HW125421   4.840   6.290   2.509
 8174SOL    HW225422   4.948   6.409   2.540
 8175SOL     OW25423   1.362   2.618   3.683
 8175SOL    HW125424   1.416   2.612   3.599
 8175SOL    HW225425   1.401   2.557   3.752
 8176SOL     OW25426   4.173   5.654   3.795
 8176SOL    HW125427   4.147   5.575   3.739
 8176SOL    HW225428   4.157   5.738   3.744
 8177SOL     OW25429   1.565   6.384   6.400
 8177SOL    HW125430   1.514   6.303   6.431
 8177SOL    HW225431   1.651   6.390   6.450
 8178SOL     OW25432   1.765   6.630   6.385
 8178SOL    HW125433   1.769   6.729   6.374
 8178SOL    HW225434   1.719   6.589   6.306
 8179SOL     OW25435   4.301   0.509   6.548
 8179SOL    HW125436   4.276   0.602   6.574
 8179SOL    HW225437   4.251   0.444   6.606
 8180SOL     OW25438   5.057   4.672   4.859
 8180SOL    HW125439   5.119   4.746   4.834
 8180SOL    HW225440   5.046   4.609   4.783
 8181SOL     OW25441   2.524   2.078   2.155
 8181SOL    HW125442   2.528   2.011   2.081
 8181SOL    HW225443   2.610   2.129   2.159
 8182SOL     OW25444   5.354   2.737   5.316
 8182SOL    HW125445   5.356   2.811   5.383
 8182SOL    HW225446   5.274   2.747   5.257
 8183SOL     OW25447   2.109   3.370   3.322
 8183SOL    HW125448   2.145   3.295   3.378
 8183SOL    HW225449   2.038   3.334   3.261
 8184SOL     OW25450   6.306   6.191   4.252
 8184SOL    HW125451   6.268   6.283   4.245
 8184SOL    HW225452   6.406   6.195   4.246
 8185SOL     OW25453   0.953   2.087   3.740
 8185SOL    HW125454   0.906   2.173   3.719
 8185SOL    HW225455   0.914   2.013   3.686
 8186SOL     OW25456   4.380   3.609   6.970
 8186SOL    HW125457   4.475   3.640   6.968
 8186SOL    HW225458   4.363   3.558   0.031
 8187SOL     OW25459   2.311   1.248   6.107
 8187SOL    HW125460   2.239   1.270   6.174
 8187SOL    HW225461   2.397   1.288   6.137
 8188SOL     OW25462   5.111   3.152   2.693
 8188SOL    HW125463   5.156   3.073   2.652
 8188SOL    HW225464   5.091   3.220   2.623
 8189SOL     OW25465   6.545   5.129   3.148
 8189SOL    HW125466   6.448   5.115   3.128
 8189SOL    HW225467   6.597   5.050   3.116
 8190SOL     OW25468   5.758   3.569   2.654
 8190SOL    HW125469   5.799   3.483   2.622
 8190SOL    HW225470   5.809   3.603   2.733
 8191SOL     OW25471   5.600   4.972   1.580
 8191SOL    HW125472   5.531   4.925   1.637
 8191SOL    HW225473   5.678   4.911   1.565
 8192SOL     OW25474   1.378   2.412   1.016
 8192SOL    HW125475   1.425   2.478   0.957
 8192SOL    HW225476   1.385   2.441   1.111
 8193SOL     OW25477   3.930   6.165   5.707
 8193SOL    HW125478   3.953   6.184   5.802
 8193SOL    HW225479   3.941   6.067   5.689
 8194SOL     OW25480   1.221   0.930   2.945
 8194SOL    HW125481   1.233   0.833   2.964
 8194SOL    HW225482   1.125   0.948   2.921
 8195SOL     OW25483   5.671   1.069   1.571
 8195SOL    HW125484   5.665   1.041   1.475
 8195SOL    HW225485   5.765   1.098   1.591
 8196SOL     OW25486   2.409   0.756   1.048
 8196SOL    HW125487   2.328   0.714   1.007
 8196SOL    HW225488   2.477   0.773   0.977
 8197SOL     OW25489   0.600   6.903   1.156
 8197SOL    HW125490   0.657   6.948   1.087
 8197SOL    HW225491   0.658   6.874   1.232
 8198SOL     OW25492   3.076   0.980   3.087
 8198SOL    HW125493   3.163   1.021   3.114
 8198SOL    HW225494   3.004   1.012   3.148
 8199SOL     OW25495   5.384   4.549   1.250
 8199SOL    HW125496   5.448   4.600   1.307
 8199SOL    HW225497   5.296   4.597   1.248
 8200SOL     OW25498   3.900   4.240   1.713
 8200SOL    HW125499   3.860   4.331   1.700
 8200SOL    HW225500   3.842   4.186   1.774
 8201SOL     OW25501   0.960   1.149   5.075
 8201SOL    HW125502   0.951   1.198   4.988
 8201SOL    HW225503   0.922   1.206   5.149
 8202SOL     OW25504   1.875   3.464   3.910
 8202SOL    HW125505   1.860   3.454   3.812
 8202SOL    HW225506   1.904   3.376   3.948
 8203SOL     OW25507   6.650   4.616   6.372
 8203SOL    HW125508   6.722   4.557   6.409
 8203SOL    HW225509   6.691   4.682   6.309
 8204SOL     OW25510   3.511   0.087   0.708
 8204SOL    HW125511   3.547   0.017   0.646
 8204SOL    HW225512   3.419   0.113   0.680
 8205SOL     OW25513   3.952   6.909   2.941
 8205SOL    HW125514   3.987   6.928   3.033
 8205SOL    HW225515   3.983   6.818   2.913
 8206SOL     OW25516   3.476   1.996   4.855
 8206SOL    HW125517   3.488   2.047   4.940
 8206SOL    HW225518   3.523   1.908   4.862
 8207SOL     OW25519   2.993   5.821   0.297
 8207SOL    HW125520   2.941   5.905   0.313
 8207SOL    HW225521   2.946   5.766   0.228
 8208SOL     OW25522   1.574   5.808   1.273
 8208SOL    HW125523   1.642   5.747   1.233
 8208SOL    HW225524   1.597   5.903   1.250
 8209SOL     OW25525   0.898   6.002   5.047
 8209SOL    HW125526   0.846   6.079   5.082
 8209SOL    HW225527   0.966   5.974   5.115
 8210SOL     OW25528   2.647   0.261   1.381
 8210SOL    HW125529   2.658   0.248   1.480
 8210SOL    HW225530   2.716   0.207   1.332
 8211SOL     OW25531   3.345   4.155   4.084
 8211SOL    HW125532   3.255   4.162   4.127
 8211SOL    HW225533   3.415   4.183   4.150
 8212SOL     OW25534   4.424   4.724   6.820
 8212SOL    HW125535   4.414   4.823   6.817
 8212SOL    HW225536   4.439   4.695   6.915
 8213SOL     OW25537   4.751   4.251   2.053
 8213SOL    HW125538   4.662   4.298   2.048
 8213SOL    HW225539   4.762   4.192   1.974
 8214SOL     OW25540   4.143   5.411   3.634
 8214SOL    HW125541   4.235   5.420   3.596
 8214SOL    HW225542   4.084   5.366   3.567
 8215SOL     OW25543   2.885   6.361   5.561
 8215SOL    HW125544   2.904   6.336   5.466
 8215SOL    HW225545   2.786   6.373   5.572
 8216SOL     OW25546   5.947   5.438   0.745
 8216SOL    HW125547   5.970   5.350   0.786
 8216SOL    HW225548   5.936   5.507   0.818
 8217SOL     OW25549   3.280   5.993   3.321
 8217SOL    HW125550   3.301   6.080   3.365
 8217SOL    HW225551   3.343   5.978   3.245
 8218SOL     OW25552   2.005   6.367   4.206
 8218SOL    HW125553   1.961   6.451   4.176
 8218SOL    HW225554   1.936   6.297   4.224
 8219SOL     OW25555   3.761   3.581   3.737
 8219SOL    HW125556   3.798   3.591   3.830
 8219SOL    HW225557   3.704   3.661   3.716
 8220SOL     OW25558   4.566   4.390   5.771
 8220SOL    HW125559   4.522   4.412   5.858
 8220SOL    HW225560   4.497   4.361   5.705
 8221SOL     OW25561   6.907   3.824   3.734
 8221SOL    HW125562   6.824   3.800   3.784
 8221SOL    HW225563   6.913   3.924   3.727
 8222SOL     OW25564   5.161   2.096   6.135
 8222SOL    HW125565   5.160   2.110   6.234
 8222SOL    HW225566   5.226   2.160   6.093
 8223SOL     OW25567   1.350   6.106   5.729
 8223SOL    HW125568   1.304   6.123   5.642
 8223SOL    HW225569   1.408   6.025   5.720
 8224SOL     OW25570   5.688   0.723   5.739
 8224SOL    HW125571   5.778   0.682   5.725
 8224SOL    HW225572   5.634   0.666   5.801
 8225SOL     OW25573   5.907   2.418   0.305
 8225SOL    HW125574   5.835   2.483   0.326
 8225SOL    HW225575   5.879   2.326   0.331
 8226SOL     OW25576   3.784   0.641   6.864
 8226SOL    HW125577   3.761   0.592   6.949
 8226SOL    HW225578   3.881   0.664   6.864
 8227SOL     OW25579   5.339   4.294   2.054
 8227SOL    HW125580   5.395   4.227   2.102
 8227SOL    HW225581   5.392   4.376   2.035
 8228SOL     OW25582   2.533   1.673   4.060
 8228SOL    HW125583   2.549   1.736   3.984
 8228SOL    HW225584   2.596   1.694   4.134
 8229SOL     OW25585   3.906   4.344   0.552
 8229SOL    HW125586   3.888   4.273   0.484
 8229SOL    HW225587   3.821   4.392   0.573
 8230SOL     OW25588   6.461   0.663   6.490
 8230SOL    HW125589   6.430   0.674   6.395
 8230SOL    HW225590   6.516   0.742   6.516
 8231SOL     OW25591   3.323   1.546   2.089
 8231SOL    HW125592   3.368   1.635   2.078
 8231SOL    HW225593   3.299   1.510   1.999
 8232SOL     OW25594   3.613   6.458   3.667
 8232SOL    HW125595   3.530   6.482   3.718
 8232SOL    HW225596   3.609   6.498   3.576
 8233SOL     OW25597   3.041   0.402   6.425
 8233SOL    HW125598   3.006   0.470   6.360
 8233SOL    HW225599   3.003   0.312   6.403
 8234SOL     OW25600   0.947   2.705   6.842
 8234SOL    HW125601   0.984   2.626   6.891
 8234SOL    HW225602   1.023   2.764   6.813
 8235SOL     OW25603   0.891   6.381   0.216
 8235SOL    HW125604   0.913   6.477   0.200
 8235SOL    HW225605   0.975   6.328   0.222
 8236SOL     OW25606   1.356   6.872   0.876
 8236SOL    HW125607   1.288   6.941   0.852
 8236SOL    HW225608   1.448   6.911   0.864
 8237SOL     OW25609   4.076   5.008   5.394
 8237SOL    HW125610   4.113   5.047   5.478
 8237SOL    HW225611   3.984   4.973   5.411
 8238SOL     OW25612   6.578   5.199   0.203
 8238SOL    HW125613   6.510   5.258   0.246
 8238SOL    HW225614   6.660   5.252   0.183
 8239SOL     OW25615   4.344   2.270   3.988
 8239SOL    HW125616   4.343   2.341   3.917
 8239SOL    HW225617   4.419   2.289   4.052
 8240SOL     OW25618   3.827   3.569   5.297
 8240SOL    HW125619   3.833   3.623   5.382
 8240SOL    HW225620   3.910   3.514   5.287
 8241SOL     OW25621   0.511   3.044   5.686
 8241SOL    HW125622   0.608   3.036   5.663
 8241SOL    HW225623   0.456   2.990   5.622
 8242SOL     OW25624   0.436   3.024   3.341
 8242SOL    HW125625   0.338   3.007   3.336
 8242SOL    HW225626   0.454   3.122   3.333
 8243SOL     OW25627   1.670   5.759   3.907
 8243SOL    HW125628   1.695   5.663   3.913
 8243SOL    HW225629   1.611   5.774   3.828
 8244SOL     OW25630   5.779   0.169   4.528
 8244SOL    HW125631   5.777   0.129   4.437
 8244SOL    HW225632   5.802   0.099   4.595
 8245SOL     OW25633   5.880   4.502   2.291
 8245SOL    HW125634   5.908   4.490   2.386
 8245SOL    HW225635   5.781   4.493   2.284
 8246SOL     OW25636   2.140   4.305   6.859
 8246SOL    HW125637   2.102   4.261   6.940
 8246SOL    HW225638   2.110   4.257   6.777
 8247SOL     OW25639   1.972   4.867   3.375
 8247SOL    HW125640   1.890   4.880   3.431
 8247SOL    HW225641   2.011   4.777   3.395
 8248SOL     OW25642   6.492   6.866   2.674
 8248SOL    HW125643   6.424   6.815   2.622
 8248SOL    HW225644   6.543   6.926   2.612
 8249SOL     OW25645   3.486   0.218   5.766
 8249SOL    HW125646   3.397   0.174   5.758
 8249SOL    HW225647   3.486   0.279   5.845
 8250SOL     OW25648   1.402   1.496   0.263
 8250SOL    HW125649   1.384   1.555   0.342
 8250SOL    HW225650   1.438   1.551   0.188
 8251SOL     OW25651   1.384   1.866   6.580
 8251SOL    HW125652   1.368   1.965   6.578
 8251SOL    HW225653   1.477   1.848   6.610
 8252SOL     OW25654   0.898   1.263   6.516
 8252SOL    HW125655   0.913   1.249   6.418
 8252SOL    HW225656   0.847   1.187   6.554
 8253SOL     OW25657   0.338   4.315   5.659
 8253SOL    HW125658   0.431   4.318   5.620
 8253SOL    HW225659   0.282   4.386   5.617
 8254SOL     OW25660   5.280   4.208   0.188
 8254SOL    HW125661   5.358   4.184   0.246
 8254SOL    HW225662   5.298   4.179   0.094
 8255SOL     OW25663   1.732   6.515   5.378
 8255SOL    HW125664   1.704   6.598   5.426
 8255SOL    HW225665   1.652   6.456   5.366
 8256SOL     OW25666   1.598   5.777   2.879
 8256SOL    HW125667   1.693   5.746   2.875
 8256SOL    HW225668   1.540   5.702   2.910
 8257SOL     OW25669   4.780   4.589   3.739
 8257SOL    HW125670   4.734   4.530   3.804
 8257SOL    HW225671   4.718   4.612   3.664
 8258SOL     OW25672   0.228   3.303   4.819
 8258SOL    HW125673   0.327   3.288   4.822
 8258SOL    HW225674   0.192   3.308   4.912
 8259SOL     OW25675   5.875   3.292   4.346
 8259SOL    HW125676   5.834   3.365   4.293
 8259SOL    HW225677   5.806   3.222   4.367
 8260SOL     OW25678   4.878   1.990   6.570
 8260SOL    HW125679   4.971   2.022   6.554
 8260SOL    HW225680   4.878   1.920   6.641
 8261SOL     OW25681   5.476   2.543   2.588
 8261SOL    HW125682   5.573   2.527   2.604
 8261SOL    HW225683   5.463   2.635   2.551
 8262SOL     OW25684   4.999   4.281   2.163
 8262SOL    HW125685   4.905   4.252   2.142
 8262SOL    HW225686   5.031   4.344   2.093
 8263SOL     OW25687   6.659   1.519   6.910
 8263SOL    HW125688   6.739   1.553   6.961
 8263SOL    HW225689   6.689   1.449   6.845
 8264SOL     OW25690   3.476   1.104   1.770
 8264SOL    HW125691   3.391   1.083   1.817
 8264SOL    HW225692   3.550   1.048   1.808
 8265SOL     OW25693   4.811   5.663   0.155
 8265SOL    HW125694   4.787   5.740   0.096
 8265SOL    HW225695   4.728   5.627   0.197
 8266SOL     OW25696   4.807   2.848   2.892
 8266SOL    HW125697   4.803   2.915   2.818
 8266SOL    HW225698   4.902   2.819   2.905
 8267SOL     OW25699   1.995   3.264   3.111
 8267SOL    HW125700   2.034   3.182   3.153
 8267SOL    HW225701   1.899   3.247   3.089
 8268SOL     OW25702   2.475   5.386   1.372
 8268SOL    HW125703   2.553   5.325   1.382
 8268SOL    HW225704   2.422   5.387   1.457
 8269SOL     OW25705   6.771   2.106   3.904
 8269SOL    HW125706   6.770   2.006   3.904
 8269SOL    HW225707   6.699   2.140   3.844
 8270SOL     OW25708   3.717   4.676   0.138
 8270SOL    HW125709   3.642   4.739   0.161
 8270SOL    HW225710   3.717   4.599   0.203
 8271SOL     OW25711   2.846   7.014   5.176
 8271SOL    HW125712   2.891   6.924   5.181
 8271SOL    HW225713   2.910   0.057   5.137
 8272SOL     OW25714   0.853   0.655   2.113
 8272SOL    HW125715   0.922   0.682   2.180
 8272SOL    HW225716   0.859   0.714   2.033
 8273SOL     OW25717   5.001   0.063   6.098
 8273SOL    HW125718   4.940   0.140   6.078
 8273SOL    HW225719   5.080   0.067   6.036
 8274SOL     OW25720   5.127   6.673   4.148
 8274SOL    HW125721   5.118   6.646   4.244
 8274SOL    HW225722   5.142   6.592   4.092
 8275SOL     OW25723   4.534   0.575   4.384
 8275SOL    HW125724   4.477   0.545   4.461
 8275SOL    HW225725   4.618   0.617   4.419
 8276SOL     OW25726   5.484   2.725   1.118
 8276SOL    HW125727   5.576   2.764   1.113
 8276SOL    HW225728   5.484   2.634   1.075
 8277SOL     OW25729   1.319   0.057   2.187
 8277SOL    HW125730   1.240   0.026   2.134
 8277SOL    HW225731   1.334   7.019   2.264
 8278SOL     OW25732   1.648   0.606   1.592
 8278SOL    HW125733   1.738   0.629   1.556
 8278SOL    HW225734   1.626   0.511   1.567
 8279SOL     OW25735   6.392   4.974   5.762
 8279SOL    HW125736   6.383   4.874   5.762
 8279SOL    HW225737   6.382   5.009   5.669
 8280SOL     OW25738   0.490   4.632   6.762
 8280SOL    HW125739   0.510   4.730   6.763
 8280SOL    HW225740   0.575   4.581   6.771
 8281SOL     OW25741   3.253   4.676   7.012
 8281SOL    HW125742   3.224   4.665   0.084
 8281SOL    HW225743   3.173   4.692   6.954
 8282SOL     OW25744   4.036   3.358   0.625
 8282SOL    HW125745   4.129   3.329   0.648
 8282SOL    HW225746   3.992   3.396   0.706
 8283SOL     OW25747   0.700   1.151   3.499
 8283SOL    HW125748   0.614   1.179   3.458
 8283SOL    HW225749   0.705   1.184   3.594
 8284SOL     OW25750   5.122   2.602   1.204
 8284SOL    HW125751   5.208   2.552   1.205
 8284SOL    HW225752   5.123   2.668   1.128
 8285SOL     OW25753   0.579   4.695   0.091
 8285SOL    HW125754   0.663   4.642   0.099
 8285SOL    HW225755   0.503   4.643   0.131
 8286SOL     OW25756   6.309   2.041   6.567
 8286SOL    HW125757   6.357   2.112   6.515
 8286SOL    HW225758   6.355   2.027   6.654
 8287SOL     OW25759   0.695   1.229   3.206
 8287SOL    HW125760   0.633   1.267   3.275
 8287SOL    HW225761   0.774   1.289   3.195
 8288SOL     OW25762   2.514   6.762   2.577
 8288SOL    HW125763   2.510   6.789   2.673
 8288SOL    HW225764   2.444   6.810   2.525
 8289SOL     OW25765   6.221   6.797   0.134
 8289SOL    HW125766   6.318   6.793   0.155
 8289SOL    HW225767   6.170   6.819   0.217
 8290SOL     OW25768   4.639   2.748   1.859
 8290SOL    HW125769   4.609   2.720   1.950
 8290SOL    HW225770   4.676   2.841   1.864
 8291SOL     OW25771   5.610   5.544   5.417
 8291SOL    HW125772   5.669   5.624   5.406
 8291SOL    HW225773   5.587   5.533   5.514
 8292SOL     OW25774   6.960   4.115   5.512
 8292SOL    HW125775   7.015   4.095   5.430
 8292SOL    HW225776   6.876   4.162   5.485
 8293SOL     OW25777   2.943   5.604   4.336
 8293SOL    HW125778   2.962   5.535   4.266
 8293SOL    HW225779   2.955   5.563   4.427
 8294SOL     OW25780   6.736   3.778   6.025
 8294SOL    HW125781   6.746   3.719   5.945
 8294SOL    HW225782   6.813   3.763   6.087
 8295SOL     OW25783   4.279   4.473   1.467
 8295SOL    HW125784   4.218   4.541   1.425
 8295SOL    HW225785   4.239   4.441   1.553
 8296SOL     OW25786   3.272   0.675   2.113
 8296SOL    HW125787   3.207   0.738   2.155
 8296SOL    HW225788   3.225   0.617   2.047
 8297SOL     OW25789   6.086   4.323   1.824
 8297SOL    HW125790   6.117   4.409   1.863
 8297SOL    HW225791   5.987   4.313   1.838
 8298SOL     OW25792   6.871   6.501   0.706
 8298SOL    HW125793   6.941   6.461   0.646
 8298SOL    HW225794   6.893   6.481   0.801
 8299SOL     OW25795   0.808   1.841   6.909
 8299SOL    HW125796   0.870   1.769   6.941
 8299SOL    HW225797   0.731   1.799   6.862
 8300SOL     OW25798   4.673   6.140   4.524
 8300SOL    HW125799   4.769   6.118   4.505
 8300SOL    HW225800   4.670   6.221   4.584
 8301SOL     OW25801   6.360   5.327   0.278
 8301SOL    HW125802   6.311   5.414   0.266
 8301SOL    HW225803   6.296   5.257   0.308
 8302SOL     OW25804   3.634   6.764   5.773
 8302SOL    HW125805   3.669   6.674   5.751
 8302SOL    HW225806   3.688   6.834   5.726
 8303SOL     OW25807   0.458   4.823   4.007
 8303SOL    HW125808   0.546   4.778   3.993
 8303SOL    HW225809   0.428   4.811   4.101
 8304SOL     OW25810   5.657   2.740   3.875
 8304SOL    HW125811   5.594   2.705   3.806
 8304SOL    HW225812   5.707   2.819   3.838
 8305SOL     OW25813   4.540   5.972   5.474
 8305SOL    HW125814   4.476   6.037   5.432
 8305SOL    HW225815   4.605   6.021   5.531
 8306SOL     OW25816   5.404   1.373   3.822
 8306SOL    HW125817   5.461   1.414   3.751
 8306SOL    HW225818   5.339   1.310   3.780
 8307SOL     OW25819   6.742   5.027   4.179
 8307SOL    HW125820   6.648   5.060   4.190
 8307SOL    HW225821   6.747   4.964   4.102
 8308SOL     OW25822   2.167   5.311   0.294
 8308SOL    HW125823   2.185   5.236   0.358
 8308SOL    HW225824   2.240   5.379   0.301
 8309SOL     OW25825   5.838   5.277   2.666
 8309SOL    HW125826   5.861   5.311   2.575
 8309SOL    HW225827   5.758   5.217   2.660
 8310SOL     OW25828   1.716   5.917   3.190
 8310SOL    HW125829   1.738   5.902   3.094
 8310SOL    HW225830   1.617   5.906   3.203
 8311SOL     OW25831   4.871   6.758   1.903
 8311SOL    HW125832   4.920   6.813   1.836
 8311SOL    HW225833   4.805   6.816   1.953
 8312SOL     OW25834   6.764   1.136   0.619
 8312SOL    HW125835   6.783   1.177   0.708
 8312SOL    HW225836   6.779   1.037   0.624
 8313SOL     OW25837   4.806   2.550   5.720
 8313SOL    HW125838   4.847   2.595   5.641
 8313SOL    HW225839   4.875   2.496   5.767
 8314SOL     OW25840   5.101   5.918   4.700
 8314SOL    HW125841   5.141   5.837   4.743
 8314SOL    HW225842   5.173   5.985   4.682
 8315SOL     OW25843   3.314   1.710   1.065
 8315SOL    HW125844   3.224   1.720   1.021
 8315SOL    HW225845   3.339   1.796   1.108
 8316SOL     OW25846   1.445   1.808   4.767
 8316SOL    HW125847   1.458   1.777   4.673
 8316SOL    HW225848   1.371   1.875   4.770
 8317SOL     OW25849   2.164   1.930   6.557
 8317SOL    HW125850   2.085   1.990   6.541
 8317SOL    HW225851   2.236   1.953   6.492
 8318SOL     OW25852   4.337   6.145   5.381
 8318SOL    HW125853   4.257   6.117   5.327
 8318SOL    HW225854   4.307   6.202   5.457
 8319SOL     OW25855   2.673   5.720   6.284
 8319SOL    HW125856   2.636   5.652   6.220
 8319SOL    HW225857   2.741   5.776   6.237
 8320SOL     OW25858   4.304   5.108   5.579
 8320SOL    HW125859   4.355   5.170   5.637
 8320SOL    HW225860   4.360   5.028   5.557
 8321SOL     OW25861   0.480   0.347   0.671
 8321SOL    HW125862   0.511   0.357   0.765
 8321SOL    HW225863   0.503   0.430   0.620
 8322SOL     OW25864   2.417   0.444   1.692
 8322SOL    HW125865   2.481   0.411   1.762
 8322SOL    HW225866   2.430   0.542   1.679
 8323SOL     OW25867   5.847   5.223   6.763
 8323SOL    HW125868   5.867   5.266   6.675
 8323SOL    HW225869   5.758   5.253   6.795
 8324SOL     OW25870   5.908   6.089   6.050
 8324SOL    HW125871   5.991   6.062   6.001
 8324SOL    HW225872   5.893   6.187   6.035
 8325SOL     OW25873   1.788   6.083   4.905
 8325SOL    HW125874   1.765   5.994   4.867
 8325SOL    HW225875   1.744   6.094   4.994
 8326SOL     OW25876   2.784   1.065   6.595
 8326SOL    HW125877   2.760   0.985   6.650
 8326SOL    HW225878   2.866   1.045   6.541
 8327SOL     OW25879   0.768   5.750   5.559
 8327SOL    HW125880   0.838   5.691   5.520
 8327SOL    HW225881   0.684   5.742   5.505
 8328SOL     OW25882   1.372   0.446   0.258
 8328SOL    HW125883   1.470   0.431   0.268
 8328SOL    HW225884   1.334   0.479   0.345
 8329SOL     OW25885   1.692   2.509   5.267
 8329SOL    HW125886   1.651   2.527   5.177
 8329SOL    HW225887   1.628   2.534   5.339
 8330SOL     OW25888   3.462   6.349   0.185
 8330SOL    HW125889   3.444   6.443   0.156
 8330SOL    HW225890   3.407   6.287   0.130
 8331SOL     OW25891   2.183   2.073   5.879
 8331SOL    HW125892   2.089   2.078   5.912
 8331SOL    HW225893   2.221   1.983   5.898
 8332SOL     OW25894   5.361   4.426   0.756
 8332SOL    HW125895   5.452   4.433   0.715
 8332SOL    HW225896   5.358   4.348   0.818
 8333SOL     OW25897   2.509   4.286   6.618
 8333SOL    HW125898   2.497   4.189   6.637
 8333SOL    HW225899   2.456   4.311   6.537
 8334SOL     OW25900   3.187   2.763   5.216
 8334SOL    HW125901   3.200   2.670   5.182
 8334SOL    HW225902   3.187   2.827   5.140
 8335SOL     OW25903   5.833   3.307   6.657
 8335SOL    HW125904   5.750   3.252   6.648
 8335SOL    HW225905   5.840   3.371   6.581
 8336SOL     OW25906   1.138   4.813   3.914
 8336SOL    HW125907   1.196   4.890   3.938
 8336SOL    HW225908   1.175   4.767   3.832
 8337SOL     OW25909   6.112   0.133   4.087
 8337SOL    HW125910   6.198   0.146   4.137
 8337SOL    HW225911   6.108   0.039   4.052
 8338SOL     OW25912   2.681   5.192   1.368
 8338SOL    HW125913   2.750   5.216   1.300
 8338SOL    HW225914   2.673   5.093   1.373
 8339SOL     OW25915   0.078   0.317   1.786
 8339SOL    HW125916   0.002   0.264   1.824
 8339SOL    HW225917   0.165   0.273   1.810
 8340SOL     OW25918   6.313   2.691   6.281
 8340SOL    HW125919   6.223   2.736   6.281
 8340SOL    HW225920   6.340   2.671   6.375
 8341SOL     OW25921   3.233   6.915   1.317
 8341SOL    HW125922   3.279   6.971   1.386
 8341SOL    HW225923   3.213   6.825   1.356
 8342SOL     OW25924   3.843   0.970   1.285
 8342SOL    HW125925   3.867   0.964   1.382
 8342SOL    HW225926   3.817   0.880   1.251
 8343SOL     OW25927   4.769   6.040   2.877
 8343SOL    HW125928   4.823   6.104   2.823
 8343SOL    HW225929   4.699   5.998   2.819
 8344SOL     OW25930   2.212   4.568   5.508
 8344SOL    HW125931   2.161   4.483   5.495
 8344SOL    HW225932   2.301   4.561   5.464
 8345SOL     OW25933   6.343   0.169   4.255
 8345SOL    HW125934   6.372   0.079   4.287
 8345SOL    HW225935   6.337   0.232   4.333
 8346SOL     OW25936   5.635   4.140   3.415
 8346SOL    HW125937   5.590   4.174   3.332
 8346SOL    HW225938   5.571   4.081   3.465
 8347SOL     OW25939   1.265   1.136   6.464
 8347SOL    HW125940   1.204   1.185   6.402
 8347SOL    HW225941   1.224   1.047   6.487
 8348SOL     OW25942   3.546   5.939   0.966
 8348SOL    HW125943   3.456   5.897   0.978
 8348SOL    HW225944   3.606   5.911   1.040
 8349SOL     OW25945   4.180   5.695   1.152
 8349SOL    HW125946   4.176   5.627   1.078
 8349SOL    HW225947   4.158   5.785   1.115
 8350SOL     OW25948   2.188   0.276   6.692
 8350SOL    HW125949   2.213   0.346   6.625
 8350SOL    HW225950   2.217   0.186   6.659
 8351SOL     OW25951   6.948   3.207   2.915
 8351SOL    HW125952   6.961   3.254   3.002
 8351SOL    HW225953   6.951   3.108   2.930
 8352SOL     OW25954   2.411   6.944   5.973
 8352SOL    HW125955   2.500   6.938   5.928
 8352SOL    HW225956   2.374   0.013   5.962
 8353SOL     OW25957   0.541   5.794   2.468
 8353SOL    HW125958   0.626   5.744   2.481
 8353SOL    HW225959   0.545   5.881   2.517
 8354SOL     OW25960   4.645   2.504   3.500
 8354SOL    HW125961   4.730   2.460   3.471
 8354SOL    HW225962   4.649   2.525   3.598
 8355SOL     OW25963   3.459   4.709   5.968
 8355SOL    HW125964   3.493   4.701   6.062
 8355SOL    HW225965   3.390   4.781   5.963
 8356SOL     OW25966   3.116   2.793   1.730
 8356SOL    HW125967   3.052   2.729   1.775
 8356SOL    HW225968   3.210   2.763   1.748
 8357SOL     OW25969   2.673   6.762   4.705
 8357SOL    HW125970   2.687   6.704   4.626
 8357SOL    HW225971   2.575   6.782   4.715
 8358SOL     OW25972   0.106   0.650   4.250
 8358SOL    HW125973   0.116   0.688   4.342
 8358SOL    HW225974   0.009   0.633   4.232
 8359SOL     OW25975   4.781   2.169   4.796
 8359SOL    HW125976   4.858   2.153   4.735
 8359SOL    HW225977   4.765   2.086   4.851
 8360SOL     OW25978   3.056   0.253   2.430
 8360SOL    HW125979   3.106   0.167   2.421
 8360SOL    HW225980   3.082   0.315   2.356
 8361SOL     OW25981   4.660   1.094   0.216
 8361SOL    HW125982   4.685   1.095   0.313
 8361SOL    HW225983   4.644   1.188   0.185
 8362SOL     OW25984   0.651   4.692   1.714
 8362SOL    HW125985   0.697   4.717   1.799
 8362SOL    HW225986   0.598   4.608   1.729
 8363SOL     OW25987   2.255   2.137   0.990
 8363SOL    HW125988   2.295   2.084   0.916
 8363SOL    HW225989   2.170   2.093   1.021
 8364SOL     OW25990   0.289   1.131   3.620
 8364SOL    HW125991   0.265   1.223   3.590
 8364SOL    HW225992   0.270   1.121   3.718
 8365SOL     OW25993   1.816   2.700   1.008
 8365SOL    HW125994   1.832   2.799   1.009
 8365SOL    HW225995   1.899   2.654   0.977
 8366SOL     OW25996   4.998   5.884   1.806
 8366SOL    HW125997   5.045   5.938   1.875
 8366SOL    HW225998   4.968   5.797   1.845
 8367SOL     OW25999   2.237   4.662   3.415
 8367SOL    HW126000   2.269   4.699   3.502
 8367SOL    HW226001   2.308   4.603   3.376
 8368SOL     OW26002   1.006   3.375   6.435
 8368SOL    HW126003   0.960   3.442   6.377
 8368SOL    HW226004   0.940   3.333   6.496
 8369SOL     OW26005   1.127   0.321   0.202
 8369SOL    HW126006   1.220   0.360   0.201
 8369SOL    HW226007   1.114   0.265   0.120
 8370SOL     OW26008   2.926   2.607   0.646
 8370SOL    HW126009   2.945   2.601   0.548
 8370SOL    HW226010   2.861   2.681   0.662
 8371SOL     OW26011   3.229   4.359   5.519
 8371SOL    HW126012   3.234   4.428   5.591
 8371SOL    HW226013   3.177   4.396   5.442
 8372SOL     OW26014   1.565   0.189   2.729
 8372SOL    HW126015   1.526   0.097   2.737
 8372SOL    HW226016   1.629   0.204   2.803
 8373SOL     OW26017   5.402   0.662   4.233
 8373SOL    HW126018   5.408   0.563   4.242
 8373SOL    HW226019   5.378   0.702   4.322
 8374SOL     OW26020   0.838   1.935   3.514
 8374SOL    HW126021   0.858   1.838   3.512
 8374SOL    HW226022   0.856   1.975   3.424
 8375SOL     OW26023   2.031   2.758   5.948
 8375SOL    HW126024   2.003   2.662   5.941
 8375SOL    HW226025   2.130   2.765   5.943
 8376SOL     OW26026   0.694   1.423   4.066
 8376SOL    HW126027   0.620   1.460   4.010
 8376SOL    HW226028   0.768   1.490   4.073
 8377SOL     OW26029   3.557   4.763   0.938
 8377SOL    HW126030   3.585   4.814   1.019
 8377SOL    HW226031   3.480   4.809   0.894
 8378SOL     OW26032   4.567   5.606   4.838
 8378SOL    HW126033   4.517   5.522   4.860
 8378SOL    HW226034   4.529   5.646   4.755
 8379SOL     OW26035   5.643   2.653   1.915
 8379SOL    HW126036   5.738   2.621   1.918
 8379SOL    HW226037   5.589   2.593   1.856
 8380SOL     OW26038   1.816   5.114   3.266
 8380SOL    HW126039   1.786   5.022   3.239
 8380SOL    HW226040   1.805   5.124   3.365
 8381SOL     OW26041   1.251   2.307   2.494
 8381SOL    HW126042   1.181   2.364   2.539
 8381SOL    HW226043   1.324   2.288   2.560
 8382SOL     OW26044   1.410   0.175   1.841
 8382SOL    HW126045   1.382   0.232   1.764
 8382SOL    HW226046   1.351   0.095   1.846
 8383SOL     OW26047   2.199   6.851   4.943
 8383SOL    HW126048   2.288   6.844   4.898
 8383SOL    HW226049   2.172   6.947   4.949
 8384SOL     OW26050   0.469   3.870   3.606
 8384SOL    HW126051   0.540   3.913   3.661
 8384SOL    HW226052   0.383   3.920   3.617
 8385SOL     OW26053   4.456   2.392   2.486
 8385SOL    HW126054   4.369   2.344   2.495
 8385SOL    HW226055   4.480   2.399   2.389
 8386SOL     OW26056   6.748   5.579   1.755
 8386SOL    HW126057   6.732   5.640   1.832
 8386SOL    HW226058   6.660   5.558   1.711
 8387SOL     OW26059   0.340   1.882   3.393
 8387SOL    HW126060   0.412   1.942   3.428
 8387SOL    HW226061   0.251   1.928   3.401
 8388SOL     OW26062   4.034   5.780   2.079
 8388SOL    HW126063   3.999   5.753   1.989
 8388SOL    HW226064   4.004   5.713   2.147
 8389SOL     OW26065   1.323   2.649   4.575
 8389SOL    HW126066   1.322   2.735   4.625
 8389SOL    HW226067   1.412   2.637   4.530
 8390SOL     OW26068   1.795   6.904   6.377
 8390SOL    HW126069   1.702   6.906   6.413
 8390SOL    HW226070   1.847   6.980   6.415
 8391SOL     OW26071   4.673   6.329   0.662
 8391SOL    HW126072   4.734   6.250   0.659
 8391SOL    HW226073   4.677   6.372   0.753
 8392SOL     OW26074   3.753   5.504   0.328
 8392SOL    HW126075   3.830   5.441   0.315
 8392SOL    HW226076   3.785   5.598   0.311
 8393SOL     OW26077   1.337   6.403   1.858
 8393SOL    HW126078   1.406   6.411   1.786
 8393SOL    HW226079   1.245   6.409   1.818
 8394SOL     OW26080   1.729   1.217   3.393
 8394SOL    HW126081   1.682   1.284   3.450
 8394SOL    HW226082   1.672   1.135   3.385
 8395SOL     OW26083   2.487   5.908   6.386
 8395SOL    HW126084   2.513   5.995   6.343
 8395SOL    HW226085   2.549   5.836   6.357
 8396SOL     OW26086   4.301   2.003   0.781
 8396SOL    HW126087   4.222   2.027   0.725
 8396SOL    HW226088   4.334   2.085   0.829
 8397SOL     OW26089   0.409   4.307   3.367
 8397SOL    HW126090   0.507   4.300   3.350
 8397SOL    HW226091   0.366   4.217   3.356
 8398SOL     OW26092   5.528   1.247   6.842
 8398SOL    HW126093   5.539   1.303   6.759
 8398SOL    HW226094   5.453   1.182   6.829
 8399SOL     OW26095   5.751   6.286   5.355
 8399SOL    HW126096   5.794   6.283   5.265
 8399SOL    HW226097   5.821   6.272   5.426
 8400SOL     OW26098   5.975   6.130   3.397
 8400SOL    HW126099   6.055   6.098   3.346
 8400SOL    HW226100   5.998   6.215   3.445
 8401SOL     OW26101   2.883   3.690   5.406
 8401SOL    HW126102   2.859   3.593   5.400
 8401SOL    HW226103   2.812   3.745   5.362
 8402SOL     OW26104   5.095   1.144   5.284
 8402SOL    HW126105   5.150   1.157   5.201
 8402SOL    HW226106   5.100   1.048   5.312
 8403SOL     OW26107   0.669   2.036   6.154
 8403SOL    HW126108   0.759   2.007   6.188
 8403SOL    HW226109   0.604   2.035   6.229
 8404SOL     OW26110   4.855   5.061   5.653
 8404SOL    HW126111   4.828   5.143   5.600
 8404SOL    HW226112   4.894   5.089   5.740
 8405SOL     OW26113   0.784   2.625   6.006
 8405SOL    HW126114   0.764   2.711   5.958
 8405SOL    HW226115   0.859   2.640   6.071
 8406SOL     OW26116   5.575   3.914   1.102
 8406SOL    HW126117   5.492   3.952   1.142
 8406SOL    HW226118   5.645   3.904   1.172
 8407SOL     OW26119   5.148   3.763   2.410
 8407SOL    HW126120   5.134   3.782   2.507
 8407SOL    HW226121   5.135   3.665   2.393
 8408SOL     OW26122   4.745   4.188   3.918
 8408SOL    HW126123   4.770   4.130   3.995
 8408SOL    HW226124   4.792   4.155   3.836
 8409SOL     OW26125   1.979   2.142   3.787
 8409SOL    HW126126   1.922   2.224   3.782
 8409SOL    HW226127   1.977   2.095   3.699
 8410SOL     OW26128   2.142   5.089   2.535
 8410SOL    HW126129   2.111   5.114   2.626
 8410SOL    HW226130   2.239   5.113   2.525
 8411SOL     OW26131   1.630   3.431   2.927
 8411SOL    HW126132   1.618   3.520   2.971
 8411SOL    HW226133   1.693   3.440   2.850
 8412SOL     OW26134   6.019   2.692   2.422
 8412SOL    HW126135   5.958   2.769   2.409
 8412SOL    HW226136   5.969   2.606   2.407
 8413SOL     OW26137   2.156   6.109   1.718
 8413SOL    HW126138   2.080   6.171   1.697
 8413SOL    HW226139   2.224   6.113   1.645
 8414SOL     OW26140   6.075   0.474   3.957
 8414SOL    HW126141   6.166   0.448   3.990
 8414SOL    HW226142   6.010   0.471   4.033
 8415SOL     OW26143   0.457   5.291   1.168
 8415SOL    HW126144   0.486   5.337   1.252
 8415SOL    HW226145   0.403   5.210   1.192
 8416SOL     OW26146   4.420   4.701   3.289
 8416SOL    HW126147   4.465   4.761   3.355
 8416SOL    HW226148   4.486   4.678   3.217
 8417SOL     OW26149   0.982   5.484   0.293
 8417SOL    HW126150   0.936   5.554   0.347
 8417SOL    HW226151   0.930   5.468   0.209
 8418SOL     OW26152   5.144   5.721   2.639
 8418SOL    HW126153   5.107   5.764   2.721
 8418SOL    HW226154   5.136   5.622   2.647
 8419SOL     OW26155   3.322   1.489   3.352
 8419SOL    HW126156   3.300   1.537   3.267
 8419SOL    HW226157   3.383   1.412   3.333
 8420SOL     OW26158   4.775   1.868   5.360
 8420SOL    HW126159   4.737   1.780   5.387
 8420SOL    HW226160   4.725   1.942   5.406
 8421SOL     OW26161   0.312   0.958   0.702
 8421SOL    HW126162   0.320   1.056   0.722
 8421SOL    HW226163   0.401   0.914   0.714
 8422SOL     OW26164   2.575   0.713   1.652
 8422SOL    HW126165   2.533   0.729   1.563
 8422SOL    HW226166   2.620   0.797   1.684
 8423SOL     OW26167   1.952   4.426   1.109
 8423SOL    HW126168   1.983   4.482   1.032
 8423SOL    HW226169   1.925   4.336   1.075
 8424SOL     OW26170   2.673   2.268   1.861
 8424SOL    HW126171   2.755   2.311   1.898
 8424SOL    HW226172   2.697   2.177   1.826
 8425SOL     OW26173   0.641   4.806   5.879
 8425SOL    HW126174   0.713   4.790   5.946
 8425SOL    HW226175   0.643   4.902   5.851
 8426SOL     OW26176   3.706   3.293   2.534
 8426SOL    HW126177   3.644   3.274   2.458
 8426SOL    HW226178   3.800   3.275   2.505
 8427SOL     OW26179   2.204   1.707   6.887
 8427SOL    HW126180   2.260   1.787   6.864
 8427SOL    HW226181   2.263   1.626   6.888
 8428SOL     OW26182   5.947   3.663   0.799
 8428SOL    HW126183   5.983   3.741   0.748
 8428SOL    HW226184   6.021   3.597   0.814
 8429SOL     OW26185   1.235   6.779   3.012
 8429SOL    HW126186   1.333   6.786   3.033
 8429SOL    HW226187   1.216   6.826   2.926
 8430SOL     OW26188   3.668   5.921   2.581
 8430SOL    HW126189   3.667   5.852   2.509
 8430SOL    HW226190   3.663   5.877   2.670
 8431SOL     OW26191   2.907   3.414   2.488
 8431SOL    HW126192   2.963   3.332   2.472
 8431SOL    HW226193   2.863   3.441   2.402
 8432SOL     OW26194   4.659   5.882   7.022
 8432SOL    HW126195   4.692   5.977   7.019
 8432SOL    HW226196   4.559   5.881   7.015
 8433SOL     OW26197   6.794   1.693   4.022
 8433SOL    HW126198   6.851   1.766   4.061
 8433SOL    HW226199   6.753   1.640   4.096
 8434SOL     OW26200   5.479   6.269   6.731
 8434SOL    HW126201   5.575   6.282   6.757
 8434SOL    HW226202   5.420   6.306   6.802
 8435SOL     OW26203   4.407   3.354   0.888
 8435SOL    HW126204   4.483   3.330   0.948
 8435SOL    HW226205   4.374   3.273   0.841
 8436SOL     OW26206   3.049   4.306   1.708
 8436SOL    HW126207   2.992   4.364   1.765
 8436SOL    HW226208   3.142   4.304   1.744
 8437SOL     OW26209   0.160   2.898   1.148
 8437SOL    HW126210   0.123   2.956   1.221
 8437SOL    HW226211   0.117   2.808   1.153
 8438SOL     OW26212   2.052   5.565   1.661
 8438SOL    HW126213   2.033   5.475   1.701
 8438SOL    HW226214   2.149   5.571   1.638
 8439SOL     OW26215   5.445   0.461   1.747
 8439SOL    HW126216   5.516   0.520   1.711
 8439SOL    HW226217   5.438   0.378   1.691
 8440SOL     OW26218   0.976   3.410   4.240
 8440SOL    HW126219   1.035   3.395   4.160
 8440SOL    HW226220   1.024   3.468   4.306
 8441SOL     OW26221   3.897   5.774   1.233
 8441SOL    HW126222   3.857   5.730   1.313
 8441SOL    HW226223   3.994   5.790   1.249
 8442SOL     OW26224   2.055   2.713   0.591
 8442SOL    HW126225   2.084   2.760   0.508
 8442SOL    HW226226   1.987   2.644   0.569
 8443SOL     OW26227   0.038   2.383   1.401
 8443SOL    HW126228   0.059   2.313   1.468
 8443SOL    HW226229   0.097   2.462   1.415
 8444SOL     OW26230   4.980   2.104   3.336
 8444SOL    HW126231   4.937   2.015   3.350
 8444SOL    HW226232   4.997   2.147   3.425
 8445SOL     OW26233   4.266   5.635   1.960
 8445SOL    HW126234   4.361   5.627   1.992
 8445SOL    HW226235   4.232   5.726   1.980
 8446SOL     OW26236   6.369   3.907   3.205
 8446SOL    HW126237   6.455   3.880   3.248
 8446SOL    HW226238   6.294   3.892   3.269
 8447SOL     OW26239   4.637   4.453   1.077
 8447SOL    HW126240   4.716   4.442   1.016
 8447SOL    HW226241   4.637   4.547   1.113
 8448SOL     OW26242   1.839   4.463   5.802
 8448SOL    HW126243   1.868   4.470   5.706
 8448SOL    HW226244   1.744   4.495   5.810
 8449SOL     OW26245   1.263   0.429   4.968
 8449SOL    HW126246   1.215   0.343   4.983
 8449SOL    HW226247   1.307   0.458   5.053
 8450SOL     OW26248   1.315   5.426   0.695
 8450SOL    HW126249   1.345   5.408   0.788
 8450SOL    HW226250   1.307   5.340   0.645
 8451SOL     OW26251   2.981   4.323   1.148
 8451SOL    HW126252   2.972   4.225   1.132
 8451SOL    HW226253   3.003   4.369   1.062
 8452SOL     OW26254   6.378   5.655   2.561
 8452SOL    HW126255   6.316   5.604   2.621
 8452SOL    HW226256   6.363   5.753   2.573
 8453SOL     OW26257   0.312   4.990   5.470
 8453SOL    HW126258   0.326   4.962   5.565
 8453SOL    HW226259   0.385   4.952   5.414
 8454SOL     OW26260   2.078   0.162   5.326
 8454SOL    HW126261   2.094   0.067   5.298
 8454SOL    HW226262   2.150   0.220   5.287
 8455SOL     OW26263   6.050   2.514   0.767
 8455SOL    HW126264   6.063   2.454   0.688
 8455SOL    HW226265   6.132   2.511   0.824
 8456SOL     OW26266   5.924   4.669   3.324
 8456SOL    HW126267   5.891   4.584   3.364
 8456SOL    HW226268   5.998   4.706   3.380
 8457SOL     OW26269   6.070   6.207   6.342
 8457SOL    HW126270   6.091   6.303   6.330
 8457SOL    HW226271   6.151   6.158   6.376
 8458SOL     OW26272   1.355   1.701   1.095
 8458SOL    HW126273   1.276   1.651   1.130
 8458SOL    HW226274   1.338   1.800   1.104
 8459SOL     OW26275   2.728   5.134   3.311
 8459SOL    HW126276   2.785   5.067   3.359
 8459SOL    HW226277   2.780   5.218   3.296
 8460SOL     OW26278   3.754   1.223   1.273
 8460SOL    HW126279   3.813   1.145   1.251
 8460SOL    HW226280   3.692   1.197   1.347
 8461SOL     OW26281   5.532   4.244   3.171
 8461SOL    HW126282   5.432   4.252   3.172
 8461SOL    HW226283   5.557   4.153   3.138
 8462SOL     OW26284   1.739   4.099   0.732
 8462SOL    HW126285   1.755   4.192   0.699
 8462SOL    HW226286   1.822   4.065   0.776
 8463SOL     OW26287   7.011   6.675   1.484
 8463SOL    HW126288   6.953   6.738   1.535
 8463SOL    HW226289   0.071   6.722   1.454
 8464SOL     OW26290   0.319   3.182   6.869
 8464SOL    HW126291   0.340   3.153   6.776
 8464SOL    HW226292   0.391   3.151   6.930
 8465SOL     OW26293   5.518   4.610   0.269
 8465SOL    HW126294   5.566   4.646   0.190
 8465SOL    HW226295   5.421   4.635   0.263
 8466SOL     OW26296   0.866   1.484   4.972
 8466SOL    HW126297   0.786   1.529   4.933
 8466SOL    HW226298   0.905   1.421   4.905
 8467SOL     OW26299   3.182   1.273   0.890
 8467SOL    HW126300   3.221   1.364   0.875
 8467SOL    HW226301   3.236   1.205   0.841
 8468SOL     OW26302   6.215   4.152   0.688
 8468SOL    HW126303   6.204   4.077   0.624
 8468SOL    HW226304   6.230   4.116   0.780
 8469SOL     OW26305   3.464   3.051   5.180
 8469SOL    HW126306   3.467   2.994   5.262
 8469SOL    HW226307   3.405   3.008   5.112
 8470SOL     OW26308   2.076   5.367   1.115
 8470SOL    HW126309   2.146   5.340   1.182
 8470SOL    HW226310   2.109   5.445   1.062
 8471SOL     OW26311   4.076   1.549   3.836
 8471SOL    HW126312   4.053   1.457   3.802
 8471SOL    HW226313   4.175   1.555   3.850
 8472SOL     OW26314   5.930   1.741   6.664
 8472SOL    HW126315   5.943   1.818   6.726
 8472SOL    HW226316   5.840   1.700   6.682
 8473SOL     OW26317   4.778   4.922   6.020
 8473SOL    HW126318   4.833   4.869   6.086
 8473SOL    HW226319   4.754   4.864   5.943
 8474SOL     OW26320   3.685   3.544   5.765
 8474SOL    HW126321   3.636   3.460   5.789
 8474SOL    HW226322   3.783   3.527   5.769
 8475SOL     OW26323   0.324   1.707   2.585
 8475SOL    HW126324   0.283   1.636   2.642
 8475SOL    HW226325   0.276   1.794   2.599
 8476SOL     OW26326   0.122   1.015   2.374
 8476SOL    HW126327   0.103   0.940   2.438
 8476SOL    HW226328   0.215   1.048   2.389
 8477SOL     OW26329   5.452   6.775   1.068
 8477SOL    HW126330   5.400   6.759   0.984
 8477SOL    HW226331   5.478   6.688   1.109
 8478SOL     OW26332   1.684   6.421   6.954
 8478SOL    HW126333   1.619   6.396   6.882
 8478SOL    HW226334   1.687   6.348   7.022
 8479SOL     OW26335   1.222   2.365   0.152
 8479SOL    HW126336   1.143   2.355   0.212
 8479SOL    HW226337   1.245   2.276   0.112
 8480SOL     OW26338   3.323   4.376   1.558
 8480SOL    HW126339   3.342   4.467   1.596
 8480SOL    HW226340   3.248   4.382   1.493
 8481SOL     OW26341   4.958   3.546   2.338
 8481SOL    HW126342   4.980   3.467   2.280
 8481SOL    HW226343   4.921   3.620   2.280
 8482SOL     OW26344   4.811   0.493   5.562
 8482SOL    HW126345   4.893   0.489   5.619
 8482SOL    HW226346   4.838   0.514   5.468
 8483SOL     OW26347   4.442   5.426   3.629
 8483SOL    HW126348   4.518   5.486   3.602
 8483SOL    HW226349   4.478   5.341   3.668
 8484SOL     OW26350   6.741   6.919   5.262
 8484SOL    HW126351   6.769   6.933   5.357
 8484SOL    HW226352   6.691   6.833   5.254
 8485SOL     OW26353   3.799   0.512   5.675
 8485SOL    HW126354   3.849   0.590   5.714
 8485SOL    HW226355   3.713   0.544   5.635
 8486SOL     OW26356   4.868   2.423   4.520
 8486SOL    HW126357   4.850   2.438   4.617
 8486SOL    HW226358   4.844   2.505   4.469
 8487SOL     OW26359   0.046   1.923   5.907
 8487SOL    HW126360   0.087   1.976   5.981
 8487SOL    HW226361   6.978   1.958   5.888
 8488SOL     OW26362   3.976   5.097   3.278
 8488SOL    HW126363   3.974   5.154   3.195
 8488SOL    HW226364   4.064   5.049   3.283
 8489SOL     OW26365   6.658   2.083   1.913
 8489SOL    HW126366   6.559   2.089   1.930
 8489SOL    HW226367   6.694   2.174   1.897
 8490SOL     OW26368   3.934   6.619   0.508
 8490SOL    HW126369   3.990   6.649   0.431
 8490SOL    HW226370   3.981   6.544   0.556
 8491SOL     OW26371   3.206   5.811   2.573
 8491SOL    HW126372   3.236   5.817   2.478
 8491SOL    HW226373   3.106   5.817   2.578
 8492SOL     OW26374   5.528   7.022   4.092
 8492SOL    HW126375   5.496   6.929   4.075
 8492SOL    HW226376   5.525   0.051   4.006
 8493SOL     OW26377   5.097   0.256   5.816
 8493SOL    HW126378   5.060   0.318   5.886
 8493SOL    HW226379   5.030   0.185   5.796
 8494SOL     OW26380   6.875   3.628   2.363
 8494SOL    HW126381   6.871   3.628   2.263
 8494SOL    HW226382   6.788   3.662   2.400
 8495SOL     OW26383   5.117   5.882   5.010
 8495SOL    HW126384   5.214   5.859   5.015
 8495SOL    HW226385   5.064   5.812   5.058
 8496SOL     OW26386   4.060   2.157   2.728
 8496SOL    HW126387   4.037   2.065   2.758
 8496SOL    HW226388   4.068   2.217   2.808
 8497SOL     OW26389   6.452   0.612   3.148
 8497SOL    HW126390   6.429   0.709   3.134
 8497SOL    HW226391   6.485   0.573   3.063
 8498SOL     OW26392   5.003   6.588   4.520
 8498SOL    HW126393   5.043   6.622   4.435
 8498SOL    HW226394   5.051   6.506   4.551
 8499SOL     OW26395   6.156   6.933   5.573
 8499SOL    HW126396   6.141   6.834   5.580
 8499SOL    HW226397   6.103   6.980   5.644
 8500SOL     OW26398   0.938   0.596   6.602
 8500SOL    HW126399   1.015   0.634   6.654
 8500SOL    HW226400   0.929   0.499   6.621
 8501SOL     OW26401   3.528   1.031   5.014
 8501SOL    HW126402   3.624   1.004   5.007
 8501SOL    HW226403   3.516   1.090   5.094
 8502SOL     OW26404   6.594   2.950   0.264
 8502SOL    HW126405   6.650   3.023   0.304
 8502SOL    HW226406   6.505   2.987   0.238
 8503SOL     OW26407   4.332   1.913   5.853
 8503SOL    HW126408   4.241   1.873   5.848
 8503SOL    HW226409   4.378   1.905   5.765
 8504SOL     OW26410   1.220   0.734   3.209
 8504SOL    HW126411   1.158   0.733   3.131
 8504SOL    HW226412   1.288   0.661   3.198
 8505SOL     OW26413   5.883   1.951   2.786
 8505SOL    HW126414   5.982   1.961   2.798
 8505SOL    HW226415   5.846   1.891   2.857
 8506SOL     OW26416   1.925   0.893   4.954
 8506SOL    HW126417   2.018   0.871   4.985
 8506SOL    HW226418   1.895   0.979   4.996
 8507SOL     OW26419   4.597   4.639   6.540
 8507SOL    HW126420   4.528   4.608   6.604
 8507SOL    HW226421   4.683   4.657   6.588
 8508SOL     OW26422   4.037   0.605   6.386
 8508SOL    HW126423   4.122   0.595   6.335
 8508SOL    HW226424   4.038   0.691   6.437
 8509SOL     OW26425   4.322   1.977   2.265
 8509SOL    HW126426   4.325   1.975   2.365
 8509SOL    HW226427   4.315   2.072   2.234
 8510SOL     OW26428   0.713   2.118   4.903
 8510SOL    HW126429   0.798   2.113   4.956
 8510SOL    HW226430   0.676   2.211   4.907
 8511SOL     OW26431   5.605   2.164   4.017
 8511SOL    HW126432   5.577   2.082   4.068
 8511SOL    HW226433   5.695   2.194   4.049
 8512SOL     OW26434   1.673   6.350   6.056
 8512SOL    HW126435   1.638   6.441   6.077
 8512SOL    HW226436   1.756   6.359   6.000
 8513SOL     OW26437   4.007   5.539   6.636
 8513SOL    HW126438   4.102   5.511   6.624
 8513SOL    HW226439   3.957   5.526   6.550
 8514SOL     OW26440   4.264   5.527   4.522
 8514SOL    HW126441   4.266   5.481   4.610
 8514SOL    HW226442   4.226   5.466   4.453
 8515SOL     OW26443   5.306   3.105   1.732
 8515SOL    HW126444   5.324   3.023   1.787
 8515SOL    HW226445   5.365   3.104   1.651
 8516SOL     OW26446   6.767   2.327   1.356
 8516SOL    HW126447   6.722   2.340   1.445
 8516SOL    HW226448   6.860   2.363   1.361
 8517SOL     OW26449   1.141   3.900   4.563
 8517SOL    HW126450   1.185   3.974   4.613
 8517SOL    HW226451   1.154   3.914   4.465
 8518SOL     OW26452   3.769   5.713   0.732
 8518SOL    HW126453   3.673   5.739   0.727
 8518SOL    HW226454   3.815   5.737   0.647
 8519SOL     OW26455   2.650   5.471   3.505
 8519SOL    HW126456   2.706   5.525   3.568
 8519SOL    HW226457   2.697   5.460   3.418
 8520SOL     OW26458   3.527   5.658   6.753
 8520SOL    HW126459   3.540   5.738   6.811
 8520SOL    HW226460   3.609   5.601   6.757
 8521SOL     OW26461   1.004   0.969   2.808
 8521SOL    HW126462   0.983   1.057   2.850
 8521SOL    HW226463   0.945   0.955   2.728
 8522SOL     OW26464   2.226   6.453   4.402
 8522SOL    HW126465   2.248   6.413   4.313
 8522SOL    HW226466   2.230   6.383   4.472
 8523SOL     OW26467   1.839   6.140   6.715
 8523SOL    HW126468   1.909   6.191   6.765
 8523SOL    HW226469   1.753   6.142   6.765
 8524SOL     OW26470   1.851   1.527   6.968
 8524SOL    HW126471   1.913   1.492   6.897
 8524SOL    HW226472   1.779   1.460   6.984
 8525SOL     OW26473   5.813   4.529   4.351
 8525SOL    HW126474   5.725   4.490   4.378
 8525SOL    HW226475   5.806   4.566   4.258
 8526SOL     OW26476   0.477   3.053   1.977
 8526SOL    HW126477   0.415   3.128   1.999
 8526SOL    HW226478   0.492   2.996   2.058
 8527SOL     OW26479   4.913   0.510   5.013
 8527SOL    HW126480   4.995   0.453   5.004
 8527SOL    HW226481   4.908   0.573   4.936
 8528SOL     OW26482   5.474   0.337   0.320
 8528SOL    HW126483   5.395   0.277   0.327
 8528SOL    HW226484   5.541   0.312   0.390
 8529SOL     OW26485   6.877   0.310   4.637
 8529SOL    HW126486   6.784   0.343   4.649
 8529SOL    HW226487   6.942   0.386   4.648
 8530SOL     OW26488   2.034   4.704   6.277
 8530SOL    HW126489   2.107   4.709   6.209
 8530SOL    HW226490   2.055   4.765   6.353
 8531SOL     OW26491   3.758   5.756   2.804
 8531SOL    HW126492   3.760   5.743   2.903
 8531SOL    HW226493   3.845   5.794   2.773
 8532SOL     OW26494   1.348   4.056   6.874
 8532SOL    HW126495   1.262   4.107   6.867
 8532SOL    HW226496   1.349   3.984   6.804
 8533SOL     OW26497   3.067   0.316   6.048
 8533SOL    HW126498   3.153   0.336   6.095
 8533SOL    HW226499   3.046   0.219   6.055
 8534SOL     OW26500   2.230   2.433   0.777
 8534SOL    HW126501   2.275   2.461   0.692
 8534SOL    HW226502   2.153   2.373   0.756
 8535SOL     OW26503   0.126   2.522   6.160
 8535SOL    HW126504   0.094   2.455   6.227
 8535SOL    HW226505   0.224   2.540   6.175
 8536SOL     OW26506   6.211   0.769   5.887
 8536SOL    HW126507   6.303   0.807   5.889
 8536SOL    HW226508   6.144   0.843   5.884
 8537SOL     OW26509   3.588   6.148   3.169
 8537SOL    HW126510   3.613   6.149   3.266
 8537SOL    HW226511   3.499   6.193   3.157
 8538SOL     OW26512   4.245   1.086   5.052
 8538SOL    HW126513   4.292   1.160   5.003
 8538SOL    HW226514   4.306   1.048   5.122
 8539SOL     OW26515   0.717   3.098   3.230
 8539SOL    HW126516   0.674   3.013   3.203
 8539SOL    HW226517   0.716   3.162   3.153
 8540SOL     OW26518   4.834   6.066   6.116
 8540SOL    HW126519   4.796   6.112   6.035
 8540SOL    HW226520   4.934   6.065   6.110
 8541SOL     OW26521   3.386   5.794   5.543
 8541SOL    HW126522   3.309   5.771   5.484
 8541SOL    HW226523   3.396   5.893   5.548
 8542SOL     OW26524   2.306   4.803   6.138
 8542SOL    HW126525   2.323   4.880   6.077
 8542SOL    HW226526   2.384   4.740   6.135
 8543SOL     OW26527   3.611   1.484   5.293
 8543SOL    HW126528   3.560   1.562   5.329
 8543SOL    HW226529   3.683   1.458   5.357
 8544SOL     OW26530   5.125   3.653   5.929
 8544SOL    HW126531   5.140   3.722   5.858
 8544SOL    HW226532   5.207   3.597   5.937
 8545SOL     OW26533   2.170   0.455   5.867
 8545SOL    HW126534   2.207   0.536   5.912
 8545SOL    HW226535   2.075   0.473   5.841
 8546SOL     OW26536   2.751   1.355   4.259
 8546SOL    HW126537   2.757   1.272   4.314
 8546SOL    HW226538   2.689   1.420   4.303
 8547SOL     OW26539   5.764   5.317   5.356
 8547SOL    HW126540   5.764   5.247   5.428
 8547SOL    HW226541   5.714   5.397   5.389
 8548SOL     OW26542   1.476   4.310   4.508
 8548SOL    HW126543   1.569   4.319   4.545
 8548SOL    HW226544   1.450   4.395   4.462
 8549SOL     OW26545   2.852   0.459   3.611
 8549SOL    HW126546   2.862   0.413   3.700
 8549SOL    HW226547   2.943   0.473   3.571
 8550SOL     OW26548   0.487   3.430   5.005
 8550SOL    HW126549   0.533   3.363   5.064
 8550SOL    HW226550   0.526   3.426   4.913
 8551SOL     OW26551   3.688   1.620   3.705
 8551SOL    HW126552   3.766   1.666   3.664
 8551SOL    HW226553   3.612   1.617   3.639
 8552SOL     OW26554   4.326   1.311   1.906
 8552SOL    HW126555   4.235   1.346   1.885
 8552SOL    HW226556   4.389   1.387   1.920
 8553SOL     OW26557   5.366   3.464   0.339
 8553SOL    HW126558   5.379   3.439   0.435
 8553SOL    HW226559   5.327   3.387   0.290
 8554SOL     OW26560   0.741   1.218   6.804
 8554SOL    HW126561   0.721   1.156   6.728
 8554SOL    HW226562   0.673   1.204   6.877
 8555SOL     OW26563   3.312   1.678   3.682
 8555SOL    HW126564   3.362   1.739   3.744
 8555SOL    HW226565   3.371   1.657   3.603
 8556SOL     OW26566   0.424   4.037   5.303
 8556SOL    HW126567   0.480   3.984   5.366
 8556SOL    HW226568   0.475   4.117   5.271
 8557SOL     OW26569   6.333   0.602   0.714
 8557SOL    HW126570   6.397   0.657   0.661
 8557SOL    HW226571   6.242   0.606   0.672
 8558SOL     OW26572   2.519   6.154   3.353
 8558SOL    HW126573   2.552   6.070   3.395
 8558SOL    HW226574   2.532   6.149   3.254
 8559SOL     OW26575   1.569   3.139   3.352
 8559SOL    HW126576   1.623   3.173   3.275
 8559SOL    HW226577   1.477   3.116   3.319
 8560SOL     OW26578   3.581   4.275   1.513
 8560SOL    HW126579   3.582   4.177   1.496
 8560SOL    HW226580   3.486   4.305   1.528
 8561SOL     OW26581   3.986   1.014   2.068
 8561SOL    HW126582   3.980   1.042   1.972
 8561SOL    HW226583   3.983   0.914   2.073
 8562SOL     OW26584   5.533   3.021   6.118
 8562SOL    HW126585   5.545   2.988   6.025
 8562SOL    HW226586   5.475   2.957   6.169
 8563SOL     OW26587   0.649   4.786   2.773
 8563SOL    HW126588   0.635   4.875   2.816
 8563SOL    HW226589   0.724   4.738   2.819
 8564SOL     OW26590   4.309   6.259   6.834
 8564SOL    HW126591   4.351   6.339   6.793
 8564SOL    HW226592   4.210   6.273   6.841
 8565SOL     OW26593   0.917   4.926   1.237
 8565SOL    HW126594   0.991   4.960   1.294
 8565SOL    HW226595   0.923   4.969   1.146
 8566SOL     OW26596   1.836   0.814   3.199
 8566SOL    HW126597   1.922   0.852   3.233
 8566SOL    HW226598   1.791   0.880   3.139
 8567SOL     OW26599   1.479   3.348   0.851
 8567SOL    HW126600   1.444   3.350   0.944
 8567SOL    HW226601   1.403   3.341   0.787
 8568SOL     OW26602   5.662   6.727   6.557
 8568SOL    HW126603   5.650   6.825   6.571
 8568SOL    HW226604   5.573   6.681   6.564
 8569SOL     OW26605   4.575   1.181   6.161
 8569SOL    HW126606   4.661   1.230   6.179
 8569SOL    HW226607   4.559   1.179   6.062
 8570SOL     OW26608   1.557   2.607   4.394
 8570SOL    HW126609   1.593   2.677   4.456
 8570SOL    HW226610   1.631   2.543   4.371
 8571SOL     OW26611   1.197   0.927   3.875
 8571SOL    HW126612   1.224   0.965   3.787
 8571SOL    HW226613   1.108   0.884   3.867
 8572SOL     OW26614   2.565   3.434   6.047
 8572SOL    HW126615   2.631   3.499   6.009
 8572SOL    HW226616   2.604   3.342   6.044
 8573SOL     OW26617   1.831   5.974   6.353
 8573SOL    HW126618   1.814   6.049   6.289
 8573SOL    HW226619   1.847   5.889   6.302
 8574SOL     OW26620   5.627   2.356   5.401
 8574SOL    HW126621   5.626   2.419   5.478
 8574SOL    HW226622   5.589   2.402   5.320
 8575SOL     OW26623   2.545   6.354   4.447
 8575SOL    HW126624   2.451   6.327   4.425
 8575SOL    HW226625   2.608   6.281   4.418
 8576SOL     OW26626   1.411   3.764   4.883
 8576SOL    HW126627   1.420   3.863   4.875
 8576SOL    HW226628   1.470   3.731   4.957
 8577SOL     OW26629   1.705   1.036   0.768
 8577SOL    HW126630   1.654   1.121   0.771
 8577SOL    HW226631   1.787   1.048   0.711
 8578SOL     OW26632   1.474   0.184   5.728
 8578SOL    HW126633   1.503   0.260   5.787
 8578SOL    HW226634   1.495   0.206   5.632
 8579SOL     OW26635   2.753   0.082   2.033
 8579SOL    HW126636   2.818   0.011   2.063
 8579SOL    HW226637   2.663   0.062   2.071
 8580SOL     OW26638   1.604   0.802   1.866
 8580SOL    HW126639   1.574   0.708   1.881
 8580SOL    HW226640   1.532   0.852   1.817
 8581SOL     OW26641   4.114   3.687   3.635
 8581SOL    HW126642   4.080   3.622   3.703
 8581SOL    HW226643   4.211   3.706   3.651
 8582SOL     OW26644   4.911   5.357   5.644
 8582SOL    HW126645   4.828   5.335   5.695
 8582SOL    HW226646   4.905   5.451   5.610
 8583SOL     OW26647   3.205   0.253   2.837
 8583SOL    HW126648   3.157   0.167   2.823
 8583SOL    HW226649   3.232   0.261   2.933
 8584SOL     OW26650   5.588   2.129   5.579
 8584SOL    HW126651   5.573   2.211   5.524
 8584SOL    HW226652   5.682   2.096   5.566
 8585SOL     OW26653   4.832   2.222   3.129
 8585SOL    HW126654   4.768   2.149   3.107
 8585SOL    HW226655   4.905   2.187   3.188
 8586SOL     OW26656   6.520   6.878   5.605
 8586SOL    HW126657   6.518   6.976   5.623
 8586SOL    HW226658   6.531   6.829   5.692
 8587SOL     OW26659   6.864   0.048   1.002
 8587SOL    HW126660   6.813   6.986   0.997
 8587SOL    HW226661   6.895   0.062   1.096
 8588SOL     OW26662   1.646   1.636   5.561
 8588SOL    HW126663   1.710   1.699   5.518
 8588SOL    HW226664   1.584   1.598   5.491
 8589SOL     OW26665   5.970   3.080   6.796
 8589SOL    HW126666   5.918   3.158   6.760
 8589SOL    HW226667   6.018   3.108   6.879
 8590SOL     OW26668   0.958   1.034   3.120
 8590SOL    HW126669   1.054   1.050   3.144
 8590SOL    HW226670   0.914   1.122   3.099
 8591SOL     OW26671   0.891   3.854   5.800
 8591SOL    HW126672   0.970   3.903   5.838
 8591SOL    HW226673   0.856   3.904   5.721
 8592SOL     OW26674   0.112   2.321   4.660
 8592SOL    HW126675   0.055   2.291   4.737
 8592SOL    HW226676   0.180   2.250   4.640
 8593SOL     OW26677   6.392   1.086   0.399
 8593SOL    HW126678   6.462   1.155   0.413
 8593SOL    HW226679   6.433   1.005   0.358
 8594SOL     OW26680   6.326   3.534   6.708
 8594SOL    HW126681   6.375   3.448   6.720
 8594SOL    HW226682   6.227   3.518   6.717
 8595SOL     OW26683   5.437   6.437   2.559
 8595SOL    HW126684   5.342   6.458   2.536
 8595SOL    HW226685   5.470   6.502   2.626
 8596SOL     OW26686   0.385   2.615   5.691
 8596SOL    HW126687   0.296   2.588   5.727
 8596SOL    HW226688   0.405   2.565   5.607
 8597SOL     OW26689   6.410   2.502   5.616
 8597SOL    HW126690   6.349   2.479   5.691
 8597SOL    HW226691   6.390   2.595   5.584
 8598SOL     OW26692   6.997   0.601   5.801
 8598SOL    HW126693   0.023   0.619   5.716
 8598SOL    HW226694   6.981   0.687   5.849
 8599SOL     OW26695   5.523   4.256   4.948
 8599SOL    HW126696   5.529   4.187   5.020
 8599SOL    HW226697   5.480   4.339   4.986
 8600SOL     OW26698   4.120   2.799   1.726
 8600SOL    HW126699   4.175   2.766   1.650
 8600SOL    HW226700   4.146   2.894   1.748
 8601SOL     OW26701   4.306   5.231   2.034
 8601SOL    HW126702   4.354   5.265   1.954
 8601SOL    HW226703   4.269   5.307   2.087
 8602SOL     OW26704   1.914   6.316   4.895
 8602SOL    HW126705   1.971   6.317   4.977
 8602SOL    HW226706   1.845   6.243   4.904
 8603SOL     OW26707   0.965   1.109   6.960
 8603SOL    HW126708   0.910   1.152   6.888
 8603SOL    HW226709   1.044   1.168   6.981
 8604SOL     OW26710   1.573   5.446   6.212
 8604SOL    HW126711   1.654   5.503   6.221
 8604SOL    HW226712   1.599   5.353   6.184
 8605SOL     OW26713   6.452   4.438   4.132
 8605SOL    HW126714   6.367   4.476   4.170
 8605SOL    HW226715   6.526   4.505   4.142
 8606SOL     OW26716   0.879   0.334   6.661
 8606SOL    HW126717   0.881   0.238   6.634
 8606SOL    HW226718   0.847   0.341   6.755
 8607SOL     OW26719   2.880   2.723   1.421
 8607SOL    HW126720   2.786   2.689   1.429
 8607SOL    HW226721   2.881   2.822   1.435
 8608SOL     OW26722   1.943   5.002   1.740
 8608SOL    HW126723   1.950   5.084   1.796
 8608SOL    HW226724   2.031   4.953   1.742
 8609SOL     OW26725   4.834   2.233   4.323
 8609SOL    HW126726   4.810   2.278   4.409
 8609SOL    HW226727   4.856   2.302   4.254
 8610SOL     OW26728   7.002   5.515   2.382
 8610SOL    HW126729   0.009   5.563   2.464
 8610SOL    HW226730   6.984   5.419   2.404
 8611SOL     OW26731   1.910   1.564   5.728
 8611SOL    HW126732   1.873   1.566   5.635
 8611SOL    HW226733   1.952   1.652   5.749
 8612SOL     OW26734   3.121   3.286   5.732
 8612SOL    HW126735   3.214   3.318   5.747
 8612SOL    HW226736   3.101   3.289   5.634
 8613SOL     OW26737   3.004   3.579   3.460
 8613SOL    HW126738   2.916   3.613   3.492
 8613SOL    HW226739   3.077   3.616   3.517
 8614SOL     OW26740   0.326   3.148   4.073
 8614SOL    HW126741   0.344   3.245   4.082
 8614SOL    HW226742   0.230   3.134   4.046
 8615SOL     OW26743   3.826   1.043   4.979
 8615SOL    HW126744   3.873   0.966   5.022
 8615SOL    HW226745   3.877   1.072   4.898
 8616SOL     OW26746   6.126   4.212   5.162
 8616SOL    HW126747   6.084   4.290   5.209
 8616SOL    HW226748   6.056   4.161   5.113
 8617SOL     OW26749   0.864   0.121   3.590
 8617SOL    HW126750   0.897   0.033   3.556
 8617SOL    HW226751   0.779   0.107   3.640
 8618SOL     OW26752   6.493   5.134   0.568
 8618SOL    HW126753   6.521   5.047   0.608
 8618SOL    HW226754   6.572   5.179   0.526
 8619SOL     OW26755   5.906   5.300   6.499
 8619SOL    HW126756   5.873   5.347   6.417
 8619SOL    HW226757   5.931   5.206   6.475
 8620SOL     OW26758   1.393   6.582   4.066
 8620SOL    HW126759   1.358   6.631   3.986
 8620SOL    HW226760   1.417   6.488   4.040
 8621SOL     OW26761   6.147   3.588   1.304
 8621SOL    HW126762   6.163   3.490   1.304
 8621SOL    HW226763   6.067   3.609   1.246
 8622SOL     OW26764   0.963   5.960   1.647
 8622SOL    HW126765   1.018   5.896   1.700
 8622SOL    HW226766   0.895   5.909   1.593
 8623SOL     OW26767   2.242   2.025   3.152
 8623SOL    HW126768   2.230   2.117   3.189
 8623SOL    HW226769   2.242   2.030   3.052
 8624SOL     OW26770   3.060   3.582   5.936
 8624SOL    HW126771   3.158   3.579   5.915
 8624SOL    HW226772   3.044   3.545   6.028
 8625SOL     OW26773   4.349   3.210   6.088
 8625SOL    HW126774   4.344   3.303   6.053
 8625SOL    HW226775   4.389   3.210   6.180
 8626SOL     OW26776   5.310   1.763   1.041
 8626SOL    HW126777   5.326   1.770   1.139
 8626SOL    HW226778   5.252   1.839   1.011
 8627SOL     OW26779   0.076   0.139   2.290
 8627SOL    HW126780   0.120   0.120   2.378
 8627SOL    HW226781   0.135   0.201   2.237
 8628SOL     OW26782   1.084   6.383   0.700
 8628SOL    HW126783   1.176   6.347   0.712
 8628SOL    HW226784   1.061   6.385   0.603
 8629SOL     OW26785   0.000   1.034   4.380
 8629SOL    HW126786   6.996   1.017   4.285
 8629SOL    HW226787   0.098   1.017   4.389
 8630SOL     OW26788   5.118   2.788   1.589
 8630SOL    HW126789   5.068   2.711   1.550
 8630SOL    HW226790   5.082   2.873   1.553
 8631SOL     OW26791   1.552   5.716   6.687
 8631SOL    HW126792   1.585   5.740   6.778
 8631SOL    HW226793   1.570   5.791   6.623
 8632SOL     OW26794   6.360   5.957   3.960
 8632SOL    HW126795   6.331   5.894   3.888
 8632SOL    HW226796   6.284   6.017   3.985
 8633SOL     OW26797   0.142   3.918   5.730
 8633SOL    HW126798   0.114   4.013   5.720
 8633SOL    HW226799   0.242   3.913   5.727
 8634SOL     OW26800   4.930   4.491   6.252
 8634SOL    HW126801   4.876   4.459   6.330
 8634SOL    HW226802   5.027   4.496   6.278
 8635SOL     OW26803   5.279   2.053   6.416
 8635SOL    HW126804   5.276   1.976   6.480
 8635SOL    HW226805   5.363   2.049   6.362
 8636SOL     OW26806   4.054   6.105   0.518
 8636SOL    HW126807   4.136   6.130   0.466
 8636SOL    HW226808   4.047   6.005   0.523
 8637SOL     OW26809   2.956   2.476   0.880
 8637SOL    HW126810   3.055   2.466   0.881
 8637SOL    HW226811   2.928   2.523   0.795
 8638SOL     OW26812   5.437   2.110   4.587
 8638SOL    HW126813   5.420   2.074   4.495
 8638SOL    HW226814   5.432   2.210   4.584
 8639SOL     OW26815   3.568   4.153   0.233
 8639SOL    HW126816   3.554   4.216   0.309
 8639SOL    HW226817   3.596   4.064   0.269
 8640SOL     OW26818   3.225   2.196   6.149
 8640SOL    HW126819   3.269   2.230   6.232
 8640SOL    HW226820   3.144   2.144   6.173
 8641SOL     OW26821   3.593   4.926   3.121
 8641SOL    HW126822   3.523   4.903   3.054
 8641SOL    HW226823   3.577   5.018   3.157
 8642SOL     OW26824   2.039   6.422   3.282
 8642SOL    HW126825   2.000   6.335   3.250
 8642SOL    HW226826   2.111   6.451   3.218
 8643SOL     OW26827   3.883   6.324   1.498
 8643SOL    HW126828   3.967   6.345   1.547
 8643SOL    HW226829   3.837   6.410   1.472
 8644SOL     OW26830   5.080   2.242   6.409
 8644SOL    HW126831   5.104   2.331   6.447
 8644SOL    HW226832   5.158   2.179   6.419
 8645SOL     OW26833   4.802   5.483   2.646
 8645SOL    HW126834   4.818   5.501   2.743
 8645SOL    HW226835   4.754   5.561   2.606
 8646SOL     OW26836   6.801   2.010   4.156
 8646SOL    HW126837   6.748   2.051   4.230
 8646SOL    HW226838   6.773   2.052   4.069
 8647SOL     OW26839   1.968   4.630   1.708
 8647SOL    HW126840   2.020   4.551   1.677
 8647SOL    HW226841   1.893   4.648   1.644
 8648SOL     OW26842   5.763   5.297   6.211
 8648SOL    HW126843   5.749   5.201   6.188
 8648SOL    HW226844   5.675   5.340   6.232
 8649SOL     OW26845   5.678   2.532   2.190
 8649SOL    HW126846   5.580   2.519   2.209
 8649SOL    HW226847   5.706   2.472   2.115
 8650SOL     OW26848   1.212   0.864   4.741
 8650SOL    HW126849   1.282   0.837   4.807
 8650SOL    HW226850   1.161   0.783   4.712
 8651SOL     OW26851   4.737   1.332   1.674
 8651SOL    HW126852   4.685   1.333   1.588
 8651SOL    HW226853   4.831   1.362   1.657
 8652SOL     OW26854   6.562   3.419   4.903
 8652SOL    HW126855   6.659   3.443   4.900
 8652SOL    HW226856   6.541   3.358   4.827
 8653SOL     OW26857   4.881   0.364   0.358
 8653SOL    HW126858   4.916   0.437   0.299
 8653SOL    HW226859   4.800   0.396   0.407
 8654SOL     OW26860   6.991   4.462   2.850
 8654SOL    HW126861   0.005   4.372   2.829
 8654SOL    HW226862   6.959   4.464   2.944
 8655SOL     OW26863   1.313   6.927   5.039
 8655SOL    HW126864   1.355   6.876   5.114
 8655SOL    HW226865   1.279   6.862   4.970
 8656SOL     OW26866   3.878   6.199   0.727
 8656SOL    HW126867   3.795   6.144   0.720
 8656SOL    HW226868   3.953   6.155   0.679
 8657SOL     OW26869   3.115   1.748   2.431
 8657SOL    HW126870   3.146   1.654   2.446
 8657SOL    HW226871   3.192   1.810   2.443
 8658SOL     OW26872   6.451   4.287   0.691
 8658SOL    HW126873   6.360   4.249   0.673
 8658SOL    HW226874   6.515   4.213   0.709
 8659SOL     OW26875   3.712   0.339   3.446
 8659SOL    HW126876   3.799   0.361   3.488
 8659SOL    HW226877   3.644   0.323   3.518
 8660SOL     OW26878   6.785   4.365   1.227
 8660SOL    HW126879   6.836   4.409   1.301
 8660SOL    HW226880   6.720   4.430   1.188
 8661SOL     OW26881   6.104   3.311   1.745
 8661SOL    HW126882   6.112   3.220   1.786
 8661SOL    HW226883   6.008   3.338   1.740
 8662SOL     OW26884   1.879   2.667   2.435
 8662SOL    HW126885   1.937   2.748   2.433
 8662SOL    HW226886   1.915   2.603   2.503
 8663SOL     OW26887   3.185   4.875   2.481
 8663SOL    HW126888   3.143   4.800   2.430
 8663SOL    HW226889   3.113   4.939   2.510
 8664SOL     OW26890   3.335   5.920   4.127
 8664SOL    HW126891   3.330   5.829   4.170
 8664SOL    HW226892   3.246   5.964   4.133
 8665SOL     OW26893   0.543   3.446   6.882
 8665SOL    HW126894   0.519   3.356   6.917
 8665SOL    HW226895   0.603   3.437   6.803
 8666SOL     OW26896   4.817   6.837   2.810
 8666SOL    HW126897   4.892   6.860   2.748
 8666SOL    HW226898   4.738   6.896   2.791
 8667SOL     OW26899   4.645   2.168   2.346
 8667SOL    HW126900   4.736   2.156   2.383
 8667SOL    HW226901   4.587   2.216   2.412
 8668SOL     OW26902   3.615   2.102   3.381
 8668SOL    HW126903   3.589   2.107   3.285
 8668SOL    HW226904   3.678   2.177   3.402
 8669SOL     OW26905   0.555   6.071   5.625
 8669SOL    HW126906   0.562   5.993   5.688
 8669SOL    HW226907   0.620   6.142   5.652
 8670SOL     OW26908   6.985   5.071   4.932
 8670SOL    HW126909   6.972   4.973   4.918
 8670SOL    HW226910   0.056   5.088   4.960
 8671SOL     OW26911   0.412   3.342   3.862
 8671SOL    HW126912   0.387   3.398   3.941
 8671SOL    HW226913   0.402   3.246   3.884
 8672SOL     OW26914   6.453   1.404   2.456
 8672SOL    HW126915   6.538   1.357   2.481
 8672SOL    HW226916   6.467   1.503   2.463
 8673SOL     OW26917   0.532   1.614   1.663
 8673SOL    HW126918   0.570   1.652   1.748
 8673SOL    HW226919   0.432   1.622   1.666
 8674SOL     OW26920   0.168   3.209   4.406
 8674SOL    HW126921   0.099   3.164   4.462
 8674SOL    HW226922   0.259   3.184   4.439
 8675SOL     OW26923   5.011   2.539   4.927
 8675SOL    HW126924   5.034   2.526   5.024
 8675SOL    HW226925   4.955   2.621   4.917
 8676SOL     OW26926   4.546   2.865   0.748
 8676SOL    HW126927   4.590   2.821   0.670
 8676SOL    HW226928   4.572   2.962   0.750
 8677SOL     OW26929   3.227   1.007   0.446
 8677SOL    HW126930   3.255   1.025   0.352
 8677SOL    HW226931   3.220   0.908   0.459
 8678SOL     OW26932   3.221   2.193   0.058
 8678SOL    HW126933   3.289   2.245   0.109
 8678SOL    HW226934   3.228   2.096   0.081
 8679SOL     OW26935   1.641   1.890   6.672
 8679SOL    HW126936   1.668   1.986   6.685
 8679SOL    HW226937   1.655   1.840   6.758
 8680SOL     OW26938   0.449   6.888   1.572
 8680SOL    HW126939   0.400   6.852   1.652
 8680SOL    HW226940   0.454   6.987   1.578
 8681SOL     OW26941   5.197   5.437   1.066
 8681SOL    HW126942   5.222   5.350   1.024
 8681SOL    HW226943   5.129   5.484   1.009
 8682SOL     OW26944   1.722   1.427   2.129
 8682SOL    HW126945   1.803   1.467   2.086
 8682SOL    HW226946   1.748   1.388   2.217
 8683SOL     OW26947   2.195   4.419   4.218
 8683SOL    HW126948   2.122   4.468   4.265
 8683SOL    HW226949   2.230   4.346   4.278
 8684SOL     OW26950   2.178   3.985   3.698
 8684SOL    HW126951   2.262   4.034   3.721
 8684SOL    HW226952   2.141   4.021   3.612
 8685SOL     OW26953   5.183   3.423   5.680
 8685SOL    HW126954   5.084   3.435   5.664
 8685SOL    HW226955   5.198   3.346   5.741
 8686SOL     OW26956   1.202   5.010   2.569
 8686SOL    HW126957   1.288   5.009   2.620
 8686SOL    HW226958   1.137   5.071   2.614
 8687SOL     OW26959   6.248   4.198   5.570
 8687SOL    HW126960   6.230   4.161   5.479
 8687SOL    HW226961   6.176   4.167   5.633
 8688SOL     OW26962   0.920   3.501   4.750
 8688SOL    HW126963   0.880   3.585   4.714
 8688SOL    HW226964   0.990   3.468   4.687
 8689SOL     OW26965   5.159   3.257   1.556
 8689SOL    HW126966   5.191   3.186   1.620
 8689SOL    HW226967   5.237   3.313   1.528
 8690SOL     OW26968   1.792   2.164   2.199
 8690SOL    HW126969   1.703   2.204   2.218
 8690SOL    HW226970   1.845   2.227   2.141
 8691SOL     OW26971   3.188   1.021   0.167
 8691SOL    HW126972   3.221   0.935   0.126
 8691SOL    HW226973   3.253   1.094   0.146
 8692SOL     OW26974   5.977   2.288   4.202
 8692SOL    HW126975   5.927   2.202   4.194
 8692SOL    HW226976   5.915   2.360   4.232
 8693SOL     OW26977   0.668   6.716   5.513
 8693SOL    HW126978   0.704   6.682   5.427
 8693SOL    HW226979   0.683   6.815   5.519
 8694SOL     OW26980   4.049   3.931   5.320
 8694SOL    HW126981   4.007   3.989   5.251
 8694SOL    HW226982   4.135   3.894   5.286
 8695SOL     OW26983   4.148   3.887   1.035
 8695SOL    HW126984   4.241   3.883   1.069
 8695SOL    HW226985   4.129   3.978   0.997
 8696SOL     OW26986   2.926   5.095   6.629
 8696SOL    HW126987   2.913   5.000   6.656
 8696SOL    HW226988   2.837   5.138   6.616
 8697SOL     OW26989   0.807   2.956   5.086
 8697SOL    HW126990   0.738   2.914   5.027
 8697SOL    HW226991   0.898   2.932   5.054
 8698SOL     OW26992   5.647   4.245   6.464
 8698SOL    HW126993   5.647   4.342   6.438
 8698SOL    HW226994   5.690   4.191   6.391
 8699SOL     OW26995   2.166   2.201   1.366
 8699SOL    HW126996   2.247   2.200   1.424
 8699SOL    HW226997   2.103   2.129   1.396
 8700SOL     OW26998   0.332   2.069   4.304
 8700SOL    HW126999   0.324   2.146   4.241
 8700SOL    HW227000   0.240   2.041   4.334
 8701SOL     OW27001   2.470   3.224   6.811
 8701SOL    HW127002   2.392   3.161   6.816
 8701SOL    HW227003   2.453   3.302   6.871
 8702SOL     OW27004   5.365   4.194   0.920
 8702SOL    HW127005   5.396   4.226   1.010
 8702SOL    HW227006   5.335   4.098   0.927
 8703SOL     OW27007   2.186   4.999   1.503
 8703SOL    HW127008   2.204   4.921   1.564
 8703SOL    HW227009   2.088   5.004   1.483
 8704SOL     OW27010   6.542   0.835   3.370
 8704SOL    HW127011   6.532   0.929   3.335
 8704SOL    HW227012   6.620   0.791   3.326
 8705SOL     OW27013   3.796   2.106   0.162
 8705SOL    HW127014   3.839   2.022   0.128
 8705SOL    HW227015   3.799   2.176   0.090
 8706SOL     OW27016   4.616   2.902   5.202
 8706SOL    HW127017   4.591   2.843   5.125
 8706SOL    HW227018   4.533   2.932   5.249
 8707SOL     OW27019   1.522   1.101   4.408
 8707SOL    HW127020   1.592   1.051   4.356
 8707SOL    HW227021   1.510   1.192   4.368
 8708SOL     OW27022   5.549   2.536   0.885
 8708SOL    HW127023   5.560   2.454   0.941
 8708SOL    HW227024   5.452   2.551   0.867
 8709SOL     OW27025   6.566   6.197   4.198
 8709SOL    HW127026   6.630   6.220   4.272
 8709SOL    HW227027   6.561   6.097   4.189
 8710SOL     OW27028   2.141   2.912   3.560
 8710SOL    HW127029   2.177   2.952   3.644
 8710SOL    HW227030   2.139   2.812   3.569
 8711SOL     OW27031   0.831   1.750   2.440
 8711SOL    HW127032   0.833   1.795   2.529
 8711SOL    HW227033   0.915   1.772   2.390
 8712SOL     OW27034   1.466   3.941   3.966
 8712SOL    HW127035   1.504   3.869   3.908
 8712SOL    HW227036   1.486   4.030   3.926
 8713SOL     OW27037   0.103   4.610   3.633
 8713SOL    HW127038   0.019   4.664   3.628
 8713SOL    HW227039   0.175   4.664   3.678
 8714SOL     OW27040   0.741   4.620   6.294
 8714SOL    HW127041   0.695   4.570   6.220
 8714SOL    HW227042   0.759   4.714   6.263
 8715SOL     OW27043   1.948   4.788   1.465
 8715SOL    HW127044   2.038   4.754   1.490
 8715SOL    HW227045   1.879   4.720   1.487
 8716SOL     OW27046   5.354   0.193   2.637
 8716SOL    HW127047   5.277   0.252   2.662
 8716SOL    HW227048   5.423   0.195   2.709
 8717SOL     OW27049   3.824   2.489   6.412
 8717SOL    HW127050   3.743   2.492   6.472
 8717SOL    HW227051   3.901   2.531   6.460
 8718SOL     OW27052   3.201   5.138   5.846
 8718SOL    HW127053   3.139   5.164   5.771
 8718SOL    HW227054   3.203   5.212   5.914
 8719SOL     OW27055   3.001   2.200   4.458
 8719SOL    HW127056   2.902   2.201   4.443
 8719SOL    HW227057   3.020   2.192   4.556
 8720SOL     OW27058   6.996   6.495   5.094
 8720SOL    HW127059   0.047   6.453   5.042
 8720SOL    HW227060   6.942   6.553   5.033
 8721SOL     OW27061   0.696   0.650   1.636
 8721SOL    HW127062   0.646   0.730   1.670
 8721SOL    HW227063   0.633   0.574   1.622
 8722SOL     OW27064   3.934   1.296   0.467
 8722SOL    HW127065   3.841   1.302   0.504
 8722SOL    HW227066   3.931   1.312   0.368
 8723SOL     OW27067   3.716   6.869   2.588
 8723SOL    HW127068   3.682   6.775   2.580
 8723SOL    HW227069   3.667   6.916   2.662
 8724SOL     OW27070   4.518   0.419   5.378
 8724SOL    HW127071   4.486   0.503   5.420
 8724SOL    HW227072   4.615   0.428   5.354
 8725SOL     OW27073   6.767   0.950   2.508
 8725SOL    HW127074   6.760   0.997   2.596
 8725SOL    HW227075   6.863   0.930   2.488
 8726SOL     OW27076   0.054   1.243   0.583
 8726SOL    HW127077   0.046   1.171   0.653
 8726SOL    HW227078   0.031   1.205   0.494
 8727SOL     OW27079   4.890   5.583   6.299
 8727SOL    HW127080   4.861   5.677   6.283
 8727SOL    HW227081   4.953   5.555   6.227
 8728SOL     OW27082   5.792   6.823   4.215
 8728SOL    HW127083   5.766   6.919   4.206
 8728SOL    HW227084   5.714   6.770   4.247
 8729SOL     OW27085   5.752   6.660   6.009
 8729SOL    HW127086   5.794   6.743   5.972
 8729SOL    HW227087   5.798   6.633   6.093
 8730SOL     OW27088   4.120   4.750   1.504
 8730SOL    HW127089   4.150   4.722   1.413
 8730SOL    HW227090   4.132   4.849   1.514
 8731SOL     OW27091   0.244   2.207   3.861
 8731SOL    HW127092   0.298   2.273   3.912
 8731SOL    HW227093   0.148   2.213   3.890
 8732SOL     OW27094   5.170   6.126   5.304
 8732SOL    HW127095   5.252   6.070   5.291
 8732SOL    HW227096   5.114   6.087   5.377
 8733SOL     OW27097   5.396   4.673   2.399
 8733SOL    HW127098   5.390   4.691   2.301
 8733SOL    HW227099   5.330   4.731   2.447
 8734SOL     OW27100   0.789   5.782   1.483
 8734SOL    HW127101   0.754   5.691   1.502
 8734SOL    HW227102   0.805   5.792   1.385
 8735SOL     OW27103   1.357   2.129   6.574
 8735SOL    HW127104   1.441   2.136   6.520
 8735SOL    HW227105   1.299   2.209   6.556
 8736SOL     OW27106   0.970   6.072   4.005
 8736SOL    HW127107   0.990   6.017   3.924
 8736SOL    HW227108   0.935   6.161   3.976
 8737SOL     OW27109   0.479   5.431   0.015
 8737SOL    HW127110   0.520   5.518   7.011
 8737SOL    HW227111   0.541   5.383   0.076
 8738SOL     OW27112   2.180   2.366   2.638
 8738SOL    HW127113   2.189   2.449   2.583
 8738SOL    HW227114   2.269   2.342   2.677
 8739SOL     OW27115   4.564   4.811   3.501
 8739SOL    HW127116   4.534   4.720   3.530
 8739SOL    HW227117   4.660   4.809   3.475
 8740SOL     OW27118   1.922   0.651   3.703
 8740SOL    HW127119   1.940   0.553   3.711
 8740SOL    HW227120   1.905   0.673   3.607
 8741SOL     OW27121   2.238   2.028   2.857
 8741SOL    HW127122   2.269   2.078   2.776
 8741SOL    HW227123   2.259   1.931   2.847
 8742SOL     OW27124   1.367   3.307   1.083
 8742SOL    HW127125   1.378   3.306   1.183
 8742SOL    HW227126   1.299   3.238   1.057
 8743SOL     OW27127   1.598   2.885   0.255
 8743SOL    HW127128   1.508   2.928   0.248
 8743SOL    HW227129   1.588   2.787   0.267
 8744SOL     OW27130   2.531   4.057   5.989
 8744SOL    HW127131   2.619   4.036   5.947
 8744SOL    HW227132   2.545   4.077   6.086
 8745SOL     OW27133   5.706   1.567   6.689
 8745SOL    HW127134   5.764   1.514   6.752
 8745SOL    HW227135   5.658   1.505   6.628
 8746SOL     OW27136   4.667   4.698   4.423
 8746SOL    HW127137   4.612   4.726   4.501
 8746SOL    HW227138   4.634   4.610   4.388
 8747SOL     OW27139   0.313   6.616   1.678
 8747SOL    HW127140   0.385   6.554   1.649
 8747SOL    HW227141   0.224   6.580   1.649
 8748SOL     OW27142   6.209   1.404   4.853
 8748SOL    HW127143   6.162   1.468   4.793
 8748SOL    HW227144   6.307   1.410   4.838
 8749SOL     OW27145   2.322   1.019   3.933
 8749SOL    HW127146   2.357   1.046   3.844
 8749SOL    HW227147   2.317   0.919   3.937
 8750SOL     OW27148   3.970   3.458   2.023
 8750SOL    HW127149   4.022   3.543   2.018
 8750SOL    HW227150   3.881   3.475   2.066
 8751SOL     OW27151   1.849   6.552   6.660
 8751SOL    HW127152   1.824   6.460   6.692
 8751SOL    HW227153   1.832   6.559   6.562
 8752SOL     OW27154   1.341   3.037   6.661
 8752SOL    HW127155   1.415   3.080   6.713
 8752SOL    HW227156   1.345   3.068   6.566
 8753SOL     OW27157   1.622   1.661   1.006
 8753SOL    HW127158   1.634   1.718   0.924
 8753SOL    HW227159   1.529   1.671   1.040
 8754SOL     OW27160   1.327   6.025   6.509
 8754SOL    HW127161   1.257   5.958   6.533
 8754SOL    HW227162   1.416   5.980   6.501
 8755SOL     OW27163   0.224   1.951   1.844
 8755SOL    HW127164   0.155   2.017   1.872
 8755SOL    HW227165   0.244   1.889   1.920
 8756SOL     OW27166   1.714   1.692   2.370
 8756SOL    HW127167   1.759   1.661   2.286
 8756SOL    HW227168   1.713   1.792   2.373
 8757SOL     OW27169   5.280   5.738   4.794
 8757SOL    HW127170   5.296   5.640   4.786
 8757SOL    HW227171   5.364   5.783   4.824
 8758SOL     OW27172   3.566   4.890   6.558
 8758SOL    HW127173   3.499   4.818   6.536
 8758SOL    HW227174   3.587   4.887   6.656
 8759SOL     OW27175   6.678   1.337   1.346
 8759SOL    HW127176   6.731   1.315   1.427
 8759SOL    HW227177   6.619   1.259   1.322
 8760SOL     OW27178   1.373   2.895   4.684
 8760SOL    HW127179   1.410   2.947   4.760
 8760SOL    HW227180   1.446   2.869   4.621
 8761SOL     OW27181   5.366   2.809   3.202
 8761SOL    HW127182   5.269   2.790   3.212
 8761SOL    HW227183   5.390   2.810   3.105
 8762SOL     OW27184   4.248   6.348   2.417
 8762SOL    HW127185   4.300   6.407   2.479
 8762SOL    HW227186   4.155   6.383   2.407
 8763SOL     OW27187   0.115   2.037   5.403
 8763SOL    HW127188   0.149   1.943   5.395
 8763SOL    HW227189   0.192   2.100   5.398
 8764SOL     OW27190   2.673   5.265   5.994
 8764SOL    HW127191   2.610   5.191   6.019
 8764SOL    HW227192   2.642   5.308   5.910
 8765SOL     OW27193   4.196   6.748   3.496
 8765SOL    HW127194   4.282   6.798   3.509
 8765SOL    HW227195   4.127   6.784   3.558
 8766SOL     OW27196   6.405   6.954   4.950
 8766SOL    HW127197   6.459   6.894   4.892
 8766SOL    HW227198   6.466   7.005   5.011
 8767SOL     OW27199   2.058   1.298   4.749
 8767SOL    HW127200   2.013   1.362   4.811
 8767SOL    HW227201   2.032   1.318   4.655
 8768SOL     OW27202   6.952   2.179   1.035
 8768SOL    HW127203   6.946   2.278   1.021
 8768SOL    HW227204   6.870   2.135   1.000
 8769SOL     OW27205   6.890   6.989   0.088
 8769SOL    HW127206   6.962   6.993   0.158
 8769SOL    HW227207   6.927   7.015   7.023
 8770SOL     OW27208   4.499   1.926   0.621
 8770SOL    HW127209   4.482   1.922   0.522
 8770SOL    HW227210   4.419   1.965   0.666
 8771SOL     OW27211   1.155   2.784   6.539
 8771SOL    HW127212   1.140   2.797   6.637
 8771SOL    HW227213   1.148   2.872   6.492
 8772SOL     OW27214   0.522   6.347   3.681
 8772SOL    HW127215   0.428   6.381   3.668
 8772SOL    HW227216   0.576   6.366   3.599
 8773SOL     OW27217   6.312   1.569   4.136
 8773SOL    HW127218   6.265   1.491   4.095
 8773SOL    HW227219   6.410   1.561   4.121
 8774SOL     OW27220   1.422   2.415   6.893
 8774SOL    HW127221   1.436   2.354   6.971
 8774SOL    HW227222   1.341   2.387   6.842
 8775SOL     OW27223   4.855   1.855   2.161
 8775SOL    HW127224   4.898   1.844   2.251
 8775SOL    HW227225   4.756   1.860   2.173
 8776SOL     OW27226   5.421   3.386   1.624
 8776SOL    HW127227   5.501   3.329   1.644
 8776SOL    HW227228   5.362   3.391   1.705
 8777SOL     OW27229   6.336   2.180   3.847
 8777SOL    HW127230   6.314   2.107   3.782
 8777SOL    HW227231   6.266   2.251   3.842
 8778SOL     OW27232   1.745   4.262   6.374
 8778SOL    HW127233   1.828   4.315   6.392
 8778SOL    HW227234   1.670   4.297   6.431
 8779SOL     OW27235   3.652   6.561   2.848
 8779SOL    HW127236   3.654   6.599   2.940
 8779SOL    HW227237   3.559   6.567   2.811
 8780SOL     OW27238   0.877   3.212   4.729
 8780SOL    HW127239   0.959   3.155   4.728
 8780SOL    HW227240   0.888   3.286   4.663
 8781SOL     OW27241   4.105   1.458   1.855
 8781SOL    HW127242   4.030   1.408   1.812
 8781SOL    HW227243   4.087   1.556   1.848
 8782SOL     OW27244   6.330   2.370   0.200
 8782SOL    HW127245   6.383   2.353   0.117
 8782SOL    HW227246   6.233   2.354   0.182
 8783SOL     OW27247   3.648   3.917   6.260
 8783SOL    HW127248   3.679   3.896   6.353
 8783SOL    HW227249   3.604   4.007   6.259
 8784SOL     OW27250   4.405   0.977   5.553
 8784SOL    HW127251   4.386   1.026   5.638
 8784SOL    HW227252   4.459   1.035   5.492
 8785SOL     OW27253   7.013   6.533   6.255
 8785SOL    HW127254   0.082   6.561   6.280
 8785SOL    HW227255   6.998   6.438   6.281
 8786SOL     OW27256   5.625   2.507   3.016
 8786SOL    HW127257   5.529   2.481   3.026
 8786SOL    HW227258   5.675   2.478   3.098
 8787SOL     OW27259   3.416   5.096   2.583
 8787SOL    HW127260   3.322   5.062   2.580
 8787SOL    HW227261   3.416   5.196   2.577
 8788SOL     OW27262   0.102   6.778   3.750
 8788SOL    HW127263   0.121   6.714   3.824
 8788SOL    HW227264   0.018   6.827   3.769
 8789SOL     OW27265   2.137   3.180   6.757
 8789SOL    HW127266   2.062   3.181   6.823
 8789SOL    HW227267   2.150   3.088   6.722
 8790SOL     OW27268   4.804   3.155   5.181
 8790SOL    HW127269   4.880   3.116   5.129
 8790SOL    HW227270   4.737   3.083   5.199
 8791SOL     OW27271   4.163   6.534   5.419
 8791SOL    HW127272   4.144   6.446   5.463
 8791SOL    HW227273   4.260   6.539   5.394
 8792SOL     OW27274   5.307   4.699   0.734
 8792SOL    HW127275   5.374   4.766   0.766
 8792SOL    HW227276   5.349   4.608   0.733
 8793SOL     OW27277   6.504   0.516   5.673
 8793SOL    HW127278   6.591   0.553   5.706
 8793SOL    HW227279   6.502   0.417   5.689
 8794SOL     OW27280   0.154   2.973   3.231
 8794SOL    HW127281   0.153   2.885   3.183
 8794SOL    HW227282   0.078   2.976   3.296
 8795SOL     OW27283   1.448   0.664   6.824
 8795SOL    HW127284   1.406   0.641   6.912
 8795SOL    HW227285   1.433   0.760   6.804
 8796SOL     OW27286   5.892   5.272   4.194
 8796SOL    HW127287   5.901   5.337   4.270
 8796SOL    HW227288   5.818   5.302   4.134
 8797SOL     OW27289   5.650   5.984   5.141
 8797SOL    HW127290   5.714   5.979   5.063
 8797SOL    HW227291   5.604   6.072   5.140
 8798SOL     OW27292   1.634   5.461   7.002
 8798SOL    HW127293   1.663   5.382   0.034
 8798SOL    HW227294   1.631   5.434   6.906
 8799SOL     OW27295   1.460   6.647   2.277
 8799SOL    HW127296   1.439   6.572   2.340
 8799SOL    HW227297   1.554   6.638   2.245
 8800SOL     OW27298   6.767   6.269   4.388
 8800SOL    HW127299   6.778   6.184   4.441
 8800SOL    HW227300   6.854   6.291   4.344
 8801SOL     OW27301   4.960   3.294   6.455
 8801SOL    HW127302   4.942   3.230   6.381
 8801SOL    HW227303   4.947   3.247   6.543
 8802SOL     OW27304   1.008   6.641   0.163
 8802SOL    HW127305   1.077   6.656   0.233
 8802SOL    HW227306   1.042   6.675   0.075
 8803SOL     OW27307   4.783   4.582   5.411
 8803SOL    HW127308   4.758   4.671   5.372
 8803SOL    HW227309   4.848   4.596   5.486
 8804SOL     OW27310   2.357   6.175   1.519
 8804SOL    HW127311   2.342   6.268   1.485
 8804SOL    HW227312   2.454   6.162   1.538
 8805SOL     OW27313   4.505   5.152   0.932
 8805SOL    HW127314   4.458   5.075   0.975
 8805SOL    HW227315   4.495   5.145   0.833
 8806SOL     OW27316   1.485   1.381   1.880
 8806SOL    HW127317   1.563   1.413   1.826
 8806SOL    HW227318   1.433   1.460   1.912
 8807SOL     OW27319   5.752   2.314   1.979
 8807SOL    HW127320   5.842   2.290   1.943
 8807SOL    HW227321   5.706   2.231   2.011
 8808SOL     OW27322   1.989   1.331   0.770
 8808SOL    HW127323   1.934   1.265   0.720
 8808SOL    HW227324   1.988   1.419   0.723
 8809SOL     OW27325   0.722   3.376   3.072
 8809SOL    HW127326   0.704   3.474   3.081
 8809SOL    HW227327   0.750   3.356   2.978
 8810SOL     OW27328   6.240   2.479   3.863
 8810SOL    HW127329   6.267   2.575   3.856
 8810SOL    HW227330   6.171   2.469   3.934
 8811SOL     OW27331   3.806   5.578   3.021
 8811SOL    HW127332   3.797   5.588   3.120
 8811SOL    HW227333   3.787   5.483   2.995
 8812SOL     OW27334   5.367   0.627   0.284
 8812SOL    HW127335   5.401   0.534   0.296
 8812SOL    HW227336   5.280   0.638   0.331
 8813SOL     OW27337   1.143   2.426   1.783
 8813SOL    HW127338   1.141   2.331   1.751
 8813SOL    HW227339   1.081   2.436   1.861
 8814SOL     OW27340   6.081   6.633   5.074
 8814SOL    HW127341   6.166   6.682   5.094
 8814SOL    HW227342   6.039   6.672   4.992
 8815SOL     OW27343   4.423   0.194   1.074
 8815SOL    HW127344   4.433   0.172   1.171
 8815SOL    HW227345   4.371   0.279   1.064
 8816SOL     OW27346   0.327   0.934   2.990
 8816SOL    HW127347   0.421   0.913   3.018
 8816SOL    HW227348   0.282   0.850   2.961
 8817SOL     OW27349   0.823   2.634   4.459
 8817SOL    HW127350   0.922   2.639   4.467
 8817SOL    HW227351   0.797   2.648   4.363
 8818SOL     OW27352   1.320   5.485   6.527
 8818SOL    HW127353   1.260   5.406   6.532
 8818SOL    HW227354   1.296   5.541   6.447
 8819SOL     OW27355   5.379   6.456   6.219
 8819SOL    HW127356   5.435   6.536   6.241
 8819SOL    HW227357   5.428   6.373   6.246
 8820SOL     OW27358   3.397   6.500   6.120
 8820SOL    HW127359   3.392   6.427   6.188
 8820SOL    HW227360   3.429   6.462   6.033
 8821SOL     OW27361   1.989   5.432   5.214
 8821SOL    HW127362   1.932   5.502   5.171
 8821SOL    HW227363   1.987   5.349   5.159
 8822SOL     OW27364   7.004   0.642   5.014
 8822SOL    HW127365   0.033   0.667   4.933
 8822SOL    HW227366   0.033   0.663   5.096
 8823SOL     OW27367   4.224   2.238   3.157
 8823SOL    HW127368   4.232   2.138   3.161
 8823SOL    HW227369   4.291   2.279   3.219
 8824SOL     OW27370   1.669   0.619   3.971
 8824SOL    HW127371   1.706   0.708   3.944
 8824SOL    HW227372   1.745   0.556   3.989
 8825SOL     OW27373   1.187   7.015   0.551
 8825SOL    HW127374   1.124   0.056   0.507
 8825SOL    HW227375   1.173   6.924   0.514
 8826SOL     OW27376   0.428   3.845   0.092
 8826SOL    HW127377   0.430   3.804   0.183
 8826SOL    HW227378   0.514   3.892   0.074
 8827SOL     OW27379   5.189   5.926   4.138
 8827SOL    HW127380   5.109   5.948   4.194
 8827SOL    HW227381   5.226   5.837   4.166
 8828SOL     OW27382   5.096   2.611   5.552
 8828SOL    HW127383   5.048   2.587   5.467
 8828SOL    HW227384   5.172   2.547   5.566
 8829SOL     OW27385   6.612   0.763   2.793
 8829SOL    HW127386   6.584   0.672   2.825
 8829SOL    HW227387   6.617   0.826   2.870
 8830SOL     OW27388   2.662   0.749   2.662
 8830SOL    HW127389   2.716   0.781   2.739
 8830SOL    HW227390   2.566   0.773   2.676
 8831SOL     OW27391   0.843   2.335   2.664
 8831SOL    HW127392   0.769   2.398   2.687
 8831SOL    HW227393   0.929   2.386   2.657
 8832SOL     OW27394   6.136   6.982   4.842
 8832SOL    HW127395   6.218   6.926   4.849
 8832SOL    HW227396   6.118   7.002   4.745
 8833SOL     OW27397   4.898   2.854   1.054
 8833SOL    HW127398   4.902   2.851   1.154
 8833SOL    HW227399   4.817   2.803   1.023
 8834SOL     OW27400   6.644   4.675   5.843
 8834SOL    HW127401   6.632   4.774   5.849
 8834SOL    HW227402   6.690   4.642   5.926
 8835SOL     OW27403   6.876   0.831   5.262
 8835SOL    HW127404   6.974   0.846   5.254
 8835SOL    HW227405   6.827   0.911   5.225
 8836SOL     OW27406   4.352   1.755   0.849
 8836SOL    HW127407   4.344   1.852   0.823
 8836SOL    HW227408   4.264   1.722   0.882
 8837SOL     OW27409   5.674   4.986   0.270
 8837SOL    HW127410   5.683   4.930   0.187
 8837SOL    HW227411   5.656   4.926   0.348
 8838SOL     OW27412   1.485   3.629   2.211
 8838SOL    HW127413   1.430   3.556   2.171
 8838SOL    HW227414   1.461   3.716   2.167
 8839SOL     OW27415   4.599   4.568   1.416
 8839SOL    HW127416   4.558   4.479   1.435
 8839SOL    HW227417   4.664   4.560   1.340
 8840SOL     OW27418   0.241   0.249   1.379
 8840SOL    HW127419   0.318   0.190   1.353
 8840SOL    HW227420   0.273   0.319   1.444
 8841SOL     OW27421   4.688   2.025   0.249
 8841SOL    HW127422   4.618   2.093   0.227
 8841SOL    HW227423   4.647   1.934   0.250
 8842SOL     OW27424   3.596   2.986   3.744
 8842SOL    HW127425   3.630   2.954   3.833
 8842SOL    HW227426   3.497   2.999   3.748
 8843SOL     OW27427   2.642   6.244   4.972
 8843SOL    HW127428   2.639   6.186   5.054
 8843SOL    HW227429   2.730   6.232   4.927
 8844SOL     OW27430   4.151   2.813   5.348
 8844SOL    HW127431   4.174   2.759   5.268
 8844SOL    HW227432   4.065   2.861   5.333
 8845SOL     OW27433   0.572   4.137   2.391
 8845SOL    HW127434   0.547   4.075   2.316
 8845SOL    HW227435   0.633   4.208   2.356
 8846SOL     OW27436   6.166   5.412   4.864
 8846SOL    HW127437   6.187   5.454   4.776
 8846SOL    HW227438   6.069   5.423   4.884
 8847SOL     OW27439   0.835   2.527   3.812
 8847SOL    HW127440   0.932   2.552   3.819
 8847SOL    HW227441   0.786   2.598   3.763
 8848SOL     OW27442   5.862   2.659   1.193
 8848SOL    HW127443   5.819   2.741   1.155
 8848SOL    HW227444   5.946   2.684   1.240
 8849SOL     OW27445   3.377   5.049   4.705
 8849SOL    HW127446   3.477   5.051   4.713
 8849SOL    HW227447   3.336   5.076   4.792
 8850SOL     OW27448   3.898   2.011   1.060
 8850SOL    HW127449   3.984   1.960   1.053
 8850SOL    HW227450   3.906   2.098   1.012
 8851SOL     OW27451   0.017   5.669   3.116
 8851SOL    HW127452   6.973   5.739   3.092
 8851SOL    HW227453   6.998   5.601   3.177
 8852SOL     OW27454   5.922   3.965   4.638
 8852SOL    HW127455   5.844   3.920   4.594
 8852SOL    HW227456   5.888   4.029   4.708
 8853SOL     OW27457   4.654   1.876   4.489
 8853SOL    HW127458   4.608   1.799   4.446
 8853SOL    HW227459   4.643   1.958   4.432
 8854SOL     OW27460   3.233   0.664   6.383
 8854SOL    HW127461   3.134   0.671   6.372
 8854SOL    HW227462   3.261   0.710   6.468
 8855SOL     OW27463   6.235   4.945   6.321
 8855SOL    HW127464   6.283   4.887   6.256
 8855SOL    HW227465   6.255   5.041   6.301
 8856SOL     OW27466   5.188   2.025   5.458
 8856SOL    HW127467   5.205   2.040   5.556
 8856SOL    HW227468   5.177   1.927   5.441
 8857SOL     OW27469   1.622   2.859   4.597
 8857SOL    HW127470   1.700   2.799   4.613
 8857SOL    HW227471   1.653   2.953   4.588
 8858SOL     OW27472   0.634   3.278   5.546
 8858SOL    HW127473   0.577   3.260   5.627
 8858SOL    HW227474   0.660   3.191   5.504
 8859SOL     OW27475   2.506   6.338   5.277
 8859SOL    HW127476   2.472   6.245   5.289
 8859SOL    HW227477   2.548   6.347   5.187
 8860SOL     OW27478   2.207   1.254   1.607
 8860SOL    HW127479   2.229   1.219   1.699
 8860SOL    HW227480   2.189   1.177   1.546
 8861SOL     OW27481   1.875   1.768   0.033
 8861SOL    HW127482   1.862   1.675   7.022
 8861SOL    HW227483   1.962   1.773   0.082
 8862SOL     OW27484   6.978   2.950   4.207
 8862SOL    HW127485   0.017   2.909   4.273
 8862SOL    HW227486   6.961   2.886   4.132
 8863SOL     OW27487   2.083   5.643   4.997
 8863SOL    HW127488   1.991   5.638   5.036
 8863SOL    HW227489   2.101   5.736   4.966
 8864SOL     OW27490   2.037   4.735   5.671
 8864SOL    HW127491   2.065   4.779   5.756
 8864SOL    HW227492   2.115   4.689   5.629
 8865SOL     OW27493   2.773   1.939   5.751
 8865SOL    HW127494   2.689   1.887   5.765
 8865SOL    HW227495   2.753   2.025   5.705
 8866SOL     OW27496   4.827   6.943   5.579
 8866SOL    HW127497   4.811   6.850   5.615
 8866SOL    HW227498   4.878   6.937   5.494
 8867SOL     OW27499   5.639   0.545   3.396
 8867SOL    HW127500   5.671   0.507   3.483
 8867SOL    HW227501   5.712   0.598   3.354
 8868SOL     OW27502   5.770   2.922   0.521
 8868SOL    HW127503   5.823   2.841   0.545
 8868SOL    HW227504   5.818   3.004   0.553
 8869SOL     OW27505   2.637   1.739   3.450
 8869SOL    HW127506   2.542   1.763   3.429
 8869SOL    HW227507   2.698   1.784   3.385
 8870SOL     OW27508   4.023   6.803   1.794
 8870SOL    HW127509   4.027   6.760   1.884
 8870SOL    HW227510   4.087   6.758   1.732
 8871SOL     OW27511   1.638   2.136   4.176
 8871SOL    HW127512   1.567   2.200   4.207
 8871SOL    HW227513   1.719   2.187   4.147
 8872SOL     OW27514   1.055   1.824   2.325
 8872SOL    HW127515   1.126   1.754   2.323
 8872SOL    HW227516   1.095   1.913   2.304
 8873SOL     OW27517   6.667   5.421   4.885
 8873SOL    HW127518   6.682   5.420   4.983
 8873SOL    HW227519   6.613   5.342   4.858
 8874SOL     OW27520   1.418   1.209   5.931
 8874SOL    HW127521   1.352   1.284   5.929
 8874SOL    HW227522   1.382   1.131   5.880
 8875SOL     OW27523   1.492   1.344   4.241
 8875SOL    HW127524   1.394   1.328   4.256
 8875SOL    HW227525   1.515   1.438   4.268
 8876SOL     OW27526   2.489   1.339   4.880
 8876SOL    HW127527   2.477   1.240   4.891
 8876SOL    HW227528   2.559   1.356   4.810
 8877SOL     OW27529   3.220   6.478   4.613
 8877SOL    HW127530   3.290   6.410   4.635
 8877SOL    HW227531   3.143   6.470   4.677
 8878SOL     OW27532   5.566   4.661   5.663
 8878SOL    HW127533   5.504   4.637   5.589
 8878SOL    HW227534   5.573   4.584   5.727
 8879SOL     OW27535   5.771   5.652   4.849
 8879SOL    HW127536   5.840   5.596   4.895
 8879SOL    HW227537   5.680   5.613   4.866
 8880SOL     OW27538   1.191   6.771   4.817
 8880SOL    HW127539   1.154   6.685   4.783
 8880SOL    HW227540   1.191   6.838   4.743
 8881SOL     OW27541   6.666   2.066   2.519
 8881SOL    HW127542   6.605   2.021   2.584
 8881SOL    HW227543   6.635   2.048   2.425
 8882SOL     OW27544   5.408   2.252   0.760
 8882SOL    HW127545   5.379   2.282   0.669
 8882SOL    HW227546   5.499   2.211   0.754
 8883SOL     OW27547   5.865   1.557   5.463
 8883SOL    HW127548   5.825   1.487   5.403
 8883SOL    HW227549   5.856   1.647   5.420
 8884SOL     OW27550   0.206   1.264   6.445
 8884SOL    HW127551   0.112   1.260   6.481
 8884SOL    HW227552   0.270   1.243   6.519
 8885SOL     OW27553   6.174   4.012   0.946
 8885SOL    HW127554   6.085   4.016   0.900
 8885SOL    HW227555   6.178   3.930   1.003
 8886SOL     OW27556   3.148   5.985   5.875
 8886SOL    HW127557   3.197   6.070   5.857
 8886SOL    HW227558   3.213   5.909   5.874
 8887SOL     OW27559   1.256   1.168   1.093
 8887SOL    HW127560   1.273   1.262   1.065
 8887SOL    HW227561   1.163   1.159   1.128
 8888SOL     OW27562   2.739   2.286   3.063
 8888SOL    HW127563   2.664   2.251   3.119
 8888SOL    HW227564   2.826   2.270   3.109
 8889SOL     OW27565   3.281   1.467   4.796
 8889SOL    HW127566   3.330   1.455   4.883
 8889SOL    HW227567   3.329   1.536   4.741
 8890SOL     OW27568   6.789   4.833   3.977
 8890SOL    HW127569   6.739   4.888   3.910
 8890SOL    HW227570   6.805   4.742   3.941
 8891SOL     OW27571   3.679   1.481   6.009
 8891SOL    HW127572   3.734   1.552   6.050
 8891SOL    HW227573   3.723   1.392   6.022
 8892SOL     OW27574   1.140   0.012   3.189
 8892SOL    HW127575   1.200   6.967   3.147
 8892SOL    HW227576   1.196   0.080   3.236
 8893SOL     OW27577   0.334   1.039   0.398
 8893SOL    HW127578   0.253   0.982   0.383
 8893SOL    HW227579   0.341   1.061   0.496
 8894SOL     OW27580   4.356   2.255   5.947
 8894SOL    HW127581   4.403   2.277   6.033
 8894SOL    HW227582   4.422   2.259   5.872
 8895SOL     OW27583   1.195   1.134   3.308
 8895SOL    HW127584   1.251   1.067   3.259
 8895SOL    HW227585   1.240   1.156   3.395
 8896SOL     OW27586   1.436   4.281   5.158
 8896SOL    HW127587   1.438   4.242   5.250
 8896SOL    HW227588   1.509   4.240   5.102
 8897SOL     OW27589   1.138   2.103   1.858
 8897SOL    HW127590   1.212   2.039   1.882
 8897SOL    HW227591   1.137   2.179   1.923
 8898SOL     OW27592   6.609   2.869   5.342
 8898SOL    HW127593   6.537   2.801   5.326
 8898SOL    HW227594   6.651   2.851   5.431
 8899SOL     OW27595   3.361   5.733   2.335
 8899SOL    HW127596   3.413   5.688   2.262
 8899SOL    HW227597   3.392   5.827   2.346
 8900SOL     OW27598   6.855   1.877   3.544
 8900SOL    HW127599   6.758   1.902   3.542
 8900SOL    HW227600   6.870   1.809   3.617
 8901SOL     OW27601   2.213   0.193   2.179
 8901SOL    HW127602   2.144   0.234   2.119
 8901SOL    HW227603   2.207   0.235   2.269
 8902SOL     OW27604   4.024   6.831   5.983
 8902SOL    HW127605   3.932   6.827   6.021
 8902SOL    HW227606   4.024   6.788   5.893
 8903SOL     OW27607   6.690   1.184   2.932
 8903SOL    HW127608   6.611   1.130   2.961
 8903SOL    HW227609   6.670   1.281   2.946
 8904SOL     OW27610   1.625   3.538   4.000
 8904SOL    HW127611   1.619   3.519   4.097
 8904SOL    HW227612   1.716   3.513   3.966
 8905SOL     OW27613   1.912   4.274   4.919
 8905SOL    HW127614   1.996   4.255   4.968
 8905SOL    HW227615   1.928   4.345   4.850
 8906SOL     OW27616   2.148   5.154   4.660
 8906SOL    HW127617   2.207   5.226   4.697
 8906SOL    HW227618   2.098   5.188   4.580
 8907SOL     OW27619   3.698   2.810   6.230
 8907SOL    HW127620   3.695   2.711   6.216
 8907SOL    HW227621   3.748   2.852   6.155
 8908SOL     OW27622   0.488   3.540   2.795
 8908SOL    HW127623   0.577   3.494   2.802
 8908SOL    HW227624   0.442   3.511   2.710
 8909SOL     OW27625   3.399   6.738   5.507
 8909SOL    HW127626   3.494   6.752   5.480
 8909SOL    HW227627   3.351   6.687   5.436
 8910SOL     OW27628   4.456   2.522   6.962
 8910SOL    HW127629   4.538   2.510   7.018
 8910SOL    HW227630   4.461   2.463   6.882
 8911SOL     OW27631   5.095   2.748   4.569
 8911SOL    HW127632   5.001   2.783   4.582
 8911SOL    HW227633   5.091   2.654   4.538
 8912SOL     OW27634   4.078   0.977   0.258
 8912SOL    HW127635   3.990   0.956   0.300
 8912SOL    HW227636   4.073   0.964   0.159
 8913SOL     OW27637   4.173   4.315   0.676
 8913SOL    HW127638   4.247   4.354   0.622
 8913SOL    HW227639   4.086   4.332   0.630
 8914SOL     OW27640   5.132   3.079   3.932
 8914SOL    HW127641   5.205   3.038   3.877
 8914SOL    HW227642   5.164   3.166   3.970
 8915SOL     OW27643   0.779   5.552   2.024
 8915SOL    HW127644   0.719   5.593   2.093
 8915SOL    HW227645   0.788   5.616   1.947
 8916SOL     OW27646   5.621   3.554   1.653
 8916SOL    HW127647   5.540   3.500   1.632
 8916SOL    HW227648   5.606   3.607   1.736
 8917SOL     OW27649   5.722   4.158   5.870
 8917SOL    HW127650   5.686   4.162   5.964
 8917SOL    HW227651   5.680   4.231   5.816
 8918SOL     OW27652   4.737   4.166   5.889
 8918SOL    HW127653   4.660   4.219   5.852
 8918SOL    HW227654   4.766   4.207   5.975
 8919SOL     OW27655   1.924   3.331   1.472
 8919SOL    HW127656   1.825   3.325   1.486
 8919SOL    HW227657   1.962   3.240   1.457
 8920SOL     OW27658   6.187   5.772   5.907
 8920SOL    HW127659   6.213   5.682   5.872
 8920SOL    HW227660   6.260   5.807   5.966
 8921SOL     OW27661   1.152   5.646   3.409
 8921SOL    HW127662   1.180   5.550   3.410
 8921SOL    HW227663   1.192   5.693   3.488
 8922SOL     OW27664   0.690   2.614   6.768
 8922SOL    HW127665   0.632   2.695   6.781
 8922SOL    HW227666   0.782   2.633   6.804
 8923SOL     OW27667   2.032   4.605   4.332
 8923SOL    HW127668   1.938   4.629   4.357
 8923SOL    HW227669   2.075   4.681   4.284
 8924SOL     OW27670   2.278   6.651   4.609
 8924SOL    HW127671   2.275   6.599   4.694
 8924SOL    HW227672   2.279   6.588   4.531
 8925SOL     OW27673   4.368   5.652   0.714
 8925SOL    HW127674   4.324   5.736   0.746
 8925SOL    HW227675   4.414   5.607   0.791
 8926SOL     OW27676   5.798   0.118   6.870
 8926SOL    HW127677   5.877   0.158   6.822
 8926SOL    HW227678   5.742   0.191   6.909
 8927SOL     OW27679   2.785   2.248   4.804
 8927SOL    HW127680   2.703   2.209   4.763
 8927SOL    HW227681   2.774   2.347   4.815
 8928SOL     OW27682   1.437   0.528   5.211
 8928SOL    HW127683   1.514   0.591   5.214
 8928SOL    HW227684   1.391   0.527   5.300
 8929SOL     OW27685   4.598   4.271   3.076
 8929SOL    HW127686   4.659   4.194   3.095
 8929SOL    HW227687   4.645   4.339   3.020
 8930SOL     OW27688   0.157   5.663   5.292
 8930SOL    HW127689   0.155   5.754   5.332
 8930SOL    HW227690   0.169   5.595   5.364
 8931SOL     OW27691   4.787   0.853   1.737
 8931SOL    HW127692   4.718   0.925   1.740
 8931SOL    HW227693   4.741   0.764   1.736
 8932SOL     OW27694   4.520   0.755   0.460
 8932SOL    HW127695   4.458   0.676   0.462
 8932SOL    HW227696   4.480   0.827   0.403
 8933SOL     OW27697   1.763   0.020   5.377
 8933SOL    HW127698   1.788   6.963   5.324
 8933SOL    HW227699   1.791   0.102   5.328
 8934SOL     OW27700   3.254   6.605   4.068
 8934SOL    HW127701   3.231   6.702   4.080
 8934SOL    HW227702   3.246   6.558   4.156
 8935SOL     OW27703   5.887   2.081   2.440
 8935SOL    HW127704   5.803   2.085   2.493
 8935SOL    HW227705   5.898   1.989   2.403
 8936SOL     OW27706   1.118   4.109   2.132
 8936SOL    HW127707   1.108   4.016   2.168
 8936SOL    HW227708   1.214   4.126   2.108
 8937SOL     OW27709   2.976   6.486   5.043
 8937SOL    HW127710   2.881   6.487   5.011
 8937SOL    HW227711   3.018   6.575   5.027
 8938SOL     OW27712   5.225   6.731   1.950
 8938SOL    HW127713   5.226   6.688   2.040
 8938SOL    HW227714   5.131   6.753   1.924
 8939SOL     OW27715   6.595   3.211   4.710
 8939SOL    HW127716   6.664   3.159   4.760
 8939SOL    HW227717   6.563   3.158   4.631
 8940SOL     OW27718   6.104   3.882   2.680
 8940SOL    HW127719   6.062   3.833   2.604
 8940SOL    HW227720   6.044   3.956   2.709
 8941SOL     OW27721   5.615   2.346   3.328
 8941SOL    HW127722   5.568   2.267   3.289
 8941SOL    HW227723   5.548   2.407   3.370
 8942SOL     OW27724   4.924   6.070   4.470
 8942SOL    HW127725   5.020   6.093   4.485
 8942SOL    HW227726   4.905   5.980   4.510
 8943SOL     OW27727   3.969   3.697   0.321
 8943SOL    HW127728   3.997   3.602   0.304
 8943SOL    HW227729   3.998   3.724   0.412
 8944SOL     OW27730   4.640   5.726   5.512
 8944SOL    HW127731   4.587   5.808   5.492
 8944SOL    HW227732   4.688   5.738   5.599
 8945SOL     OW27733   6.837   4.939   2.123
 8945SOL    HW127734   6.888   5.025   2.112
 8945SOL    HW227735   6.842   4.887   2.037
 8946SOL     OW27736   3.729   2.160   3.731
 8946SOL    HW127737   3.800   2.110   3.780
 8946SOL    HW227738   3.649   2.100   3.719
 8947SOL     OW27739   2.744   5.406   0.719
 8947SOL    HW127740   2.676   5.466   0.761
 8947SOL    HW227741   2.716   5.311   0.728
 8948SOL     OW27742   5.647   0.391   2.661
 8948SOL    HW127743   5.692   0.444   2.589
 8948SOL    HW227744   5.551   0.419   2.667
 8949SOL     OW27745   3.984   6.590   0.870
 8949SOL    HW127746   3.953   6.679   0.905
 8949SOL    HW227747   3.982   6.591   0.770
 8950SOL     OW27748   3.661   3.830   3.689
 8950SOL    HW127749   3.735   3.872   3.743
 8950SOL    HW227750   3.635   3.892   3.615
 8951SOL     OW27751   0.763   1.165   4.046
 8951SOL    HW127752   0.676   1.115   4.040
 8951SOL    HW227753   0.744   1.263   4.054
 8952SOL     OW27754   1.700   3.561   4.897
 8952SOL    HW127755   1.695   3.638   4.834
 8952SOL    HW227756   1.668   3.590   4.987
 8953SOL     OW27757   0.863   5.877   1.198
 8953SOL    HW127758   0.903   5.848   1.111
 8953SOL    HW227759   0.935   5.911   1.258
 8954SOL     OW27760   2.620   4.417   5.542
 8954SOL    HW127761   2.560   4.392   5.618
 8954SOL    HW227762   2.575   4.487   5.486
 8955SOL     OW27763   6.230   3.183   5.457
 8955SOL    HW127764   6.213   3.150   5.364
 8955SOL    HW227765   6.223   3.283   5.458
 8956SOL     OW27766   0.985   6.399   1.311
 8956SOL    HW127767   1.062   6.397   1.376
 8956SOL    HW227768   0.900   6.383   1.360
 8957SOL     OW27769   0.640   6.851   3.420
 8957SOL    HW127770   0.579   6.893   3.353
 8957SOL    HW227771   0.643   6.907   3.503
 8958SOL     OW27772   6.987   3.181   4.776
 8958SOL    HW127773   7.012   3.116   4.705
 8958SOL    HW227774   0.034   3.252   4.783
 8959SOL     OW27775   4.871   1.407   3.715
 8959SOL    HW127776   4.849   1.322   3.667
 8959SOL    HW227777   4.929   1.387   3.794
 8960SOL     OW27778   4.277   6.176   2.167
 8960SOL    HW127779   4.282   6.245   2.238
 8960SOL    HW227780   4.198   6.195   2.108
 8961SOL     OW27781   2.547   1.870   5.565
 8961SOL    HW127782   2.548   1.783   5.614
 8961SOL    HW227783   2.476   1.929   5.604
 8962SOL     OW27784   6.446   6.007   1.483
 8962SOL    HW127785   6.475   5.935   1.546
 8962SOL    HW227786   6.386   5.969   1.413
 8963SOL     OW27787   2.502   5.035   6.058
 8963SOL    HW127788   2.534   5.038   6.153
 8963SOL    HW227789   2.540   4.954   6.013
 8964SOL     OW27790   1.146   3.002   4.495
 8964SOL    HW127791   1.113   2.930   4.435
 8964SOL    HW227792   1.232   2.973   4.537
 8965SOL     OW27793   2.996   5.878   6.788
 8965SOL    HW127794   2.930   5.841   6.854
 8965SOL    HW227795   2.999   5.820   6.708
 8966SOL     OW27796   4.973   6.929   5.272
 8966SOL    HW127797   5.064   6.937   5.311
 8966SOL    HW227798   4.973   6.967   5.180
 8967SOL     OW27799   2.520   0.461   3.236
 8967SOL    HW127800   2.434   0.504   3.263
 8967SOL    HW227801   2.523   0.367   3.269
 8968SOL     OW27802   2.795   5.704   2.129
 8968SOL    HW127803   2.835   5.628   2.078
 8968SOL    HW227804   2.791   5.680   2.226
 8969SOL     OW27805   0.058   1.189   2.166
 8969SOL    HW127806   0.112   1.168   2.085
 8969SOL    HW227807   0.082   1.125   2.239
 8970SOL     OW27808   2.366   1.663   4.280
 8970SOL    HW127809   2.269   1.654   4.259
 8970SOL    HW227810   2.419   1.666   4.195
 8971SOL     OW27811   3.285   5.234   1.460
 8971SOL    HW127812   3.192   5.268   1.447
 8971SOL    HW227813   3.297   5.206   1.555
 8972SOL     OW27814   6.469   3.783   6.025
 8972SOL    HW127815   6.430   3.771   5.933
 8972SOL    HW227816   6.568   3.797   6.017
 8973SOL     OW27817   2.589   1.451   3.233
 8973SOL    HW127818   2.541   1.523   3.182
 8973SOL    HW227819   2.545   1.439   3.322
 8974SOL     OW27820   1.495   4.959   5.186
 8974SOL    HW127821   1.471   4.894   5.114
 8974SOL    HW227822   1.550   4.913   5.255
 8975SOL     OW27823   0.749   4.005   6.240
 8975SOL    HW127824   0.731   3.974   6.146
 8975SOL    HW227825   0.722   3.934   6.305
 8976SOL     OW27826   5.622   0.179   1.385
 8976SOL    HW127827   5.671   0.097   1.415
 8976SOL    HW227828   5.683   0.258   1.392
 8977SOL     OW27829   0.677   5.072   5.821
 8977SOL    HW127830   0.653   5.128   5.900
 8977SOL    HW227831   0.756   5.112   5.775
 8978SOL     OW27832   6.505   5.112   5.206
 8978SOL    HW127833   6.522   5.121   5.304
 8978SOL    HW227834   6.408   5.095   5.190
 8979SOL     OW27835   1.784   4.129   3.697
 8979SOL    HW127836   1.802   4.056   3.632
 8979SOL    HW227837   1.850   4.125   3.772
 8980SOL     OW27838   5.239   0.506   0.549
 8980SOL    HW127839   5.294   0.488   0.631
 8980SOL    HW227840   5.190   0.593   0.561
 8981SOL     OW27841   4.060   2.095   6.595
 8981SOL    HW127842   4.111   2.179   6.611
 8981SOL    HW227843   4.069   2.035   6.675
 8982SOL     OW27844   0.680   0.553   3.160
 8982SOL    HW127845   0.770   0.575   3.198
 8982SOL    HW227846   0.614   0.542   3.234
 8983SOL     OW27847   1.717   6.489   2.383
 8983SOL    HW127848   1.800   6.435   2.368
 8983SOL    HW227849   1.710   6.561   2.314
 8984SOL     OW27850   6.085   0.555   3.703
 8984SOL    HW127851   6.075   0.513   3.794
 8984SOL    HW227852   6.051   0.649   3.705
 8985SOL     OW27853   5.059   0.710   1.483
 8985SOL    HW127854   5.134   0.671   1.536
 8985SOL    HW227855   5.063   0.675   1.389
 8986SOL     OW27856   1.113   6.891   6.496
 8986SOL    HW127857   1.071   6.835   6.568
 8986SOL    HW227858   1.186   6.839   6.452
 8987SOL     OW27859   2.629   6.491   2.566
 8987SOL    HW127860   2.642   6.450   2.476
 8987SOL    HW227861   2.603   6.587   2.555
 8988SOL     OW27862   2.228   6.575   0.807
 8988SOL    HW127863   2.276   6.644   0.752
 8988SOL    HW227864   2.145   6.615   0.845
 8989SOL     OW27865   6.741   1.285   2.478
 8989SOL    HW127866   6.795   1.285   2.563
 8989SOL    HW227867   6.798   1.255   2.402
 8990SOL     OW27868   3.730   1.109   3.059
 8990SOL    HW127869   3.801   1.042   3.035
 8990SOL    HW227870   3.697   1.090   3.151
 8991SOL     OW27871   1.156   1.995   0.749
 8991SOL    HW127872   1.178   2.085   0.713
 8991SOL    HW227873   1.077   1.957   0.700
 8992SOL     OW27874   1.018   5.432   5.026
 8992SOL    HW127875   0.983   5.405   4.936
 8992SOL    HW227876   1.102   5.381   5.046
 8993SOL     OW27877   5.643   4.244   3.742
 8993SOL    HW127878   5.704   4.303   3.794
 8993SOL    HW227879   5.685   4.153   3.732
 8994SOL     OW27880   1.296   6.383   2.142
 8994SOL    HW127881   1.314   6.400   2.045
 8994SOL    HW227882   1.378   6.347   2.185
 8995SOL     OW27883   1.995   4.111   3.893
 8995SOL    HW127884   2.056   4.036   3.869
 8995SOL    HW227885   2.049   4.188   3.927
 8996SOL     OW27886   2.672   3.248   1.294
 8996SOL    HW127887   2.611   3.327   1.306
 8996SOL    HW227888   2.653   3.181   1.366
 8997SOL     OW27889   4.377   1.582   4.606
 8997SOL    HW127890   4.419   1.666   4.641
 8997SOL    HW227891   4.278   1.594   4.601
 8998SOL     OW27892   0.856   1.475   6.684
 8998SOL    HW127893   0.871   1.389   6.636
 8998SOL    HW227894   0.944   1.522   6.695
 8999SOL     OW27895   5.787   2.912   5.377
 8999SOL    HW127896   5.884   2.935   5.385
 8999SOL    HW227897   5.734   2.995   5.364
 9000SOL     OW27898   4.914   5.040   1.351
 9000SOL    HW127899   4.884   4.945   1.352
 9000SOL    HW227900   4.842   5.097   1.312
 9001SOL     OW27901   0.431   3.153   4.460
 9001SOL    HW127902   0.492   3.126   4.386
 9001SOL    HW227903   0.467   3.120   4.548
 9002SOL     OW27904   4.895   3.083   5.788
 9002SOL    HW127905   4.853   3.060   5.875
 9002SOL    HW227906   4.847   3.036   5.714
 9003SOL     OW27907   0.326   3.615   6.958
 9003SOL    HW127908   0.353   3.707   6.986
 9003SOL    HW227909   0.406   3.565   6.927
 9004SOL     OW27910   4.573   5.605   0.258
 9004SOL    HW127911   4.588   5.541   0.333
 9004SOL    HW227912   4.486   5.584   0.213
 9005SOL     OW27913   4.863   3.690   3.856
 9005SOL    HW127914   4.872   3.591   3.866
 9005SOL    HW227915   4.944   3.726   3.809
 9006SOL     OW27916   3.486   6.443   1.881
 9006SOL    HW127917   3.565   6.408   1.931
 9006SOL    HW227918   3.436   6.507   1.939
 9007SOL     OW27919   2.301   6.410   5.834
 9007SOL    HW127920   2.207   6.401   5.801
 9007SOL    HW227921   2.342   6.319   5.843
 9008SOL     OW27922   0.167   4.572   1.714
 9008SOL    HW127923   0.128   4.623   1.638
 9008SOL    HW227924   0.169   4.630   1.796
 9009SOL     OW27925   3.696   6.506   0.027
 9009SOL    HW127926   3.730   6.417   7.020
 9009SOL    HW227927   3.603   6.495   0.063
 9010SOL     OW27928   0.004   5.873   4.732
 9010SOL    HW127929   0.090   5.872   4.680
 9010SOL    HW227930   7.014   5.784   4.775
 9011SOL     OW27931   4.479   2.479   2.238
 9011SOL    HW127932   4.430   2.441   2.160
 9011SOL    HW227933   4.570   2.510   2.209
 9012SOL     OW27934   4.344   5.145   2.969
 9012SOL    HW127935   4.383   5.052   2.974
 9012SOL    HW227936   4.286   5.152   2.888
 9013SOL     OW27937   3.643   6.044   1.946
 9013SOL    HW127938   3.568   6.078   1.889
 9013SOL    HW227939   3.730   6.058   1.898
 9014SOL     OW27940   2.189   1.453   2.037
 9014SOL    HW127941   2.157   1.396   1.961
 9014SOL    HW227942   2.179   1.403   2.123
 9015SOL     OW27943   6.232   2.282   4.594
 9015SOL    HW127944   6.149   2.242   4.634
 9015SOL    HW227945   6.220   2.381   4.585
 9016SOL     OW27946   0.031   5.352   6.534
 9016SOL    HW127947   0.067   5.435   6.577
 9016SOL    HW227948   6.980   5.316   6.589
 9017SOL     OW27949   6.111   3.282   2.688
 9017SOL    HW127950   6.197   3.329   2.705
 9017SOL    HW227951   6.122   3.219   2.611
 9018SOL     OW27952   5.322   1.090   6.768
 9018SOL    HW127953   5.245   1.139   6.806
 9018SOL    HW227954   5.292   1.000   6.735
 9019SOL     OW27955   1.751   5.335   0.180
 9019SOL    HW127956   1.698   5.379   0.253
 9019SOL    HW227957   1.842   5.376   0.175
 9020SOL     OW27958   0.643   5.131   4.443
 9020SOL    HW127959   0.564   5.191   4.433
 9020SOL    HW227960   0.719   5.182   4.483
 9021SOL     OW27961   6.285   5.298   5.425
 9021SOL    HW127962   6.215   5.236   5.391
 9021SOL    HW227963   6.281   5.384   5.374
 9022SOL     OW27964   1.212   6.817   6.100
 9022SOL    HW127965   1.281   6.841   6.168
 9022SOL    HW227966   1.208   6.888   6.030
 9023SOL     OW27967   3.523   3.647   4.149
 9023SOL    HW127968   3.488   3.559   4.181
 9023SOL    HW227969   3.463   3.721   4.182
 9024SOL     OW27970   1.043   0.004   0.106
 9024SOL    HW127971   1.089   6.949   0.147
 9024SOL    HW227972   1.105   0.050   0.043
 9025SOL     OW27973   0.584   2.733   0.370
 9025SOL    HW127974   0.521   2.773   0.303
 9025SOL    HW227975   0.619   2.806   0.429
 9026SOL     OW27976   3.111   3.982   5.704
 9026SOL    HW127977   3.105   3.963   5.802
 9026SOL    HW227978   3.096   3.897   5.653
 9027SOL     OW27979   1.399   3.199   2.191
 9027SOL    HW127980   1.456   3.137   2.137
 9027SOL    HW227981   1.375   3.279   2.137
 9028SOL     OW27982   1.647   4.505   4.940
 9028SOL    HW127983   1.714   4.509   4.865
 9028SOL    HW227984   1.694   4.493   5.027
 9029SOL     OW27985   5.423   5.341   2.736
 9029SOL    HW127986   5.479   5.259   2.750
 9029SOL    HW227987   5.483   5.419   2.717
 9030SOL     OW27988   4.917   2.470   3.088
 9030SOL    HW127989   4.885   2.375   3.093
 9030SOL    HW227990   4.846   2.526   3.045
 9031SOL     OW27991   2.489   1.164   2.192
 9031SOL    HW127992   2.488   1.087   2.256
 9031SOL    HW227993   2.583   1.197   2.182
 9032SOL     OW27994   0.303   3.814   2.554
 9032SOL    HW127995   0.273   3.815   2.650
 9032SOL    HW227996   0.222   3.816   2.495
 9033SOL     OW27997   1.352   3.639   2.789
 9033SOL    HW127998   1.452   3.650   2.786
 9033SOL    HW227999   1.311   3.689   2.713
 9034SOL     OW28000   1.459   6.491   0.116
 9034SOL    HW128001   1.519   6.539   0.180
 9034SOL    HW228002   1.493   6.398   0.103
 9035SOL     OW28003   6.186   1.159   4.205
 9035SOL    HW128004   6.214   1.084   4.265
 9035SOL    HW228005   6.090   1.148   4.179
 9036SOL     OW28006   0.299   1.664   4.525
 9036SOL    HW128007   0.367   1.593   4.547
 9036SOL    HW228008   0.321   1.747   4.577
 9037SOL     OW28009   2.628   4.458   5.914
 9037SOL    HW128010   2.654   4.506   5.830
 9037SOL    HW228011   2.565   4.384   5.892
 9038SOL     OW28012   4.077   5.434   5.720
 9038SOL    HW128013   3.978   5.443   5.712
 9038SOL    HW228014   4.100   5.389   5.807
 9039SOL     OW28015   2.814   5.096   0.090
 9039SOL    HW128016   2.745   5.074   0.022
 9039SOL    HW228017   2.770   5.109   0.179
 9040SOL     OW28018   3.101   1.023   2.359
 9040SOL    HW128019   3.180   0.960   2.364
 9040SOL    HW228020   3.025   0.983   2.410
 9041SOL     OW28021   1.903   2.466   5.432
 9041SOL    HW128022   1.988   2.491   5.386
 9041SOL    HW228023   1.825   2.484   5.371
 9042SOL     OW28024   1.796   5.240   2.287
 9042SOL    HW128025   1.829   5.152   2.322
 9042SOL    HW228026   1.828   5.252   2.193
 9043SOL     OW28027   0.549   1.689   0.389
 9043SOL    HW128028   0.588   1.749   0.460
 9043SOL    HW228029   0.492   1.743   0.327
 9044SOL     OW28030   0.679   4.241   0.504
 9044SOL    HW128031   0.615   4.176   0.545
 9044SOL    HW228032   0.634   4.292   0.431
 9045SOL     OW28033   2.181   4.684   4.860
 9045SOL    HW128034   2.159   4.712   4.953
 9045SOL    HW228035   2.164   4.760   4.797
 9046SOL     OW28036   3.515   4.219   5.811
 9046SOL    HW128037   3.519   4.265   5.723
 9046SOL    HW228038   3.423   4.182   5.826
 9047SOL     OW28039   0.953   4.226   4.040
 9047SOL    HW128040   0.958   4.226   4.140
 9047SOL    HW228041   1.037   4.189   4.002
 9048SOL     OW28042   1.627   2.860   5.284
 9048SOL    HW128043   1.640   2.956   5.261
 9048SOL    HW228044   1.661   2.843   5.376
 9049SOL     OW28045   4.767   6.223   5.894
 9049SOL    HW128046   4.671   6.201   5.872
 9049SOL    HW228047   4.818   6.235   5.809
 9050SOL     OW28048   0.157   3.963   6.504
 9050SOL    HW128049   0.123   3.874   6.534
 9050SOL    HW228050   0.122   4.034   6.566
 9051SOL     OW28051   0.046   6.397   6.557
 9051SOL    HW128052   0.013   6.354   6.473
 9051SOL    HW228053   0.069   6.327   6.624
 9052SOL     OW28054   2.531   4.907   4.684
 9052SOL    HW128055   2.456   4.936   4.625
 9052SOL    HW228056   2.521   4.810   4.705
 9053SOL     OW28057   1.325   0.813   2.481
 9053SOL    HW128058   1.355   0.717   2.481
 9053SOL    HW228059   1.403   0.873   2.495
 9054SOL     OW28060   1.660   0.175   1.970
 9054SOL    HW128061   1.683   0.190   2.067
 9054SOL    HW228062   1.563   0.154   1.962
 9055SOL     OW28063   1.404   2.331   5.175
 9055SOL    HW128064   1.426   2.405   5.111
 9055SOL    HW228065   1.356   2.368   5.254
 9056SOL     OW28066   5.089   1.879   1.489
 9056SOL    HW128067   5.083   1.975   1.518
 9056SOL    HW228068   4.999   1.836   1.497
 9057SOL     OW28069   3.382   6.747   6.163
 9057SOL    HW128070   3.382   6.647   6.156
 9057SOL    HW228071   3.451   6.776   6.230
 9058SOL     OW28072   2.289   2.982   3.788
 9058SOL    HW128073   2.281   2.981   3.888
 9058SOL    HW228074   2.345   3.060   3.760
 9059SOL     OW28075   0.009   0.595   2.149
 9059SOL    HW128076   0.101   0.590   2.110
 9059SOL    HW228077   7.003   0.691   2.154
 9060SOL     OW28078   0.449   4.942   0.083
 9060SOL    HW128079   0.410   4.933   7.014
 9060SOL    HW228080   0.513   4.867   0.100
 9061SOL     OW28081   4.460   4.525   2.730
 9061SOL    HW128082   4.445   4.535   2.632
 9061SOL    HW228083   4.402   4.590   2.780
 9062SOL     OW28084   0.246   5.921   2.695
 9062SOL    HW128085   0.305   5.860   2.748
 9062SOL    HW228086   0.156   5.925   2.737
 9063SOL     OW28087   6.086   6.824   1.046
 9063SOL    HW128088   6.116   6.807   1.140
 9063SOL    HW228089   5.996   6.867   1.046
 9064SOL     OW28090   1.449   5.634   3.073
 9064SOL    HW128091   1.349   5.642   3.077
 9064SOL    HW228092   1.491   5.720   3.099
 9065SOL     OW28093   2.906   3.943   6.872
 9065SOL    HW128094   2.948   3.874   6.814
 9065SOL    HW228095   2.973   4.014   6.894
 9066SOL     OW28096   5.299   4.665   3.871
 9066SOL    HW128097   5.349   4.669   3.784
 9066SOL    HW228098   5.228   4.735   3.871
 9067SOL     OW28099   2.040   6.755   4.057
 9067SOL    HW128100   2.131   6.783   4.027
 9067SOL    HW228101   2.045   6.720   4.151
 9068SOL     OW28102   4.858   0.116   5.810
 9068SOL    HW128103   4.777   0.167   5.780
 9068SOL    HW228104   4.861   0.028   5.762
 9069SOL     OW28105   4.531   2.229   1.645
 9069SOL    HW128106   4.461   2.160   1.662
 9069SOL    HW228107   4.585   2.244   1.728
 9070SOL     OW28108   1.639   0.895   6.664
 9070SOL    HW128109   1.541   0.890   6.683
 9070SOL    HW228110   1.686   0.928   6.746
 9071SOL     OW28111   5.167   3.002   6.796
 9071SOL    HW128112   5.189   2.920   6.849
 9071SOL    HW228113   5.230   3.011   6.719
 9072SOL     OW28114   6.344   1.152   2.020
 9072SOL    HW128115   6.282   1.135   1.943
 9072SOL    HW228116   6.438   1.156   1.987
 9073SOL     OW28117   4.929   2.824   5.942
 9073SOL    HW128118   4.867   2.767   5.995
 9073SOL    HW228119   4.899   2.826   5.847
 9074SOL     OW28120   2.059   0.881   3.299
 9074SOL    HW128121   2.047   0.964   3.354
 9074SOL    HW228122   2.156   0.854   3.301
 9075SOL     OW28123   5.036   5.571   0.867
 9075SOL    HW128124   5.037   5.634   0.789
 9075SOL    HW228125   4.964   5.600   0.931
 9076SOL     OW28126   1.102   6.456   2.316
 9076SOL    HW128127   1.180   6.429   2.260
 9076SOL    HW228128   1.098   6.397   2.397
 9077SOL     OW28129   6.536   1.418   6.497
 9077SOL    HW128130   6.500   1.388   6.409
 9077SOL    HW228131   6.510   1.353   6.568
 9078SOL     OW28132   5.134   6.732   6.477
 9078SOL    HW128133   5.123   6.632   6.470
 9078SOL    HW228134   5.102   6.762   6.567
 9079SOL     OW28135   1.848   1.791   6.274
 9079SOL    HW128136   1.943   1.813   6.296
 9079SOL    HW228137   1.840   1.774   6.176
 9080SOL     OW28138   6.445   4.374   0.939
 9080SOL    HW128139   6.467   4.332   0.852
 9080SOL    HW228140   6.384   4.314   0.992
 9081SOL     OW28141   4.879   1.350   6.975
 9081SOL    HW128142   4.803   1.402   7.013
 9081SOL    HW228143   4.849   1.304   6.891
 9082SOL     OW28144   3.076   4.634   6.659
 9082SOL    HW128145   3.069   4.620   6.758
 9082SOL    HW228146   3.172   4.630   6.632
 9083SOL     OW28147   3.975   0.396   0.679
 9083SOL    HW128148   3.894   0.338   0.686
 9083SOL    HW228149   3.946   0.492   0.676
 9084SOL     OW28150   6.777   4.947   4.446
 9084SOL    HW128151   6.724   4.998   4.514
 9084SOL    HW228152   6.768   4.991   4.357
 9085SOL     OW28153   3.231   4.619   1.116
 9085SOL    HW128154   3.133   4.639   1.109
 9085SOL    HW228155   3.282   4.678   1.053
 9086SOL     OW28156   6.650   1.886   0.561
 9086SOL    HW128157   6.606   1.876   0.472
 9086SOL    HW228158   6.745   1.856   0.554
 9087SOL     OW28159   4.892   1.401   0.674
 9087SOL    HW128160   4.973   1.452   0.647
 9087SOL    HW228161   4.842   1.451   0.745
 9088SOL     OW28162   5.210   6.455   0.003
 9088SOL    HW128163   5.274   6.378   0.002
 9088SOL    HW228164   5.261   6.541   7.019
 9089SOL     OW28165   5.254   5.658   2.938
 9089SOL    HW128166   5.249   5.564   2.971
 9089SOL    HW228167   5.179   5.712   2.977
 9090SOL     OW28168   5.925   5.434   4.979
 9090SOL    HW128169   5.983   5.477   5.048
 9090SOL    HW228170   5.856   5.377   5.024
 9091SOL     OW28171   2.323   2.129   1.598
 9091SOL    HW128172   2.284   2.172   1.679
 9091SOL    HW228173   2.383   2.054   1.626
 9092SOL     OW28174   3.085   1.948   5.203
 9092SOL    HW128175   3.147   2.016   5.243
 9092SOL    HW228176   3.092   1.862   5.253
 9093SOL     OW28177   2.317   3.452   0.420
 9093SOL    HW128178   2.287   3.537   0.464
 9093SOL    HW228179   2.265   3.437   0.336
 9094SOL     OW28180   6.520   2.319   0.037
 9094SOL    HW128181   6.526   2.288   6.966
 9094SOL    HW228182   6.612   2.326   0.076
 9095SOL     OW28183   2.141   2.689   0.304
 9095SOL    HW128184   2.239   2.700   0.291
 9095SOL    HW228185   2.097   2.779   0.306
 9096SOL     OW28186   6.920   4.437   2.533
 9096SOL    HW128187   7.007   4.398   2.501
 9096SOL    HW228188   6.917   4.432   2.633
 9097SOL     OW28189   6.742   5.824   6.037
 9097SOL    HW128190   6.786   5.734   6.038
 9097SOL    HW228191   6.684   5.832   5.956
 9098SOL     OW28192   3.948   3.344   5.578
 9098SOL    HW128193   3.954   3.367   5.481
 9098SOL    HW228194   3.892   3.262   5.590
 9099SOL     OW28195   2.308   2.591   6.769
 9099SOL    HW128196   2.300   2.647   6.852
 9099SOL    HW228197   2.319   2.651   6.690
 9100SOL     OW28198   1.365   2.978   0.779
 9100SOL    HW128199   1.301   3.046   0.815
 9100SOL    HW228200   1.327   2.938   0.696
 9101SOL     OW28201   2.399   2.487   0.052
 9101SOL    HW128202   2.426   2.415   7.012
 9101SOL    HW228203   2.303   2.476   0.076
 9102SOL     OW28204   4.699   6.612   2.451
 9102SOL    HW128205   4.717   6.536   2.513
 9102SOL    HW228206   4.783   6.665   2.438
 9103SOL     OW28207   1.024   4.276   5.745
 9103SOL    HW128208   1.055   4.281   5.650
 9103SOL    HW228209   1.080   4.336   5.801
 9104SOL     OW28210   4.396   7.006   2.718
 9104SOL    HW128211   4.302   0.015   2.726
 9104SOL    HW228212   4.403   6.914   2.757
 9105SOL     OW28213   3.310   2.411   5.742
 9105SOL    HW128214   3.404   2.419   5.711
 9105SOL    HW228215   3.254   2.481   5.698
 9106SOL     OW28216   6.235   5.276   1.391
 9106SOL    HW128217   6.155   5.263   1.449
 9106SOL    HW228218   6.261   5.188   1.350
 9107SOL     OW28219   5.143   6.053   6.408
 9107SOL    HW128220   5.211   5.980   6.408
 9107SOL    HW228221   5.185   6.138   6.439
 9108SOL     OW28222   3.475   5.461   0.397
 9108SOL    HW128223   3.573   5.479   0.394
 9108SOL    HW228224   3.434   5.487   0.309
 9109SOL     OW28225   3.449   1.822   3.844
 9109SOL    HW128226   3.417   1.885   3.915
 9109SOL    HW228227   3.481   1.874   3.765
 9110SOL     OW28228   0.904   3.543   3.707
 9110SOL    HW128229   0.817   3.532   3.756
 9110SOL    HW228230   0.904   3.631   3.659
 9111SOL     OW28231   3.907   4.117   1.438
 9111SOL    HW128232   3.876   4.027   1.469
 9111SOL    HW228233   3.915   4.179   1.517
 9112SOL     OW28234   1.130   6.279   2.535
 9112SOL    HW128235   1.211   6.231   2.499
 9112SOL    HW228236   1.048   6.226   2.516
 9113SOL     OW28237   2.587   5.728   0.079
 9113SOL    HW128238   2.583   5.800   0.149
 9113SOL    HW228239   2.494   5.699   0.057
 9114SOL     OW28240   2.484   3.637   1.630
 9114SOL    HW128241   2.560   3.698   1.654
 9114SOL    HW228242   2.455   3.587   1.711
 9115SOL     OW28243   1.488   3.880   4.548
 9115SOL    HW128244   1.465   3.936   4.468
 9115SOL    HW228245   1.464   3.929   4.631
 9116SOL     OW28246   2.661   2.068   5.992
 9116SOL    HW128247   2.720   1.989   6.001
 9116SOL    HW228248   2.714   2.147   5.961
 9117SOL     OW28249   0.973   2.609   0.289
 9117SOL    HW128250   0.946   2.517   0.260
 9117SOL    HW228251   1.065   2.606   0.326
 9118SOL     OW28252   0.230   6.641   1.934
 9118SOL    HW128253   0.291   6.590   1.995
 9118SOL    HW228254   0.259   6.626   1.839
 9119SOL     OW28255   6.290   0.045   1.135
 9119SOL    HW128256   6.238   0.020   1.053
 9119SOL    HW228257   6.238   0.114   1.186
 9120SOL     OW28258   6.268   0.496   0.001
 9120SOL    HW128259   6.241   0.543   0.085
 9120SOL    HW228260   6.255   0.397   0.011
 9121SOL     OW28261   1.468   1.333   6.458
 9121SOL    HW128262   1.431   1.416   6.501
 9121SOL    HW228263   1.401   1.259   6.465
 9122SOL     OW28264   0.622   2.946   1.262
 9122SOL    HW128265   0.697   3.011   1.248
 9122SOL    HW228266   0.536   2.987   1.234
 9123SOL     OW28267   1.428   6.576   6.535
 9123SOL    HW128268   1.507   6.606   6.588
 9123SOL    HW228269   1.453   6.497   6.479
 9124SOL     OW28270   0.271   4.309   5.151
 9124SOL    HW128271   0.263   4.217   5.112
 9124SOL    HW228272   0.363   4.321   5.190
 9125SOL     OW28273   4.843   6.219   0.994
 9125SOL    HW128274   4.750   6.217   1.030
 9125SOL    HW228275   4.887   6.131   1.007
 9126SOL     OW28276   5.738   0.228   3.315
 9126SOL    HW128277   5.674   0.296   3.351
 9126SOL    HW228278   5.737   0.232   3.215
 9127SOL     OW28279   5.897   5.670   5.885
 9127SOL    HW128280   5.968   5.665   5.955
 9127SOL    HW228281   5.812   5.630   5.920
 9128SOL     OW28282   4.790   2.810   5.435
 9128SOL    HW128283   4.722   2.829   5.365
 9128SOL    HW228284   4.758   2.844   5.524
 9129SOL     OW28285   3.041   1.373   0.307
 9129SOL    HW128286   3.096   1.418   0.377
 9129SOL    HW228287   3.097   1.358   0.225
 9130SOL     OW28288   5.617   5.647   0.863
 9130SOL    HW128289   5.671   5.664   0.781
 9130SOL    HW228290   5.556   5.724   0.879
 9131SOL     OW28291   1.425   4.792   3.856
 9131SOL    HW128292   1.383   4.704   3.879
 9131SOL    HW228293   1.392   4.862   3.920
 9132SOL     OW28294   1.424   2.814   4.250
 9132SOL    HW128295   1.489   2.767   4.309
 9132SOL    HW228296   1.472   2.877   4.190
 9133SOL     OW28297   1.496   4.988   1.135
 9133SOL    HW128298   1.510   5.076   1.179
 9133SOL    HW228299   1.557   4.980   1.056
 9134SOL     OW28300   2.657   5.042   6.277
 9134SOL    HW128301   2.704   5.128   6.297
 9134SOL    HW228302   2.721   4.978   6.233
 9135SOL     OW28303   1.193   6.376   3.943
 9135SOL    HW128304   1.101   6.366   3.982
 9135SOL    HW228305   1.185   6.414   3.851
 9136SOL     OW28306   3.419   5.265   5.140
 9136SOL    HW128307   3.344   5.224   5.191
 9136SOL    HW228308   3.445   5.352   5.182
 9137SOL     OW28309   4.262   0.582   2.220
 9137SOL    HW128310   4.196   0.514   2.252
 9137SOL    HW228311   4.238   0.671   2.258
 9138SOL     OW28312   3.347   4.420   0.908
 9138SOL    HW128313   3.257   4.433   0.950
 9138SOL    HW228314   3.350   4.331   0.862
 9139SOL     OW28315   3.526   0.549   5.686
 9139SOL    HW128316   3.449   0.592   5.640
 9139SOL    HW228317   3.493   0.477   5.746
 9140SOL     OW28318   6.250   3.023   3.080
 9140SOL    HW128319   6.346   2.993   3.084
 9140SOL    HW228320   6.243   3.105   3.023
 9141SOL     OW28321   5.485   0.570   5.890
 9141SOL    HW128322   5.454   0.482   5.854
 9141SOL    HW228323   5.526   0.557   5.980
 9142SOL     OW28324   1.539   3.999   6.629
 9142SOL    HW128325   1.554   4.068   6.700
 9142SOL    HW228326   1.463   3.941   6.656
 9143SOL     OW28327   5.914   4.464   0.200
 9143SOL    HW128328   5.892   4.540   0.261
 9143SOL    HW228329   6.008   4.472   0.169
 9144SOL     OW28330   1.062   5.566   4.601
 9144SOL    HW128331   1.109   5.536   4.517
 9144SOL    HW228332   0.965   5.542   4.595
 9145SOL     OW28333   0.996   3.733   6.521
 9145SOL    HW128334   1.043   3.727   6.433
 9145SOL    HW228335   0.991   3.829   6.550
 9146SOL     OW28336   0.787   1.474   0.880
 9146SOL    HW128337   0.774   1.463   0.782
 9146SOL    HW228338   0.705   1.515   0.920
 9147SOL     OW28339   4.299   5.546   6.747
 9147SOL    HW128340   4.382   5.582   6.704
 9147SOL    HW228341   4.304   5.447   6.754
 9148SOL     OW28342   3.400   4.894   2.927
 9148SOL    HW128343   3.463   4.940   2.864
 9148SOL    HW228344   3.307   4.896   2.889
 9149SOL     OW28345   6.576   3.186   5.077
 9149SOL    HW128346   6.548   3.266   5.024
 9149SOL    HW228347   6.667   3.157   5.049
 9150SOL     OW28348   4.147   1.230   2.816
 9150SOL    HW128349   4.206   1.261   2.742
 9150SOL    HW228350   4.074   1.296   2.831
 9151SOL     OW28351   6.688   3.106   2.115
 9151SOL    HW128352   6.691   3.170   2.192
 9151SOL    HW228353   6.714   3.014   2.146
 9152SOL     OW28354   2.370   4.910   3.044
 9152SOL    HW128355   2.413   4.833   3.092
 9152SOL    HW228356   2.433   4.987   3.043
 9153SOL     OW28357   2.099   2.858   6.883
 9153SOL    HW128358   2.066   2.765   6.867
 9153SOL    HW228359   2.094   2.878   6.981
 9154SOL     OW28360   0.821   5.554   0.855
 9154SOL    HW128361   0.827   5.514   0.946
 9154SOL    HW228362   0.909   5.544   0.807
 9155SOL     OW28363   1.639   4.537   0.248
 9155SOL    HW128364   1.725   4.553   0.296
 9155SOL    HW228365   1.574   4.492   0.310
 9156SOL     OW28366   4.703   2.605   1.613
 9156SOL    HW128367   4.678   2.634   1.705
 9156SOL    HW228368   4.626   2.619   1.551
 9157SOL     OW28369   5.654   3.524   5.506
 9157SOL    HW128370   5.580   3.529   5.439
 9157SOL    HW228371   5.621   3.559   5.594
 9158SOL     OW28372   1.075   3.847   3.807
 9158SOL    HW128373   1.120   3.793   3.878
 9158SOL    HW228374   1.058   3.939   3.842
 9159SOL     OW28375   6.908   4.780   1.902
 9159SOL    HW128376   6.863   4.809   1.818
 9159SOL    HW228377   7.007   4.783   1.891
 9160SOL     OW28378   0.470   0.073   1.319
 9160SOL    HW128379   0.473   7.014   1.263
 9160SOL    HW228380   0.558   0.085   1.365
 9161SOL     OW28381   4.864   4.448   2.354
 9161SOL    HW128382   4.786   4.428   2.294
 9161SOL    HW228383   4.948   4.412   2.313
 9162SOL     OW28384   5.071   2.743   3.246
 9162SOL    HW128385   4.976   2.762   3.273
 9162SOL    HW228386   5.074   2.724   3.148
 9163SOL     OW28387   3.638   0.710   5.056
 9163SOL    HW128388   3.544   0.709   5.091
 9163SOL    HW228389   3.638   0.751   4.965
 9164SOL     OW28390   2.821   0.432   0.924
 9164SOL    HW128391   2.846   0.341   0.892
 9164SOL    HW228392   2.829   0.436   1.023
 9165SOL     OW28393   4.844   6.118   0.607
 9165SOL    HW128394   4.882   6.065   0.531
 9165SOL    HW228395   4.863   6.071   0.694
 9166SOL     OW28396   3.202   5.636   1.209
 9166SOL    HW128397   3.131   5.574   1.243
 9166SOL    HW228398   3.292   5.597   1.228
 9167SOL     OW28399   0.464   3.588   4.711
 9167SOL    HW128400   0.511   3.510   4.670
 9167SOL    HW228401   0.395   3.622   4.648
 9168SOL     OW28402   3.521   0.487   0.438
 9168SOL    HW128403   3.431   0.465   0.474
 9168SOL    HW228404   3.566   0.403   0.407
 9169SOL     OW28405   0.317   6.943   3.611
 9169SOL    HW128406   0.320   7.012   3.683
 9169SOL    HW228407   0.250   6.873   3.635
 9170SOL     OW28408   6.564   6.127   0.259
 9170SOL    HW128409   6.655   6.091   0.241
 9170SOL    HW228410   6.524   6.079   0.337
 9171SOL     OW28411   3.760   5.796   5.266
 9171SOL    HW128412   3.814   5.727   5.219
 9171SOL    HW228413   3.670   5.803   5.223
 9172SOL     OW28414   2.533   2.502   4.070
 9172SOL    HW128415   2.599   2.430   4.050
 9172SOL    HW228416   2.534   2.523   4.168
 9173SOL     OW28417   0.175   5.431   5.427
 9173SOL    HW128418   0.249   5.364   5.434
 9173SOL    HW228419   0.092   5.392   5.466
 9174SOL     OW28420   0.253   5.695   6.493
 9174SOL    HW128421   0.256   5.607   6.446
 9174SOL    HW228422   0.204   5.685   6.579
 9175SOL     OW28423   2.573   6.097   5.502
 9175SOL    HW128424   2.484   6.083   5.458
 9175SOL    HW228425   2.575   6.048   5.590
 9176SOL     OW28426   1.460   2.218   5.681
 9176SOL    HW128427   1.558   2.229   5.697
 9176SOL    HW228428   1.441   2.220   5.583
 9177SOL     OW28429   1.230   4.582   3.071
 9177SOL    HW128430   1.179   4.616   3.151
 9177SOL    HW228431   1.170   4.581   2.992
 9178SOL     OW28432   2.144   4.044   0.689
 9178SOL    HW128433   2.227   3.992   0.670
 9178SOL    HW228434   2.072   3.982   0.718
 9179SOL     OW28435   2.706   5.085   5.181
 9179SOL    HW128436   2.643   5.032   5.239
 9179SOL    HW228437   2.723   5.035   5.096
 9180SOL     OW28438   5.260   1.915   2.710
 9180SOL    HW128439   5.349   1.909   2.755
 9180SOL    HW228440   5.201   1.977   2.761
 9181SOL     OW28441   4.045   1.016   2.354
 9181SOL    HW128442   4.110   1.078   2.310
 9181SOL    HW228443   3.957   1.062   2.365
 9182SOL     OW28444   2.223   6.786   2.051
 9182SOL    HW128445   2.254   6.711   2.110
 9182SOL    HW228446   2.293   6.858   2.050
 9183SOL     OW28447   5.411   5.043   6.083
 9183SOL    HW128448   5.509   5.032   6.066
 9183SOL    HW228449   5.368   5.082   6.002
 9184SOL     OW28450   4.985   6.757   0.107
 9184SOL    HW128451   4.929   6.767   0.025
 9184SOL    HW228452   4.972   6.666   0.145
 9185SOL     OW28453   5.063   1.790   4.819
 9185SOL    HW128454   5.035   1.883   4.795
 9185SOL    HW228455   5.107   1.791   4.909
 9186SOL     OW28456   5.540   0.628   6.151
 9186SOL    HW128457   5.483   0.548   6.172
 9186SOL    HW228458   5.483   0.709   6.142
 9187SOL     OW28459   2.318   6.280   2.932
 9187SOL    HW128460   2.296   6.297   2.836
 9187SOL    HW228461   2.266   6.202   2.965
 9188SOL     OW28462   2.564   5.580   0.781
 9188SOL    HW128463   2.543   5.537   0.869
 9188SOL    HW228464   2.520   5.670   0.777
 9189SOL     OW28465   5.257   5.247   1.932
 9189SOL    HW128466   5.312   5.201   2.002
 9189SOL    HW228467   5.193   5.309   1.977
 9190SOL     OW28468   1.287   5.753   7.023
 9190SOL    HW128469   1.287   5.746   6.923
 9190SOL    HW228470   1.325   5.669   0.039
 9191SOL     OW28471   0.215   0.995   5.592
 9191SOL    HW128472   0.160   1.016   5.673
 9191SOL    HW228473   0.205   1.068   5.525
 9192SOL     OW28474   1.064   3.689   5.212
 9192SOL    HW128475   0.980   3.647   5.247
 9192SOL    HW228476   1.103   3.750   5.281
 9193SOL     OW28477   2.877   3.902   0.552
 9193SOL    HW128478   2.792   3.937   0.513
 9193SOL    HW228479   2.896   3.811   0.516
 9194SOL     OW28480   3.118   0.878   4.217
 9194SOL    HW128481   3.177   0.798   4.214
 9194SOL    HW228482   3.156   0.946   4.280
 9195SOL     OW28483   1.691   1.141   4.183
 9195SOL    HW128484   1.712   1.091   4.099
 9195SOL    HW228485   1.617   1.207   4.165
 9196SOL     OW28486   5.312   1.307   5.905
 9196SOL    HW128487   5.402   1.345   5.929
 9196SOL    HW228488   5.323   1.212   5.874
 9197SOL     OW28489   2.316   3.723   0.354
 9197SOL    HW128490   2.221   3.693   0.358
 9197SOL    HW228491   2.350   3.715   0.260
 9198SOL     OW28492   0.805   4.747   4.504
 9198SOL    HW128493   0.721   4.771   4.553
 9198SOL    HW228494   0.846   4.666   4.546
 9199SOL     OW28495   5.809   4.443   4.922
 9199SOL    HW128496   5.786   4.435   4.825
 9199SOL    HW228497   5.908   4.453   4.932
 9200SOL     OW28498   2.805   6.776   0.391
 9200SOL    HW128499   2.722   6.720   0.399
 9200SOL    HW228500   2.864   6.736   0.321
 9201SOL     OW28501   2.093   4.297   0.783
 9201SOL    HW128502   2.120   4.203   0.761
 9201SOL    HW228503   1.994   4.306   0.772
 9202SOL     OW28504   2.280   0.870   3.530
 9202SOL    HW128505   2.371   0.863   3.569
 9202SOL    HW228506   2.276   0.948   3.467
 9203SOL     OW28507   6.583   6.509   0.703
 9203SOL    HW128508   6.677   6.493   0.675
 9203SOL    HW228509   6.525   6.434   0.670
 9204SOL     OW28510   6.179   0.543   5.193
 9204SOL    HW128511   6.140   0.522   5.282
 9204SOL    HW228512   6.113   0.595   5.139
 9205SOL     OW28513   6.859   5.440   2.028
 9205SOL    HW128514   6.763   5.432   2.055
 9205SOL    HW228515   6.871   5.522   1.971
 9206SOL     OW28516   3.786   6.932   6.932
 9206SOL    HW128517   3.815   6.856   6.990
 9206SOL    HW228518   3.835   7.015   6.959
 9207SOL     OW28519   5.746   5.877   5.783
 9207SOL    HW128520   5.764   5.955   5.843
 9207SOL    HW228521   5.818   5.808   5.795
 9208SOL     OW28522   1.209   3.797   2.603
 9208SOL    HW128523   1.177   3.890   2.588
 9208SOL    HW228524   1.131   3.738   2.624
 9209SOL     OW28525   2.223   6.502   6.697
 9209SOL    HW128526   2.303   6.456   6.658
 9209SOL    HW228527   2.180   6.558   6.626
 9210SOL     OW28528   6.326   0.382   4.070
 9210SOL    HW128529   6.409   0.430   4.043
 9210SOL    HW228530   6.351   0.297   4.117
 9211SOL     OW28531   0.222   1.550   2.775
 9211SOL    HW128532   0.188   1.458   2.790
 9211SOL    HW228533   0.152   1.616   2.804
 9212SOL     OW28534   3.538   5.169   4.285
 9212SOL    HW128535   3.562   5.090   4.342
 9212SOL    HW228536   3.512   5.246   4.344
 9213SOL     OW28537   6.040   3.726   6.830
 9213SOL    HW128538   6.117   3.772   6.786
 9213SOL    HW228539   6.029   3.761   6.923
 9214SOL     OW28540   0.559   5.269   0.340
 9214SOL    HW128541   0.503   5.192   0.371
 9214SOL    HW228542   0.630   5.235   0.278
 9215SOL     OW28543   1.560   1.374   0.861
 9215SOL    HW128544   1.630   1.413   0.921
 9215SOL    HW228545   1.469   1.392   0.899
 9216SOL     OW28546   1.918   0.321   3.761
 9216SOL    HW128547   1.866   0.258   3.703
 9216SOL    HW228548   2.016   0.312   3.740
 9217SOL     OW28549   0.283   2.391   0.545
 9217SOL    HW128550   0.218   2.372   0.619
 9217SOL    HW228551   0.366   2.432   0.582
 9218SOL     OW28552   2.273   0.674   0.643
 9218SOL    HW128553   2.214   0.608   0.689
 9218SOL    HW228554   2.243   0.767   0.666
 9219SOL     OW28555   5.833   1.922   0.461
 9219SOL    HW128556   5.877   1.850   0.408
 9219SOL    HW228557   5.891   1.947   0.539
 9220SOL     OW28558   3.137   6.403   0.479
 9220SOL    HW128559   3.132   6.309   0.513
 9220SOL    HW228560   3.229   6.438   0.491
 9221SOL     OW28561   2.637   4.642   4.806
 9221SOL    HW128562   2.684   4.630   4.893
 9221SOL    HW228563   2.554   4.586   4.804
 9222SOL     OW28564   3.058   2.031   6.741
 9222SOL    HW128565   2.992   2.100   6.771
 9222SOL    HW228566   3.132   2.075   6.691
 9223SOL     OW28567   2.894   3.264   4.920
 9223SOL    HW128568   2.806   3.265   4.872
 9223SOL    HW228569   2.912   3.355   4.959
 9224SOL     OW28570   2.283   4.771   5.123
 9224SOL    HW128571   2.247   4.833   5.193
 9224SOL    HW228572   2.337   4.823   5.057
 9225SOL     OW28573   1.724   6.269   0.151
 9225SOL    HW128574   1.662   6.199   0.188
 9225SOL    HW228575   1.819   6.238   0.160
 9226SOL     OW28576   4.457   6.705   0.941
 9226SOL    HW128577   4.472   6.804   0.943
 9226SOL    HW228578   4.364   6.684   0.969
 9227SOL     OW28579   1.104   6.432   1.730
 9227SOL    HW128580   1.022   6.376   1.719
 9227SOL    HW228581   1.077   6.526   1.752
 9228SOL     OW28582   0.725   6.703   6.585
 9228SOL    HW128583   0.663   6.780   6.568
 9228SOL    HW228584   0.689   6.647   6.660
 9229SOL     OW28585   0.884   6.009   5.442
 9229SOL    HW128586   0.800   6.046   5.403
 9229SOL    HW228587   0.861   5.935   5.506
 9230SOL     OW28588   4.744   1.745   3.398
 9230SOL    HW128589   4.708   1.678   3.464
 9230SOL    HW228590   4.668   1.788   3.350
 9231SOL     OW28591   2.000   3.613   3.430
 9231SOL    HW128592   2.017   3.710   3.411
 9231SOL    HW228593   2.067   3.557   3.381
 9232SOL     OW28594   4.381   5.301   1.418
 9232SOL    HW128595   4.458   5.352   1.378
 9232SOL    HW228596   4.404   5.276   1.512
 9233SOL     OW28597   5.875   4.739   7.006
 9233SOL    HW128598   5.942   4.686   0.034
 9233SOL    HW228599   5.918   4.775   6.923
 9234SOL     OW28600   1.451   6.319   4.018
 9234SOL    HW128601   1.355   6.332   3.995
 9234SOL    HW228602   1.483   6.233   3.978
 9235SOL     OW28603   0.905   2.500   3.426
 9235SOL    HW128604   0.916   2.592   3.390
 9235SOL    HW228605   0.967   2.438   3.379
 9236SOL     OW28606   3.556   2.576   5.739
 9236SOL    HW128607   3.592   2.630   5.663
 9236SOL    HW228608   3.490   2.631   5.790
 9237SOL     OW28609   1.579   3.613   3.152
 9237SOL    HW128610   1.494   3.574   3.188
 9237SOL    HW228611   1.650   3.606   3.222
 9238SOL     OW28612   4.482   3.267   6.759
 9238SOL    HW128613   4.441   3.243   6.847
 9238SOL    HW228614   4.518   3.185   6.715
 9239SOL     OW28615   2.231   3.026   6.230
 9239SOL    HW128616   2.185   3.075   6.156
 9239SOL    HW228617   2.314   3.075   6.257
 9240SOL     OW28618   4.900   0.853   2.449
 9240SOL    HW128619   5.000   0.844   2.445
 9240SOL    HW228620   4.861   0.836   2.358
 9241SOL     OW28621   0.550   5.507   6.070
 9241SOL    HW128622   0.515   5.568   6.141
 9241SOL    HW228623   0.513   5.535   5.981
 9242SOL     OW28624   5.409   6.330   1.887
 9242SOL    HW128625   5.455   6.331   1.798
 9242SOL    HW228626   5.477   6.325   1.960
 9243SOL     OW28627   5.731   0.097   4.275
 9243SOL    HW128628   5.652   0.067   4.222
 9243SOL    HW228629   5.785   0.162   4.221
 9244SOL     OW28630   3.680   5.978   0.458
 9244SOL    HW128631   3.686   6.017   0.550
 9244SOL    HW228632   3.645   6.047   0.395
 9245SOL     OW28633   0.284   6.922   1.827
 9245SOL    HW128634   0.192   6.949   1.798
 9245SOL    HW228635   0.279   6.836   1.879
 9246SOL     OW28636   0.154   5.177   3.971
 9246SOL    HW128637   0.078   5.120   3.941
 9246SOL    HW228638   0.142   5.200   4.068
 9247SOL     OW28639   1.218   0.286   3.238
 9247SOL    HW128640   1.164   0.312   3.158
 9247SOL    HW228641   1.168   0.310   3.322
 9248SOL     OW28642   3.964   1.423   6.102
 9248SOL    HW128643   4.046   1.379   6.140
 9248SOL    HW228644   3.980   1.447   6.006
 9249SOL     OW28645   3.851   6.602   3.603
 9249SOL    HW128646   3.899   6.679   3.645
 9249SOL    HW228647   3.766   6.584   3.652
 9250SOL     OW28648   5.188   4.040   2.959
 9250SOL    HW128649   5.280   4.064   2.928
 9250SOL    HW228650   5.122   4.063   2.888
 9251SOL     OW28651   3.827   1.708   2.228
 9251SOL    HW128652   3.844   1.768   2.306
 9251SOL    HW228653   3.729   1.704   2.209
 9252SOL     OW28654   1.593   6.881   4.207
 9252SOL    HW128655   1.568   6.895   4.303
 9252SOL    HW228656   1.563   6.790   4.179
 9253SOL     OW28657   1.373   6.790   6.356
 9253SOL    HW128658   1.433   6.848   6.410
 9253SOL    HW228659   1.392   6.694   6.377
 9254SOL     OW28660   5.330   2.430   1.265
 9254SOL    HW128661   5.387   2.391   1.192
 9254SOL    HW228662   5.297   2.356   1.324
 9255SOL     OW28663   0.269   5.510   0.699
 9255SOL    HW128664   0.288   5.470   0.609
 9255SOL    HW228665   0.293   5.607   0.698
 9256SOL     OW28666   3.917   5.259   2.707
 9256SOL    HW128667   3.880   5.247   2.615
 9256SOL    HW228668   3.929   5.356   2.726
 9257SOL     OW28669   0.556   3.404   1.069
 9257SOL    HW128670   0.477   3.353   1.034
 9257SOL    HW228671   0.583   3.473   1.002
 9258SOL     OW28672   3.117   3.014   4.441
 9258SOL    HW128673   3.032   2.998   4.491
 9258SOL    HW228674   3.109   3.098   4.388
 9259SOL     OW28675   1.574   2.494   0.322
 9259SOL    HW128676   1.569   2.419   0.388
 9259SOL    HW228677   1.482   2.524   0.298
 9260SOL     OW28678   6.895   3.669   6.992
 9260SOL    HW128679   6.843   3.689   0.051
 9260SOL    HW228680   6.993   3.674   7.012
 9261SOL     OW28681   3.056   6.677   5.823
 9261SOL    HW128682   3.130   6.635   5.770
 9261SOL    HW228683   3.088   6.693   5.917
 9262SOL     OW28684   5.807   0.634   6.152
 9262SOL    HW128685   5.707   0.624   6.150
 9262SOL    HW228686   5.842   0.597   6.238
 9263SOL     OW28687   5.693   4.190   2.155
 9263SOL    HW128688   5.771   4.143   2.197
 9263SOL    HW228689   5.670   4.270   2.210
 9264SOL     OW28690   5.768   2.888   0.155
 9264SOL    HW128691   5.694   2.938   0.110
 9264SOL    HW228692   5.787   2.929   0.244
 9265SOL     OW28693   1.495   2.212   5.404
 9265SOL    HW128694   1.480   2.254   5.315
 9265SOL    HW228695   1.590   2.180   5.410
 9266SOL     OW28696   2.658   6.069   2.317
 9266SOL    HW128697   2.641   6.012   2.397
 9266SOL    HW228698   2.747   6.045   2.277
 9267SOL     OW28699   2.734   5.061   5.837
 9267SOL    HW128700   2.792   4.996   5.887
 9267SOL    HW228701   2.734   5.149   5.884
 9268SOL     OW28702   1.500   1.478   3.158
 9268SOL    HW128703   1.463   1.411   3.093
 9268SOL    HW228704   1.539   1.430   3.237
 9269SOL     OW28705   4.302   1.524   5.367
 9269SOL    HW128706   4.279   1.437   5.322
 9269SOL    HW228707   4.262   1.526   5.458
 9270SOL     OW28708   1.403   0.578   5.476
 9270SOL    HW128709   1.472   0.577   5.548
 9270SOL    HW228710   1.363   0.487   5.467
 9271SOL     OW28711   0.401   5.098   6.135
 9271SOL    HW128712   0.429   5.007   6.103
 9271SOL    HW228713   0.462   5.167   6.095
 9272SOL     OW28714   2.504   5.438   6.768
 9272SOL    HW128715   2.443   5.364   6.798
 9272SOL    HW228716   2.493   5.452   6.670
 9273SOL     OW28717   4.178   5.848   5.905
 9273SOL    HW128718   4.093   5.890   5.939
 9273SOL    HW228719   4.160   5.805   5.817
 9274SOL     OW28720   5.416   2.464   2.161
 9274SOL    HW128721   5.416   2.405   2.080
 9274SOL    HW228722   5.354   2.541   2.145
 9275SOL     OW28723   0.314   0.232   5.903
 9275SOL    HW128724   0.271   0.161   5.960
 9275SOL    HW228725   0.249   0.307   5.889
 9276SOL     OW28726   4.356   6.664   3.874
 9276SOL    HW128727   4.282   6.619   3.823
 9276SOL    HW228728   4.442   6.616   3.858
 9277SOL     OW28729   4.722   2.507   0.148
 9277SOL    HW128730   4.765   2.429   0.193
 9277SOL    HW228731   4.677   2.564   0.216
 9278SOL     OW28732   1.279   2.455   1.303
 9278SOL    HW128733   1.234   2.507   1.376
 9278SOL    HW228734   1.329   2.378   1.342
 9279SOL     OW28735   2.204   6.251   0.442
 9279SOL    HW128736   2.150   6.319   0.391
 9279SOL    HW228737   2.291   6.236   0.395
 9280SOL     OW28738   1.206   0.363   2.726
 9280SOL    HW128739   1.270   0.342   2.800
 9280SOL    HW228740   1.257   0.390   2.644
 9281SOL     OW28741   2.213   2.170   0.249
 9281SOL    HW128742   2.260   2.139   0.166
 9281SOL    HW228743   2.182   2.265   0.236
 9282SOL     OW28744   4.087   1.317   6.531
 9282SOL    HW128745   4.009   1.374   6.556
 9282SOL    HW228746   4.060   1.221   6.538
 9283SOL     OW28747   5.300   2.547   2.806
 9283SOL    HW128748   5.362   2.544   2.727
 9283SOL    HW228749   5.333   2.485   2.877
 9284SOL     OW28750   3.640   3.805   1.845
 9284SOL    HW128751   3.697   3.729   1.811
 9284SOL    HW228752   3.546   3.773   1.857
 9285SOL     OW28753   6.666   3.088   6.349
 9285SOL    HW128754   6.759   3.113   6.319
 9285SOL    HW228755   6.671   3.014   6.416
 9286SOL     OW28756   5.876   5.336   4.471
 9286SOL    HW128757   5.872   5.425   4.517
 9286SOL    HW228758   5.929   5.272   4.526
 9287SOL     OW28759   2.794   6.895   2.541
 9287SOL    HW128760   2.695   6.893   2.534
 9287SOL    HW228761   2.823   6.986   2.571
 9288SOL     OW28762   4.702   2.159   6.105
 9288SOL    HW128763   4.719   2.174   6.203
 9288SOL    HW228764   4.784   2.123   6.062
 9289SOL     OW28765   5.434   4.471   2.580
 9289SOL    HW128766   5.427   4.567   2.550
 9289SOL    HW228767   5.529   4.441   2.573
 9290SOL     OW28768   4.573   1.999   4.008
 9290SOL    HW128769   4.561   2.023   3.912
 9290SOL    HW228770   4.586   1.900   4.017
 9291SOL     OW28771   0.902   2.144   5.105
 9291SOL    HW128772   0.832   2.143   5.176
 9291SOL    HW228773   0.942   2.236   5.099
 9292SOL     OW28774   0.276   4.090   0.145
 9292SOL    HW128775   0.314   4.101   0.237
 9292SOL    HW228776   0.313   4.007   0.104
 9293SOL     OW28777   6.422   3.806   5.750
 9293SOL    HW128778   6.514   3.814   5.710
 9293SOL    HW228779   6.358   3.776   5.680
 9294SOL     OW28780   5.459   5.917   6.180
 9294SOL    HW128781   5.541   5.859   6.180
 9294SOL    HW228782   5.421   5.921   6.272
 9295SOL     OW28783   4.815   2.737   3.405
 9295SOL    HW128784   4.757   2.755   3.325
 9295SOL    HW228785   4.794   2.646   3.441
 9296SOL     OW28786   6.765   0.209   4.979
 9296SOL    HW128787   6.824   0.281   5.016
 9296SOL    HW228788   6.815   0.154   4.913
 9297SOL     OW28789   0.985   0.656   1.693
 9297SOL    HW128790   1.003   0.754   1.694
 9297SOL    HW228791   0.887   0.640   1.705
 9298SOL     OW28792   0.805   6.822   4.982
 9298SOL    HW128793   0.789   6.734   5.027
 9298SOL    HW228794   0.803   6.808   4.883
 9299SOL     OW28795   1.782   3.023   4.190
 9299SOL    HW128796   1.696   3.049   4.146
 9299SOL    HW228797   1.793   2.924   4.185
 9300SOL     OW28798   5.636   4.503   3.470
 9300SOL    HW128799   5.572   4.470   3.539
 9300SOL    HW228800   5.606   4.473   3.379
 9301SOL     OW28801   6.485   4.559   1.439
 9301SOL    HW128802   6.496   4.511   1.526
 9301SOL    HW228803   6.404   4.618   1.443
 9302SOL     OW28804   1.440   2.037   2.385
 9302SOL    HW128805   1.384   1.989   2.318
 9302SOL    HW228806   1.434   2.135   2.369
 9303SOL     OW28807   4.699   4.124   0.550
 9303SOL    HW128808   4.699   4.078   0.461
 9303SOL    HW228809   4.650   4.068   0.616
 9304SOL     OW28810   4.511   3.525   0.693
 9304SOL    HW128811   4.611   3.524   0.697
 9304SOL    HW228812   4.475   3.471   0.770
 9305SOL     OW28813   4.871   3.748   2.132
 9305SOL    HW128814   4.833   3.731   2.042
 9305SOL    HW228815   4.963   3.788   2.122
 9306SOL     OW28816   6.845   5.664   4.123
 9306SOL    HW128817   6.810   5.571   4.135
 9306SOL    HW228818   6.844   5.688   4.026
 9307SOL     OW28819   2.321   0.980   5.693
 9307SOL    HW128820   2.328   0.901   5.632
 9307SOL    HW228821   2.388   0.970   5.767
 9308SOL     OW28822   6.741   2.493   0.516
 9308SOL    HW128823   6.757   2.395   0.523
 9308SOL    HW228824   6.658   2.509   0.461
 9309SOL     OW28825   5.289   2.669   6.509
 9309SOL    HW128826   5.296   2.706   6.417
 9309SOL    HW228827   5.229   2.728   6.564
 9310SOL     OW28828   3.944   6.949   1.504
 9310SOL    HW128829   3.977   6.884   1.436
 9310SOL    HW228830   3.989   0.014   1.490
 9311SOL     OW28831   0.173   3.695   1.523
 9311SOL    HW128832   0.075   3.704   1.505
 9311SOL    HW228833   0.204   3.771   1.579
 9312SOL     OW28834   1.964   3.993   4.780
 9312SOL    HW128835   2.058   3.980   4.751
 9312SOL    HW228836   1.951   4.087   4.812
 9313SOL     OW28837   6.235   6.724   2.318
 9313SOL    HW128838   6.170   6.792   2.285
 9313SOL    HW228839   6.202   6.632   2.296
 9314SOL     OW28840   6.705   4.287   0.435
 9314SOL    HW128841   6.782   4.294   0.372
 9314SOL    HW228842   6.625   4.251   0.386
 9315SOL     OW28843   0.581   6.402   6.309
 9315SOL    HW128844   0.657   6.460   6.339
 9315SOL    HW228845   0.511   6.400   6.381
 9316SOL     OW28846   3.434   5.406   4.419
 9316SOL    HW128847   3.482   5.492   4.403
 9316SOL    HW228848   3.421   5.392   4.517
 9317SOL     OW28849   4.282   4.057   5.473
 9317SOL    HW128850   4.324   4.070   5.562
 9317SOL    HW228851   4.187   4.029   5.484
 9318SOL     OW28852   6.688   6.437   5.891
 9318SOL    HW128853   6.616   6.468   5.953
 9318SOL    HW228854   6.767   6.498   5.900
 9319SOL     OW28855   6.066   3.679   4.536
 9319SOL    HW128856   5.992   3.706   4.475
 9319SOL    HW228857   6.153   3.710   4.498
 9320SOL     OW28858   4.194   2.904   6.018
 9320SOL    HW128859   4.293   2.903   6.003
 9320SOL    HW228860   4.172   2.849   6.098
 9321SOL     OW28861   6.107   5.998   4.239
 9321SOL    HW128862   6.055   6.038   4.164
 9321SOL    HW228863   6.190   6.052   4.255
 9322SOL     OW28864   1.073   6.047   0.538
 9322SOL    HW128865   1.154   6.085   0.494
 9322SOL    HW228866   1.098   6.009   0.627
 9323SOL     OW28867   0.736   1.038   6.573
 9323SOL    HW128868   0.752   0.972   6.500
 9323SOL    HW228869   0.653   1.013   6.623
 9324SOL     OW28870   1.639   5.319   6.771
 9324SOL    HW128871   1.602   5.232   6.805
 9324SOL    HW228872   1.674   5.305   6.678
 9325SOL     OW28873   6.852   2.724   0.466
 9325SOL    HW128874   6.808   2.645   0.507
 9325SOL    HW228875   6.784   2.779   0.417
 9326SOL     OW28876   2.598   5.835   1.505
 9326SOL    HW128877   2.613   5.783   1.589
 9326SOL    HW228878   2.686   5.867   1.469
 9327SOL     OW28879   2.724   1.582   3.661
 9327SOL    HW128880   2.822   1.600   3.668
 9327SOL    HW228881   2.687   1.629   3.581
 9328SOL     OW28882   2.564   0.730   2.184
 9328SOL    HW128883   2.539   0.804   2.247
 9328SOL    HW228884   2.499   0.728   2.108
 9329SOL     OW28885   0.702   4.021   2.147
 9329SOL    HW128886   0.766   3.945   2.150
 9329SOL    HW228887   0.608   3.986   2.154
 9330SOL     OW28888   5.257   6.263   6.560
 9330SOL    HW128889   5.353   6.253   6.586
 9330SOL    HW228890   5.198   6.242   6.638
 9331SOL     OW28891   0.755   1.848   0.192
 9331SOL    HW128892   0.663   1.873   0.221
 9331SOL    HW228893   0.755   1.825   0.095
 9332SOL     OW28894   3.730   3.926   5.343
 9332SOL    HW128895   3.662   3.936   5.416
 9332SOL    HW228896   3.820   3.955   5.376
 9333SOL     OW28897   5.174   5.941   0.895
 9333SOL    HW128898   5.167   5.864   0.832
 9333SOL    HW228899   5.100   5.938   0.961
 9334SOL     OW28900   2.638   6.839   4.371
 9334SOL    HW128901   2.651   6.766   4.439
 9334SOL    HW228902   2.622   6.926   4.418
 9335SOL     OW28903   0.434   1.811   2.080
 9335SOL    HW128904   0.351   1.764   2.112
 9335SOL    HW228905   0.511   1.785   2.139
 9336SOL     OW28906   2.980   0.267   5.266
 9336SOL    HW128907   3.015   0.353   5.303
 9336SOL    HW228908   3.005   0.191   5.327
 9337SOL     OW28909   4.681   0.063   2.681
 9337SOL    HW128910   4.678   0.142   2.620
 9337SOL    HW228911   4.590   0.024   2.690
 9338SOL     OW28912   3.218   6.643   2.319
 9338SOL    HW128913   3.199   6.551   2.352
 9338SOL    HW228914   3.133   6.687   2.290
 9339SOL     OW28915   3.736   5.621   1.425
 9339SOL    HW128916   3.793   5.542   1.448
 9339SOL    HW228917   3.710   5.669   1.508
 9340SOL     OW28918   6.539   2.887   1.052
 9340SOL    HW128919   6.473   2.814   1.071
 9340SOL    HW228920   6.503   2.947   0.981
 9341SOL     OW28921   0.772   4.274   5.749
 9341SOL    HW128922   0.758   4.373   5.748
 9341SOL    HW228923   0.867   4.253   5.727
 9342SOL     OW28924   1.644   0.633   0.057
 9342SOL    HW128925   1.576   0.696   0.096
 9342SOL    HW228926   1.718   0.621   0.123
 9343SOL     OW28927   5.532   6.675   3.721
 9343SOL    HW128928   5.556   6.759   3.769
 9343SOL    HW228929   5.441   6.645   3.749
 9344SOL     OW28930   5.130   6.792   0.439
 9344SOL    HW128931   5.070   6.783   0.359
 9344SOL    HW228932   5.212   6.738   0.425
 9345SOL     OW28933   0.301   2.693   0.765
 9345SOL    HW128934   0.225   2.665   0.705
 9345SOL    HW228935   0.352   2.612   0.794
 9346SOL     OW28936   5.694   0.781   0.521
 9346SOL    HW128937   5.642   0.697   0.532
 9346SOL    HW228938   5.756   0.773   0.443
 9347SOL     OW28939   2.005   6.616   2.118
 9347SOL    HW128940   2.094   6.654   2.096
 9347SOL    HW228941   2.011   6.564   2.204
 9348SOL     OW28942   3.101   5.124   0.580
 9348SOL    HW128943   3.121   5.191   0.508
 9348SOL    HW228944   3.035   5.057   0.546
 9349SOL     OW28945   1.297   6.115   2.433
 9349SOL    HW128946   1.285   6.028   2.482
 9349SOL    HW228947   1.392   6.145   2.441
 9350SOL     OW28948   0.358   3.178   5.903
 9350SOL    HW128949   0.421   3.110   5.866
 9350SOL    HW228950   0.264   3.151   5.884
 9351SOL     OW28951   3.330   0.387   6.564
 9351SOL    HW128952   3.269   0.383   6.485
 9351SOL    HW228953   3.325   0.478   6.605
 9352SOL     OW28954   2.995   4.813   5.833
 9352SOL    HW128955   3.092   4.811   5.857
 9352SOL    HW228956   2.953   4.726   5.858
 9353SOL     OW28957   5.925   0.741   0.862
 9353SOL    HW128958   5.969   0.702   0.781
 9353SOL    HW228959   5.861   0.813   0.835
 9354SOL     OW28960   1.056   1.054   6.254
 9354SOL    HW128961   1.017   1.030   6.342
 9354SOL    HW228962   1.096   0.972   6.212
 9355SOL     OW28963   1.000   1.752   4.954
 9355SOL    HW128964   1.044   1.679   4.901
 9355SOL    HW228965   0.901   1.743   4.947
 9356SOL     OW28966   4.000   6.833   3.682
 9356SOL    HW128967   3.943   6.911   3.657
 9356SOL    HW228968   4.007   6.828   3.781
 9357SOL     OW28969   1.747   1.977   0.313
 9357SOL    HW128970   1.703   2.055   0.358
 9357SOL    HW228971   1.840   2.001   0.289
 9358SOL     OW28972   0.944   2.127   1.085
 9358SOL    HW128973   0.909   2.139   1.178
 9358SOL    HW228974   1.040   2.154   1.082
 9359SOL     OW28975   0.872   0.638   5.172
 9359SOL    HW128976   0.847   0.708   5.105
 9359SOL    HW228977   0.891   0.552   5.125
 9360SOL     OW28978   0.045   0.373   5.916
 9360SOL    HW128979   7.001   0.303   5.893
 9360SOL    HW228980   0.016   0.461   5.878
 9361SOL     OW28981   2.307   5.359   4.413
 9361SOL    HW128982   2.369   5.312   4.476
 9361SOL    HW228983   2.297   5.304   4.330
 9362SOL     OW28984   1.666   0.601   2.491
 9362SOL    HW128985   1.651   0.661   2.413
 9362SOL    HW228986   1.714   0.650   2.563
 9363SOL     OW28987   1.975   2.951   2.372
 9363SOL    HW128988   1.980   3.047   2.400
 9363SOL    HW228989   2.045   2.934   2.303
 9364SOL     OW28990   0.096   2.341   6.842
 9364SOL    HW128991   0.001   2.372   6.847
 9364SOL    HW228992   0.147   2.379   6.920
 9365SOL     OW28993   2.302   1.097   5.255
 9365SOL    HW128994   2.319   1.113   5.352
 9365SOL    HW228995   2.384   1.058   5.213
 9366SOL     OW28996   3.533   6.923   2.151
 9366SOL    HW128997   3.482   6.882   2.226
 9366SOL    HW228998   3.566   6.851   2.090
 9367SOL     OW28999   6.899   0.473   1.292
 9367SOL    HW129000   6.958   0.483   1.372
 9367SOL    HW229001   6.920   0.546   1.226
 9368SOL     OW29002   2.188   0.240   3.301
 9368SOL    HW129003   2.185   0.278   3.209
 9368SOL    HW229004   2.133   0.298   3.362
 9369SOL     OW29005   3.934   5.170   0.979
 9369SOL    HW129006   3.986   5.234   0.922
 9369SOL    HW229007   3.961   5.181   1.075
 9370SOL     OW29008   4.408   2.315   5.035
 9370SOL    HW129009   4.312   2.342   5.049
 9370SOL    HW229010   4.439   2.349   4.946
 9371SOL     OW29011   3.973   4.764   0.880
 9371SOL    HW129012   3.900   4.744   0.815
 9371SOL    HW229013   3.940   4.750   0.973
 9372SOL     OW29014   4.640   6.861   1.354
 9372SOL    HW129015   4.632   6.783   1.293
 9372SOL    HW229016   4.687   6.833   1.438
 9373SOL     OW29017   0.134   2.618   1.735
 9373SOL    HW129018   0.178   2.530   1.715
 9373SOL    HW229019   0.152   2.645   1.829
 9374SOL     OW29020   6.841   5.377   6.235
 9374SOL    HW129021   6.873   5.431   6.313
 9374SOL    HW229022   6.863   5.281   6.250
 9375SOL     OW29023   1.672   1.324   0.028
 9375SOL    HW129024   1.703   1.305   0.121
 9375SOL    HW229025   1.584   1.372   0.031
 9376SOL     OW29026   3.156   3.420   0.230
 9376SOL    HW129027   3.217   3.451   0.157
 9376SOL    HW229028   3.182   3.464   0.316
 9377SOL     OW29029   1.051   0.291   3.477
 9377SOL    HW129030   1.032   0.373   3.532
 9377SOL    HW229031   0.986   0.219   3.501
 9378SOL     OW29032   3.722   1.570   5.054
 9378SOL    HW129033   3.683   1.521   5.132
 9378SOL    HW229034   3.741   1.665   5.081
 9379SOL     OW29035   3.975   0.324   4.598
 9379SOL    HW129036   3.919   0.356   4.522
 9379SOL    HW229037   3.941   0.364   4.684
 9380SOL     OW29038   5.163   5.816   1.147
 9380SOL    HW129039   5.255   5.809   1.110
 9380SOL    HW229040   5.118   5.727   1.142
 9381SOL     OW29041   5.292   0.871   4.790
 9381SOL    HW129042   5.209   0.839   4.836
 9381SOL    HW229043   5.289   0.970   4.781
 9382SOL     OW29044   3.289   5.390   6.310
 9382SOL    HW129045   3.358   5.384   6.381
 9382SOL    HW229046   3.226   5.312   6.318
 9383SOL     OW29047   6.166   3.910   1.352
 9383SOL    HW129048   6.077   3.899   1.397
 9383SOL    HW229049   6.235   3.934   1.420
 9384SOL     OW29050   3.724   6.809   0.732
 9384SOL    HW129051   3.715   6.712   0.709
 9384SOL    HW229052   3.817   6.828   0.762
 9385SOL     OW29053   4.081   2.187   3.959
 9385SOL    HW129054   4.165   2.223   4.000
 9385SOL    HW229055   4.005   2.201   4.022
 9386SOL     OW29056   5.832   7.000   1.020
 9386SOL    HW129057   5.777   0.043   1.071
 9386SOL    HW229058   5.818   7.013   0.922
 9387SOL     OW29059   2.336   1.930   6.762
 9387SOL    HW129060   2.409   1.892   6.706
 9387SOL    HW229061   2.259   1.957   6.703
 9388SOL     OW29062   2.405   6.828   4.750
 9388SOL    HW129063   2.371   6.921   4.756
 9388SOL    HW229064   2.357   6.779   4.678
 9389SOL     OW29065   2.263   4.191   2.318
 9389SOL    HW129066   2.224   4.099   2.320
 9389SOL    HW229067   2.191   4.258   2.338
 9390SOL     OW29068   5.770   4.957   3.894
 9390SOL    HW129069   5.708   4.879   3.900
 9390SOL    HW229070   5.741   5.017   3.820
 9391SOL     OW29071   1.068   4.618   4.147
 9391SOL    HW129072   1.113   4.673   4.077
 9391SOL    HW229073   1.132   4.552   4.184
 9392SOL     OW29074   4.030   4.887   2.321
 9392SOL    HW129075   4.113   4.841   2.352
 9392SOL    HW229076   4.025   4.883   2.221
 9393SOL     OW29077   1.904   5.173   6.959
 9393SOL    HW129078   1.822   5.177   7.016
 9393SOL    HW229079   1.983   5.203   7.012
 9394SOL     OW29080   4.526   0.430   6.785
 9394SOL    HW129081   4.577   0.424   6.871
 9394SOL    HW229082   4.575   0.488   6.722
 9395SOL     OW29083   0.933   1.568   1.512
 9395SOL    HW129084   0.997   1.643   1.531
 9395SOL    HW229085   0.956   1.489   1.569
 9396SOL     OW29086   1.121   0.690   6.231
 9396SOL    HW129087   1.097   0.701   6.134
 9396SOL    HW229088   1.187   0.761   6.257
 9397SOL     OW29089   3.065   1.444   4.964
 9397SOL    HW129090   3.148   1.448   4.909
 9397SOL    HW229091   3.089   1.438   5.061
 9398SOL     OW29092   6.874   2.009   6.694
 9398SOL    HW129093   6.849   1.915   6.718
 9398SOL    HW229094   6.895   2.014   6.597
 9399SOL     OW29095   1.368   2.135   4.467
 9399SOL    HW129096   1.372   2.213   4.405
 9399SOL    HW229097   1.297   2.151   4.536
 9400SOL     OW29098   6.080   1.189   1.227
 9400SOL    HW129099   6.122   1.126   1.293
 9400SOL    HW229100   6.082   1.147   1.136
 9401SOL     OW29101   0.254   2.229   3.583
 9401SOL    HW129102   0.219   2.215   3.675
 9401SOL    HW229103   0.178   2.245   3.520
 9402SOL     OW29104   3.341   6.377   5.504
 9402SOL    HW129105   3.439   6.361   5.489
 9402SOL    HW229106   3.288   6.327   5.435
 9403SOL     OW29107   5.318   1.832   1.324
 9403SOL    HW129108   5.234   1.866   1.367
 9403SOL    HW229109   5.386   1.812   1.395
 9404SOL     OW29110   2.308   2.812   0.728
 9404SOL    HW129111   2.277   2.906   0.743
 9404SOL    HW229112   2.231   2.756   0.697
 9405SOL     OW29113   6.108   5.992   5.093
 9405SOL    HW129114   6.188   5.981   5.152
 9405SOL    HW229115   6.131   5.965   4.999
 9406SOL     OW29116   1.519   1.161   1.178
 9406SOL    HW129117   1.425   1.140   1.151
 9406SOL    HW229118   1.582   1.102   1.127
 9407SOL     OW29119   1.257   4.692   4.610
 9407SOL    HW129120   1.215   4.782   4.603
 9407SOL    HW229121   1.229   4.649   4.696
 9408SOL     OW29122   5.471   4.724   3.658
 9408SOL    HW129123   5.487   4.809   3.607
 9408SOL    HW229124   5.489   4.646   3.598
 9409SOL     OW29125   5.678   5.576   1.612
 9409SOL    HW129126   5.747   5.515   1.650
 9409SOL    HW229127   5.712   5.617   1.528
 9410SOL     OW29128   4.648   0.139   0.462
 9410SOL    HW129129   4.651   0.204   0.538
 9410SOL    HW229130   4.736   0.093   0.454
 9411SOL     OW29131   3.175   3.826   3.879
 9411SOL    HW129132   3.150   3.850   3.973
 9411SOL    HW229133   3.274   3.823   3.871
 9412SOL     OW29134   4.318   7.003   1.494
 9412SOL    HW129135   4.244   0.045   1.480
 9412SOL    HW229136   4.356   7.015   1.586
 9413SOL     OW29137   3.965   4.879   3.607
 9413SOL    HW129138   4.058   4.896   3.574
 9413SOL    HW229139   3.909   4.844   3.532
 9414SOL     OW29140   1.665   1.160   2.040
 9414SOL    HW129141   1.651   1.259   2.042
 9414SOL    HW229142   1.628   1.124   1.954
 9415SOL     OW29143   5.066   0.360   1.081
 9415SOL    HW129144   5.106   0.285   1.028
 9415SOL    HW229145   5.038   0.433   1.020
 9416SOL     OW29146   6.173   4.748   5.427
 9416SOL    HW129147   6.177   4.686   5.505
 9416SOL    HW229148   6.266   4.763   5.392
 9417SOL     OW29149   4.008   6.183   2.695
 9417SOL    HW129150   3.956   6.259   2.735
 9417SOL    HW229151   4.057   6.135   2.768
 9418SOL     OW29152   2.998   2.106   4.716
 9418SOL    HW129153   3.071   2.108   4.785
 9418SOL    HW229154   2.917   2.153   4.752
 9419SOL     OW29155   2.371   2.456   6.201
 9419SOL    HW129156   2.366   2.378   6.137
 9419SOL    HW229157   2.350   2.540   6.152
 9420SOL     OW29158   5.761   3.228   5.708
 9420SOL    HW129159   5.856   3.211   5.682
 9420SOL    HW229160   5.744   3.326   5.710
 9421SOL     OW29161   3.881   6.684   0.048
 9421SOL    HW129162   3.959   6.624   0.035
 9421SOL    HW229163   3.796   6.632   0.034
 9422SOL     OW29164   1.928   6.344   5.928
 9422SOL    HW129165   1.948   6.253   5.964
 9422SOL    HW229166   1.966   6.353   5.836
 9423SOL     OW29167   4.390   4.916   0.561
 9423SOL    HW129168   4.451   4.972   0.616
 9423SOL    HW229169   4.295   4.941   0.580
 9424SOL     OW29170   6.053   6.914   3.579
 9424SOL    HW129171   6.147   6.881   3.588
 9424SOL    HW229172   5.990   6.843   3.611
 9425SOL     OW29173   6.996   5.599   1.008
 9425SOL    HW129174   6.969   5.660   1.083
 9425SOL    HW229175   6.938   5.517   1.009
 9426SOL     OW29176   4.156   1.923   6.190
 9426SOL    HW129177   4.114   1.979   6.119
 9426SOL    HW229178   4.106   1.837   6.200
 9427SOL     OW29179   3.668   5.465   2.313
 9427SOL    HW129180   3.590   5.432   2.366
 9427SOL    HW229181   3.656   5.442   2.217
 9428SOL     OW29182   0.801   6.458   4.866
 9428SOL    HW129183   0.784   6.364   4.836
 9428SOL    HW229184   0.811   6.517   4.786
 9429SOL     OW29185   2.941   2.238   4.020
 9429SOL    HW129186   2.983   2.213   3.933
 9429SOL    HW229187   3.013   2.246   4.090
 9430SOL     OW29188   1.163   6.949   3.953
 9430SOL    HW129189   1.261   6.957   3.935
 9430SOL    HW229190   1.113   7.009   3.891
 9431SOL     OW29191   1.366   5.112   4.693
 9431SOL    HW129192   1.340   5.079   4.602
 9431SOL    HW229193   1.452   5.069   4.721
 9432SOL     OW29194   6.862   1.363   3.480
 9432SOL    HW129195   6.915   1.401   3.405
 9432SOL    HW229196   6.811   1.282   3.448
 9433SOL     OW29197   3.873   5.353   1.873
 9433SOL    HW129198   3.939   5.399   1.932
 9433SOL    HW229199   3.888   5.255   1.877
 9434SOL     OW29200   4.639   5.552   5.287
 9434SOL    HW129201   4.721   5.498   5.305
 9434SOL    HW229202   4.630   5.623   5.357
 9435SOL     OW29203   6.488   4.254   6.642
 9435SOL    HW129204   6.552   4.278   6.569
 9435SOL    HW229205   6.465   4.157   6.636
 9436SOL     OW29206   2.876   1.818   2.297
 9436SOL    HW129207   2.803   1.751   2.306
 9436SOL    HW229208   2.959   1.784   2.342
 9437SOL     OW29209   5.076   1.494   4.181
 9437SOL    HW129210   5.008   1.477   4.110
 9437SOL    HW229211   5.045   1.569   4.239
 9438SOL     OW29212   5.190   0.461   3.063
 9438SOL    HW129213   5.279   0.480   3.104
 9438SOL    HW229214   5.118   0.474   3.132
 9439SOL     OW29215   2.079   4.782   1.219
 9439SOL    HW129216   2.050   4.741   1.305
 9439SOL    HW229217   2.174   4.756   1.200
 9440SOL     OW29218   2.126   5.567   5.425
 9440SOL    HW129219   2.128   5.492   5.358
 9440SOL    HW229220   2.151   5.652   5.381
 9441SOL     OW29221   6.905   6.247   4.039
 9441SOL    HW129222   6.897   6.307   4.119
 9441SOL    HW229223   6.926   6.154   4.068
 9442SOL     OW29224   6.333   2.660   1.287
 9442SOL    HW129225   6.334   2.604   1.369
 9442SOL    HW229226   6.384   2.745   1.303
 9443SOL     OW29227   1.753   4.610   1.527
 9443SOL    HW129228   1.750   4.510   1.517
 9443SOL    HW229229   1.659   4.645   1.527
 9444SOL     OW29230   2.143   5.651   6.000
 9444SOL    HW129231   2.160   5.599   6.084
 9444SOL    HW229232   2.054   5.624   5.962
 9445SOL     OW29233   0.711   0.873   4.120
 9445SOL    HW129234   0.688   0.817   4.199
 9445SOL    HW229235   0.664   0.837   4.039
 9446SOL     OW29236   5.682   5.373   4.017
 9446SOL    HW129237   5.707   5.459   3.974
 9446SOL    HW229238   5.621   5.322   3.956
 9447SOL     OW29239   5.689   5.292   2.190
 9447SOL    HW129240   5.606   5.322   2.144
 9447SOL    HW229241   5.669   5.269   2.285
 9448SOL     OW29242   4.738   2.509   6.172
 9448SOL    HW129243   4.838   2.501   6.162
 9448SOL    HW229244   4.702   2.423   6.207
 9449SOL     OW29245   4.824   6.530   2.916
 9449SOL    HW129246   4.727   6.530   2.940
 9449SOL    HW229247   4.842   6.601   2.848
 9450SOL     OW29248   0.876   0.416   2.262
 9450SOL    HW129249   0.801   0.360   2.297
 9450SOL    HW229250   0.841   0.506   2.236
 9451SOL     OW29251   4.039   5.216   0.567
 9451SOL    HW129252   3.948   5.250   0.547
 9451SOL    HW229253   4.082   5.183   0.483
 9452SOL     OW29254   6.509   3.316   6.303
 9452SOL    HW129255   6.537   3.224   6.327
 9452SOL    HW229256   6.481   3.319   6.207
 9453SOL     OW29257   6.879   4.931   2.403
 9453SOL    HW129258   6.888   4.910   2.305
 9453SOL    HW229259   6.943   4.874   2.455
 9454SOL     OW29260   5.066   5.405   0.620
 9454SOL    HW129261   5.036   5.455   0.701
 9454SOL    HW229262   5.085   5.310   0.645
 9455SOL     OW29263   4.901   0.582   1.689
 9455SOL    HW129264   4.960   0.631   1.625
 9455SOL    HW229265   4.823   0.544   1.640
 9456SOL     OW29266   6.972   2.705   2.377
 9456SOL    HW129267   6.963   2.606   2.366
 9456SOL    HW229268   7.020   2.725   2.462
 9457SOL     OW29269   6.669   6.498   4.507
 9457SOL    HW129270   6.695   6.414   4.459
 9457SOL    HW229271   6.585   6.482   4.558
 9458SOL     OW29272   0.100   4.292   0.029
 9458SOL    HW129273   0.170   4.245   0.083
 9458SOL    HW229274   0.118   4.390   0.031
 9459SOL     OW29275   5.103   4.602   5.099
 9459SOL    HW129276   5.079   4.617   5.003
 9459SOL    HW229277   5.118   4.691   5.143
 9460SOL     OW29278   1.956   2.904   2.989
 9460SOL    HW129279   1.910   2.829   3.036
 9460SOL    HW229280   2.005   2.869   2.910
 9461SOL     OW29281   1.977   1.526   1.371
 9461SOL    HW129282   1.909   1.545   1.301
 9461SOL    HW229283   2.057   1.586   1.358
 9462SOL     OW29284   0.165   1.183   5.399
 9462SOL    HW129285   0.211   1.243   5.334
 9462SOL    HW229286   0.068   1.206   5.404
 9463SOL     OW29287   6.782   5.576   0.587
 9463SOL    HW129288   6.687   5.586   0.619
 9463SOL    HW229289   6.839   5.544   0.663
 9464SOL     OW29290   1.671   0.298   2.226
 9464SOL    HW129291   1.736   0.367   2.257
 9464SOL    HW229292   1.586   0.343   2.197
 9465SOL     OW29293   0.250   5.799   0.200
 9465SOL    HW129294   0.317   5.798   0.275
 9465SOL    HW229295   0.210   5.709   0.190
 9466SOL     OW29296   4.229   4.011   6.006
 9466SOL    HW129297   4.159   4.029   5.937
 9466SOL    HW229298   4.197   4.041   6.095
 9467SOL     OW29299   1.354   3.868   1.322
 9467SOL    HW129300   1.353   3.854   1.422
 9467SOL    HW229301   1.271   3.829   1.283
 9468SOL     OW29302   6.767   1.605   1.313
 9468SOL    HW129303   6.721   1.516   1.311
 9468SOL    HW229304   6.758   1.645   1.404
 9469SOL     OW29305   6.138   6.574   1.980
 9469SOL    HW129306   6.161   6.478   1.994
 9469SOL    HW229307   6.056   6.597   2.032
 9470SOL     OW29308   3.763   3.358   1.516
 9470SOL    HW129309   3.849   3.409   1.519
 9470SOL    HW229310   3.764   3.289   1.588
 9471SOL     OW29311   6.276   3.478   4.244
 9471SOL    HW129312   6.368   3.489   4.282
 9471SOL    HW229313   6.235   3.395   4.281
 9472SOL     OW29314   2.346   3.716   6.459
 9472SOL    HW129315   2.352   3.815   6.444
 9472SOL    HW229316   2.376   3.668   6.376
 9473SOL     OW29317   2.905   3.140   1.547
 9473SOL    HW129318   2.984   3.083   1.524
 9473SOL    HW229319   2.821   3.092   1.523
 9474SOL     OW29320   6.077   4.556   0.666
 9474SOL    HW129321   6.065   4.457   0.670
 9474SOL    HW229322   6.126   4.588   0.747
 9475SOL     OW29323   6.202   3.341   7.006
 9475SOL    HW129324   6.143   3.368   6.930
 9475SOL    HW229325   6.237   3.424   0.028
 9476SOL     OW29326   3.724   3.730   0.817
 9476SOL    HW129327   3.682   3.662   0.878
 9476SOL    HW229328   3.652   3.782   0.771
 9477SOL     OW29329   1.476   5.624   0.585
 9477SOL    HW129330   1.403   5.567   0.623
 9477SOL    HW229331   1.435   5.700   0.535
 9478SOL     OW29332   0.105   3.539   5.419
 9478SOL    HW129333   0.025   3.573   5.468
 9478SOL    HW229334   0.102   3.572   5.324
 9479SOL     OW29335   4.480   1.118   2.015
 9479SOL    HW129336   4.524   1.170   2.087
 9479SOL    HW229337   4.425   1.179   1.958
 9480SOL     OW29338   5.647   0.355   0.535
 9480SOL    HW129339   5.713   0.330   0.606
 9480SOL    HW229340   5.600   0.439   0.561
 9481SOL     OW29341   4.623   0.124   4.007
 9481SOL    HW129342   4.553   0.194   4.020
 9481SOL    HW229343   4.582   0.033   4.015
 9482SOL     OW29344   6.260   4.475   5.562
 9482SOL    HW129345   6.347   4.514   5.590
 9482SOL    HW229346   6.258   4.378   5.586
 9483SOL     OW29347   6.419   5.153   6.763
 9483SOL    HW129348   6.389   5.093   6.689
 9483SOL    HW229349   6.429   5.246   6.729
 9484SOL     OW29350   1.711   5.858   4.151
 9484SOL    HW129351   1.687   5.829   4.059
 9484SOL    HW229352   1.795   5.911   4.148
 9485SOL     OW29353   0.608   1.253   5.017
 9485SOL    HW129354   0.523   1.303   5.004
 9485SOL    HW229355   0.684   1.317   5.022
 9486SOL     OW29356   6.814   5.861   6.455
 9486SOL    HW129357   6.841   5.947   6.411
 9486SOL    HW229358   6.730   5.876   6.509
 9487SOL     OW29359   3.144   3.324   3.456
 9487SOL    HW129360   3.213   3.351   3.389
 9487SOL    HW229361   3.061   3.377   3.441
 9488SOL     OW29362   0.862   0.984   2.589
 9488SOL    HW129363   0.897   1.048   2.520
 9488SOL    HW229364   0.888   0.891   2.563
 9489SOL     OW29365   6.926   4.417   6.719
 9489SOL    HW129366   6.860   4.463   6.659
 9489SOL    HW229367   6.946   4.476   6.797
 9490SOL     OW29368   5.638   3.642   5.014
 9490SOL    HW129369   5.681   3.568   5.065
 9490SOL    HW229370   5.683   3.729   5.036
 9491SOL     OW29371   5.184   0.026   2.238
 9491SOL    HW129372   5.142   0.016   2.148
 9491SOL    HW229373   5.116   0.009   2.309
 9492SOL     OW29374   4.773   2.824   4.119
 9492SOL    HW129375   4.857   2.878   4.126
 9492SOL    HW229376   4.714   2.863   4.048
 9493SOL     OW29377   2.941   6.217   2.131
 9493SOL    HW129378   3.035   6.231   2.100
 9493SOL    HW229379   2.931   6.249   2.225
 9494SOL     OW29380   5.109   2.702   2.684
 9494SOL    HW129381   5.033   2.641   2.660
 9494SOL    HW229382   5.190   2.647   2.705
 9495SOL     OW29383   4.967   3.231   1.365
 9495SOL    HW129384   4.998   3.185   1.282
 9495SOL    HW229385   5.046   3.254   1.422
 9496SOL     OW29386   6.167   3.229   1.066
 9496SOL    HW129387   6.070   3.245   1.049
 9496SOL    HW229388   6.182   3.133   1.090
 9497SOL     OW29389   4.991   4.243   5.046
 9497SOL    HW129390   4.951   4.193   4.969
 9497SOL    HW229391   4.926   4.312   5.079
 9498SOL     OW29392   1.037   6.313   6.000
 9498SOL    HW129393   0.950   6.290   6.043
 9498SOL    HW229394   1.096   6.233   5.998
 9499SOL     OW29395   5.437   6.775   4.088
 9499SOL    HW129396   5.365   6.759   4.021
 9499SOL    HW229397   5.396   6.782   4.179
 9500SOL     OW29398   2.899   1.961   0.692
 9500SOL    HW129399   2.868   2.005   0.776
 9500SOL    HW229400   2.949   1.877   0.716
 9501SOL     OW29401   1.417   3.308   5.534
 9501SOL    HW129402   1.515   3.299   5.512
 9501SOL    HW229403   1.382   3.219   5.562
 9502SOL     OW29404   5.838   4.395   3.872
 9502SOL    HW129405   5.893   4.341   3.936
 9502SOL    HW229406   5.817   4.484   3.914
 9503SOL     OW29407   6.119   1.115   0.065
 9503SOL    HW129408   6.130   1.150   0.158
 9503SOL    HW229409   6.030   1.145   0.029
 9504SOL     OW29410   6.633   5.434   2.746
 9504SOL    HW129411   6.643   5.528   2.713
 9504SOL    HW229412   6.555   5.430   2.810
 9505SOL     OW29413   4.679   3.013   6.949
 9505SOL    HW129414   4.592   3.028   6.995
 9505SOL    HW229415   4.754   3.046   7.007
 9506SOL     OW29416   3.638   1.526   1.811
 9506SOL    HW129417   3.562   1.483   1.762
 9506SOL    HW229418   3.631   1.626   1.803
 9507SOL     OW29419   6.851   6.253   1.894
 9507SOL    HW129420   6.753   6.246   1.913
 9507SOL    HW229421   6.900   6.276   1.978
 9508SOL     OW29422   5.065   1.291   2.242
 9508SOL    HW129423   5.065   1.357   2.167
 9508SOL    HW229424   5.046   1.338   2.328
 9509SOL     OW29425   5.974   1.565   3.794
 9509SOL    HW129426   6.028   1.484   3.771
 9509SOL    HW229427   6.012   1.609   3.875
 9510SOL     OW29428   1.357   3.835   2.097
 9510SOL    HW129429   1.263   3.805   2.107
 9510SOL    HW229430   1.362   3.935   2.103
 9511SOL     OW29431   0.586   1.819   0.619
 9511SOL    HW129432   0.547   1.743   0.670
 9511SOL    HW229433   0.582   1.902   0.675
 9512SOL     OW29434   6.327   2.854   1.510
 9512SOL    HW129435   6.346   2.797   1.590
 9512SOL    HW229436   6.413   2.876   1.463
 9513SOL     OW29437   4.822   4.118   4.863
 9513SOL    HW129438   4.729   4.148   4.882
 9513SOL    HW229439   4.845   4.140   4.768
 9514SOL     OW29440   3.373   3.315   1.438
 9514SOL    HW129441   3.466   3.345   1.418
 9514SOL    HW229442   3.338   3.261   1.361
 9515SOL     OW29443   6.789   6.182   2.919
 9515SOL    HW129444   6.758   6.108   2.861
 9515SOL    HW229445   6.757   6.269   2.882
 9516SOL     OW29446   0.609   3.574   6.497
 9516SOL    HW129447   0.523   3.525   6.511
 9516SOL    HW229448   0.679   3.535   6.556
 9517SOL     OW29449   1.010   6.298   2.090
 9517SOL    HW129450   1.100   6.314   2.130
 9517SOL    HW229451   1.009   6.209   2.046
 9518SOL     OW29452   0.432   0.637   1.299
 9518SOL    HW129453   0.452   0.543   1.326
 9518SOL    HW229454   0.484   0.660   1.217
 9519SOL     OW29455   1.596   2.725   5.797
 9519SOL    HW129456   1.675   2.782   5.819
 9519SOL    HW229457   1.619   2.628   5.810
 9520SOL     OW29458   4.440   6.949   2.019
 9520SOL    HW129459   4.392   0.011   2.036
 9520SOL    HW229460   4.378   6.872   2.036
 9521SOL     OW29461   5.445   4.710   3.280
 9521SOL    HW129462   5.486   4.731   3.369
 9521SOL    HW229463   5.496   4.756   3.208
 9522SOL     OW29464   3.515   5.131   5.826
 9522SOL    HW129465   3.577   5.091   5.758
 9522SOL    HW229466   3.552   5.117   5.917
 9523SOL     OW29467   1.499   6.960   4.815
 9523SOL    HW129468   1.470   6.922   4.903
 9523SOL    HW229469   1.518   0.034   4.825
 9524SOL     OW29470   6.179   3.201   0.410
 9524SOL    HW129471   6.215   3.165   0.323
 9524SOL    HW229472   6.221   3.290   0.428
 9525SOL     OW29473   3.832   0.392   4.392
 9525SOL    HW129474   3.829   0.492   4.384
 9525SOL    HW229475   3.867   0.352   4.307
 9526SOL     OW29476   4.736   5.084   0.347
 9526SOL    HW129477   4.778   5.104   0.436
 9526SOL    HW229478   4.781   5.139   0.276
 9527SOL     OW29479   6.924   1.871   0.572
 9527SOL    HW129480   6.944   1.968   0.563
 9527SOL    HW229481   6.938   1.843   0.667
 9528SOL     OW29482   5.939   1.197   1.538
 9528SOL    HW129483   5.940   1.292   1.505
 9528SOL    HW229484   6.020   1.150   1.506
 9529SOL     OW29485   1.973   2.479   5.965
 9529SOL    HW129486   1.882   2.468   5.924
 9529SOL    HW229487   2.042   2.481   5.892
 9530SOL     OW29488   2.040   1.114   3.721
 9530SOL    HW129489   2.112   1.182   3.734
 9530SOL    HW229490   2.062   1.031   3.773
 9531SOL     OW29491   2.319   6.273   4.199
 9531SOL    HW129492   2.411   6.271   4.161
 9531SOL    HW229493   2.252   6.260   4.126
 9532SOL     OW29494   3.423   1.384   1.669
 9532SOL    HW129495   3.424   1.296   1.716
 9532SOL    HW229496   3.429   1.369   1.570
 9533SOL     OW29497   0.406   1.836   4.161
 9533SOL    HW129498   0.377   1.874   4.073
 9533SOL    HW229499   0.377   1.897   4.234
 9534SOL     OW29500   5.508   1.061   4.205
 9534SOL    HW129501   5.439   1.123   4.244
 9534SOL    HW229502   5.536   1.095   4.115
 9535SOL     OW29503   2.699   1.396   4.710
 9535SOL    HW129504   2.766   1.344   4.763
 9535SOL    HW229505   2.743   1.473   4.666
 9536SOL     OW29506   2.225   6.213   7.014
 9536SOL    HW129507   2.246   6.306   6.984
 9536SOL    HW229508   2.306   6.171   0.030
 9537SOL     OW29509   2.195   0.377   0.724
 9537SOL    HW129510   2.160   0.291   0.687
 9537SOL    HW229511   2.290   0.390   0.695
 9538SOL     OW29512   5.907   4.135   2.829
 9538SOL    HW129513   5.985   4.194   2.853
 9538SOL    HW229514   5.907   4.054   2.888
 9539SOL     OW29515   0.907   3.574   6.949
 9539SOL    HW129516   0.893   3.557   0.023
 9539SOL    HW229517   0.959   3.658   6.937
 9540SOL     OW29518   5.683   3.173   5.338
 9540SOL    HW129519   5.750   3.246   5.351
 9540SOL    HW229520   5.619   3.199   5.264
 9541SOL     OW29521   6.374   2.144   3.400
 9541SOL    HW129522   6.328   2.233   3.398
 9541SOL    HW229523   6.324   2.078   3.345
 9542SOL     OW29524   5.040   3.764   4.551
 9542SOL    HW129525   5.052   3.667   4.531
 9542SOL    HW229526   5.001   3.775   4.643
 9543SOL     OW29527   4.330   1.920   0.396
 9543SOL    HW129528   4.279   1.988   0.344
 9543SOL    HW229529   4.269   1.872   0.458
 9544SOL     OW29530   5.462   0.224   1.605
 9544SOL    HW129531   5.385   0.160   1.599
 9544SOL    HW229532   5.534   0.197   1.541
 9545SOL     OW29533   1.330   6.551   4.561
 9545SOL    HW129534   1.245   6.524   4.607
 9545SOL    HW229535   1.348   6.648   4.581
 9546SOL     OW29536   3.025   3.883   1.542
 9546SOL    HW129537   2.985   3.822   1.474
 9546SOL    HW229538   3.066   3.829   1.615
 9547SOL     OW29539   5.211   6.183   2.594
 9547SOL    HW129540   5.167   6.169   2.506
 9547SOL    HW229541   5.229   6.280   2.608
 9548SOL     OW29542   5.914   6.586   2.157
 9548SOL    HW129543   5.878   6.679   2.162
 9548SOL    HW229544   5.899   6.539   2.244
 9549SOL     OW29545   2.026   6.010   0.069
 9549SOL    HW129546   1.994   6.026   0.163
 9549SOL    HW229547   2.091   6.082   0.043
 9550SOL     OW29548   1.650   0.509   0.368
 9550SOL    HW129549   1.724   0.542   0.309
 9550SOL    HW229550   1.663   0.412   0.386
 9551SOL     OW29551   1.379   5.659   4.995
 9551SOL    HW129552   1.339   5.663   5.087
 9551SOL    HW229553   1.306   5.668   4.927
 9552SOL     OW29554   6.867   5.343   2.790
 9552SOL    HW129555   6.775   5.382   2.789
 9552SOL    HW229556   6.934   5.414   2.771
 9553SOL     OW29557   6.053   4.371   6.615
 9553SOL    HW129558   6.032   4.273   6.619
 9553SOL    HW229559   6.121   4.394   6.684
 9554SOL     OW29560   1.449   2.202   2.030
 9554SOL    HW129561   1.450   2.283   1.972
 9554SOL    HW229562   1.523   2.141   2.003
 9555SOL     OW29563   7.015   2.594   6.449
 9555SOL    HW129564   0.017   2.498   6.439
 9555SOL    HW229565   6.918   2.601   6.473
 9556SOL     OW29566   6.549   0.216   1.167
 9556SOL    HW129567   6.508   0.168   1.245
 9556SOL    HW229568   6.520   0.171   1.083
 9557SOL     OW29569   4.948   1.893   1.781
 9557SOL    HW129570   4.906   1.895   1.690
 9557SOL    HW229571   4.902   1.959   1.840
 9558SOL     OW29572   6.606   3.774   1.353
 9558SOL    HW129573   6.647   3.810   1.437
 9558SOL    HW229574   6.651   3.815   1.274
 9559SOL     OW29575   0.699   4.786   3.174
 9559SOL    HW129576   0.639   4.721   3.220
 9559SOL    HW229577   0.669   4.879   3.193
 9560SOL     OW29578   3.894   1.697   5.935
 9560SOL    HW129579   3.811   1.732   5.890
 9560SOL    HW229580   3.906   1.743   6.023
 9561SOL     OW29581   3.498   4.808   6.825
 9561SOL    HW129582   3.440   4.889   6.832
 9561SOL    HW229583   3.442   4.727   6.813
 9562SOL     OW29584   6.535   5.354   3.840
 9562SOL    HW129585   6.634   5.347   3.824
 9562SOL    HW229586   6.501   5.268   3.878
 9563SOL     OW29587   0.691   0.397   6.217
 9563SOL    HW129588   0.646   0.308   6.221
 9563SOL    HW229589   0.772   0.396   6.276
 9564SOL     OW29590   0.563   0.452   5.968
 9564SOL    HW129591   0.508   0.373   5.941
 9564SOL    HW229592   0.610   0.432   6.054
 9565SOL     OW29593   2.723   5.336   5.310
 9565SOL    HW129594   2.738   5.243   5.277
 9565SOL    HW229595   2.631   5.344   5.347
 9566SOL     OW29596   2.335   5.882   5.253
 9566SOL    HW129597   2.404   5.830   5.304
 9566SOL    HW229598   2.333   5.850   5.159
 9567SOL     OW29599   6.285   5.293   4.126
 9567SOL    HW129600   6.257   5.229   4.055
 9567SOL    HW229601   6.254   5.385   4.103
 9568SOL     OW29602   5.851   3.353   5.421
 9568SOL    HW129603   5.879   3.281   5.484
 9568SOL    HW229604   5.805   3.426   5.471
 9569SOL     OW29605   5.170   6.687   1.520
 9569SOL    HW129606   5.239   6.639   1.575
 9569SOL    HW229607   5.175   6.655   1.425
 9570SOL     OW29608   0.617   2.909   6.649
 9570SOL    HW129609   0.643   2.951   6.736
 9570SOL    HW229610   0.518   2.906   6.641
 9571SOL     OW29611   3.710   1.852   0.626
 9571SOL    HW129612   3.695   1.808   0.538
 9571SOL    HW229613   3.706   1.952   0.615
 9572SOL     OW29614   0.735   3.466   0.651
 9572SOL    HW129615   0.694   3.539   0.597
 9572SOL    HW229616   0.728   3.489   0.748
 9573SOL     OW29617   4.789   2.037   1.918
 9573SOL    HW129618   4.802   1.977   1.997
 9573SOL    HW229619   4.701   2.083   1.926
 9574SOL     OW29620   2.037   1.655   4.214
 9574SOL    HW129621   1.945   1.638   4.249
 9574SOL    HW229622   2.094   1.574   4.229
 9575SOL     OW29623   3.362   1.560   2.622
 9575SOL    HW129624   3.294   1.534   2.553
 9575SOL    HW229625   3.323   1.548   2.713
 9576SOL     OW29626   4.105   3.250   6.187
 9576SOL    HW129627   4.193   3.226   6.146
 9576SOL    HW229628   4.121   3.295   6.275
 9577SOL     OW29629   0.427   5.323   3.611
 9577SOL    HW129630   0.359   5.273   3.558
 9577SOL    HW229631   0.518   5.307   3.573
 9578SOL     OW29632   6.558   4.525   1.131
 9578SOL    HW129633   6.497   4.470   1.074
 9578SOL    HW229634   6.506   4.566   1.206
 9579SOL     OW29635   1.334   4.844   2.908
 9579SOL    HW129636   1.398   4.917   2.885
 9579SOL    HW229637   1.348   4.767   2.845
 9580SOL     OW29638   3.932   4.115   5.130
 9580SOL    HW129639   3.845   4.135   5.177
 9580SOL    HW229640   3.920   4.126   5.032
 9581SOL     OW29641   1.225   0.074   6.689
 9581SOL    HW129642   1.185   0.084   6.780
 9581SOL    HW229643   1.181   7.021   6.641
 9582SOL     OW29644   4.275   6.165   3.603
 9582SOL    HW129645   4.297   6.194   3.696
 9582SOL    HW229646   4.209   6.228   3.563
 9583SOL     OW29647   1.275   4.730   2.558
 9583SOL    HW129648   1.241   4.823   2.568
 9583SOL    HW229649   1.287   4.708   2.461
 9584SOL     OW29650   5.432   4.053   6.929
 9584SOL    HW129651   5.506   4.057   6.996
 9584SOL    HW229652   5.464   4.091   6.842
 9585SOL     OW29653   6.091   1.199   2.786
 9585SOL    HW129654   6.108   1.101   2.775
 9585SOL    HW229655   6.105   1.245   2.698
 9586SOL     OW29656   4.680   4.350   2.626
 9586SOL    HW129657   4.592   4.391   2.650
 9586SOL    HW229658   4.699   4.366   2.529
 9587SOL     OW29659   4.425   6.396   1.491
 9587SOL    HW129660   4.332   6.359   1.500
 9587SOL    HW229661   4.424   6.470   1.424
 9588SOL     OW29662   6.156   1.311   3.668
 9588SOL    HW129663   6.190   1.396   3.628
 9588SOL    HW229664   6.135   1.246   3.595
 9589SOL     OW29665   4.205   1.992   5.249
 9589SOL    HW129666   4.149   1.982   5.167
 9589SOL    HW229667   4.269   1.915   5.254
 9590SOL     OW29668   0.252   4.972   4.493
 9590SOL    HW129669   0.290   4.888   4.452
 9590SOL    HW229670   0.167   4.949   4.541
 9591SOL     OW29671   6.797   4.538   2.331
 9591SOL    HW129672   6.838   4.491   2.409
 9591SOL    HW229673   6.787   4.636   2.353
 9592SOL     OW29674   4.215   5.468   0.544
 9592SOL    HW129675   4.126   5.430   0.569
 9592SOL    HW229676   4.235   5.548   0.600
 9593SOL     OW29677   2.091   2.533   3.886
 9593SOL    HW129678   2.122   2.514   3.793
 9593SOL    HW229679   2.084   2.632   3.900
 9594SOL     OW29680   5.779   0.040   0.765
 9594SOL    HW129681   5.804   0.136   0.758
 9594SOL    HW229682   5.833   7.010   0.700
 9595SOL     OW29683   2.356   4.996   5.615
 9595SOL    HW129684   2.351   5.095   5.626
 9595SOL    HW229685   2.289   4.966   5.547
 9596SOL     OW29686   5.333   5.100   2.166
 9596SOL    HW129687   5.362   5.118   2.260
 9596SOL    HW229688   5.323   5.002   2.152
 9597SOL     OW29689   1.826   4.294   1.942
 9597SOL    HW129690   1.800   4.249   1.856
 9597SOL    HW229691   1.792   4.240   2.019
 9598SOL     OW29692   0.607   6.330   5.300
 9598SOL    HW129693   0.685   6.354   5.241
 9598SOL    HW229694   0.608   6.388   5.381
 9599SOL     OW29695   3.734   1.936   5.387
 9599SOL    HW129696   3.765   1.865   5.449
 9599SOL    HW229697   3.668   1.995   5.434
 9600SOL     OW29698   1.678   5.723   6.930
 9600SOL    HW129699   1.675   5.628   6.961
 9600SOL    HW229700   1.773   5.754   6.926
 9601SOL     OW29701   1.387   6.819   4.581
 9601SOL    HW129702   1.461   6.843   4.643
 9601SOL    HW229703   1.343   6.902   4.547
 9602SOL     OW29704   1.349   5.622   6.248
 9602SOL    HW129705   1.339   5.642   6.151
 9602SOL    HW229706   1.417   5.550   6.260
 9603SOL     OW29707   1.485   5.282   2.131
 9603SOL    HW129708   1.558   5.276   2.063
 9603SOL    HW229709   1.502   5.215   2.204
 9604SOL     OW29710   6.841   0.359   6.130
 9604SOL    HW129711   6.780   0.347   6.051
 9604SOL    HW229712   6.930   0.390   6.098
 9605SOL     OW29713   3.760   4.394   0.901
 9605SOL    HW129714   3.693   4.432   0.965
 9605SOL    HW229715   3.850   4.391   0.946
 9606SOL     OW29716   6.764   1.671   4.996
 9606SOL    HW129717   6.767   1.702   4.902
 9606SOL    HW229718   6.835   1.603   5.012
 9607SOL     OW29719   6.971   2.927   3.431
 9607SOL    HW129720   7.018   2.935   3.519
 9607SOL    HW229721   6.896   2.861   3.439
 9608SOL     OW29722   5.623   1.065   1.300
 9608SOL    HW129723   5.708   1.013   1.296
 9608SOL    HW229724   5.566   1.043   1.220
 9609SOL     OW29725   1.130   2.234   4.309
 9609SOL    HW129726   1.209   2.190   4.267
 9609SOL    HW229727   1.085   2.170   4.371
 9610SOL     OW29728   5.188   0.997   6.093
 9610SOL    HW129729   5.091   1.011   6.113
 9610SOL    HW229730   5.243   1.067   6.140
 9611SOL     OW29731   4.571   5.896   1.415
 9611SOL    HW129732   4.549   5.839   1.493
 9611SOL    HW229733   4.660   5.940   1.430
 9612SOL     OW29734   5.074   3.848   3.683
 9612SOL    HW129735   5.118   3.792   3.613
 9612SOL    HW229736   5.113   3.940   3.682
 9613SOL     OW29737   5.569   0.744   4.893
 9613SOL    HW129738   5.481   0.788   4.870
 9613SOL    HW229739   5.591   0.762   4.989
 9614SOL     OW29740   3.040   2.243   0.327
 9614SOL    HW129741   3.016   2.173   0.259
 9614SOL    HW229742   3.138   2.260   0.323
 9615SOL     OW29743   6.309   6.465   3.586
 9615SOL    HW129744   6.341   6.537   3.647
 9615SOL    HW229745   6.374   6.455   3.510
 9616SOL     OW29746   0.284   2.126   1.249
 9616SOL    HW129747   0.258   2.223   1.249
 9616SOL    HW229748   0.226   2.076   1.313
 9617SOL     OW29749   0.431   3.385   3.566
 9617SOL    HW129750   0.404   3.479   3.549
 9617SOL    HW229751   0.449   3.372   3.664
 9618SOL     OW29752   5.198   4.188   2.298
 9618SOL    HW129753   5.289   4.214   2.265
 9618SOL    HW229754   5.128   4.225   2.237
 9619SOL     OW29755   1.383   0.547   1.226
 9619SOL    HW129756   1.387   0.646   1.222
 9619SOL    HW229757   1.362   0.517   1.319
 9620SOL     OW29758   4.211   1.323   6.200
 9620SOL    HW129759   4.224   1.286   6.292
 9620SOL    HW229760   4.300   1.340   6.158
 9621SOL     OW29761   6.252   1.498   0.951
 9621SOL    HW129762   6.189   1.455   0.887
 9621SOL    HW229763   6.226   1.476   1.045
 9622SOL     OW29764   6.568   6.607   4.881
 9622SOL    HW129765   6.536   6.676   4.816
 9622SOL    HW229766   6.497   6.538   4.894
 9623SOL     OW29767   2.493   6.036   6.022
 9623SOL    HW129768   2.396   6.025   6.045
 9623SOL    HW229769   2.538   6.087   6.095
 9624SOL     OW29770   4.337   4.536   6.643
 9624SOL    HW129771   4.312   4.458   6.700
 9624SOL    HW229772   4.361   4.614   6.701
 9625SOL     OW29773   5.311   4.740   6.059
 9625SOL    HW129774   5.323   4.772   5.965
 9625SOL    HW229775   5.214   4.735   6.081
 9626SOL     OW29776   2.854   2.500   6.314
 9626SOL    HW129777   2.773   2.556   6.330
 9626SOL    HW229778   2.831   2.426   6.252
 9627SOL     OW29779   6.480   5.880   0.633
 9627SOL    HW129780   6.510   5.953   0.694
 9627SOL    HW229781   6.408   5.915   0.572
 9628SOL     OW29782   6.132   1.642   5.453
 9628SOL    HW129783   6.046   1.591   5.467
 9628SOL    HW229784   6.188   1.637   5.535
 9629SOL     OW29785   0.777   5.769   4.210
 9629SOL    HW129786   0.715   5.691   4.216
 9629SOL    HW229787   0.726   5.850   4.181
 9630SOL     OW29788   6.190   0.323   5.877
 9630SOL    HW129789   6.123   0.380   5.925
 9630SOL    HW229790   6.145   0.274   5.803
 9631SOL     OW29791   4.571   6.260   0.119
 9631SOL    HW129792   4.564   6.323   0.197
 9631SOL    HW229793   4.667   6.232   0.108
 9632SOL     OW29794   2.821   5.600   2.386
 9632SOL    HW129795   2.788   5.650   2.466
 9632SOL    HW229796   2.916   5.572   2.402
 9633SOL     OW29797   3.227   3.246   5.199
 9633SOL    HW129798   3.248   3.335   5.159
 9633SOL    HW229799   3.304   3.184   5.187
 9634SOL     OW29800   6.203   4.670   2.875
 9634SOL    HW129801   6.150   4.730   2.815
 9634SOL    HW229802   6.167   4.675   2.968
 9635SOL     OW29803   0.811   5.388   4.224
 9635SOL    HW129804   0.789   5.291   4.225
 9635SOL    HW229805   0.727   5.441   4.215
 9636SOL     OW29806   5.345   3.671   3.601
 9636SOL    HW129807   5.443   3.649   3.594
 9636SOL    HW229808   5.292   3.587   3.593
 9637SOL     OW29809   3.079   2.588   6.455
 9637SOL    HW129810   3.148   2.529   6.414
 9637SOL    HW229811   2.991   2.571   6.411
 9638SOL     OW29812   0.679   4.555   5.723
 9638SOL    HW129813   0.600   4.579   5.667
 9638SOL    HW229814   0.742   4.633   5.726
 9639SOL     OW29815   5.342   2.803   1.777
 9639SOL    HW129816   5.376   2.709   1.781
 9639SOL    HW229817   5.248   2.803   1.743
 9640SOL     OW29818   3.368   7.007   3.295
 9640SOL    HW129819   3.402   6.917   3.270
 9640SOL    HW229820   3.302   6.998   3.369
 9641SOL     OW29821   0.795   2.614   4.746
 9641SOL    HW129822   0.812   2.613   4.647
 9641SOL    HW229823   0.744   2.532   4.772
 9642SOL     OW29824   0.511   2.591   4.986
 9642SOL    HW129825   0.515   2.659   5.059
 9642SOL    HW229826   0.478   2.634   4.902
 9643SOL     OW29827   6.579   5.299   4.438
 9643SOL    HW129828   6.503   5.311   4.501
 9643SOL    HW229829   6.553   5.238   4.363
 9644SOL     OW29830   0.531   4.591   3.256
 9644SOL    HW129831   0.466   4.630   3.191
 9644SOL    HW229832   0.515   4.493   3.265
 9645SOL     OW29833   0.784   4.909   0.213
 9645SOL    HW129834   0.782   4.853   0.295
 9645SOL    HW229835   0.879   4.931   0.189
 9646SOL     OW29836   2.899   4.933   0.491
 9646SOL    HW129837   2.925   4.862   0.557
 9646SOL    HW229838   2.803   4.921   0.467
 9647SOL     OW29839   5.391   0.158   3.101
 9647SOL    HW129840   5.429   0.172   3.010
 9647SOL    HW229841   5.440   0.215   3.167
 9648SOL     OW29842   3.680   2.341   0.922
 9648SOL    HW129843   3.778   2.343   0.942
 9648SOL    HW229844   3.629   2.343   1.008
 9649SOL     OW29845   0.101   6.002   0.823
 9649SOL    HW129846   0.063   6.057   0.897
 9649SOL    HW229847   0.188   6.042   0.793
 9650SOL     OW29848   0.100   5.462   5.110
 9650SOL    HW129849   0.131   5.369   5.132
 9650SOL    HW229850   0.125   5.524   5.184
 9651SOL     OW29851   3.815   1.485   6.757
 9651SOL    HW129852   3.901   1.521   6.720
 9651SOL    HW229853   3.740   1.547   6.734
 9652SOL     OW29854   0.363   3.813   0.609
 9652SOL    HW129855   0.280   3.864   0.632
 9652SOL    HW229856   0.344   3.715   0.611
 9653SOL     OW29857   5.562   3.894   5.349
 9653SOL    HW129858   5.500   3.887   5.271
 9653SOL    HW229859   5.654   3.866   5.322
 9654SOL     OW29860   4.088   3.376   4.890
 9654SOL    HW129861   4.113   3.297   4.834
 9654SOL    HW229862   4.084   3.458   4.833
 9655SOL     OW29863   4.726   0.333   0.956
 9655SOL    HW129864   4.801   0.397   0.946
 9655SOL    HW229865   4.651   0.376   1.006
 9656SOL     OW29866   5.097   4.547   5.872
 9656SOL    HW129867   5.148   4.463   5.854
 9656SOL    HW229868   5.115   4.613   5.799
 9657SOL     OW29869   4.998   5.286   2.862
 9657SOL    HW129870   4.957   5.313   2.950
 9657SOL    HW229871   4.967   5.194   2.838
 9658SOL     OW29872   5.348   0.965   3.041
 9658SOL    HW129873   5.362   1.059   3.009
 9658SOL    HW229874   5.302   0.968   3.130
 9659SOL     OW29875   3.549   2.964   0.554
 9659SOL    HW129876   3.557   2.945   0.652
 9659SOL    HW229877   3.556   2.878   0.503
 9660SOL     OW29878   2.748   6.556   1.611
 9660SOL    HW129879   2.711   6.555   1.518
 9660SOL    HW229880   2.694   6.495   1.669
 9661SOL     OW29881   4.052   3.848   2.341
 9661SOL    HW129882   4.002   3.877   2.423
 9661SOL    HW229883   4.079   3.752   2.351
 9662SOL     OW29884   4.334   0.572   4.890
 9662SOL    HW129885   4.381   0.520   4.961
 9662SOL    HW229886   4.350   0.669   4.902
 9663SOL     OW29887   1.240   5.963   2.652
 9663SOL    HW129888   1.159   6.005   2.693
 9663SOL    HW229889   1.323   6.000   2.695
 9664SOL     OW29890   2.106   4.497   3.205
 9664SOL    HW129891   2.121   4.546   3.291
 9664SOL    HW229892   2.009   4.478   3.194
 9665SOL     OW29893   6.304   3.951   6.432
 9665SOL    HW129894   6.236   3.893   6.387
 9665SOL    HW229895   6.389   3.950   6.379
 9666SOL     OW29896   5.043   4.215   0.797
 9666SOL    HW129897   5.109   4.153   0.841
 9666SOL    HW229898   5.033   4.190   0.701
 9667SOL     OW29899   6.078   6.422   6.728
 9667SOL    HW129900   6.076   6.461   6.636
 9667SOL    HW229901   6.030   6.483   6.791
 9668SOL     OW29902   2.365   0.199   0.400
 9668SOL    HW129903   2.399   0.233   0.487
 9668SOL    HW229904   2.325   0.274   0.348
 9669SOL     OW29905   3.431   0.106   0.233
 9669SOL    HW129906   3.418   0.016   0.275
 9669SOL    HW229907   3.352   0.164   0.253
 9670SOL     OW29908   0.794   6.995   2.458
 9670SOL    HW129909   0.711   6.975   2.406
 9670SOL    HW229910   0.860   0.018   2.398
 9671SOL     OW29911   1.105   6.137   6.416
 9671SOL    HW129912   1.201   6.110   6.421
 9671SOL    HW229913   1.098   6.237   6.419
 9672SOL     OW29914   0.686   4.796   5.269
 9672SOL    HW129915   0.780   4.828   5.258
 9672SOL    HW229916   0.624   4.874   5.271
 9673SOL     OW29917   2.104   2.976   5.628
 9673SOL    HW129918   2.130   2.881   5.615
 9673SOL    HW229919   2.171   3.021   5.688
 9674SOL     OW29920   1.755   0.150   3.588
 9674SOL    HW129921   1.678   0.208   3.617
 9674SOL    HW229922   1.773   0.082   3.658
 9675SOL     OW29923   6.332   4.077   6.096
 9675SOL    HW129924   6.300   4.053   6.004
 9675SOL    HW229925   6.402   4.012   6.124
 9676SOL     OW29926   0.909   3.052   6.188
 9676SOL    HW129927   0.978   3.122   6.171
 9676SOL    HW229928   0.929   3.007   6.275
 9677SOL     OW29929   0.519   5.056   2.658
 9677SOL    HW129930   0.488   4.975   2.608
 9677SOL    HW229931   0.537   5.031   2.753
 9678SOL     OW29932   4.950   3.163   6.219
 9678SOL    HW129933   4.987   3.217   6.143
 9678SOL    HW229934   4.897   3.086   6.182
 9679SOL     OW29935   1.579   1.173   4.686
 9679SOL    HW129936   1.600   1.266   4.716
 9679SOL    HW229937   1.551   1.174   4.591
 9680SOL     OW29938   4.625   0.474   2.096
 9680SOL    HW129939   4.711   0.432   2.127
 9680SOL    HW229940   4.600   0.436   2.007
 9681SOL     OW29941   0.414   2.784   1.405
 9681SOL    HW129942   0.432   2.808   1.500
 9681SOL    HW229943   0.492   2.809   1.349
 9682SOL     OW29944   3.841   6.408   5.269
 9682SOL    HW129945   3.781   6.329   5.255
 9682SOL    HW229946   3.918   6.402   5.206
 9683SOL     OW29947   3.267   5.632   3.752
 9683SOL    HW129948   3.278   5.657   3.656
 9683SOL    HW229949   3.356   5.618   3.793
 9684SOL     OW29950   0.983   2.604   6.423
 9684SOL    HW129951   0.997   2.636   6.330
 9684SOL    HW229952   1.044   2.654   6.485
 9685SOL     OW29953   3.769   4.469   1.649
 9685SOL    HW129954   3.707   4.520   1.709
 9685SOL    HW229955   3.717   4.408   1.590
 9686SOL     OW29956   0.637   1.627   6.028
 9686SOL    HW129957   0.609   1.722   6.023
 9686SOL    HW229958   0.685   1.601   5.944
 9687SOL     OW29959   5.547   0.645   3.957
 9687SOL    HW129960   5.610   0.568   3.968
 9687SOL    HW229961   5.460   0.624   4.003
 9688SOL     OW29962   0.727   5.350   2.580
 9688SOL    HW129963   0.812   5.401   2.592
 9688SOL    HW229964   0.654   5.414   2.554
 9689SOL     OW29965   1.813   5.352   1.232
 9689SOL    HW129966   1.898   5.368   1.181
 9689SOL    HW229967   1.771   5.439   1.256
 9690SOL     OW29968   6.403   4.673   4.485
 9690SOL    HW129969   6.469   4.695   4.557
 9690SOL    HW229970   6.373   4.578   4.496
 9691SOL     OW29971   3.772   3.498   2.205
 9691SOL    HW129972   3.771   3.597   2.221
 9691SOL    HW229973   3.801   3.451   2.288
 9692SOL     OW29974   5.669   4.752   0.452
 9692SOL    HW129975   5.717   4.729   0.537
 9692SOL    HW229976   5.636   4.668   0.409
 9693SOL     OW29977   4.562   3.055   6.602
 9693SOL    HW129978   4.628   2.982   6.617
 9693SOL    HW229979   4.469   3.018   6.607
 9694SOL     OW29980   3.045   6.380   0.930
 9694SOL    HW129981   3.129   6.418   0.970
 9694SOL    HW229982   3.067   6.295   0.883
 9695SOL     OW29983   2.041   2.649   3.597
 9695SOL    HW129984   1.954   2.676   3.638
 9695SOL    HW229985   2.029   2.635   3.498
 9696SOL     OW29986   4.920   3.868   3.263
 9696SOL    HW129987   4.906   3.929   3.341
 9696SOL    HW229988   4.925   3.773   3.294
 9697SOL     OW29989   6.286   0.192   2.283
 9697SOL    HW129990   6.267   0.119   2.349
 9697SOL    HW229991   6.385   0.204   2.274
 9698SOL     OW29992   6.992   3.055   1.362
 9698SOL    HW129993   6.968   3.004   1.445
 9698SOL    HW229994   6.920   3.046   1.295
 9699SOL     OW29995   1.580   6.951   2.224
 9699SOL    HW129996   1.511   6.945   2.295
 9699SOL    HW229997   1.537   6.979   2.138
 9700SOL     OW29998   6.300   0.727   5.587
 9700SOL    HW129999   6.234   0.727   5.663
 9700SOL    HW230000   6.372   0.661   5.605
 9701SOL     OW30001   5.750   3.952   6.798
 9701SOL    HW130002   5.729   3.902   6.882
 9701SOL    HW230003   5.799   3.892   6.734
 9702SOL     OW30004   2.969   3.553   1.895
 9702SOL    HW130005   2.944   3.496   1.817
 9702SOL    HW230006   2.945   3.506   1.980
 9703SOL     OW30007   6.965   5.085   2.727
 9703SOL    HW130008   0.009   5.103   2.655
 9703SOL    HW230009   6.920   5.170   2.753
 9704SOL     OW30010   0.783   5.005   2.214
 9704SOL    HW130011   0.694   5.022   2.173
 9704SOL    HW230012   0.854   5.051   2.159
 9705SOL     OW30013   0.083   4.228   5.729
 9705SOL    HW130014   0.181   4.233   5.707
 9705SOL    HW230015   0.032   4.197   5.649
 9706SOL     OW30016   0.767   6.678   2.127
 9706SOL    HW130017   0.688   6.673   2.187
 9706SOL    HW230018   0.846   6.713   2.178
 9707SOL     OW30019   1.572   4.987   1.974
 9707SOL    HW130020   1.613   5.073   1.942
 9707SOL    HW230021   1.643   4.919   1.988
 9708SOL     OW30022   2.991   1.050   1.583
 9708SOL    HW130023   3.083   1.087   1.598
 9708SOL    HW230024   2.980   0.966   1.636
 9709SOL     OW30025   4.219   1.547   2.189
 9709SOL    HW130026   4.234   1.486   2.111
 9709SOL    HW230027   4.158   1.502   2.255
 9710SOL     OW30028   4.983   4.452   4.355
 9710SOL    HW130029   4.970   4.520   4.428
 9710SOL    HW230030   4.979   4.497   4.266
 9711SOL     OW30031   2.850   0.262   0.043
 9711SOL    HW130032   2.791   0.269   6.986
 9711SOL    HW230033   2.924   0.330   0.036
 9712SOL     OW30034   4.531   6.684   5.198
 9712SOL    HW130035   4.435   6.670   5.173
 9712SOL    HW230036   4.561   6.773   5.165
 9713SOL     OW30037   1.002   0.674   3.030
 9713SOL    HW130038   0.964   0.658   3.121
 9713SOL    HW230039   0.940   0.732   2.978
 9714SOL     OW30040   2.363   2.754   4.113
 9714SOL    HW130041   2.342   2.852   4.114
 9714SOL    HW230042   2.462   2.741   4.110
 9715SOL     OW30043   6.966   1.628   6.584
 9715SOL    HW130044   6.901   1.624   6.659
 9715SOL    HW230045   6.968   1.540   6.536
 9716SOL     OW30046   1.792   6.400   0.499
 9716SOL    HW130047   1.871   6.433   0.447
 9716SOL    HW230048   1.802   6.302   0.516
 9717SOL     OW30049   4.334   2.108   6.234
 9717SOL    HW130050   4.258   2.044   6.222
 9717SOL    HW230051   4.418   2.057   6.250
 9718SOL     OW30052   3.038   2.038   6.245
 9718SOL    HW130053   2.976   2.070   6.316
 9718SOL    HW230054   3.048   1.939   6.252
 9719SOL     OW30055   3.976   0.045   5.398
 9719SOL    HW130056   3.916   7.006   5.348
 9719SOL    HW230057   3.921   0.111   5.449
 9720SOL     OW30058   2.244   2.685   2.060
 9720SOL    HW130059   2.243   2.611   2.127
 9720SOL    HW230060   2.297   2.656   1.980
 9721SOL     OW30061   0.663   2.209   1.514
 9721SOL    HW130062   0.589   2.272   1.489
 9721SOL    HW230063   0.742   2.224   1.455
 9722SOL     OW30064   3.304   3.125   5.555
 9722SOL    HW130065   3.274   3.030   5.569
 9722SOL    HW230066   3.235   3.173   5.500
 9723SOL     OW30067   5.572   0.940   5.352
 9723SOL    HW130068   5.508   1.013   5.332
 9723SOL    HW230069   5.556   0.905   5.444
 9724SOL     OW30070   1.976   5.187   1.444
 9724SOL    HW130071   1.904   5.125   1.415
 9724SOL    HW230072   1.951   5.281   1.423
 9725SOL     OW30073   5.492   5.468   4.187
 9725SOL    HW130074   5.573   5.438   4.136
 9725SOL    HW230075   5.449   5.388   4.230
 9726SOL     OW30076   0.038   0.214   3.451
 9726SOL    HW130077   0.096   0.199   3.530
 9726SOL    HW230078   6.972   0.171   3.467
 9727SOL     OW30079   6.605   3.022   1.608
 9727SOL    HW130080   6.569   2.969   1.685
 9727SOL    HW230081   6.548   3.103   1.593
 9728SOL     OW30082   6.000   1.662   5.026
 9728SOL    HW130083   5.971   1.749   4.987
 9728SOL    HW230084   5.929   1.593   5.011
 9729SOL     OW30085   0.063   3.816   2.430
 9729SOL    HW130086   0.061   3.913   2.407
 9729SOL    HW230087   0.020   3.764   2.356
 9730SOL     OW30088   0.782   5.943   3.654
 9730SOL    HW130089   0.778   6.034   3.612
 9730SOL    HW230090   0.731   5.878   3.597
 9731SOL     OW30091   6.532   1.744   1.692
 9731SOL    HW130092   6.531   1.692   1.777
 9731SOL    HW230093   6.620   1.733   1.647
 9732SOL     OW30094   0.275   2.625   3.372
 9732SOL    HW130095   0.241   2.670   3.455
 9732SOL    HW230096   0.209   2.637   3.298
 9733SOL     OW30097   5.465   5.788   0.297
 9733SOL    HW130098   5.381   5.787   0.352
 9733SOL    HW230099   5.544   5.795   0.358
 9734SOL     OW30100   3.928   3.817   0.065
 9734SOL    HW130101   3.934   3.727   0.022
 9734SOL    HW230102   3.901   3.806   0.161
 9735SOL     OW30103   1.342   1.611   0.530
 9735SOL    HW130104   1.349   1.644   0.624
 9735SOL    HW230105   1.297   1.680   0.474
 9736SOL     OW30106   5.322   2.285   6.048
 9736SOL    HW130107   5.280   2.299   5.959
 9736SOL    HW230108   5.422   2.289   6.039
 9737SOL     OW30109   5.219   3.368   5.107
 9737SOL    HW130110   5.125   3.354   5.077
 9737SOL    HW230111   5.220   3.408   5.198
 9738SOL     OW30112   2.569   5.991   1.227
 9738SOL    HW130113   2.619   6.076   1.246
 9738SOL    HW230114   2.544   5.947   1.313
 9739SOL     OW30115   5.582   6.717   0.743
 9739SOL    HW130116   5.498   6.694   0.791
 9739SOL    HW230117   5.655   6.654   0.772
 9740SOL     OW30118   6.524   1.158   1.013
 9740SOL    HW130119   6.600   1.101   1.043
 9740SOL    HW230120   6.495   1.130   0.921
 9741SOL     OW30121   2.252   2.629   3.086
 9741SOL    HW130122   2.155   2.625   3.107
 9741SOL    HW230123   2.305   2.624   3.171
 9742SOL     OW30124   4.257   0.481   6.871
 9742SOL    HW130125   4.334   0.447   6.817
 9742SOL    HW230126   4.292   0.543   6.941
 9743SOL     OW30127   6.299   3.827   4.433
 9743SOL    HW130128   6.322   3.771   4.353
 9743SOL    HW230129   6.378   3.882   4.459
 9744SOL     OW30130   1.588   2.869   2.120
 9744SOL    HW130131   1.596   2.781   2.075
 9744SOL    HW230132   1.527   2.929   2.068
 9745SOL     OW30133   1.335   6.585   6.084
 9745SOL    HW130134   1.283   6.670   6.090
 9745SOL    HW230135   1.349   6.560   5.988
 9746SOL     OW30136   3.282   6.206   5.838
 9746SOL    HW130137   3.211   6.251   5.784
 9746SOL    HW230138   3.369   6.251   5.822
 9747SOL     OW30139   4.221   1.747   3.578
 9747SOL    HW130140   4.203   1.752   3.480
 9747SOL    HW230141   4.177   1.824   3.624
 9748SOL     OW30142   0.309   2.165   2.836
 9748SOL    HW130143   0.240   2.209   2.894
 9748SOL    HW230144   0.305   2.066   2.848
 9749SOL     OW30145   6.996   0.458   1.571
 9749SOL    HW130146   6.966   0.528   1.636
 9749SOL    HW230147   7.002   0.370   1.618
 9750SOL     OW30148   5.945   1.885   4.819
 9750SOL    HW130149   6.035   1.896   4.862
 9750SOL    HW230150   5.948   1.809   4.755
 9751SOL     OW30151   2.757   5.689   1.210
 9751SOL    HW130152   2.772   5.714   1.114
 9751SOL    HW230153   2.660   5.670   1.224
 9752SOL     OW30154   4.014   3.791   0.815
 9752SOL    HW130155   3.919   3.768   0.834
 9752SOL    HW230156   4.056   3.827   0.899
 9753SOL     OW30157   6.473   6.611   3.216
 9753SOL    HW130158   6.506   6.555   3.292
 9753SOL    HW230159   6.431   6.552   3.147
 9754SOL     OW30160   3.191   0.509   1.930
 9754SOL    HW130161   3.188   0.409   1.922
 9754SOL    HW230162   3.123   0.550   1.869
 9755SOL     OW30163   3.199   4.087   1.093
 9755SOL    HW130164   3.215   4.007   1.150
 9755SOL    HW230165   3.242   4.073   1.004
 9756SOL     OW30166   4.825   6.895   6.621
 9756SOL    HW130167   4.762   6.845   6.560
 9756SOL    HW230168   4.897   6.938   6.568
 9757SOL     OW30169   4.874   4.068   4.124
 9757SOL    HW130170   4.859   3.973   4.096
 9757SOL    HW230171   4.971   4.082   4.144
 9758SOL     OW30172   3.673   0.940   1.867
 9758SOL    HW130173   3.622   0.858   1.839
 9758SOL    HW230174   3.721   0.922   1.952
 9759SOL     OW30175   6.700   2.093   0.933
 9759SOL    HW130176   6.669   2.141   1.015
 9759SOL    HW230177   6.621   2.053   0.886
 9760SOL     OW30178   4.647   0.961   6.377
 9760SOL    HW130179   4.660   0.953   6.278
 9760SOL    HW230180   4.715   0.906   6.424
 9761SOL     OW30181   0.825   1.997   2.084
 9761SOL    HW130182   0.839   2.084   2.132
 9761SOL    HW230183   0.848   2.009   1.987
 9762SOL     OW30184   3.599   0.819   5.751
 9762SOL    HW130185   3.563   0.733   5.714
 9762SOL    HW230186   3.628   0.804   5.845
 9763SOL     OW30187   5.733   1.694   1.105
 9763SOL    HW130188   5.829   1.719   1.119
 9763SOL    HW230189   5.715   1.605   1.146
 9764SOL     OW30190   0.424   2.381   3.417
 9764SOL    HW130191   0.354   2.317   3.448
 9764SOL    HW230192   0.385   2.474   3.414
 9765SOL     OW30193   6.168   2.171   1.258
 9765SOL    HW130194   6.160   2.268   1.236
 9765SOL    HW230195   6.191   2.120   1.176
 9766SOL     OW30196   0.231   2.469   2.984
 9766SOL    HW130197   0.276   2.556   2.964
 9766SOL    HW230198   0.192   2.432   2.900
 9767SOL     OW30199   3.609   1.665   4.396
 9767SOL    HW130200   3.594   1.740   4.331
 9767SOL    HW230201   3.590   1.578   4.351
 9768SOL     OW30202   4.810   2.224   6.381
 9768SOL    HW130203   4.793   2.149   6.444
 9768SOL    HW230204   4.909   2.238   6.370
 9769SOL     OW30205   3.911   1.173   5.215
 9769SOL    HW130206   3.834   1.186   5.278
 9769SOL    HW230207   3.876   1.141   5.127
 9770SOL     OW30208   2.206   3.196   5.476
 9770SOL    HW130209   2.184   3.277   5.531
 9770SOL    HW230210   2.159   3.116   5.515
 9771SOL     OW30211   3.476   0.889   2.127
 9771SOL    HW130212   3.416   0.827   2.078
 9771SOL    HW230213   3.569   0.883   2.089
 9772SOL     OW30214   0.406   0.478   1.898
 9772SOL    HW130215   0.381   0.467   1.994
 9772SOL    HW230216   0.503   0.502   1.891
 9773SOL     OW30217   4.721   6.281   1.842
 9773SOL    HW130218   4.789   6.348   1.813
 9773SOL    HW230219   4.678   6.312   1.927
 9774SOL     OW30220   1.810   5.559   4.677
 9774SOL    HW130221   1.723   5.526   4.711
 9774SOL    HW230222   1.794   5.630   4.608
 9775SOL     OW30223   1.397   0.996   3.179
 9775SOL    HW130224   1.346   0.982   3.095
 9775SOL    HW230225   1.460   0.920   3.193
 9776SOL     OW30226   1.399   5.930   1.560
 9776SOL    HW130227   1.496   5.922   1.584
 9776SOL    HW230228   1.358   6.006   1.611
 9777SOL     OW30229   4.401   1.744   5.267
 9777SOL    HW130230   4.368   1.651   5.285
 9777SOL    HW230231   4.448   1.746   5.179
 9778SOL     OW30232   1.483   3.823   2.996
 9778SOL    HW130233   1.507   3.758   3.067
 9778SOL    HW230234   1.408   3.786   2.940
 9779SOL     OW30235   2.418   1.033   2.810
 9779SOL    HW130236   2.349   1.035   2.882
 9779SOL    HW230237   2.502   1.075   2.844
 9780SOL     OW30238   1.339   1.728   0.784
 9780SOL    HW130239   1.259   1.787   0.771
 9780SOL    HW230240   1.352   1.710   0.881
 9781SOL     OW30241   1.249   1.215   2.122
 9781SOL    HW130242   1.310   1.264   2.183
 9781SOL    HW230243   1.198   1.146   2.173
 9782SOL     OW30244   0.020   2.708   0.237
 9782SOL    HW130245   0.051   2.625   0.190
 9782SOL    HW230246   6.998   2.682   0.323
 9783SOL     OW30247   4.747   1.576   2.460
 9783SOL    HW130248   4.647   1.586   2.459
 9783SOL    HW230249   4.772   1.495   2.512
 9784SOL     OW30250   2.169   0.934   0.674
 9784SOL    HW130251   2.169   1.001   0.748
 9784SOL    HW230252   2.234   0.961   0.604
 9785SOL     OW30253   1.157   3.437   4.591
 9785SOL    HW130254   1.191   3.370   4.525
 9785SOL    HW230255   1.229   3.503   4.611
 9786SOL     OW30256   3.008   4.363   6.630
 9786SOL    HW130257   2.926   4.341   6.684
 9786SOL    HW230258   3.028   4.461   6.639
 9787SOL     OW30259   2.402   3.406   0.776
 9787SOL    HW130260   2.314   3.369   0.745
 9787SOL    HW230261   2.473   3.382   0.710
 9788SOL     OW30262   2.301   6.982   2.447
 9788SOL    HW130263   2.213   7.009   2.486
 9788SOL    HW230264   2.368   0.031   2.464
 9789SOL     OW30265   4.535   1.785   0.266
 9789SOL    HW130266   4.561   1.706   0.322
 9789SOL    HW230267   4.461   1.835   0.311
 9790SOL     OW30268   4.603   5.791   5.126
 9790SOL    HW130269   4.689   5.842   5.128
 9790SOL    HW230270   4.620   5.696   5.154
 9791SOL     OW30271   0.300   1.307   1.345
 9791SOL    HW130272   0.353   1.262   1.273
 9791SOL    HW230273   0.360   1.325   1.423
 9792SOL     OW30274   3.358   3.430   0.755
 9792SOL    HW130275   3.411   3.345   0.764
 9792SOL    HW230276   3.277   3.424   0.813
 9793SOL     OW30277   6.032   1.266   1.832
 9793SOL    HW130278   6.076   1.287   1.920
 9793SOL    HW230279   5.983   1.179   1.839
 9794SOL     OW30280   4.101   5.627   4.793
 9794SOL    HW130281   4.145   5.715   4.812
 9794SOL    HW230282   4.171   5.557   4.784
 9795SOL     OW30283   1.860   4.389   3.126
 9795SOL    HW130284   1.902   4.312   3.078
 9795SOL    HW230285   1.792   4.356   3.190
 9796SOL     OW30286   3.823   3.414   4.958
 9796SOL    HW130287   3.794   3.369   4.874
 9796SOL    HW230288   3.918   3.388   4.979
 9797SOL     OW30289   3.270   5.648   6.696
 9797SOL    HW130290   3.368   5.648   6.715
 9797SOL    HW230291   3.245   5.733   6.649
 9798SOL     OW30292   0.171   4.481   6.552
 9798SOL    HW130293   0.100   4.430   6.600
 9798SOL    HW230294   0.135   4.517   6.467
 9799SOL     OW30295   3.807   6.465   6.520
 9799SOL    HW130296   3.902   6.469   6.489
 9799SOL    HW230297   3.746   6.460   6.441
 9800SOL     OW30298   6.936   4.398   4.973
 9800SOL    HW130299   6.866   4.460   5.008
 9800SOL    HW230300   6.926   4.308   5.017
 9801SOL     OW30301   4.214   0.300   0.520
 9801SOL    HW130302   4.142   0.340   0.577
 9801SOL    HW230303   4.268   0.236   0.574
 9802SOL     OW30304   3.926   2.921   0.379
 9802SOL    HW130305   3.927   2.912   0.479
 9802SOL    HW230306   3.836   2.955   0.350
 9803SOL     OW30307   2.553   3.650   0.512
 9803SOL    HW130308   2.459   3.678   0.490
 9803SOL    HW230309   2.617   3.705   0.459
 9804SOL     OW30310   0.969   4.144   3.069
 9804SOL    HW130311   1.041   4.212   3.086
 9804SOL    HW230312   0.899   4.185   3.011
 9805SOL     OW30313   0.150   5.186   5.158
 9805SOL    HW130314   0.212   5.120   5.116
 9805SOL    HW230315   0.124   5.154   5.249
 9806SOL     OW30316   3.355   0.872   6.563
 9806SOL    HW130317   3.398   0.925   6.490
 9806SOL    HW230318   3.323   0.933   6.635
 9807SOL     OW30319   3.505   3.045   4.078
 9807SOL    HW130320   3.409   3.021   4.065
 9807SOL    HW230321   3.526   3.130   4.029
 9808SOL     OW30322   2.961   5.889   2.458
 9808SOL    HW130323   2.886   5.927   2.512
 9808SOL    HW230324   2.932   5.875   2.364
 9809SOL     OW30325   6.157   3.331   1.318
 9809SOL    HW130326   6.162   3.304   1.222
 9809SOL    HW230327   6.097   3.268   1.367
 9810SOL     OW30328   3.780   3.120   1.158
 9810SOL    HW130329   3.700   3.167   1.120
 9810SOL    HW230330   3.863   3.155   1.113
 9811SOL     OW30331   5.205   3.436   4.143
 9811SOL    HW130332   5.246   3.379   4.072
 9811SOL    HW230333   5.109   3.410   4.156
 9812SOL     OW30334   3.230   4.962   6.556
 9812SOL    HW130335   3.276   4.993   6.639
 9812SOL    HW230336   3.166   5.032   6.525
 9813SOL     OW30337   4.543   0.795   1.983
 9813SOL    HW130338   4.504   0.886   1.999
 9813SOL    HW230339   4.581   0.760   2.069
 9814SOL     OW30340   6.764   1.496   6.286
 9814SOL    HW130341   6.767   1.596   6.279
 9814SOL    HW230342   6.687   1.470   6.344
 9815SOL     OW30343   5.719   2.590   4.530
 9815SOL    HW130344   5.770   2.645   4.596
 9815SOL    HW230345   5.774   2.576   4.448
 9816SOL     OW30346   3.254   0.725   0.500
 9816SOL    HW130347   3.188   0.721   0.575
 9816SOL    HW230348   3.329   0.662   0.518
 9817SOL     OW30349   6.128   0.482   1.411
 9817SOL    HW130350   6.122   0.502   1.509
 9817SOL    HW230351   6.054   0.530   1.363
 9818SOL     OW30352   3.808   2.499   5.314
 9818SOL    HW130353   3.802   2.591   5.276
 9818SOL    HW230354   3.839   2.504   5.409
 9819SOL     OW30355   2.459   0.669   1.916
 9819SOL    HW130356   2.520   0.661   1.837
 9819SOL    HW230357   2.405   0.753   1.908
 9820SOL     OW30358   3.670   2.534   6.929
 9820SOL    HW130359   3.728   2.462   6.891
 9820SOL    HW230360   3.708   2.623   6.905
 9821SOL     OW30361   0.584   5.925   6.855
 9821SOL    HW130362   0.558   5.925   6.758
 9821SOL    HW230363   0.549   6.007   6.899
 9822SOL     OW30364   0.299   0.543   2.163
 9822SOL    HW130365   0.257   0.532   2.253
 9822SOL    HW230366   0.384   0.595   2.172
 9823SOL     OW30367   3.605   6.731   1.989
 9823SOL    HW130368   3.628   6.649   2.041
 9823SOL    HW230369   3.658   6.732   1.904
 9824SOL     OW30370   2.064   4.068   5.389
 9824SOL    HW130371   2.109   4.039   5.474
 9824SOL    HW230372   2.098   4.013   5.313
 9825SOL     OW30373   3.968   5.312   4.949
 9825SOL    HW130374   3.869   5.307   4.936
 9825SOL    HW230375   3.992   5.283   5.041
 9826SOL     OW30376   5.423   6.574   5.360
 9826SOL    HW130377   5.335   6.619   5.374
 9826SOL    HW230378   5.493   6.622   5.412
 9827SOL     OW30379   0.746   5.263   4.981
 9827SOL    HW130380   0.826   5.280   4.924
 9827SOL    HW230381   0.776   5.239   5.074
 9828SOL     OW30382   2.438   1.486   0.088
 9828SOL    HW130383   2.356   1.430   0.101
 9828SOL    HW230384   2.452   1.543   0.169
 9829SOL     OW30385   2.878   4.063   1.673
 9829SOL    HW130386   2.942   4.135   1.697
 9829SOL    HW230387   2.926   3.975   1.668
 9830SOL     OW30388   6.025   1.678   1.117
 9830SOL    HW130389   6.021   1.585   1.082
 9830SOL    HW230390   6.069   1.679   1.207
 9831SOL     OW30391   6.020   6.331   1.218
 9831SOL    HW130392   6.078   6.361   1.293
 9831SOL    HW230393   5.934   6.383   1.218
 9832SOL     OW30394   3.099   3.590   0.635
 9832SOL    HW130395   3.050   3.624   0.555
 9832SOL    HW230396   3.097   3.490   0.635
 9833SOL     OW30397   4.945   4.216   6.976
 9833SOL    HW130398   4.977   4.306   7.005
 9833SOL    HW230399   5.022   4.162   6.941
 9834SOL     OW30400   2.109   2.624   4.223
 9834SOL    HW130401   2.159   2.542   4.250
 9834SOL    HW230402   2.170   2.703   4.230
 9835SOL     OW30403   5.335   1.732   4.416
 9835SOL    HW130404   5.393   1.680   4.353
 9835SOL    HW230405   5.312   1.820   4.375
 9836SOL     OW30406   5.221   5.493   1.766
 9836SOL    HW130407   5.310   5.467   1.805
 9836SOL    HW230408   5.197   5.429   1.693
 9837SOL     OW30409   2.766   5.826   5.662
 9837SOL    HW130410   2.675   5.862   5.684
 9837SOL    HW230411   2.819   5.897   5.615
 9838SOL     OW30412   6.918   6.011   4.995
 9838SOL    HW130413   7.006   5.966   5.011
 9838SOL    HW230414   6.867   6.017   5.081
 9839SOL     OW30415   5.854   3.333   2.588
 9839SOL    HW130416   5.936   3.289   2.626
 9839SOL    HW230417   5.856   3.326   2.488
 9840SOL     OW30418   5.812   0.294   0.308
 9840SOL    HW130419   5.781   0.335   0.222
 9840SOL    HW230420   5.740   0.303   0.377
 9841SOL     OW30421   2.127   3.248   4.611
 9841SOL    HW130422   2.169   3.174   4.663
 9841SOL    HW230423   2.033   3.263   4.642
 9842SOL     OW30424   3.297   3.462   3.930
 9842SOL    HW130425   3.321   3.552   3.892
 9842SOL    HW230426   3.247   3.410   3.861
 9843SOL     OW30427   6.063   4.768   3.106
 9843SOL    HW130428   5.994   4.730   3.168
 9843SOL    HW230429   6.030   4.854   3.068
 9844SOL     OW30430   5.170   0.338   1.997
 9844SOL    HW130431   5.091   0.373   1.948
 9844SOL    HW230432   5.199   0.404   2.065
 9845SOL     OW30433   1.556   1.555   4.053
 9845SOL    HW130434   1.591   1.649   4.055
 9845SOL    HW230435   1.465   1.553   4.092
 9846SOL     OW30436   2.912   3.488   3.998
 9846SOL    HW130437   2.831   3.504   4.055
 9846SOL    HW230438   2.923   3.564   3.934
 9847SOL     OW30439   2.267   4.290   4.621
 9847SOL    HW130440   2.237   4.213   4.678
 9847SOL    HW230441   2.268   4.261   4.525
 9848SOL     OW30442   6.227   4.098   0.254
 9848SOL    HW130443   6.159   4.167   0.275
 9848SOL    HW230444   6.202   4.011   0.297
 9849SOL     OW30445   6.653   6.125   5.225
 9849SOL    HW130446   6.748   6.148   5.247
 9849SOL    HW230447   6.591   6.185   5.276
 9850SOL     OW30448   4.853   0.737   3.346
 9850SOL    HW130449   4.949   0.730   3.319
 9850SOL    HW230450   4.796   0.754   3.265
 9851SOL     OW30451   5.054   2.475   5.191
 9851SOL    HW130452   4.987   2.504   5.260
 9851SOL    HW230453   5.097   2.391   5.221
 9852SOL     OW30454   5.746   1.664   4.369
 9852SOL    HW130455   5.766   1.632   4.462
 9852SOL    HW230456   5.831   1.666   4.316
 9853SOL     OW30457   0.686   4.982   1.377
 9853SOL    HW130458   0.778   4.951   1.352
 9853SOL    HW230459   0.692   5.061   1.438
 9854SOL     OW30460   3.683   6.625   3.964
 9854SOL    HW130461   3.682   6.719   3.930
 9854SOL    HW230462   3.772   6.584   3.943
 9855SOL     OW30463   1.816   4.367   0.785
 9855SOL    HW130464   1.758   4.356   0.865
 9855SOL    HW230465   1.814   4.463   0.755
 9856SOL     OW30466   3.802   3.191   1.735
 9856SOL    HW130467   3.733   3.237   1.791
 9856SOL    HW230468   3.771   3.099   1.712
 9857SOL     OW30469   6.626   4.850   2.785
 9857SOL    HW130470   6.531   4.865   2.811
 9857SOL    HW230471   6.638   4.756   2.754
 9858SOL     OW30472   3.634   1.647   1.477
 9858SOL    HW130473   3.586   1.563   1.452
 9858SOL    HW230474   3.585   1.692   1.551
 9859SOL     OW30475   0.272   6.600   1.131
 9859SOL    HW130476   0.292   6.519   1.187
 9859SOL    HW230477   0.248   6.572   1.039
 9860SOL     OW30478   0.692   0.900   2.786
 9860SOL    HW130479   0.685   0.981   2.844
 9860SOL    HW230480   0.735   0.925   2.699
 9861SOL     OW30481   3.070   6.619   3.822
 9861SOL    HW130482   3.130   6.662   3.889
 9861SOL    HW230483   2.977   6.616   3.858
 9862SOL     OW30484   0.360   1.901   1.135
 9862SOL    HW130485   0.352   1.994   1.171
 9862SOL    HW230486   0.435   1.854   1.182
 9863SOL     OW30487   3.811   0.359   0.388
 9863SOL    HW130488   3.905   0.326   0.377
 9863SOL    HW230489   3.791   0.371   0.485
 9864SOL     OW30490   4.405   6.098   3.200
 9864SOL    HW130491   4.367   6.169   3.258
 9864SOL    HW230492   4.475   6.137   3.140
 9865SOL     OW30493   1.902   3.190   3.996
 9865SOL    HW130494   1.874   3.165   3.903
 9865SOL    HW230495   1.858   3.128   4.061
 9866SOL     OW30496   3.099   4.857   3.505
 9866SOL    HW130497   3.091   4.956   3.518
 9866SOL    HW230498   3.095   4.811   3.594
 9867SOL     OW30499   4.170   6.794   6.370
 9867SOL    HW130500   4.193   6.823   6.463
 9867SOL    HW230501   4.165   6.874   6.311
 9868SOL     OW30502   1.604   5.322   5.372
 9868SOL    HW130503   1.553   5.397   5.413
 9868SOL    HW230504   1.577   5.311   5.277
 9869SOL     OW30505   1.523   4.283   2.997
 9869SOL    HW130506   1.604   4.227   3.012
 9869SOL    HW230507   1.549   4.370   2.955
 9870SOL     OW30508   4.126   5.060   1.553
 9870SOL    HW130509   4.167   5.093   1.468
 9870SOL    HW230510   4.176   5.097   1.631
 9871SOL     OW30511   1.768   2.267   5.705
 9871SOL    HW130512   1.784   2.201   5.779
 9871SOL    HW230513   1.853   2.281   5.655
 9872SOL     OW30514   1.378   4.183   3.331
 9872SOL    HW130515   1.384   4.232   3.418
 9872SOL    HW230516   1.298   4.123   3.332
 9873SOL     OW30517   1.760   1.570   0.644
 9873SOL    HW130518   1.859   1.553   0.638
 9873SOL    HW230519   1.711   1.490   0.611
 9874SOL     OW30520   1.243   4.097   5.079
 9874SOL    HW130521   1.267   4.018   5.135
 9874SOL    HW230522   1.309   4.170   5.093
 9875SOL     OW30523   1.331   1.361   2.947
 9875SOL    HW130524   1.277   1.389   3.026
 9875SOL    HW230525   1.274   1.306   2.886
 9876SOL     OW30526   6.737   5.603   2.401
 9876SOL    HW130527   6.828   5.561   2.403
 9876SOL    HW230528   6.670   5.535   2.372
 9877SOL     OW30529   3.988   0.392   1.369
 9877SOL    HW130530   3.959   0.363   1.277
 9877SOL    HW230531   3.908   0.418   1.422
 9878SOL     OW30532   0.160   0.660   5.204
 9878SOL    HW130533   0.205   0.747   5.227
 9878SOL    HW230534   0.175   0.594   5.278
 9879SOL     OW30535   5.188   5.464   4.770
 9879SOL    HW130536   5.211   5.453   4.867
 9879SOL    HW230537   5.095   5.432   4.754
 9880SOL     OW30538   1.472   2.110   3.960
 9880SOL    HW130539   1.538   2.113   4.035
 9880SOL    HW230540   1.432   2.201   3.947
 9881SOL     OW30541   0.178   1.297   6.169
 9881SOL    HW130542   0.200   1.288   6.266
 9881SOL    HW230543   0.243   1.244   6.115
 9882SOL     OW30544   2.249   2.270   3.312
 9882SOL    HW130545   2.177   2.317   3.363
 9882SOL    HW230546   2.307   2.218   3.375
 9883SOL     OW30547   2.740   1.156   2.505
 9883SOL    HW130548   2.803   1.165   2.582
 9883SOL    HW230549   2.710   1.246   2.476
 9884SOL     OW30550   3.179   0.399   3.841
 9884SOL    HW130551   3.226   0.474   3.794
 9884SOL    HW230552   3.126   0.435   3.918
 9885SOL     OW30553   6.645   3.763   4.269
 9885SOL    HW130554   6.697   3.695   4.321
 9885SOL    HW230555   6.559   3.723   4.239
 9886SOL     OW30556   0.465   2.888   1.778
 9886SOL    HW130557   0.414   2.805   1.799
 9886SOL    HW230558   0.472   2.945   1.860
 9887SOL     OW30559   4.803   6.470   6.048
 9887SOL    HW130560   4.803   6.386   5.993
 9887SOL    HW230561   4.850   6.543   5.997
 9888SOL     OW30562   6.704   5.297   6.494
 9888SOL    HW130563   6.734   5.384   6.454
 9888SOL    HW230564   6.756   5.279   6.577
 9889SOL     OW30565   0.391   5.758   0.724
 9889SOL    HW130566   0.458   5.687   0.747
 9889SOL    HW230567   0.336   5.779   0.805
 9890SOL     OW30568   1.008   2.751   0.537
 9890SOL    HW130569   0.970   2.717   0.451
 9890SOL    HW230570   1.026   2.849   0.529
 9891SOL     OW30571   4.879   1.162   1.904
 9891SOL    HW130572   4.916   1.217   1.828
 9891SOL    HW230573   4.812   1.097   1.868
 9892SOL     OW30574   0.804   0.150   0.158
 9892SOL    HW130575   0.892   0.105   0.145
 9892SOL    HW230576   0.768   0.129   0.249
 9893SOL     OW30577   2.345   1.183   6.775
 9893SOL    HW130578   2.311   1.101   6.819
 9893SOL    HW230579   2.353   1.168   6.676
 9894SOL     OW30580   2.343   0.674   1.466
 9894SOL    HW130581   2.301   0.644   1.380
 9894SOL    HW230582   2.355   0.773   1.465
 9895SOL     OW30583   4.459   2.832   5.488
 9895SOL    HW130584   4.456   2.931   5.494
 9895SOL    HW230585   4.395   2.792   5.554
 9896SOL     OW30586   6.771   6.530   5.649
 9896SOL    HW130587   6.749   6.480   5.732
 9896SOL    HW230588   6.867   6.560   5.652
 9897SOL     OW30589   5.099   5.126   4.844
 9897SOL    HW130590   5.017   5.183   4.858
 9897SOL    HW230591   5.159   5.170   4.777
 9898SOL     OW30592   2.783   0.023   6.016
 9898SOL    HW130593   2.793   6.959   6.062
 9898SOL    HW230594   2.726   0.084   6.072
 9899SOL     OW30595   0.331   4.576   0.203
 9899SOL    HW130596   0.278   4.553   0.121
 9899SOL    HW230597   0.295   4.523   0.280
 9900SOL     OW30598   2.400   4.314   3.494
 9900SOL    HW130599   2.371   4.239   3.434
 9900SOL    HW230600   2.411   4.397   3.440
 9901SOL     OW30601   1.680   3.273   5.463
 9901SOL    HW130602   1.721   3.364   5.472
 9901SOL    HW230603   1.707   3.217   5.541
 9902SOL     OW30604   2.704   4.678   0.738
 9902SOL    HW130605   2.612   4.712   0.723
 9902SOL    HW230606   2.702   4.578   0.748
 9903SOL     OW30607   5.435   1.262   4.571
 9903SOL    HW130608   5.528   1.239   4.541
 9903SOL    HW230609   5.369   1.232   4.501
 9904SOL     OW30610   6.116   2.164   0.802
 9904SOL    HW130611   6.198   2.195   0.850
 9904SOL    HW230612   6.083   2.079   0.843
 9905SOL     OW30613   4.923   0.098   0.196
 9905SOL    HW130614   5.013   0.058   0.216
 9905SOL    HW230615   4.911   0.179   0.253
 9906SOL     OW30616   3.329   3.483   5.079
 9906SOL    HW130617   3.282   3.545   5.141
 9906SOL    HW230618   3.346   3.530   4.992
 9907SOL     OW30619   1.238   6.520   1.478
 9907SOL    HW130620   1.208   6.470   1.559
 9907SOL    HW230621   1.326   6.484   1.447
 9908SOL     OW30622   4.892   3.455   1.968
 9908SOL    HW130623   4.926   3.534   2.019
 9908SOL    HW230624   4.921   3.462   1.872
 9909SOL     OW30625   2.012   0.410   4.991
 9909SOL    HW130626   1.956   0.485   4.957
 9909SOL    HW230627   1.966   0.323   4.973
 9910SOL     OW30628   6.885   4.717   3.600
 9910SOL    HW130629   6.823   4.763   3.537
 9910SOL    HW230630   6.833   4.664   3.667
 9911SOL     OW30631   2.896   5.966   2.205
 9911SOL    HW130632   2.901   6.058   2.166
 9911SOL    HW230633   2.874   5.900   2.133
 9912SOL     OW30634   4.380   1.003   6.136
 9912SOL    HW130635   4.432   0.947   6.071
 9912SOL    HW230636   4.442   1.065   6.184
 9913SOL     OW30637   4.981   3.230   0.367
 9913SOL    HW130638   4.980   3.283   0.452
 9913SOL    HW230639   4.968   3.292   0.289
 9914SOL     OW30640   0.189   4.260   4.750
 9914SOL    HW130641   0.238   4.245   4.664
 9914SOL    HW230642   0.170   4.357   4.762
 9915SOL     OW30643   4.671   1.586   3.625
 9915SOL    HW130644   4.613   1.543   3.556
 9915SOL    HW230645   4.738   1.520   3.659
 9916SOL     OW30646   1.442   3.063   1.945
 9916SOL    HW130647   1.515   3.081   1.880
 9916SOL    HW230648   1.366   3.126   1.928
 9917SOL     OW30649   6.017   4.742   4.997
 9917SOL    HW130650   5.928   4.711   5.031
 9917SOL    HW230651   6.087   4.675   5.023
 9918SOL     OW30652   4.853   2.930   2.291
 9918SOL    HW130653   4.897   2.840   2.288
 9918SOL    HW230654   4.801   2.944   2.207
 9919SOL     OW30655   5.704   5.926   0.998
 9919SOL    HW130656   5.794   5.890   0.973
 9919SOL    HW230657   5.703   6.025   0.983
 9920SOL     OW30658   4.735   1.437   2.856
 9920SOL    HW130659   4.686   1.506   2.803
 9920SOL    HW230660   4.679   1.354   2.862
 9921SOL     OW30661   4.177   5.022   6.582
 9921SOL    HW130662   4.257   4.969   6.559
 9921SOL    HW230663   4.162   5.020   6.681
 9922SOL     OW30664   0.129   6.071   1.431
 9922SOL    HW130665   0.044   6.091   1.382
 9922SOL    HW230666   0.125   5.979   1.469
 9923SOL     OW30667   5.764   4.392   1.045
 9923SOL    HW130668   5.777   4.294   1.030
 9923SOL    HW230669   5.741   4.437   0.959
 9924SOL     OW30670   1.363   3.635   4.630
 9924SOL    HW130671   1.354   3.672   4.722
 9924SOL    HW230672   1.421   3.695   4.575
 9925SOL     OW30673   5.177   2.200   4.025
 9925SOL    HW130674   5.168   2.294   3.993
 9925SOL    HW230675   5.218   2.199   4.116
 9926SOL     OW30676   3.113   5.094   0.975
 9926SOL    HW130677   3.162   5.115   1.060
 9926SOL    HW230678   3.151   5.011   0.935
 9927SOL     OW30679   5.018   0.061   4.251
 9927SOL    HW130680   5.004   0.155   4.281
 9927SOL    HW230681   4.930   0.020   4.228
 9928SOL     OW30682   4.624   4.672   2.039
 9928SOL    HW130683   4.723   4.655   2.040
 9928SOL    HW230684   4.591   4.672   1.945
 9929SOL     OW30685   1.067   4.479   2.835
 9929SOL    HW130686   0.993   4.428   2.878
 9929SOL    HW230687   1.049   4.488   2.737
 9930SOL     OW30688   5.472   1.099   3.321
 9930SOL    HW130689   5.536   1.076   3.248
 9930SOL    HW230690   5.382   1.060   3.301
 9931SOL     OW30691   1.054   5.358   5.578
 9931SOL    HW130692   1.111   5.362   5.660
 9931SOL    HW230693   1.034   5.451   5.547
 9932SOL     OW30694   0.872   6.068   4.756
 9932SOL    HW130695   0.916   5.990   4.712
 9932SOL    HW230696   0.934   6.107   4.825
 9933SOL     OW30697   0.216   6.581   2.849
 9933SOL    HW130698   0.170   6.500   2.811
 9933SOL    HW230699   0.238   6.644   2.775
 9934SOL     OW30700   0.074   2.036   4.969
 9934SOL    HW130701   0.033   1.985   5.045
 9934SOL    HW230702   0.148   2.094   5.005
 9935SOL     OW30703   2.383   0.314   6.275
 9935SOL    HW130704   2.452   0.343   6.209
 9935SOL    HW230705   2.303   0.278   6.226
 9936SOL     OW30706   1.333   3.591   4.026
 9936SOL    HW130707   1.424   3.590   3.986
 9936SOL    HW230708   1.300   3.497   4.037
 9937SOL     OW30709   6.646   2.409   6.009
 9937SOL    HW130710   6.588   2.442   5.935
 9937SOL    HW230711   6.736   2.452   6.002
 9938SOL     OW30712   6.723   6.400   2.782
 9938SOL    HW130713   6.710   6.456   2.700
 9938SOL    HW230714   6.651   6.421   2.848
 9939SOL     OW30715   3.344   3.400   3.285
 9939SOL    HW130716   3.324   3.419   3.188
 9939SOL    HW230717   3.358   3.487   3.333
 9940SOL     OW30718   0.447   1.208   1.128
 9940SOL    HW130719   0.362   1.226   1.080
 9940SOL    HW230720   0.483   1.119   1.100
 9941SOL     OW30721   3.313   5.706   4.300
 9941SOL    HW130722   3.262   5.684   4.384
 9941SOL    HW230723   3.401   5.659   4.302
 9942SOL     OW30724   2.319   5.208   3.864
 9942SOL    HW130725   2.358   5.272   3.798
 9942SOL    HW230726   2.345   5.114   3.840
 9943SOL     OW30727   0.294   0.044   4.661
 9943SOL    HW130728   0.277   0.115   4.730
 9943SOL    HW230729   0.393   0.032   4.650
 9944SOL     OW30730   1.544   4.559   6.446
 9944SOL    HW130731   1.601   4.637   6.472
 9944SOL    HW230732   1.569   4.479   6.501
 9945SOL     OW30733   0.267   5.738   6.898
 9945SOL    HW130734   0.256   5.658   6.957
 9945SOL    HW230735   0.363   5.768   6.899
 9946SOL     OW30736   5.612   0.976   4.475
 9946SOL    HW130737   5.613   1.018   4.384
 9946SOL    HW230738   5.563   0.889   4.470
 9947SOL     OW30739   6.343   4.753   3.424
 9947SOL    HW130740   6.277   4.728   3.495
 9947SOL    HW230741   6.347   4.681   3.355
 9948SOL     OW30742   5.512   3.890   3.555
 9948SOL    HW130743   5.455   3.972   3.549
 9948SOL    HW230744   5.457   3.809   3.535
 9949SOL     OW30745   5.940   5.423   1.840
 9949SOL    HW130746   5.913   5.381   1.927
 9949SOL    HW230747   5.992   5.506   1.857
 9950SOL     OW30748   3.526   6.425   6.754
 9950SOL    HW130749   3.570   6.339   6.779
 9950SOL    HW230750   3.427   6.411   6.748
 9951SOL     OW30751   6.600   3.020   2.758
 9951SOL    HW130752   6.660   3.003   2.679
 9951SOL    HW230753   6.505   3.023   2.728
 9952SOL     OW30754   0.019   4.011   6.277
 9952SOL    HW130755   0.075   3.981   6.200
 9952SOL    HW230756   0.071   4.002   6.362
 9953SOL     OW30757   5.319   2.980   3.784
 9953SOL    HW130758   5.384   2.962   3.858
 9953SOL    HW230759   5.309   2.899   3.727
 9954SOL     OW30760   4.380   0.508   4.611
 9954SOL    HW130761   4.321   0.442   4.565
 9954SOL    HW230762   4.360   0.508   4.709
 9955SOL     OW30763   0.694   4.718   4.043
 9955SOL    HW130764   0.743   4.632   4.053
 9955SOL    HW230765   0.702   4.771   4.128
 9956SOL     OW30766   1.382   6.140   0.419
 9956SOL    HW130767   1.385   6.199   0.500
 9956SOL    HW230768   1.349   6.192   0.340
 9957SOL     OW30769   5.894   5.391   2.444
 9957SOL    HW130770   5.952   5.388   2.362
 9957SOL    HW230771   5.834   5.470   2.439
 9958SOL     OW30772   3.044   4.372   0.888
 9958SOL    HW130773   3.041   4.332   0.796
 9958SOL    HW230774   2.988   4.454   0.891
 9959SOL     OW30775   3.259   3.883   1.269
 9959SOL    HW130776   3.245   3.945   1.346
 9959SOL    HW230777   3.305   3.800   1.301
 9960SOL     OW30778   0.697   0.617   2.384
 9960SOL    HW130779   0.782   0.664   2.405
 9960SOL    HW230780   0.634   0.623   2.462
 9961SOL     OW30781   2.034   3.569   4.862
 9961SOL    HW130782   2.069   3.567   4.769
 9961SOL    HW230783   2.082   3.501   4.918
 9962SOL     OW30784   5.073   6.528   4.928
 9962SOL    HW130785   5.075   6.445   4.873
 9962SOL    HW230786   5.145   6.524   4.997
 9963SOL     OW30787   3.004   1.635   0.696
 9963SOL    HW130788   2.937   1.570   0.659
 9963SOL    HW230789   2.984   1.652   0.792
 9964SOL     OW30790   5.734   6.747   4.739
 9964SOL    HW130791   5.687   6.753   4.651
 9964SOL    HW230792   5.674   6.703   4.805
 9965SOL     OW30793   5.358   6.576   0.837
 9965SOL    HW130794   5.349   6.526   0.751
 9965SOL    HW230795   5.274   6.626   0.856
 9966SOL     OW30796   6.337   1.136   2.925
 9966SOL    HW130797   6.247   1.139   2.881
 9966SOL    HW230798   6.408   1.134   2.854
 9967SOL     OW30799   1.185   5.662   0.462
 9967SOL    HW130800   1.219   5.593   0.398
 9967SOL    HW230801   1.167   5.747   0.412
 9968SOL     OW30802   3.491   3.532   2.918
 9968SOL    HW130803   3.513   3.601   2.986
 9968SOL    HW230804   3.404   3.488   2.942
 9969SOL     OW30805   1.490   3.176   1.448
 9969SOL    HW130806   1.542   3.097   1.413
 9969SOL    HW230807   1.540   3.260   1.428
 9970SOL     OW30808   6.082   4.766   2.018
 9970SOL    HW130809   6.024   4.685   2.027
 9970SOL    HW230810   6.024   4.847   2.006
 9971SOL     OW30811   2.747   6.793   6.830
 9971SOL    HW130812   2.707   6.703   6.811
 9971SOL    HW230813   2.846   6.789   6.818
 9972SOL     OW30814   6.727   5.047   1.423
 9972SOL    HW130815   6.740   4.956   1.383
 9972SOL    HW230816   6.745   5.117   1.354
 9973SOL     OW30817   5.233   6.772   3.775
 9973SOL    HW130818   5.263   6.826   3.697
 9973SOL    HW230819   5.146   6.807   3.810
 9974SOL     OW30820   1.998   0.551   4.325
 9974SOL    HW130821   2.073   0.616   4.333
 9974SOL    HW230822   1.963   0.552   4.231
 9975SOL     OW30823   0.208   4.305   1.042
 9975SOL    HW130824   0.232   4.244   0.966
 9975SOL    HW230825   0.142   4.259   1.102
 9976SOL     OW30826   3.229   6.787   4.371
 9976SOL    HW130827   3.281   6.704   4.388
 9976SOL    HW230828   3.187   6.818   4.456
 9977SOL     OW30829   6.464   4.818   3.691
 9977SOL    HW130830   6.528   4.895   3.694
 9977SOL    HW230831   6.447   4.792   3.596
 9978SOL     OW30832   6.756   2.688   4.403
 9978SOL    HW130833   6.770   2.788   4.402
 9978SOL    HW230834   6.830   2.645   4.456
 9979SOL     OW30835   0.827   4.199   5.381
 9979SOL    HW130836   0.918   4.239   5.371
 9979SOL    HW230837   0.778   4.205   5.294
 9980SOL     OW30838   2.952   6.329   5.289
 9980SOL    HW130839   3.029   6.270   5.314
 9980SOL    HW230840   2.958   6.352   5.192
 9981SOL     OW30841   4.363   2.085   3.471
 9981SOL    HW130842   4.302   2.035   3.409
 9981SOL    HW230843   4.309   2.138   3.535
 9982SOL     OW30844   6.317   6.686   2.567
 9982SOL    HW130845   6.256   6.629   2.621
 9982SOL    HW230846   6.281   6.694   2.474
 9983SOL     OW30847   6.597   0.577   1.314
 9983SOL    HW130848   6.689   0.537   1.313
 9983SOL    HW230849   6.542   0.533   1.243
 9984SOL     OW30850   2.999   0.788   6.576
 9984SOL    HW130851   3.023   0.865   6.517
 9984SOL    HW230852   2.930   0.817   6.643
 9985SOL     OW30853   2.109   1.044   1.455
 9985SOL    HW130854   2.049   0.983   1.506
 9985SOL    HW230855   2.058   1.126   1.428
 9986SOL     OW30856   5.045   4.027   4.473
 9986SOL    HW130857   5.010   3.933   4.477
 9986SOL    HW230858   4.991   4.080   4.409
 9987SOL     OW30859   0.422   4.046   5.716
 9987SOL    HW130860   0.517   4.033   5.689
 9987SOL    HW230861   0.384   4.125   5.669
 9988SOL     OW30862   6.624   0.778   4.247
 9988SOL    HW130863   6.632   0.819   4.338
 9988SOL    HW230864   6.538   0.726   4.242
 9989SOL     OW30865   2.171   2.701   4.672
 9989SOL    HW130866   2.090   2.726   4.726
 9989SOL    HW230867   2.188   2.771   4.603
 9990SOL     OW30868   1.144   4.796   1.600
 9990SOL    HW130869   1.151   4.704   1.561
 9990SOL    HW230870   1.137   4.790   1.699
 9991SOL     OW30871   3.726   1.866   3.398
 9991SOL    HW130872   3.820   1.890   3.420
 9991SOL    HW230873   3.666   1.945   3.414
 9992SOL     OW30874   6.201   5.413   6.463
 9992SOL    HW130875   6.159   5.498   6.430
 9992SOL    HW230876   6.131   5.343   6.474
 9993SOL     OW30877   1.146   0.458   2.286
 9993SOL    HW130878   1.049   0.432   2.280
 9993SOL    HW230879   1.200   0.379   2.315
 9994SOL     OW30880   6.489   4.521   3.692
 9994SOL    HW130881   6.454   4.608   3.656
 9994SOL    HW230882   6.439   4.446   3.650
 9995SOL     OW30883   5.528   1.748   4.629
 9995SOL    HW130884   5.517   1.654   4.660
 9995SOL    HW230885   5.460   1.768   4.558
 9996SOL     OW30886   3.144   3.160   0.264
 9996SOL    HW130887   3.153   3.259   0.265
 9996SOL    HW230888   3.203   3.120   0.334
 9997SOL     OW30889   2.214   0.732   4.323
 9997SOL    HW130890   2.231   0.718   4.420
 9997SOL    HW230891   2.172   0.821   4.308
 9998SOL     OW30892   5.963   6.028   4.730
 9998SOL    HW130893   5.960   6.009   4.632
 9998SOL    HW230894   6.051   5.997   4.767
 9999SOL     OW30895   0.326   1.253   4.869
 9999SOL    HW130896   0.321   1.262   4.968
 9999SOL    HW230897   0.358   1.340   4.830
10000SOL     OW30898   6.825   4.710   0.526
10000SOL    HW130899   6.920   4.737   0.544
10000SOL    HW230900   6.777   4.785   0.480
10001SOL     OW30901   4.006   0.813   4.039
10001SOL    HW130902   3.938   0.850   3.976
10001SOL    HW230903   4.040   0.726   4.005
10002SOL     OW30904   1.013   1.878   1.332
10002SOL    HW130905   0.919   1.866   1.299
10002SOL    HW230906   1.019   1.959   1.391
10003SOL     OW30907   5.193   3.903   2.191
10003SOL    HW130908   5.162   3.851   2.270
10003SOL    HW230909   5.214   3.996   2.219
10004SOL     OW30910   6.692   3.450   3.946
10004SOL    HW130911   6.706   3.548   3.939
10004SOL    HW230912   6.744   3.414   4.023
10005SOL     OW30913   4.478   0.518   3.637
10005SOL    HW130914   4.522   0.482   3.555
10005SOL    HW230915   4.540   0.580   3.683
10006SOL     OW30916   4.814   2.407   4.096
10006SOL    HW130917   4.853   2.488   4.139
10006SOL    HW230918   4.826   2.414   3.997
10007SOL     OW30919   5.375   5.193   4.341
10007SOL    HW130920   5.458   5.246   4.359
10007SOL    HW230921   5.398   5.095   4.338
10008SOL     OW30922   3.076   0.078   4.017
10008SOL    HW130923   3.169   0.086   3.982
10008SOL    HW230924   3.079   0.052   4.113
10009SOL     OW30925   2.008   4.275   1.346
10009SOL    HW130926   2.062   4.202   1.304
10009SOL    HW230927   1.977   4.339   1.275
10010SOL     OW30928   5.891   0.858   6.458
10010SOL    HW130929   5.905   0.943   6.508
10010SOL    HW230930   5.939   0.784   6.505
10011SOL     OW30931   7.020   6.609   3.566
10011SOL    HW130932   0.027   6.517   3.593
10011SOL    HW230933   0.048   6.677   3.618
10012SOL     OW30934   5.133   0.627   5.249
10012SOL    HW130935   5.210   0.582   5.204
10012SOL    HW230936   5.143   0.618   5.348
10013SOL     OW30937   1.022   0.268   1.395
10013SOL    HW130938   1.026   0.190   1.457
10013SOL    HW230939   1.003   0.236   1.302
10014SOL     OW30940   1.583   4.564   5.840
10014SOL    HW130941   1.516   4.627   5.800
10014SOL    HW230942   1.540   4.477   5.860
10015SOL     OW30943   2.569   6.169   6.268
10015SOL    HW130944   2.557   6.254   6.216
10015SOL    HW230945   2.608   6.190   6.358
10016SOL     OW30946   2.205   1.532   5.129
10016SOL    HW130947   2.159   1.611   5.089
10016SOL    HW230948   2.139   1.474   5.176
10017SOL     OW30949   0.087   2.007   3.457
10017SOL    HW130950   0.082   2.105   3.437
10017SOL    HW230951   7.018   1.972   3.477
10018SOL     OW30952   5.428   6.588   6.572
10018SOL    HW130953   5.399   6.628   6.659
10018SOL    HW230954   5.369   6.511   6.549
10019SOL     OW30955   0.911   0.597   3.278
10019SOL    HW130956   0.895   0.502   3.305
10019SOL    HW230957   0.960   0.645   3.351
10020SOL     OW30958   0.712   3.659   0.226
10020SOL    HW130959   0.622   3.680   0.264
10020SOL    HW230960   0.706   3.576   0.170
10021SOL     OW30961   4.962   2.876   1.336
10021SOL    HW130962   4.971   2.782   1.367
10021SOL    HW230963   4.990   2.938   1.409
10022SOL     OW30964   2.011   0.958   6.230
10022SOL    HW130965   1.965   1.042   6.261
10022SOL    HW230966   2.092   0.983   6.177
10023SOL     OW30967   0.453   3.697   0.328
10023SOL    HW130968   0.416   3.604   0.333
10023SOL    HW230969   0.424   3.749   0.409
10024SOL     OW30970   0.904   3.945   2.784
10024SOL    HW130971   0.838   3.906   2.848
10024SOL    HW230972   0.877   4.039   2.762
10025SOL     OW30973   0.730   1.519   0.603
10025SOL    HW130974   0.655   1.585   0.590
10025SOL    HW230975   0.743   1.468   0.518
10026SOL     OW30976   6.163   1.176   4.575
10026SOL    HW130977   6.104   1.098   4.596
10026SOL    HW230978   6.247   1.170   4.629
10027SOL     OW30979   5.940   2.863   5.725
10027SOL    HW130980   5.969   2.773   5.693
10027SOL    HW230981   5.908   2.918   5.648
10028SOL     OW30982   1.724   1.467   1.777
10028SOL    HW130983   1.724   1.566   1.795
10028SOL    HW230984   1.810   1.442   1.732
10029SOL     OW30985   3.488   1.361   4.351
10029SOL    HW130986   3.455   1.288   4.290
10029SOL    HW230987   3.524   1.321   4.435
10030SOL     OW30988   0.703   1.225   2.422
10030SOL    HW130989   0.645   1.283   2.365
10030SOL    HW230990   0.646   1.168   2.481
10031SOL     OW30991   0.342   4.956   3.011
10031SOL    HW130992   0.263   5.015   2.995
10031SOL    HW230993   0.334   4.914   3.101
10032SOL     OW30994   3.604   2.297   5.261
10032SOL    HW130995   3.583   2.249   5.346
10032SOL    HW230996   3.675   2.365   5.279
10033SOL     OW30997   5.916   3.013   3.483
10033SOL    HW130998   5.941   2.917   3.490
10033SOL    HW230999   5.833   3.022   3.427
10034SOL     OW31000   4.040   6.178   5.956
10034SOL    HW131001   4.138   6.174   5.974
10034SOL    HW231002   3.998   6.090   5.978
10035SOL     OW31003   0.400   6.718   3.915
10035SOL    HW131004   0.322   6.664   3.885
10035SOL    HW231005   0.473   6.657   3.946
10036SOL     OW31006   6.383   0.527   0.423
10036SOL    HW131007   6.427   0.611   0.456
10036SOL    HW231008   6.346   0.543   0.332
10037SOL     OW31009   0.100   6.953   1.151
10037SOL    HW131010   0.156   6.954   1.234
10037SOL    HW231011   0.158   6.967   1.071
10038SOL     OW31012   6.171   0.233   1.301
10038SOL    HW131013   6.145   0.327   1.321
10038SOL    HW231014   6.136   0.173   1.372
10039SOL     OW31015   4.217   1.073   3.024
10039SOL    HW131016   4.201   1.145   2.957
10039SOL    HW231017   4.139   1.011   3.027
10040SOL     OW31018   0.872   2.002   0.403
10040SOL    HW131019   0.828   1.949   0.331
10040SOL    HW231020   0.822   2.088   0.417
10041SOL     OW31021   1.174   6.350   0.193
10041SOL    HW131022   1.179   6.439   0.240
10041SOL    HW231023   1.150   6.365   0.097
10042SOL     OW31024   6.551   1.944   3.527
10042SOL    HW131025   6.539   1.846   3.544
10042SOL    HW231026   6.464   1.984   3.497
10043SOL     OW31027   2.150   2.514   5.746
10043SOL    HW131028   2.113   2.581   5.682
10043SOL    HW231029   2.250   2.517   5.744
10044SOL     OW31030   4.340   0.967   0.033
10044SOL    HW131031   4.391   1.039   7.009
10044SOL    HW231032   4.246   0.996   0.048
10045SOL     OW31033   2.459   0.342   1.184
10045SOL    HW131034   2.481   0.391   1.100
10045SOL    HW231035   2.543   0.316   1.231
10046SOL     OW31036   0.561   5.665   6.927
10046SOL    HW131037   0.615   5.613   6.861
10046SOL    HW231038   0.558   5.761   6.900
10047SOL     OW31039   1.574   3.772   0.845
10047SOL    HW131040   1.563   3.778   0.945
10047SOL    HW231041   1.575   3.864   0.806
10048SOL     OW31042   5.712   3.533   1.351
10048SOL    HW131043   5.666   3.450   1.319
10048SOL    HW231044   5.691   3.549   1.447
10049SOL     OW31045   6.694   1.784   4.724
10049SOL    HW131046   6.676   1.769   4.627
10049SOL    HW231047   6.645   1.865   4.755
10050SOL     OW31048   6.908   2.585   6.056
10050SOL    HW131049   6.887   2.650   6.129
10050SOL    HW231050   6.992   2.535   6.080
10051SOL     OW31051   1.891   0.345   3.135
10051SOL    HW131052   1.972   0.396   3.163
10051SOL    HW231053   1.831   0.331   3.214
10052SOL     OW31054   1.183   0.236   3.979
10052SOL    HW131055   1.108   0.282   4.027
10052SOL    HW231056   1.153   0.213   3.886
10053SOL     OW31057   5.906   5.710   2.703
10053SOL    HW131058   5.964   5.766   2.645
10053SOL    HW231059   5.826   5.679   2.652
10054SOL     OW31060   5.366   4.103   3.504
10054SOL    HW131061   5.303   4.120   3.580
10054SOL    HW231062   5.339   4.158   3.425
10055SOL     OW31063   1.619   1.803   6.938
10055SOL    HW131064   1.588   1.715   6.902
10055SOL    HW231065   1.713   1.795   6.970
10056SOL     OW31066   5.155   2.484   4.433
10056SOL    HW131067   5.115   2.538   4.358
10056SOL    HW231068   5.091   2.413   4.460
10057SOL     OW31069   5.796   4.135   4.845
10057SOL    HW131070   5.701   4.166   4.855
10057SOL    HW231071   5.845   4.198   4.785
10058SOL     OW31072   6.098   3.951   3.796
10058SOL    HW131073   6.059   4.042   3.780
10058SOL    HW231074   6.186   3.944   3.749
10059SOL     OW31075   5.034   5.872   5.694
10059SOL    HW131076   5.046   5.957   5.746
10059SOL    HW231077   5.117   5.855   5.640
10060SOL     OW31078   2.952   1.862   2.015
10060SOL    HW131079   3.003   1.778   1.999
10060SOL    HW231080   2.897   1.853   2.097
10061SOL     OW31081   4.018   6.746   3.282
10061SOL    HW131082   4.079   6.739   3.360
10061SOL    HW231083   4.054   6.693   3.206
10062SOL     OW31084   6.944   0.080   4.765
10062SOL    HW131085   0.007   0.110   4.803
10062SOL    HW231086   6.898   0.158   4.721
10063SOL     OW31087   3.939   2.190   3.546
10063SOL    HW131088   4.028   2.194   3.591
10063SOL    HW231089   3.868   2.220   3.610
10064SOL     OW31090   2.346   6.397   2.566
10064SOL    HW131091   2.391   6.486   2.569
10064SOL    HW231092   2.252   6.406   2.598
10065SOL     OW31093   6.542   2.077   1.637
10065SOL    HW131094   6.609   2.057   1.566
10065SOL    HW231095   6.571   2.037   1.723
10066SOL     OW31096   6.319   4.322   3.522
10066SOL    HW131097   6.296   4.235   3.565
10066SOL    HW231098   6.410   4.315   3.480
10067SOL     OW31099   5.522   3.273   5.114
10067SOL    HW131100   5.424   3.270   5.134
10067SOL    HW231101   5.540   3.222   5.030
10068SOL     OW31102   2.067   3.537   3.074
10068SOL    HW131103   1.974   3.525   3.041
10068SOL    HW231104   2.093   3.458   3.130
10069SOL     OW31105   2.953   5.226   1.829
10069SOL    HW131106   2.887   5.234   1.754
10069SOL    HW231107   3.017   5.303   1.826
10070SOL     OW31108   5.307   0.118   6.993
10070SOL    HW131109   5.375   0.117   0.043
10070SOL    HW231110   5.327   0.192   6.929
10071SOL     OW31111   5.092   0.822   5.029
10071SOL    HW131112   5.093   0.744   5.092
10071SOL    HW231113   5.093   0.907   5.081
10072SOL     OW31114   5.623   3.208   1.698
10072SOL    HW131115   5.580   3.132   1.649
10072SOL    HW231116   5.616   3.193   1.797
10073SOL     OW31117   5.735   5.830   5.348
10073SOL    HW131118   5.693   5.907   5.300
10073SOL    HW231119   5.827   5.814   5.312
10074SOL     OW31120   1.617   4.387   0.991
10074SOL    HW131121   1.526   4.397   0.951
10074SOL    HW231122   1.636   4.465   1.051
10075SOL     OW31123   0.583   3.253   1.728
10075SOL    HW131124   0.569   3.183   1.658
10075SOL    HW231125   0.540   3.224   1.813
10076SOL     OW31126   6.109   4.750   3.553
10076SOL    HW131127   6.047   4.687   3.599
10076SOL    HW231128   6.120   4.832   3.609
10077SOL     OW31129   4.171   3.607   6.798
10077SOL    HW131130   4.259   3.605   6.846
10077SOL    HW231131   4.182   3.657   6.712
10078SOL     OW31132   5.967   5.920   3.880
10078SOL    HW131133   5.984   5.910   3.782
10078SOL    HW231134   6.029   5.988   3.917
10079SOL     OW31135   5.693   5.212   2.965
10079SOL    HW131136   5.729   5.306   2.964
10079SOL    HW231137   5.718   5.168   3.051
10080SOL     OW31138   5.089   2.758   5.177
10080SOL    HW131139   5.029   2.816   5.121
10080SOL    HW231140   5.058   2.664   5.173
10081SOL     OW31141   1.132   4.876   0.850
10081SOL    HW131142   1.188   4.839   0.924
10081SOL    HW231143   1.193   4.913   0.779
10082SOL     OW31144   0.319   4.222   1.544
10082SOL    HW131145   0.364   4.302   1.505
10082SOL    HW231146   0.220   4.235   1.543
10083SOL     OW31147   3.131   6.137   2.529
10083SOL    HW131148   3.105   6.048   2.491
10083SOL    HW231149   3.214   6.127   2.583
10084SOL     OW31150   1.795   2.708   4.771
10084SOL    HW131151   1.769   2.623   4.818
10084SOL    HW231152   1.876   2.747   4.815
10085SOL     OW31153   3.726   6.783   1.754
10085SOL    HW131154   3.665   6.862   1.747
10085SOL    HW231155   3.821   6.813   1.738
10086SOL     OW31156   2.421   0.854   3.174
10086SOL    HW131157   2.502   0.799   3.192
10086SOL    HW231158   2.412   0.924   3.244
10087SOL     OW31159   1.785   5.623   6.286
10087SOL    HW131160   1.881   5.627   6.313
10087SOL    HW231161   1.730   5.596   6.365
10088SOL     OW31162   5.873   1.692   0.833
10088SOL    HW131163   5.801   1.663   0.770
10088SOL    HW231164   5.873   1.632   0.913
10089SOL     OW31165   3.399   6.591   2.704
10089SOL    HW131166   3.313   6.539   2.705
10089SOL    HW231167   3.378   6.688   2.713
10090SOL     OW31168   3.172   5.948   2.247
10090SOL    HW131169   3.192   5.850   2.241
10090SOL    HW231170   3.084   5.961   2.293
10091SOL     OW31171   5.310   6.070   2.976
10091SOL    HW131172   5.230   6.124   3.000
10091SOL    HW231173   5.393   6.114   3.011
10092SOL     OW31174   6.961   1.478   2.522
10092SOL    HW131175   6.894   1.449   2.590
10092SOL    HW231176   0.019   1.420   2.528
10093SOL     OW31177   4.683   4.007   6.234
10093SOL    HW131178   4.728   4.093   6.210
10093SOL    HW231179   4.667   4.004   6.333
10094SOL     OW31180   3.774   2.545   0.336
10094SOL    HW131181   3.739   2.452   0.332
10094SOL    HW231182   3.703   2.606   0.370
10095SOL     OW31183   4.448   2.622   5.268
10095SOL    HW131184   4.360   2.615   5.221
10095SOL    HW231185   4.444   2.695   5.336
10096SOL     OW31186   6.884   5.382   1.645
10096SOL    HW131187   6.849   5.289   1.652
10096SOL    HW231188   6.821   5.445   1.689
10097SOL     OW31189   1.317   1.266   1.494
10097SOL    HW131190   1.307   1.322   1.412
10097SOL    HW231191   1.401   1.292   1.542
10098SOL     OW31192   4.140   5.111   0.348
10098SOL    HW131193   4.107   5.023   0.313
10098SOL    HW231194   4.209   5.147   0.285
10099SOL     OW31195   6.683   6.213   3.504
10099SOL    HW131196   6.745   6.247   3.433
10099SOL    HW231197   6.728   6.220   3.594
10100SOL     OW31198   5.311   5.688   4.158
10100SOL    HW131199   5.258   5.645   4.230
10100SOL    HW231200   5.402   5.646   4.152
10101SOL     OW31201   0.114   2.146   6.552
10101SOL    HW131202   0.107   2.049   6.530
10101SOL    HW231203   0.205   2.166   6.589
10102SOL     OW31204   0.600   5.011   2.910
10102SOL    HW131205   0.674   5.013   2.978
10102SOL    HW231206   0.512   4.999   2.956
10103SOL     OW31207   0.117   0.151   0.083
10103SOL    HW131208   0.208   0.135   0.043
10103SOL    HW231209   0.049   0.154   0.009
10104SOL     OW31210   2.516   1.405   4.435
10104SOL    HW131211   2.515   1.495   4.479
10104SOL    HW231212   2.423   1.375   4.418
10105SOL     OW31213   3.339   1.492   3.901
10105SOL    HW131214   3.332   1.565   3.833
10105SOL    HW231215   3.371   1.531   3.988
10106SOL     OW31216   6.431   3.725   0.990
10106SOL    HW131217   6.412   3.655   1.058
10106SOL    HW231218   6.412   3.815   1.030
10107SOL     OW31219   5.248   5.466   5.910
10107SOL    HW131220   5.246   5.487   5.813
10107SOL    HW231221   5.337   5.494   5.948
10108SOL     OW31222   3.152   1.787   4.904
10108SOL    HW131223   3.062   1.770   4.943
10108SOL    HW231224   3.180   1.881   4.924
10109SOL     OW31225   1.039   2.899   0.984
10109SOL    HW131226   1.092   2.931   1.063
10109SOL    HW231227   0.942   2.920   0.998
10110SOL     OW31228   5.893   6.328   1.517
10110SOL    HW131229   5.830   6.399   1.488
10110SOL    HW231230   5.848   6.239   1.512
10111SOL     OW31231   6.508   2.574   1.991
10111SOL    HW131232   6.435   2.636   1.966
10111SOL    HW231233   6.469   2.486   2.019
10112SOL     OW31234   0.140   2.709   3.599
10112SOL    HW131235   0.175   2.647   3.669
10112SOL    HW231236   0.135   2.802   3.637
10113SOL     OW31237   6.952   6.771   6.320
10113SOL    HW131238   6.951   6.679   6.281
10113SOL    HW231239   6.895   6.773   6.402
10114SOL     OW31240   5.955   4.501   1.223
10114SOL    HW131241   5.974   4.597   1.202
10114SOL    HW231242   5.904   4.460   1.147
10115SOL     OW31243   3.493   1.729   6.258
10115SOL    HW131244   3.462   1.821   6.234
10115SOL    HW231245   3.450   1.701   6.344
10116SOL     OW31246   1.013   6.722   6.669
10116SOL    HW131247   1.081   6.673   6.613
10116SOL    HW231248   0.921   6.691   6.644
10117SOL     OW31249   0.548   4.186   1.182
10117SOL    HW131250   0.624   4.203   1.244
10117SOL    HW231251   0.508   4.273   1.153
10118SOL     OW31252   4.065   5.236   3.824
10118SOL    HW131253   4.098   5.290   3.747
10118SOL    HW231254   3.979   5.193   3.800
10119SOL     OW31255   5.602   5.939   6.592
10119SOL    HW131256   5.604   5.853   6.643
10119SOL    HW231257   5.696   5.968   6.573
10120SOL     OW31258   2.578   2.491   2.964
10120SOL    HW131259   2.557   2.521   3.057
10120SOL    HW231260   2.649   2.421   2.967
10121SOL     OW31261   6.718   5.895   1.214
10121SOL    HW131262   6.682   5.988   1.216
10121SOL    HW231263   6.684   5.847   1.133
10122SOL     OW31264   1.875   6.906   3.300
10122SOL    HW131265   1.925   6.923   3.385
10122SOL    HW231266   1.847   6.811   3.295
10123SOL     OW31267   6.258   6.691   6.621
10123SOL    HW131268   6.159   6.700   6.606
10123SOL    HW231269   6.274   6.670   6.718
10124SOL     OW31270   0.613   4.993   3.328
10124SOL    HW131271   0.518   4.961   3.323
10124SOL    HW231272   0.666   4.930   3.385
10125SOL     OW31273   1.747   2.411   4.361
10125SOL    HW131274   1.830   2.463   4.378
10125SOL    HW231275   1.770   2.316   4.342
10126SOL     OW31276   6.810   6.023   4.516
10126SOL    HW131277   6.747   5.964   4.567
10126SOL    HW231278   6.830   5.982   4.427
10127SOL     OW31279   2.518   0.870   4.594
10127SOL    HW131280   2.610   0.870   4.633
10127SOL    HW231281   2.508   0.947   4.531
10128SOL     OW31282   2.772   0.920   0.653
10128SOL    HW131283   2.818   0.831   0.646
10128SOL    HW231284   2.831   0.984   0.701
10129SOL     OW31285   6.790   1.571   5.800
10129SOL    HW131286   6.830   1.660   5.776
10129SOL    HW231287   6.861   1.511   5.836
10130SOL     OW31288   1.410   2.861   3.156
10130SOL    HW131289   1.326   2.824   3.196
10130SOL    HW231290   1.490   2.819   3.200
10131SOL     OW31291   2.549   1.083   4.933
10131SOL    HW131292   2.505   1.002   4.893
10131SOL    HW231293   2.635   1.056   4.975
10132SOL     OW31294   5.993   0.455   2.024
10132SOL    HW131295   6.003   0.554   2.011
10132SOL    HW231296   6.066   0.422   2.083
10133SOL     OW31297   4.577   5.506   1.390
10133SOL    HW131298   4.503   5.559   1.350
10133SOL    HW231299   4.578   5.520   1.489
10134SOL     OW31300   6.529   1.156   2.647
10134SOL    HW131301   6.467   1.096   2.596
10134SOL    HW231302   6.614   1.167   2.596
10135SOL     OW31303   6.757   6.675   3.064
10135SOL    HW131304   6.680   6.622   3.028
10135SOL    HW231305   6.731   6.716   3.152
10136SOL     OW31306   4.947   0.742   2.988
10136SOL    HW131307   4.868   0.797   3.016
10136SOL    HW231308   4.986   0.779   2.904
10137SOL     OW31309   6.130   6.036   2.779
10137SOL    HW131310   6.148   6.124   2.734
10137SOL    HW231311   6.128   5.963   2.711
10138SOL     OW31312   0.129   2.045   2.545
10138SOL    HW131313   0.076   2.121   2.509
10138SOL    HW231314   0.080   2.004   2.622
10139SOL     OW31315   4.142   3.068   0.972
10139SOL    HW131316   4.208   3.098   0.903
10139SOL    HW231317   4.190   3.028   1.049
10140SOL     OW31318   5.883   6.386   3.905
10140SOL    HW131319   5.933   6.434   3.833
10140SOL    HW231320   5.870   6.447   3.983
10141SOL     OW31321   0.956   2.058   4.476
10141SOL    HW131322   0.884   2.047   4.408
10141SOL    HW231323   0.932   2.132   4.539
10142SOL     OW31324   4.596   6.536   1.666
10142SOL    HW131325   4.598   6.487   1.753
10142SOL    HW231326   4.550   6.479   1.597
10143SOL     OW31327   0.067   3.409   0.240
10143SOL    HW131328   7.017   3.370   0.296
10143SOL    HW231329   0.081   3.351   0.159
10144SOL     OW31330   4.974   0.494   2.585
10144SOL    HW131331   4.891   0.547   2.607
10144SOL    HW231332   5.036   0.496   2.663
10145SOL     OW31333   6.377   0.237   5.238
10145SOL    HW131334   6.424   0.321   5.265
10145SOL    HW231335   6.352   0.185   5.319
10146SOL     OW31336   1.520   1.472   5.389
10146SOL    HW131337   1.479   1.434   5.472
10146SOL    HW231338   1.452   1.469   5.315
10147SOL     OW31339   3.433   4.604   0.416
10147SOL    HW131340   3.398   4.696   0.436
10147SOL    HW231341   3.526   4.611   0.382
10148SOL     OW31342   0.113   5.573   6.722
10148SOL    HW131343   0.155   5.633   6.790
10148SOL    HW231344   0.053   5.507   6.767
10149SOL     OW31345   3.245   2.951   4.083
10149SOL    HW131346   3.184   3.025   4.053
10149SOL    HW231347   3.193   2.887   4.140
10150SOL     OW31348   6.159   4.391   7.007
10150SOL    HW131349   6.204   4.443   0.056
10150SOL    HW231350   6.211   4.399   6.922
10151SOL     OW31351   0.342   0.587   0.405
10151SOL    HW131352   0.347   0.608   0.307
10151SOL    HW231353   0.431   0.607   0.448
10152SOL     OW31354   3.694   6.296   4.056
10152SOL    HW131355   3.679   6.367   3.988
10152SOL    HW231356   3.606   6.253   4.079
10153SOL     OW31357   4.729   4.283   1.249
10153SOL    HW131358   4.707   4.362   1.192
10153SOL    HW231359   4.795   4.225   1.201
10154SOL     OW31360   5.056   4.935   6.171
10154SOL    HW131361   5.156   4.930   6.169
10154SOL    HW231362   5.018   4.845   6.151
10155SOL     OW31363   4.815   2.442   4.768
10155SOL    HW131364   4.806   2.348   4.801
10155SOL    HW231365   4.896   2.483   4.810
10156SOL     OW31366   3.382   1.832   6.543
10156SOL    HW131367   3.442   1.900   6.502
10156SOL    HW231368   3.393   1.833   6.643
10157SOL     OW31369   6.844   5.812   2.241
10157SOL    HW131370   6.935   5.776   2.220
10157SOL    HW231371   6.797   5.749   2.303
10158SOL     OW31372   6.884   5.091   6.254
10158SOL    HW131373   6.865   5.034   6.334
10158SOL    HW231374   6.971   5.065   6.214
10159SOL     OW31375   4.088   3.080   1.694
10159SOL    HW131376   4.162   3.124   1.746
10159SOL    HW231377   4.003   3.130   1.708
10160SOL     OW31378   0.088   4.289   2.394
10160SOL    HW131379   0.065   4.303   2.298
10160SOL    HW231380   0.150   4.211   2.403
10161SOL     OW31381   6.263   2.553   0.410
10161SOL    HW131382   6.197   2.497   0.462
10161SOL    HW231383   6.306   2.497   0.340
10162SOL     OW31384   1.934   2.348   2.003
10162SOL    HW131385   1.939   2.428   2.063
10162SOL    HW231386   1.977   2.369   1.915
10163SOL     OW31387   3.700   5.332   4.882
10163SOL    HW131388   3.660   5.423   4.899
10163SOL    HW231389   3.704   5.316   4.783
10164SOL     OW31390   0.556   1.075   3.827
10164SOL    HW131391   0.618   1.140   3.784
10164SOL    HW231392   0.548   0.994   3.770
10165SOL     OW31393   2.075   3.214   3.675
10165SOL    HW131394   1.996   3.255   3.631
10165SOL    HW231395   2.148   3.199   3.608
10166SOL     OW31396   2.929   6.224   3.141
10166SOL    HW131397   2.954   6.149   3.080
10166SOL    HW231398   2.870   6.189   3.214
10167SOL     OW31399   4.013   1.689   6.959
10167SOL    HW131400   4.095   1.667   6.906
10167SOL    HW231401   3.980   1.606   7.005
10168SOL     OW31402   0.588   0.938   6.832
10168SOL    HW131403   0.578   0.935   6.931
10168SOL    HW231404   0.630   0.852   6.801
10169SOL     OW31405   4.657   5.115   3.020
10169SOL    HW131406   4.600   5.034   3.034
10169SOL    HW231407   4.603   5.186   2.974
10170SOL     OW31408   4.618   6.625   6.943
10170SOL    HW131409   4.554   6.632   7.020
10170SOL    HW231410   4.679   6.704   6.943
10171SOL     OW31411   1.309   4.124   2.966
10171SOL    HW131412   1.230   4.163   3.014
10171SOL    HW231413   1.391   4.176   2.991
10172SOL     OW31414   0.897   1.000   3.404
10172SOL    HW131415   0.827   1.067   3.426
10172SOL    HW231416   0.900   0.987   3.305
10173SOL     OW31417   4.358   2.410   4.682
10173SOL    HW131418   4.267   2.401   4.721
10173SOL    HW231419   4.358   2.377   4.587
10174SOL     OW31420   4.723   5.149   1.166
10174SOL    HW131421   4.631   5.130   1.202
10174SOL    HW231422   4.731   5.109   1.075
10175SOL     OW31423   6.391   6.707   4.003
10175SOL    HW131424   6.418   6.801   3.983
10175SOL    HW231425   6.472   6.651   4.019
10176SOL     OW31426   6.936   1.292   5.253
10176SOL    HW131427   6.903   1.319   5.344
10176SOL    HW231428   6.913   1.197   5.236
10177SOL     OW31429   3.144   0.860   4.664
10177SOL    HW131430   3.075   0.834   4.596
10177SOL    HW231431   3.228   0.887   4.616
10178SOL     OW31432   6.238   1.636   2.260
10178SOL    HW131433   6.179   1.635   2.180
10178SOL    HW231434   6.181   1.637   2.343
10179SOL     OW31435   6.976   6.143   0.981
10179SOL    HW131436   6.887   6.154   0.938
10179SOL    HW231437   6.971   6.169   1.077
10180SOL     OW31438   1.627   0.246   6.113
10180SOL    HW131439   1.625   0.247   6.213
10180SOL    HW231440   1.692   0.177   6.082
10181SOL     OW31441   0.357   4.153   1.925
10181SOL    HW131442   0.444   4.152   1.875
10181SOL    HW231443   0.305   4.235   1.900
10182SOL     OW31444   3.008   6.621   6.403
10182SOL    HW131445   2.965   6.533   6.381
10182SOL    HW231446   3.033   6.622   6.500
10183SOL     OW31447   3.902   5.931   5.968
10183SOL    HW131448   3.903   5.948   6.067
10183SOL    HW231449   3.828   5.868   5.946
10184SOL     OW31450   4.615   2.568   3.776
10184SOL    HW131451   4.691   2.505   3.793
10184SOL    HW231452   4.651   2.656   3.744
10185SOL     OW31453   3.129   4.691   1.776
10185SOL    HW131454   3.079   4.615   1.818
10185SOL    HW231455   3.101   4.777   1.818
10186SOL     OW31456   3.633   2.763   1.824
10186SOL    HW131457   3.626   2.668   1.793
10186SOL    HW231458   3.730   2.786   1.838
10187SOL     OW31459   1.174   3.495   5.532
10187SOL    HW131460   1.101   3.461   5.472
10187SOL    HW231461   1.248   3.429   5.535
10188SOL     OW31462   2.453   0.065   6.684
10188SOL    HW131463   2.548   0.082   6.656
10188SOL    HW231464   2.437   0.106   6.773
10189SOL     OW31465   1.985   1.584   5.426
10189SOL    HW131466   2.066   1.573   5.483
10189SOL    HW231467   1.988   1.519   5.351
10190SOL     OW31468   2.934   4.034   1.033
10190SOL    HW131469   2.918   4.062   0.938
10190SOL    HW231470   3.032   4.036   1.052
10191SOL     OW31471   6.173   0.636   0.229
10191SOL    HW131472   6.088   0.601   0.270
10191SOL    HW231473   6.154   0.723   0.184
10192SOL     OW31474   2.679   0.551   4.349
10192SOL    HW131475   2.674   0.620   4.277
10192SOL    HW231476   2.589   0.508   4.361
10193SOL     OW31477   3.915   3.487   3.528
10193SOL    HW131478   3.873   3.521   3.612
10193SOL    HW231479   3.999   3.437   3.552
10194SOL     OW31480   3.117   5.589   3.077
10194SOL    HW131481   3.018   5.585   3.094
10194SOL    HW231482   3.166   5.565   3.161
10195SOL     OW31483   5.268   0.252   2.373
10195SOL    HW131484   5.268   0.175   2.310
10195SOL    HW231485   5.317   0.227   2.457
10196SOL     OW31486   4.787   5.003   4.084
10196SOL    HW131487   4.823   5.078   4.028
10196SOL    HW231488   4.700   4.973   4.048
10197SOL     OW31489   5.533   1.547   2.843
10197SOL    HW131490   5.621   1.522   2.803
10197SOL    HW231491   5.460   1.498   2.795
10198SOL     OW31492   3.918   1.136   1.845
10198SOL    HW131493   3.832   1.128   1.895
10198SOL    HW231494   3.921   1.224   1.797
10199SOL     OW31495   1.278   1.753   0.067
10199SOL    HW131496   1.365   1.731   0.112
10199SOL    HW231497   1.289   1.742   6.991
10200SOL     OW31498   5.234   0.201   3.628
10200SOL    HW131499   5.185   0.142   3.564
10200SOL    HW231500   5.207   0.180   3.722
10201SOL     OW31501   0.938   5.334   3.529
10201SOL    HW131502   1.016   5.307   3.585
10201SOL    HW231503   0.935   5.433   3.522
10202SOL     OW31504   1.386   2.399   3.368
10202SOL    HW131505   1.375   2.330   3.440
10202SOL    HW231506   1.383   2.491   3.409
10203SOL     OW31507   6.095   2.443   1.285
10203SOL    HW131508   6.138   2.532   1.276
10203SOL    HW231509   6.002   2.454   1.321
10204SOL     OW31510   1.692   6.053   4.437
10204SOL    HW131511   1.656   5.965   4.468
10204SOL    HW231512   1.720   6.046   4.341
10205SOL     OW31513   3.687   6.550   0.644
10205SOL    HW131514   3.675   6.489   0.722
10205SOL    HW231515   3.752   6.510   0.580
10206SOL     OW31516   5.883   6.119   6.889
10206SOL    HW131517   5.849   6.046   6.830
10206SOL    HW231518   5.869   6.094   6.985
10207SOL     OW31519   3.424   1.392   2.283
10207SOL    HW131520   3.379   1.453   2.218
10207SOL    HW231521   3.457   1.310   2.235
10208SOL     OW31522   0.293   2.484   6.454
10208SOL    HW131523   0.338   2.470   6.542
10208SOL    HW231524   0.333   2.562   6.407
10209SOL     OW31525   3.619   6.189   6.879
10209SOL    HW131526   3.665   6.101   6.870
10209SOL    HW231527   3.534   6.177   6.930
10210SOL     OW31528   4.694   6.602   6.655
10210SOL    HW131529   4.595   6.586   6.654
10210SOL    HW231530   4.722   6.636   6.745
10211SOL     OW31531   3.889   5.025   5.032
10211SOL    HW131532   3.906   5.030   5.130
10211SOL    HW231533   3.810   5.080   5.008
10212SOL     OW31534   6.391   6.146   5.795
10212SOL    HW131535   6.318   6.138   5.863
10212SOL    HW231536   6.479   6.154   5.842
10213SOL     OW31537   3.856   0.011   4.676
10213SOL    HW131538   3.858   0.072   4.755
10213SOL    HW231539   3.935   0.029   4.617
10214SOL     OW31540   6.794   0.863   0.605
10214SOL    HW131541   6.782   0.786   0.543
10214SOL    HW231542   6.883   0.856   0.650
10215SOL     OW31543   4.922   2.590   0.380
10215SOL    HW131544   4.947   2.518   0.316
10215SOL    HW231545   4.945   2.562   0.473
10216SOL     OW31546   5.425   0.557   2.679
10216SOL    HW131547   5.433   0.609   2.764
10216SOL    HW231548   5.386   0.615   2.607
10217SOL     OW31549   3.050   1.772   6.297
10217SOL    HW131550   2.953   1.748   6.310
10217SOL    HW231551   3.105   1.724   6.365
10218SOL     OW31552   3.762   0.781   6.411
10218SOL    HW131553   3.700   0.702   6.412
10218SOL    HW231554   3.765   0.822   6.502
10219SOL     OW31555   0.370   5.092   0.869
10219SOL    HW131556   0.426   5.061   0.946
10219SOL    HW231557   0.314   5.170   0.898
10220SOL     OW31558   4.104   2.781   6.237
10220SOL    HW131559   4.032   2.729   6.190
10220SOL    HW231560   4.177   2.718   6.264
10221SOL     OW31561   2.344   0.086   4.651
10221SOL    HW131562   2.361   0.179   4.618
10221SOL    HW231563   2.255   0.055   4.618
10222SOL     OW31564   2.523   4.960   5.317
10222SOL    HW131565   2.557   4.869   5.290
10222SOL    HW231566   2.428   4.952   5.346
10223SOL     OW31567   2.205   5.467   6.197
10223SOL    HW131568   2.155   5.382   6.213
10223SOL    HW231569   2.187   5.531   6.272
10224SOL     OW31570   3.911   5.992   5.399
10224SOL    HW131571   3.895   5.985   5.498
10224SOL    HW231572   3.865   5.917   5.352
10225SOL     OW31573   5.345   0.177   4.907
10225SOL    HW131574   5.374   0.154   4.814
10225SOL    HW231575   5.426   0.189   4.965
10226SOL     OW31576   6.579   2.416   6.643
10226SOL    HW131577   6.665   2.467   6.640
10226SOL    HW231578   6.595   2.327   6.685
10227SOL     OW31579   4.508   4.529   5.359
10227SOL    HW131580   4.469   4.492   5.444
10227SOL    HW231581   4.607   4.538   5.369
10228SOL     OW31582   1.106   2.583   1.453
10228SOL    HW131583   1.063   2.667   1.421
10228SOL    HW231584   1.175   2.605   1.523
10229SOL     OW31585   3.005   0.640   1.791
10229SOL    HW131586   2.989   0.732   1.824
10229SOL    HW231587   2.924   0.606   1.744
10230SOL     OW31588   5.116   0.204   3.163
10230SOL    HW131589   5.208   0.190   3.127
10230SOL    HW231590   5.117   0.279   3.229
10231SOL     OW31591   5.237   6.707   4.702
10231SOL    HW131592   5.153   6.755   4.677
10231SOL    HW231593   5.234   6.684   4.800
10232SOL     OW31594   4.190   2.306   2.898
10232SOL    HW131595   4.195   2.296   2.998
10232SOL    HW231596   4.249   2.381   2.869
10233SOL     OW31597   4.909   6.088   5.462
10233SOL    HW131598   4.932   5.993   5.438
10233SOL    HW231599   4.847   6.126   5.394
10234SOL     OW31600   4.178   4.167   0.907
10234SOL    HW131601   4.269   4.195   0.936
10234SOL    HW231602   4.154   4.215   0.822
10235SOL     OW31603   4.857   0.270   6.830
10235SOL    HW131604   4.944   0.222   6.840
10235SOL    HW231605   4.849   0.341   6.899
10236SOL     OW31606   1.388   4.674   1.279
10236SOL    HW131607   1.341   4.621   1.350
10236SOL    HW231608   1.415   4.762   1.317
10237SOL     OW31609   5.859   2.437   2.886
10237SOL    HW131610   5.836   2.350   2.842
10237SOL    HW231611   5.779   2.470   2.936
10238SOL     OW31612   5.354   4.995   6.341
10238SOL    HW131613   5.363   5.003   6.242
10238SOL    HW231614   5.280   5.054   6.373
10239SOL     OW31615   5.261   3.850   4.077
10239SOL    HW131616   5.278   3.912   4.001
10239SOL    HW231617   5.245   3.758   4.042
10240SOL     OW31618   4.811   3.880   2.687
10240SOL    HW131619   4.803   3.899   2.784
10240SOL    HW231620   4.789   3.963   2.635
10241SOL     OW31621   1.415   2.573   2.093
10241SOL    HW131622   1.436   2.495   2.034
10241SOL    HW231623   1.484   2.580   2.165
10242SOL     OW31624   0.960   5.420   6.743
10242SOL    HW131625   0.982   5.323   6.753
10242SOL    HW231626   0.865   5.436   6.768
10243SOL     OW31627   0.340   5.505   3.783
10243SOL    HW131628   0.254   5.540   3.747
10243SOL    HW231629   0.383   5.445   3.715
10244SOL     OW31630   2.949   6.113   0.127
10244SOL    HW131631   3.010   6.129   0.049
10244SOL    HW231632   2.978   6.170   0.204
10245SOL     OW31633   3.604   3.420   1.298
10245SOL    HW131634   3.620   3.512   1.260
10245SOL    HW231635   3.680   3.395   1.357
10246SOL     OW31636   3.385   4.136   4.650
10246SOL    HW131637   3.443   4.068   4.694
10246SOL    HW231638   3.352   4.201   4.718
10247SOL     OW31639   1.077   5.275   6.408
10247SOL    HW131640   1.002   5.338   6.392
10247SOL    HW231641   1.131   5.265   6.324
10248SOL     OW31642   6.060   0.227   3.820
10248SOL    HW131643   6.065   0.159   3.893
10248SOL    HW231644   6.046   0.318   3.858
10249SOL     OW31645   4.569   0.956   5.891
10249SOL    HW131646   4.488   1.003   5.855
10249SOL    HW231647   4.649   0.983   5.839
10250SOL     OW31648   4.326   5.781   0.462
10250SOL    HW131649   4.372   5.869   0.466
10250SOL    HW231650   4.354   5.725   0.540
10251SOL     OW31651   3.812   4.297   1.250
10251SOL    HW131652   3.826   4.212   1.301
10251SOL    HW231653   3.888   4.309   1.185
10252SOL     OW31654   6.969   4.508   0.689
10252SOL    HW131655   6.895   4.530   0.626
10252SOL    HW231656   6.935   4.448   0.762
10253SOL     OW31657   5.164   4.051   6.918
10253SOL    HW131658   5.139   4.010   6.830
10253SOL    HW231659   5.264   4.054   6.926
10254SOL     OW31660   3.155   2.568   5.591
10254SOL    HW131661   3.070   2.586   5.541
10254SOL    HW231662   3.232   2.565   5.527
10255SOL     OW31663   2.981   5.037   4.014
10255SOL    HW131664   2.981   4.981   4.097
10255SOL    HW231665   3.075   5.061   3.990
10256SOL     OW31666   5.181   5.729   0.279
10256SOL    HW131667   5.189   5.806   0.342
10256SOL    HW231668   5.110   5.666   0.313
10257SOL     OW31669   1.679   4.142   4.997
10257SOL    HW131670   1.683   4.077   5.072
10257SOL    HW231671   1.770   4.181   4.981
10258SOL     OW31672   4.652   1.137   2.492
10258SOL    HW131673   4.696   1.127   2.403
10258SOL    HW231674   4.553   1.138   2.481
10259SOL     OW31675   6.028   3.589   4.158
10259SOL    HW131676   5.971   3.642   4.220
10259SOL    HW231677   6.110   3.558   4.207
10260SOL     OW31678   6.761   5.773   2.923
10260SOL    HW131679   6.700   5.734   2.854
10260SOL    HW231680   6.726   5.752   3.014
10261SOL     OW31681   2.395   6.992   1.942
10261SOL    HW131682   2.460   6.946   1.882
10261SOL    HW231683   2.445   0.035   1.999
10262SOL     OW31684   6.766   6.561   3.677
10262SOL    HW131685   6.838   6.629   3.664
10262SOL    HW231686   6.806   6.470   3.683
10263SOL     OW31687   6.714   3.434   5.253
10263SOL    HW131688   6.647   3.366   5.225
10263SOL    HW231689   6.700   3.518   5.201
10264SOL     OW31690   0.605   0.599   0.549
10264SOL    HW131691   0.703   0.589   0.537
10264SOL    HW231692   0.584   0.692   0.580
10265SOL     OW31693   5.379   2.576   4.275
10265SOL    HW131694   5.454   2.580   4.209
10265SOL    HW231695   5.301   2.529   4.234
10266SOL     OW31696   3.186   3.551   6.955
10266SOL    HW131697   3.219   3.641   6.926
10266SOL    HW231698   3.086   3.548   6.948
10267SOL     OW31699   0.064   0.572   6.345
10267SOL    HW131700   0.088   0.664   6.314
10267SOL    HW231701   0.131   0.506   6.310
10268SOL     OW31702   0.147   4.438   0.422
10268SOL    HW131703   0.138   4.466   0.518
10268SOL    HW231704   0.063   4.458   0.373
10269SOL     OW31705   4.625   1.492   5.839
10269SOL    HW131706   4.654   1.406   5.882
10269SOL    HW231707   4.640   1.567   5.903
10270SOL     OW31708   3.741   6.316   2.790
10270SOL    HW131709   3.715   6.410   2.814
10270SOL    HW231710   3.745   6.260   2.873
10271SOL     OW31711   1.624   4.626   1.143
10271SOL    HW131712   1.680   4.616   1.225
10271SOL    HW231713   1.527   4.627   1.168
10272SOL     OW31714   2.152   3.272   4.099
10272SOL    HW131715   2.063   3.253   4.058
10272SOL    HW231716   2.181   3.365   4.075
10273SOL     OW31717   4.501   6.874   4.072
10273SOL    HW131718   4.542   6.817   4.143
10273SOL    HW231719   4.440   6.819   4.015
10274SOL     OW31720   1.849   4.359   6.675
10274SOL    HW131721   1.866   4.411   6.758
10274SOL    HW231722   1.922   4.293   6.661
10275SOL     OW31723   0.665   6.138   1.946
10275SOL    HW131724   0.609   6.186   2.014
10275SOL    HW231725   0.636   6.164   1.854
10276SOL     OW31726   1.683   7.014   0.186
10276SOL    HW131727   1.762   0.052   0.183
10276SOL    HW231728   1.691   6.954   0.266
10277SOL     OW31729   6.361   5.648   1.831
10277SOL    HW131730   6.392   5.668   1.738
10277SOL    HW231731   6.364   5.550   1.848
10278SOL     OW31732   6.706   1.044   5.189
10278SOL    HW131733   6.691   1.112   5.117
10278SOL    HW231734   6.633   1.051   5.257
10279SOL     OW31735   3.939   6.253   3.873
10279SOL    HW131736   3.952   6.161   3.838
10279SOL    HW231737   3.862   6.254   3.938
10280SOL     OW31738   2.764   2.542   0.069
10280SOL    HW131739   2.804   2.564   0.158
10280SOL    HW231740   2.731   2.448   0.069
10281SOL     OW31741   4.308   0.838   4.619
10281SOL    HW131742   4.308   0.862   4.716
10281SOL    HW231743   4.340   0.744   4.607
10282SOL     OW31744   1.885   2.930   4.412
10282SOL    HW131745   1.853   2.984   4.334
10282SOL    HW231746   1.860   2.976   4.497
10283SOL     OW31747   1.681   5.260   6.506
10283SOL    HW131748   1.606   5.196   6.522
10283SOL    HW231749   1.645   5.345   6.466
10284SOL     OW31750   5.252   3.240   0.236
10284SOL    HW131751   5.155   3.216   0.238
10284SOL    HW231752   5.285   3.239   0.142
10285SOL     OW31753   4.832   1.653   0.832
10285SOL    HW131754   4.800   1.587   0.900
10285SOL    HW231755   4.932   1.649   0.828
10286SOL     OW31756   3.707   0.199   4.181
10286SOL    HW131757   3.713   0.285   4.132
10286SOL    HW231758   3.619   0.194   4.230
10287SOL     OW31759   2.187   3.851   2.818
10287SOL    HW131760   2.221   3.890   2.733
10287SOL    HW231761   2.215   3.755   2.825
10288SOL     OW31762   4.466   6.428   4.393
10288SOL    HW131763   4.558   6.467   4.384
10288SOL    HW231764   4.450   6.363   4.319
10289SOL     OW31765   2.644   1.548   2.053
10289SOL    HW131766   2.572   1.616   2.038
10289SOL    HW231767   2.726   1.574   2.001
10290SOL     OW31768   3.051   3.108   3.690
10290SOL    HW131769   3.146   3.139   3.691
10290SOL    HW231770   3.019   3.102   3.595
10291SOL     OW31771   4.025   6.793   3.969
10291SOL    HW131772   3.956   6.770   4.038
10291SOL    HW231773   4.116   6.773   4.004
10292SOL     OW31774   6.548   3.126   4.464
10292SOL    HW131775   6.465   3.080   4.431
10292SOL    HW231776   6.603   3.155   4.385
10293SOL     OW31777   1.468   4.528   3.168
10293SOL    HW131778   1.396   4.542   3.099
10293SOL    HW231779   1.553   4.571   3.136
10294SOL     OW31780   5.827   0.819   2.957
10294SOL    HW131781   5.819   0.726   2.991
10294SOL    HW231782   5.840   0.818   2.858
10295SOL     OW31783   1.664   3.874   3.375
10295SOL    HW131784   1.670   3.778   3.347
10295SOL    HW231785   1.591   3.919   3.324
10296SOL     OW31786   6.325   3.670   1.524
10296SOL    HW131787   6.366   3.761   1.522
10296SOL    HW231788   6.257   3.664   1.451
10297SOL     OW31789   3.443   4.766   5.505
10297SOL    HW131790   3.542   4.770   5.490
10297SOL    HW231791   3.410   4.855   5.538
10298SOL     OW31792   5.940   3.379   2.921
10298SOL    HW131793   5.983   3.386   2.831
10298SOL    HW231794   5.973   3.452   2.980
10299SOL     OW31795   4.072   5.170   2.305
10299SOL    HW131796   4.053   5.074   2.326
10299SOL    HW231797   3.986   5.216   2.283
10300SOL     OW31798   0.205   6.075   2.470
10300SOL    HW131799   0.246   6.049   2.383
10300SOL    HW231800   0.247   6.022   2.544
10301SOL     OW31801   4.413   0.510   1.663
10301SOL    HW131802   4.343   0.497   1.592
10301SOL    HW231803   4.368   0.536   1.749
10302SOL     OW31804   0.551   3.957   3.336
10302SOL    HW131805   0.516   3.923   3.423
10302SOL    HW231806   0.636   3.910   3.313
10303SOL     OW31807   4.845   3.504   1.432
10303SOL    HW131808   4.904   3.582   1.411
10303SOL    HW231809   4.889   3.419   1.403
10304SOL     OW31810   5.735   5.950   4.192
10304SOL    HW131811   5.817   6.006   4.190
10304SOL    HW231812   5.715   5.915   4.100
10305SOL     OW31813   2.276   5.235   1.270
10305SOL    HW131814   2.345   5.306   1.278
10305SOL    HW231815   2.242   5.211   1.361
10306SOL     OW31816   4.666   3.716   0.314
10306SOL    HW131817   4.600   3.746   0.382
10306SOL    HW231818   4.633   3.739   0.223
10307SOL     OW31819   3.024   2.339   5.688
10307SOL    HW131820   3.088   2.404   5.647
10307SOL    HW231821   3.074   2.277   5.749
10308SOL     OW31822   2.759   5.205   4.049
10308SOL    HW131823   2.834   5.142   4.028
10308SOL    HW231824   2.672   5.161   4.027
10309SOL     OW31825   0.056   6.268   3.562
10309SOL    HW131826   0.015   6.251   3.472
10309SOL    HW231827   0.143   6.316   3.549
10310SOL     OW31828   3.627   4.124   4.220
10310SOL    HW131829   3.607   4.082   4.131
10310SOL    HW231830   3.717   4.094   4.252
10311SOL     OW31831   1.157   0.054   0.814
10311SOL    HW131832   1.154   0.069   0.716
10311SOL    HW231833   1.082   7.018   0.841
10312SOL     OW31834   2.594   4.642   0.454
10312SOL    HW131835   2.642   4.677   0.534
10312SOL    HW231836   2.604   4.542   0.450
10313SOL     OW31837   6.584   5.804   3.916
10313SOL    HW131838   6.546   5.718   3.951
10313SOL    HW231839   6.517   5.877   3.931
10314SOL     OW31840   6.824   5.284   5.116
10314SOL    HW131841   6.837   5.199   5.065
10314SOL    HW231842   6.910   5.334   5.121
10315SOL     OW31843   4.161   6.302   5.580
10315SOL    HW131844   4.092   6.234   5.606
10315SOL    HW231845   4.223   6.317   5.657
10316SOL     OW31846   7.017   2.802   3.972
10316SOL    HW131847   6.997   2.714   3.929
10316SOL    HW231848   6.982   2.876   3.915
10317SOL     OW31849   6.154   4.305   6.114
10317SOL    HW131850   6.199   4.216   6.123
10317SOL    HW231851   6.177   4.362   6.193
10318SOL     OW31852   4.731   5.018   2.736
10318SOL    HW131853   4.710   4.922   2.720
10318SOL    HW231854   4.775   5.028   2.825
10319SOL     OW31855   4.834   6.726   3.805
10319SOL    HW131856   4.841   6.813   3.853
10319SOL    HW231857   4.807   6.742   3.710
10320SOL     OW31858   3.352   6.422   1.641
10320SOL    HW131859   3.252   6.430   1.647
10320SOL    HW231860   3.392   6.446   1.729
10321SOL     OW31861   4.457   6.196   4.937
10321SOL    HW131862   4.547   6.199   4.981
10321SOL    HW231863   4.438   6.103   4.906
10322SOL     OW31864   6.929   1.375   6.454
10322SOL    HW131865   6.941   1.280   6.424
10322SOL    HW231866   6.885   1.427   6.381
10323SOL     OW31867   0.282   2.181   5.099
10323SOL    HW131868   0.292   2.280   5.111
10323SOL    HW231869   0.329   2.134   5.174
10324SOL     OW31870   3.192   3.629   4.648
10324SOL    HW131871   3.273   3.634   4.589
10324SOL    HW231872   3.214   3.667   4.738
10325SOL     OW31873   0.796   2.906   3.851
10325SOL    HW131874   0.698   2.921   3.861
10325SOL    HW231875   0.815   2.864   3.762
10326SOL     OW31876   6.197   1.425   1.207
10326SOL    HW131877   6.146   1.339   1.212
10326SOL    HW231878   6.152   1.495   1.262
10327SOL     OW31879   5.771   1.939   3.696
10327SOL    HW131880   5.686   1.990   3.710
10327SOL    HW231881   5.849   2.000   3.709
10328SOL     OW31882   6.733   3.704   2.002
10328SOL    HW131883   6.741   3.662   1.912
10328SOL    HW231884   6.825   3.722   2.038
10329SOL     OW31885   2.738   5.479   2.942
10329SOL    HW131886   2.788   5.566   2.945
10329SOL    HW231887   2.794   5.407   2.982
10330SOL     OW31888   3.501   3.265   1.088
10330SOL    HW131889   3.460   3.198   1.148
10330SOL    HW231890   3.549   3.334   1.142
10331SOL     OW31891   5.464   1.903   4.923
10331SOL    HW131892   5.391   1.844   4.960
10331SOL    HW231893   5.466   1.894   4.823
10332SOL     OW31894   1.539   2.626   6.737
10332SOL    HW131895   1.522   2.541   6.787
10332SOL    HW231896   1.485   2.627   6.653
10333SOL     OW31897   0.420   4.630   5.556
10333SOL    HW131898   0.334   4.585   5.536
10333SOL    HW231899   0.403   4.714   5.608
10334SOL     OW31900   1.119   4.831   5.622
10334SOL    HW131901   1.130   4.901   5.692
10334SOL    HW231902   1.163   4.862   5.537
10335SOL     OW31903   2.950   5.006   2.539
10335SOL    HW131904   2.906   4.917   2.547
10335SOL    HW231905   2.885   5.078   2.563
10336SOL     OW31906   4.060   7.003   3.185
10336SOL    HW131907   4.013   0.052   3.234
10336SOL    HW231908   4.042   6.915   3.230
10337SOL     OW31909   1.687   3.807   6.227
10337SOL    HW131910   1.679   3.838   6.133
10337SOL    HW231911   1.712   3.885   6.285
10338SOL     OW31912   2.211   4.132   2.955
10338SOL    HW131913   2.230   4.047   2.906
10338SOL    HW231914   2.132   4.177   2.914
10339SOL     OW31915   3.439   6.037   6.625
10339SOL    HW131916   3.508   6.071   6.561
10339SOL    HW231917   3.371   6.108   6.642
10340SOL     OW31918   1.944   6.145   1.155
10340SOL    HW131919   2.023   6.097   1.193
10340SOL    HW231920   1.974   6.209   1.084
10341SOL     OW31921   6.784   3.245   1.681
10341SOL    HW131922   6.759   3.304   1.604
10341SOL    HW231923   6.731   3.160   1.677
10342SOL     OW31924   3.322   5.199   3.798
10342SOL    HW131925   3.347   5.226   3.891
10342SOL    HW231926   3.404   5.187   3.743
10343SOL     OW31927   2.552   2.185   4.663
10343SOL    HW131928   2.461   2.152   4.637
10343SOL    HW231929   2.559   2.283   4.645
10344SOL     OW31930   5.126   3.848   1.308
10344SOL    HW131931   5.105   3.825   1.213
10344SOL    HW231932   5.045   3.885   1.352
10345SOL     OW31933   3.180   1.666   6.552
10345SOL    HW131934   3.259   1.725   6.536
10345SOL    HW231935   3.143   1.683   6.643
10346SOL     OW31936   6.344   5.912   0.384
10346SOL    HW131937   6.397   5.831   0.359
10346SOL    HW231938   6.246   5.893   0.371
10347SOL     OW31939   3.909   6.882   2.388
10347SOL    HW131940   3.839   6.890   2.458
10347SOL    HW231941   3.984   6.945   2.408
10348SOL     OW31942   0.266   3.864   4.857
10348SOL    HW131943   0.293   3.786   4.913
10348SOL    HW231944   0.233   3.831   4.768
10349SOL     OW31945   5.682   2.157   0.383
10349SOL    HW131946   5.748   2.082   0.381
10349SOL    HW231947   5.660   2.186   0.290
10350SOL     OW31948   2.021   5.225   4.433
10350SOL    HW131949   2.079   5.295   4.390
10350SOL    HW231950   1.926   5.239   4.404
10351SOL     OW31951   3.828   5.691   4.831
10351SOL    HW131952   3.837   5.748   4.912
10351SOL    HW231953   3.913   5.641   4.815
10352SOL     OW31954   0.406   1.253   1.807
10352SOL    HW131955   0.327   1.215   1.856
10352SOL    HW231956   0.475   1.283   1.873
10353SOL     OW31957   5.701   2.929   3.355
10353SOL    HW131958   5.715   2.874   3.273
10353SOL    HW231959   5.606   2.920   3.385
10354SOL     OW31960   6.732   2.805   1.977
10354SOL    HW131961   6.821   2.847   1.996
10354SOL    HW231962   6.736   2.707   1.997
10355SOL     OW31963   6.414   2.226   0.595
10355SOL    HW131964   6.362   2.309   0.575
10355SOL    HW231965   6.434   2.178   0.510
10356SOL     OW31966   6.071   2.466   6.591
10356SOL    HW131967   6.094   2.381   6.639
10356SOL    HW231968   5.973   2.484   6.601
10357SOL     OW31969   0.243   6.770   6.473
10357SOL    HW131970   0.201   6.742   6.559
10357SOL    HW231971   0.256   6.870   6.474
10358SOL     OW31972   0.709   3.456   4.145
10358SOL    HW131973   0.806   3.452   4.171
10358SOL    HW231974   0.701   3.464   4.046
10359SOL     OW31975   1.143   2.567   2.183
10359SOL    HW131976   1.176   2.586   2.275
10359SOL    HW231977   1.215   2.588   2.117
10360SOL     OW31978   5.845   4.741   0.665
10360SOL    HW131979   5.876   4.836   0.657
10360SOL    HW231980   5.924   4.680   0.665
10361SOL     OW31981   5.546   2.053   3.326
10361SOL    HW131982   5.531   2.074   3.422
10361SOL    HW231983   5.570   1.957   3.316
10362SOL     OW31984   0.264   6.837   2.315
10362SOL    HW131985   0.187   6.798   2.265
10362SOL    HW231986   0.320   6.891   2.252
10363SOL     OW31987   5.785   4.824   6.353
10363SOL    HW131988   5.807   4.736   6.311
10363SOL    HW231989   5.846   4.839   6.431
10364SOL     OW31990   5.972   5.596   0.977
10364SOL    HW131991   5.901   5.583   1.046
10364SOL    HW231992   6.001   5.692   0.976
10365SOL     OW31993   6.139   5.919   6.783
10365SOL    HW131994   6.044   5.889   6.775
10365SOL    HW231995   6.142   6.018   6.798
10366SOL     OW31996   2.921   0.015   3.458
10366SOL    HW131997   2.919   6.986   3.373
10366SOL    HW231998   3.016   0.023   3.490
10367SOL     OW31999   4.634   5.968   2.353
10367SOL    HW132000   4.571   6.014   2.416
10367SOL    HW232001   4.586   5.894   2.306
10368SOL     OW32002   1.437   5.477   1.646
10368SOL    HW132003   1.423   5.385   1.683
10368SOL    HW232004   1.394   5.484   1.556
10369SOL     OW32005   2.479   0.789   5.291
10369SOL    HW132006   2.429   0.776   5.376
10369SOL    HW232007   2.507   0.885   5.283
10370SOL     OW32008   1.972   2.105   6.571
10370SOL    HW132009   1.901   2.175   6.566
10370SOL    HW232010   1.968   2.060   6.661
10371SOL     OW32011   3.850   5.586   3.304
10371SOL    HW132012   3.902   5.503   3.327
10371SOL    HW232013   3.887   5.663   3.355
10372SOL     OW32014   0.919   6.233   1.767
10372SOL    HW132015   0.846   6.216   1.834
10372SOL    HW232016   0.929   6.152   1.709
10373SOL     OW32017   6.661   0.284   5.904
10373SOL    HW132018   6.654   0.382   5.887
10373SOL    HW232019   6.570   0.243   5.905
10374SOL     OW32020   2.382   4.887   2.217
10374SOL    HW132021   2.407   4.831   2.138
10374SOL    HW232022   2.352   4.977   2.186
10375SOL     OW32023   2.591   5.709   6.812
10375SOL    HW132024   2.685   5.707   6.845
10375SOL    HW232025   2.558   5.616   6.797
10376SOL     OW32026   1.647   4.485   4.047
10376SOL    HW132027   1.646   4.400   4.099
10376SOL    HW232028   1.738   4.501   4.009
10377SOL     OW32029   3.031   0.779   3.974
10377SOL    HW132030   3.011   0.837   3.896
10377SOL    HW232031   3.070   0.834   4.048
10378SOL     OW32032   0.326   6.752   5.334
10378SOL    HW132033   0.379   6.762   5.249
10378SOL    HW232034   0.386   6.768   5.412
10379SOL     OW32035   1.141   5.276   3.221
10379SOL    HW132036   1.180   5.331   3.295
10379SOL    HW232037   1.066   5.221   3.257
10380SOL     OW32038   2.967   1.458   4.133
10380SOL    HW132039   2.884   1.421   4.176
10380SOL    HW232040   3.005   1.389   4.071
10381SOL     OW32041   2.559   0.221   3.338
10381SOL    HW132042   2.554   0.121   3.339
10381SOL    HW232043   2.655   0.250   3.342
10382SOL     OW32044   3.965   5.709   2.503
10382SOL    HW132045   3.956   5.760   2.418
10382SOL    HW232046   3.993   5.770   2.576
10383SOL     OW32047   0.405   6.810   0.036
10383SOL    HW132048   0.360   6.742   7.002
10383SOL    HW232049   0.498   6.826   0.003
10384SOL     OW32050   4.747   5.457   1.759
10384SOL    HW132051   4.796   5.389   1.705
10384SOL    HW232052   4.767   5.445   1.856
10385SOL     OW32053   4.263   4.247   6.473
10385SOL    HW132054   4.260   4.345   6.451
10385SOL    HW232055   4.193   4.226   6.541
10386SOL     OW32056   0.328   0.247   2.156
10386SOL    HW132057   0.271   0.323   2.122
10386SOL    HW232058   0.399   0.227   2.088
10387SOL     OW32059   5.679   1.539   1.868
10387SOL    HW132060   5.765   1.540   1.816
10387SOL    HW232061   5.698   1.522   1.964
10388SOL     OW32062   1.284   0.087   4.203
10388SOL    HW132063   1.258   0.135   4.120
10388SOL    HW232064   1.263   7.014   4.194
10389SOL     OW32065   0.547   3.604   0.783
10389SOL    HW132066   0.473   3.549   0.742
10389SOL    HW232067   0.512   3.694   0.808
10390SOL     OW32068   2.273   2.200   2.202
10390SOL    HW132069   2.369   2.188   2.177
10390SOL    HW232070   2.217   2.130   2.157
10391SOL     OW32071   6.492   6.933   2.930
10391SOL    HW132072   6.402   6.952   2.969
10391SOL    HW232073   6.481   6.901   2.836
10392SOL     OW32074   6.383   3.628   3.692
10392SOL    HW132075   6.405   3.575   3.775
10392SOL    HW232076   6.468   3.661   3.650
10393SOL     OW32077   1.414   2.396   1.864
10393SOL    HW132078   1.457   2.464   1.806
10393SOL    HW232079   1.314   2.406   1.859
10394SOL     OW32080   2.692   6.046   3.672
10394SOL    HW132081   2.669   5.983   3.746
10394SOL    HW232082   2.713   5.994   3.589
10395SOL     OW32083   0.490   1.333   1.560
10395SOL    HW132084   0.502   1.433   1.556
10395SOL    HW232085   0.466   1.306   1.653
10396SOL     OW32086   3.489   2.104   5.108
10396SOL    HW132087   3.391   2.108   5.130
10396SOL    HW232088   3.532   2.191   5.131
10397SOL     OW32089   5.315   1.661   4.080
10397SOL    HW132090   5.249   1.616   4.140
10397SOL    HW232091   5.387   1.597   4.055
10398SOL     OW32092   4.793   2.897   2.582
10398SOL    HW132093   4.694   2.885   2.592
10398SOL    HW232094   4.819   2.874   2.488
10399SOL     OW32095   0.801   3.752   2.154
10399SOL    HW132096   0.769   3.751   2.249
10399SOL    HW232097   0.734   3.707   2.096
10400SOL     OW32098   2.046   6.482   0.335
10400SOL    HW132099   2.019   6.576   0.318
10400SOL    HW232100   2.044   6.430   0.249
10401SOL     OW32101   6.536   1.124   5.383
10401SOL    HW132102   6.545   1.181   5.464
10401SOL    HW232103   6.490   1.038   5.408
10402SOL     OW32104   6.721   4.770   5.411
10402SOL    HW132105   6.745   4.677   5.382
10402SOL    HW232106   6.750   4.836   5.341
10403SOL     OW32107   3.430   0.357   1.311
10403SOL    HW132108   3.495   0.304   1.366
10403SOL    HW232109   3.337   0.324   1.329
10404SOL     OW32110   0.396   5.846   5.838
10404SOL    HW132111   0.340   5.866   5.757
10404SOL    HW232112   0.417   5.748   5.839
10405SOL     OW32113   0.554   1.202   7.013
10405SOL    HW132114   0.480   1.161   6.959
10405SOL    HW232115   0.525   1.212   0.084
10406SOL     OW32116   1.571   5.399   0.954
10406SOL    HW132117   1.559   5.336   1.030
10406SOL    HW232118   1.653   5.374   0.902
10407SOL     OW32119   2.363   5.970   0.203
10407SOL    HW132120   2.300   5.899   0.235
10407SOL    HW232121   2.355   5.979   0.104
10408SOL     OW32122   4.554   0.467   0.037
10408SOL    HW132123   4.475   0.524   0.060
10408SOL    HW232124   4.588   0.423   0.120
10409SOL     OW32125   6.448   4.253   0.316
10409SOL    HW132126   6.407   4.317   0.382
10409SOL    HW232127   6.378   4.188   0.286
10410SOL     OW32128   4.192   6.921   0.854
10410SOL    HW132129   4.215   6.905   0.758
10410SOL    HW232130   4.276   6.939   0.906
10411SOL     OW32131   1.537   5.346   4.099
10411SOL    HW132132   1.499   5.345   4.191
10411SOL    HW232133   1.510   5.430   4.052
10412SOL     OW32134   5.169   0.291   1.437
10412SOL    HW132135   5.077   0.270   1.406
10412SOL    HW232136   5.177   0.269   1.534
10413SOL     OW32137   5.759   3.455   2.006
10413SOL    HW132138   5.700   3.411   1.938
10413SOL    HW232139   5.843   3.402   2.015
10414SOL     OW32140   5.703   3.389   4.127
10414SOL    HW132141   5.748   3.381   4.038
10414SOL    HW232142   5.627   3.325   4.132
10415SOL     OW32143   0.903   0.659   6.946
10415SOL    HW132144   0.811   0.658   6.908
10415SOL    HW232145   0.899   0.690   0.018
10416SOL     OW32146   5.368   3.211   3.573
10416SOL    HW132147   5.364   3.129   3.631
10416SOL    HW232148   5.425   3.193   3.493
10417SOL     OW32149   1.614   3.999   2.521
10417SOL    HW132150   1.671   4.072   2.559
10417SOL    HW232151   1.561   3.957   2.594
10418SOL     OW32152   1.756   5.828   6.106
10418SOL    HW132153   1.781   5.809   6.011
10418SOL    HW232154   1.731   5.742   6.152
10419SOL     OW32155   1.653   0.693   6.494
10419SOL    HW132156   1.673   0.622   6.561
10419SOL    HW232157   1.631   0.778   6.541
10420SOL     OW32158   0.508   2.506   2.350
10420SOL    HW132159   0.562   2.430   2.315
10420SOL    HW232160   0.490   2.493   2.447
10421SOL     OW32161   0.748   1.880   2.989
10421SOL    HW132162   0.703   1.956   2.941
10421SOL    HW232163   0.683   1.838   3.053
10422SOL     OW32164   5.217   2.299   0.213
10422SOL    HW132165   5.294   2.242   0.185
10422SOL    HW232166   5.251   2.390   0.239
10423SOL     OW32167   4.576   5.666   3.223
10423SOL    HW132168   4.485   5.688   3.188
10423SOL    HW232169   4.646   5.698   3.159
10424SOL     OW32170   4.271   1.548   6.474
10424SOL    HW132171   4.321   1.486   6.413
10424SOL    HW232172   4.189   1.503   6.507
10425SOL     OW32173   1.704   6.659   2.176
10425SOL    HW132174   1.699   6.746   2.126
10425SOL    HW232175   1.770   6.599   2.133
10426SOL     OW32176   6.701   4.209   6.422
10426SOL    HW132177   6.744   4.122   6.401
10426SOL    HW232178   6.627   4.227   6.356
10427SOL     OW32179   5.324   0.893   1.669
10427SOL    HW132180   5.283   0.964   1.612
10427SOL    HW232181   5.321   0.806   1.621
10428SOL     OW32182   4.524   1.883   3.356
10428SOL    HW132183   4.450   1.928   3.407
10428SOL    HW232184   4.486   1.843   3.272
10429SOL     OW32185   5.175   5.436   2.677
10429SOL    HW132186   5.132   5.395   2.757
10429SOL    HW232187   5.274   5.424   2.682
10430SOL     OW32188   4.141   6.446   2.776
10430SOL    HW132189   4.051   6.484   2.794
10430SOL    HW232190   4.163   6.378   2.846
10431SOL     OW32191   2.750   1.504   5.519
10431SOL    HW132192   2.755   1.502   5.419
10431SOL    HW232193   2.818   1.569   5.554
10432SOL     OW32194   4.230   0.284   4.515
10432SOL    HW132195   4.230   0.296   4.415
10432SOL    HW232196   4.137   0.297   4.549
10433SOL     OW32197   2.849   5.949   1.458
10433SOL    HW132198   2.892   5.916   1.374
10433SOL    HW232199   2.885   6.040   1.480
10434SOL     OW32200   3.317   2.187   5.357
10434SOL    HW132201   3.263   2.170   5.440
10434SOL    HW232202   3.271   2.256   5.301
10435SOL     OW32203   5.739   5.029   6.167
10435SOL    HW132204   5.806   5.037   6.093
10435SOL    HW232205   5.723   4.932   6.186
10436SOL     OW32206   0.415   1.181   2.872
10436SOL    HW132207   0.386   1.101   2.925
10436SOL    HW232208   0.337   1.242   2.858
10437SOL     OW32209   0.825   3.563   6.679
10437SOL    HW132210   0.868   3.640   6.631
10437SOL    HW232211   0.840   3.571   6.777
10438SOL     OW32212   3.267   0.044   5.807
10438SOL    HW132213   3.316   6.990   5.846
10438SOL    HW232214   3.200   0.078   5.874
10439SOL     OW32215   3.282   0.418   5.594
10439SOL    HW132216   3.221   0.406   5.672
10439SOL    HW232217   3.285   0.515   5.568
10440SOL     OW32218   0.970   5.759   0.978
10440SOL    HW132219   1.050   5.698   0.974
10440SOL    HW232220   0.893   5.716   0.931
10441SOL     OW32221   4.096   0.244   0.906
10441SOL    HW132222   4.055   0.261   0.816
10441SOL    HW232223   4.043   0.175   0.955
10442SOL     OW32224   4.297   6.098   5.992
10442SOL    HW132225   4.376   6.079   6.051
10442SOL    HW232226   4.250   6.012   5.972
10443SOL     OW32227   6.369   2.725   4.776
10443SOL    HW132228   6.372   2.805   4.836
10443SOL    HW232229   6.453   2.721   4.721
10444SOL     OW32230   4.296   5.131   5.054
10444SOL    HW132231   4.348   5.202   5.102
10444SOL    HW232232   4.203   5.128   5.091
10445SOL     OW32233   6.331   6.295   2.091
10445SOL    HW132234   6.426   6.319   2.111
10445SOL    HW232235   6.311   6.203   2.125
10446SOL     OW32236   1.238   6.403   6.314
10446SOL    HW132237   1.287   6.330   6.268
10446SOL    HW232238   1.239   6.485   6.257
10447SOL     OW32239   5.357   1.997   6.868
10447SOL    HW132240   5.435   1.970   6.812
10447SOL    HW232241   5.278   2.016   6.809
10448SOL     OW32242   3.443   3.504   2.375
10448SOL    HW132243   3.507   3.579   2.393
10448SOL    HW232244   3.372   3.535   2.313
10449SOL     OW32245   1.695   5.191   4.547
10449SOL    HW132246   1.622   5.252   4.579
10449SOL    HW232247   1.716   5.211   4.452
10450SOL     OW32248   0.248   3.518   0.666
10450SOL    HW132249   0.249   3.421   0.689
10450SOL    HW232250   0.204   3.569   0.739
10451SOL     OW32251   2.471   4.362   1.899
10451SOL    HW132252   2.559   4.390   1.861
10451SOL    HW232253   2.475   4.366   1.999
10452SOL     OW32254   2.242   3.170   5.820
10452SOL    HW132255   2.291   3.255   5.798
10452SOL    HW232256   2.144   3.190   5.831
10453SOL     OW32257   5.364   0.783   1.954
10453SOL    HW132258   5.330   0.836   1.877
10453SOL    HW232259   5.458   0.754   1.936
10454SOL     OW32260   4.656   4.727   2.719
10454SOL    HW132261   4.747   4.686   2.719
10454SOL    HW232262   4.588   4.655   2.735
10455SOL     OW32263   1.136   4.891   3.228
10455SOL    HW132264   1.109   4.884   3.324
10455SOL    HW232265   1.235   4.882   3.220
10456SOL     OW32266   4.075   6.624   1.309
10456SOL    HW132267   4.018   6.668   1.240
10456SOL    HW232268   4.024   6.618   1.396
10457SOL     OW32269   3.691   2.883   4.007
10457SOL    HW132270   3.614   2.930   4.051
10457SOL    HW232271   3.747   2.839   4.077
10458SOL     OW32272   6.576   6.015   2.176
10458SOL    HW132273   6.539   5.930   2.138
10458SOL    HW232274   6.671   6.025   2.147
10459SOL     OW32275   7.021   5.018   1.468
10459SOL    HW132276   0.049   5.057   1.545
10459SOL    HW232277   6.923   5.030   1.484
10460SOL     OW32278   1.054   4.099   1.602
10460SOL    HW132279   1.018   4.040   1.530
10460SOL    HW232280   0.981   4.121   1.666
10461SOL     OW32281   3.465   0.253   6.768
10461SOL    HW132282   3.555   0.293   6.788
10461SOL    HW232283   3.427   0.296   6.686
10462SOL     OW32284   5.437   6.518   1.215
10462SOL    HW132285   5.433   6.494   1.118
10462SOL    HW232286   5.344   6.521   1.252
10463SOL     OW32287   3.822   3.181   0.502
10463SOL    HW132288   3.796   3.145   0.412
10463SOL    HW232289   3.916   3.217   0.498
10464SOL     OW32290   5.662   6.478   2.345
10464SOL    HW132291   5.593   6.452   2.413
10464SOL    HW232292   5.643   6.570   2.312
10465SOL     OW32293   0.394   4.999   4.802
10465SOL    HW132294   0.418   4.948   4.719
10465SOL    HW232295   0.370   5.093   4.777
10466SOL     OW32296   4.671   6.210   5.262
10466SOL    HW132297   4.675   6.288   5.198
10466SOL    HW232298   4.627   6.240   5.347
10467SOL     OW32299   3.788   1.135   4.417
10467SOL    HW132300   3.708   1.165   4.469
10467SOL    HW232301   3.867   1.130   4.478
10468SOL     OW32302   2.950   4.858   3.239
10468SOL    HW132303   2.899   4.937   3.273
10468SOL    HW232304   2.993   4.810   3.315
10469SOL     OW32305   1.335   4.834   5.972
10469SOL    HW132306   1.417   4.846   6.028
10469SOL    HW232307   1.286   4.752   6.002
10470SOL     OW32308   2.371   2.179   4.312
10470SOL    HW132309   2.444   2.117   4.342
10470SOL    HW232310   2.327   2.143   4.230
10471SOL     OW32311   4.637   3.849   6.831
10471SOL    HW132312   4.641   3.771   6.894
10471SOL    HW232313   4.674   3.821   6.742
10472SOL     OW32314   3.926   1.213   3.963
10472SOL    HW132315   3.836   1.178   3.938
10472SOL    HW232316   3.918   1.271   4.044
10473SOL     OW32317   5.217   4.992   6.689
10473SOL    HW132318   5.131   5.020   6.646
10473SOL    HW232319   5.199   4.963   6.783
10474SOL     OW32320   4.945   0.889   4.134
10474SOL    HW132321   4.963   0.987   4.120
10474SOL    HW232322   4.912   0.849   4.048
10475SOL     OW32323   3.923   6.520   1.840
10475SOL    HW132324   3.847   6.491   1.782
10475SOL    HW232325   3.988   6.573   1.786
10476SOL     OW32326   0.642   5.064   6.383
10476SOL    HW132327   0.557   5.072   6.434
10476SOL    HW232328   0.692   5.150   6.387
10477SOL     OW32329   4.790   4.424   5.197
10477SOL    HW132330   4.778   4.328   5.220
10477SOL    HW232331   4.785   4.480   5.280
10478SOL     OW32332   0.711   6.606   3.173
10478SOL    HW132333   0.676   6.691   3.133
10478SOL    HW232334   0.811   6.605   3.166
10479SOL     OW32335   0.804   4.297   2.327
10479SOL    HW132336   0.787   4.317   2.231
10479SOL    HW232337   0.901   4.275   2.340
10480SOL     OW32338   4.751   1.296   0.387
10480SOL    HW132339   4.813   1.282   0.310
10480SOL    HW232340   4.800   1.281   0.473
10481SOL     OW32341   2.945   1.878   4.301
10481SOL    HW132342   3.011   1.804   4.316
10481SOL    HW232343   2.944   1.938   4.381
10482SOL     OW32344   0.687   6.508   6.809
10482SOL    HW132345   0.637   6.434   6.764
10482SOL    HW232346   0.763   6.470   6.861
10483SOL     OW32347   0.603   5.851   1.061
10483SOL    HW132348   0.687   5.862   1.115
10483SOL    HW232349   0.622   5.870   0.965
10484SOL     OW32350   6.885   1.515   1.771
10484SOL    HW132351   6.935   1.593   1.734
10484SOL    HW232352   6.949   1.453   1.816
10485SOL     OW32353   3.783   3.990   4.394
10485SOL    HW132354   3.826   3.957   4.478
10485SOL    HW232355   3.841   3.967   4.315
10486SOL     OW32356   6.059   5.360   5.618
10486SOL    HW132357   5.984   5.295   5.603
10486SOL    HW232358   6.137   5.335   5.562
10487SOL     OW32359   5.331   4.013   2.655
10487SOL    HW132360   5.318   4.102   2.612
10487SOL    HW232361   5.247   3.960   2.650
10488SOL     OW32362   0.441   2.426   5.879
10488SOL    HW132363   0.460   2.493   5.807
10488SOL    HW232364   0.475   2.461   5.967
10489SOL     OW32365   5.628   4.785   2.701
10489SOL    HW132366   5.617   4.884   2.707
10489SOL    HW232367   5.699   4.763   2.634
10490SOL     OW32368   5.150   6.458   6.410
10490SOL    HW132369   5.160   6.396   6.488
10490SOL    HW232370   5.218   6.436   6.341
10491SOL     OW32371   2.379   1.826   5.355
10491SOL    HW132372   2.446   1.847   5.426
10491SOL    HW232373   2.419   1.763   5.289
10492SOL     OW32374   3.118   6.333   6.997
10492SOL    HW132375   3.113   6.398   0.049
10492SOL    HW232376   3.028   6.324   6.955
10493SOL     OW32377   3.640   6.072   0.735
10493SOL    HW132378   3.577   6.150   0.732
10493SOL    HW232379   3.618   6.014   0.814
10494SOL     OW32380   0.041   5.294   3.441
10494SOL    HW132381   0.120   5.282   3.382
10494SOL    HW232382   0.069   5.284   3.537
10495SOL     OW32383   6.138   6.201   0.074
10495SOL    HW132384   6.110   6.190   7.003
10495SOL    HW232385   6.238   6.204   0.080
10496SOL     OW32386   1.115   4.018   5.845
10496SOL    HW132387   1.110   4.116   5.823
10496SOL    HW232388   1.162   4.006   5.932
10497SOL     OW32389   4.047   6.234   6.895
10497SOL    HW132390   3.983   6.304   6.866
10497SOL    HW232391   4.017   6.196   6.983
10498SOL     OW32392   3.157   3.898   0.188
10498SOL    HW132393   3.223   3.828   0.217
10498SOL    HW232394   3.206   3.974   0.146
10499SOL     OW32395   4.225   4.766   3.501
10499SOL    HW132396   4.260   4.754   3.594
10499SOL    HW232397   4.283   4.718   3.436
10500SOL     OW32398   1.842   3.497   5.508
10500SOL    HW132399   1.855   3.578   5.450
10500SOL    HW232400   1.928   3.446   5.513
10501SOL     OW32401   3.823   4.850   3.375
10501SOL    HW132402   3.847   4.944   3.352
10501SOL    HW232403   3.838   4.791   3.296
10502SOL     OW32404   3.075   3.764   2.796
10502SOL    HW132405   3.032   3.801   2.879
10502SOL    HW232406   3.072   3.664   2.799
10503SOL     OW32407   6.708   0.728   0.943
10503SOL    HW132408   6.618   0.688   0.931
10503SOL    HW232409   6.767   0.666   0.994
10504SOL     OW32410   1.222   2.518   5.838
10504SOL    HW132411   1.137   2.473   5.811
10504SOL    HW232412   1.212   2.617   5.826
10505SOL     OW32413   5.698   6.542   1.546
10505SOL    HW132414   5.677   6.480   1.470
10505SOL    HW232415   5.655   6.631   1.528
10506SOL     OW32416   1.249   5.252   5.135
10506SOL    HW132417   1.349   5.246   5.141
10506SOL    HW232418   1.211   5.259   5.228
10507SOL     OW32419   1.590   6.340   5.736
10507SOL    HW132420   1.529   6.273   5.778
10507SOL    HW232421   1.575   6.430   5.778
10508SOL     OW32422   1.791   6.385   1.272
10508SOL    HW132423   1.833   6.350   1.188
10508SOL    HW232424   1.858   6.384   1.346
10509SOL     OW32425   4.984   3.234   2.054
10509SOL    HW132426   4.930   3.308   2.014
10509SOL    HW232427   4.945   3.208   2.143
10510SOL     OW32428   5.784   6.158   2.207
10510SOL    HW132429   5.720   6.089   2.240
10510SOL    HW232430   5.850   6.115   2.145
10511SOL     OW32431   4.152   1.893   1.051
10511SOL    HW132432   4.130   1.823   1.119
10511SOL    HW232433   4.248   1.920   1.061
10512SOL     OW32434   4.079   0.648   4.941
10512SOL    HW132435   4.168   0.618   4.908
10512SOL    HW232436   4.044   0.582   5.008
10513SOL     OW32437   3.615   3.555   0.641
10513SOL    HW132438   3.689   3.584   0.703
10513SOL    HW232439   3.534   3.533   0.695
10514SOL     OW32440   1.682   5.254   1.927
10514SOL    HW132441   1.781   5.256   1.941
10514SOL    HW232442   1.657   5.318   1.854
10515SOL     OW32443   1.889   3.783   4.956
10515SOL    HW132444   1.931   3.706   4.907
10515SOL    HW232445   1.904   3.867   4.904
10516SOL     OW32446   5.435   2.221   1.839
10516SOL    HW132447   5.366   2.149   1.836
10516SOL    HW232448   5.498   2.204   1.915
10517SOL     OW32449   0.171   1.979   2.267
10517SOL    HW132450   0.243   1.911   2.268
10517SOL    HW232451   0.148   2.005   2.361
10518SOL     OW32452   0.812   5.739   2.801
10518SOL    HW132453   0.799   5.766   2.896
10518SOL    HW232454   0.867   5.656   2.796
10519SOL     OW32455   1.981   6.766   0.898
10519SOL    HW132456   1.915   6.693   0.877
10519SOL    HW232457   1.987   6.829   0.821
10520SOL     OW32458   3.172   2.988   5.793
10520SOL    HW132459   3.182   3.081   5.831
10520SOL    HW232460   3.126   2.994   5.704
10521SOL     OW32461   6.173   1.883   2.561
10521SOL    HW132462   6.230   1.851   2.486
10521SOL    HW232463   6.077   1.858   2.542
10522SOL     OW32464   5.130   1.605   3.105
10522SOL    HW132465   5.059   1.673   3.123
10522SOL    HW232466   5.186   1.636   3.028
10523SOL     OW32467   0.672   3.822   1.711
10523SOL    HW132468   0.657   3.757   1.786
10523SOL    HW232469   0.666   3.773   1.624
10524SOL     OW32470   6.034   6.705   4.812
10524SOL    HW132471   5.935   6.689   4.816
10524SOL    HW232472   6.051   6.797   4.775
10525SOL     OW32473   4.927   1.775   3.172
10525SOL    HW132474   4.876   1.842   3.117
10525SOL    HW232475   4.870   1.745   3.248
10526SOL     OW32476   1.585   5.776   5.861
10526SOL    HW132477   1.569   5.864   5.815
10526SOL    HW232478   1.684   5.761   5.870
10527SOL     OW32479   0.745   6.374   6.047
10527SOL    HW132480   0.756   6.455   5.990
10527SOL    HW232481   0.708   6.400   6.136
10528SOL     OW32482   2.271   6.460   5.198
10528SOL    HW132483   2.306   6.521   5.127
10528SOL    HW232484   2.346   6.407   5.237
10529SOL     OW32485   6.719   4.945   0.358
10529SOL    HW132486   6.685   5.024   0.408
10529SOL    HW232487   6.671   4.936   0.271
10530SOL     OW32488   5.906   0.560   1.248
10530SOL    HW132489   5.974   0.585   1.179
10530SOL    HW232490   5.837   0.632   1.253
10531SOL     OW32491   3.153   1.391   6.142
10531SOL    HW132492   3.210   1.457   6.093
10531SOL    HW232493   3.061   1.390   6.101
10532SOL     OW32494   4.662   5.425   6.033
10532SOL    HW132495   4.583   5.461   6.083
10532SOL    HW232496   4.670   5.327   6.051
10533SOL     OW32497   4.358   6.567   3.306
10533SOL    HW132498   4.345   6.648   3.364
10533SOL    HW232499   4.346   6.593   3.210
10534SOL     OW32500   0.598   6.361   4.216
10534SOL    HW132501   0.654   6.283   4.189
10534SOL    HW232502   0.657   6.435   4.248
10535SOL     OW32503   4.091   1.348   2.376
10535SOL    HW132504   4.093   1.307   2.284
10535SOL    HW232505   4.000   1.386   2.393
10536SOL     OW32506   5.873   3.979   4.107
10536SOL    HW132507   5.887   4.044   4.032
10536SOL    HW232508   5.795   3.920   4.086
10537SOL     OW32509   2.920   1.319   2.695
10537SOL    HW132510   2.859   1.384   2.651
10537SOL    HW232511   2.920   1.332   2.794
10538SOL     OW32512   6.309   2.744   3.773
10538SOL    HW132513   6.354   2.816   3.720
10538SOL    HW232514   6.211   2.746   3.755
10539SOL     OW32515   6.684   6.913   2.192
10539SOL    HW132516   6.588   6.926   2.217
10539SOL    HW232517   6.719   6.997   2.151
10540SOL     OW32518   1.634   3.006   6.090
10540SOL    HW132519   1.609   3.102   6.096
10540SOL    HW232520   1.636   2.965   6.181
10541SOL     OW32521   3.466   2.110   5.785
10541SOL    HW132522   3.400   2.069   5.721
10541SOL    HW232523   3.487   2.044   5.857
10542SOL     OW32524   3.836   6.660   2.245
10542SOL    HW132525   3.736   6.662   2.235
10542SOL    HW232526   3.868   6.750   2.273
10543SOL     OW32527   1.331   2.621   4.044
10543SOL    HW132528   1.365   2.692   4.107
10543SOL    HW232529   1.231   2.619   4.048
10544SOL     OW32530   3.017   2.172   2.360
10544SOL    HW132531   2.975   2.164   2.269
10544SOL    HW232532   3.001   2.264   2.396
10545SOL     OW32533   1.234   3.227   1.920
10545SOL    HW132534   1.165   3.164   1.957
10545SOL    HW232535   1.237   3.219   1.821
10546SOL     OW32536   1.809   6.892   4.950
10546SOL    HW132537   1.777   6.921   4.859
10546SOL    HW232538   1.894   6.840   4.940
10547SOL     OW32539   3.561   5.537   6.459
10547SOL    HW132540   3.541   5.630   6.488
10547SOL    HW232541   3.498   5.474   6.505
10548SOL     OW32542   1.396   4.894   3.156
10548SOL    HW132543   1.489   4.865   3.179
10548SOL    HW232544   1.368   4.853   3.070
10549SOL     OW32545   6.890   1.282   2.731
10549SOL    HW132546   6.906   1.319   2.822
10549SOL    HW232547   6.858   1.188   2.738
10550SOL     OW32548   6.988   5.244   2.425
10550SOL    HW132549   6.899   5.198   2.432
10550SOL    HW232550   0.036   5.183   2.461
10551SOL     OW32551   4.762   0.317   4.402
10551SOL    HW132552   4.718   0.234   4.368
10551SOL    HW232553   4.720   0.397   4.358
10552SOL     OW32554   2.546   6.927   3.352
10552SOL    HW132555   2.574   6.839   3.314
10552SOL    HW232556   2.581   6.936   3.445
10553SOL     OW32557   5.442   5.784   1.296
10553SOL    HW132558   5.423   5.796   1.199
10553SOL    HW232559   5.373   5.725   1.337
10554SOL     OW32560   6.256   5.827   0.814
10554SOL    HW132561   6.336   5.866   0.768
10554SOL    HW232562   6.282   5.790   0.903
10555SOL     OW32563   3.572   3.182   1.997
10555SOL    HW132564   3.609   3.247   1.932
10555SOL    HW232565   3.507   3.122   1.951
10556SOL     OW32566   2.450   2.418   1.988
10556SOL    HW132567   2.529   2.365   1.958
10556SOL    HW232568   2.411   2.467   1.911
10557SOL     OW32569   0.854   4.278   2.857
10557SOL    HW132570   0.762   4.308   2.881
10557SOL    HW232571   0.862   4.272   2.757
10558SOL     OW32572   4.966   5.003   4.641
10558SOL    HW132573   4.922   4.935   4.700
10558SOL    HW232574   5.046   5.041   4.687
10559SOL     OW32575   3.718   6.193   1.224
10559SOL    HW132576   3.812   6.190   1.189
10559SOL    HW232577   3.719   6.227   1.318
10560SOL     OW32578   5.884   0.280   4.129
10560SOL    HW132579   5.967   0.232   4.104
10560SOL    HW232580   5.906   0.356   4.190
10561SOL     OW32581   1.150   5.682   5.203
10561SOL    HW132582   1.082   5.631   5.149
10561SOL    HW232583   1.119   5.776   5.215
10562SOL     OW32584   3.146   0.863   2.842
10562SOL    HW132585   3.127   0.884   2.938
10562SOL    HW232586   3.100   0.777   2.817
10563SOL     OW32587   1.887   5.525   1.962
10563SOL    HW132588   1.819   5.599   1.970
10563SOL    HW232589   1.932   5.530   1.873
10564SOL     OW32590   5.320   5.099   3.124
10564SOL    HW132591   5.243   5.141   3.173
10564SOL    HW232592   5.404   5.111   3.178
10565SOL     OW32593   0.067   1.431   4.453
10565SOL    HW132594   0.158   1.421   4.411
10565SOL    HW232595   0.006   1.476   4.388
10566SOL     OW32596   3.881   1.735   0.389
10566SOL    HW132597   3.961   1.690   0.348
10566SOL    HW232598   3.798   1.706   0.341
10567SOL     OW32599   2.855   1.778   6.592
10567SOL    HW132600   2.934   1.768   6.652
10567SOL    HW232601   2.845   1.696   6.536
10568SOL     OW32602   6.081   2.032   6.401
10568SOL    HW132603   6.064   2.123   6.365
10568SOL    HW232604   6.165   2.033   6.456
10569SOL     OW32605   4.245   0.537   0.741
10569SOL    HW132606   4.268   0.634   0.746
10569SOL    HW232607   4.151   0.527   0.709
10570SOL     OW32608   1.166   4.319   3.160
10570SOL    HW132609   1.194   4.399   3.107
10570SOL    HW232610   1.232   4.302   3.233
10571SOL     OW32611   0.320   3.788   5.233
10571SOL    HW132612   0.373   3.868   5.260
10571SOL    HW232613   0.358   3.707   5.277
10572SOL     OW32614   0.208   5.065   0.620
10572SOL    HW132615   0.283   5.046   0.556
10572SOL    HW232616   0.246   5.085   0.710
10573SOL     OW32617   6.064   2.738   3.482
10573SOL    HW132618   6.021   2.707   3.398
10573SOL    HW232619   6.087   2.659   3.539
10574SOL     OW32620   5.022   2.474   2.412
10574SOL    HW132621   4.980   2.468   2.502
10574SOL    HW232622   5.114   2.434   2.415
10575SOL     OW32623   5.197   0.471   2.788
10575SOL    HW132624   5.224   0.445   2.881
10575SOL    HW232625   5.278   0.501   2.737
10576SOL     OW32626   1.614   3.146   5.245
10576SOL    HW132627   1.705   3.121   5.213
10576SOL    HW232628   1.621   3.187   5.336
10577SOL     OW32629   4.174   4.022   6.774
10577SOL    HW132630   4.164   3.934   6.728
10577SOL    HW232631   4.134   4.017   6.865
10578SOL     OW32632   1.260   3.712   2.342
10578SOL    HW132633   1.351   3.677   2.318
10578SOL    HW232634   1.268   3.775   2.419
10579SOL     OW32635   0.109   3.232   0.015
10579SOL    HW132636   0.173   3.194   6.972
10579SOL    HW232637   0.026   3.262   6.991
10580SOL     OW32638   5.099   6.996   6.334
10580SOL    HW132639   5.121   6.901   6.357
10580SOL    HW232640   5.064   7.001   6.240
10581SOL     OW32641   4.281   0.896   2.596
10581SOL    HW132642   4.333   0.840   2.662
10581SOL    HW232643   4.188   0.908   2.629
10582SOL     OW32644   6.890   3.374   0.516
10582SOL    HW132645   6.794   3.353   0.531
10582SOL    HW232646   6.945   3.291   0.521
10583SOL     OW32647   4.054   2.073   5.987
10583SOL    HW132648   4.004   2.086   5.902
10583SOL    HW232649   4.142   2.121   5.982
10584SOL     OW32650   6.278   0.359   3.623
10584SOL    HW132651   6.234   0.443   3.655
10584SOL    HW232652   6.213   0.283   3.628
10585SOL     OW32653   1.496   1.103   4.942
10585SOL    HW132654   1.398   1.097   4.958
10585SOL    HW232655   1.513   1.124   4.846
10586SOL     OW32656   4.919   3.551   6.348
10586SOL    HW132657   4.920   3.460   6.390
10586SOL    HW232658   4.930   3.542   6.249
10587SOL     OW32659   2.444   5.302   5.335
10587SOL    HW132660   2.438   5.244   5.416
10587SOL    HW232661   2.406   5.253   5.256
10588SOL     OW32662   0.991   4.138   4.316
10588SOL    HW132663   1.056   4.064   4.335
10588SOL    HW232664   0.939   4.158   4.399
10589SOL     OW32665   5.680   0.302   3.658
10589SOL    HW132666   5.607   0.285   3.591
10589SOL    HW232667   5.697   0.401   3.663
10590SOL     OW32668   0.362   6.473   2.109
10590SOL    HW132669   0.377   6.427   2.197
10590SOL    HW232670   0.419   6.431   2.039
10591SOL     OW32671   6.362   4.562   2.255
10591SOL    HW132672   6.334   4.607   2.340
10591SOL    HW232673   6.293   4.494   2.229
10592SOL     OW32674   6.420   3.610   4.581
10592SOL    HW132675   6.373   3.553   4.647
10592SOL    HW232676   6.415   3.706   4.609
10593SOL     OW32677   3.700   5.833   3.366
10593SOL    HW132678   3.625   5.863   3.307
10593SOL    HW232679   3.693   5.735   3.381
10594SOL     OW32680   3.987   5.996   3.826
10594SOL    HW132681   4.003   5.952   3.738
10594SOL    HW232682   4.005   5.931   3.900
10595SOL     OW32683   5.698   6.045   0.710
10595SOL    HW132684   5.711   5.946   0.719
10595SOL    HW232685   5.761   6.081   0.641
10596SOL     OW32686   5.813   3.744   0.448
10596SOL    HW132687   5.832   3.774   0.354
10596SOL    HW232688   5.716   3.724   0.458
10597SOL     OW32689   1.119   6.444   5.451
10597SOL    HW132690   1.050   6.507   5.417
10597SOL    HW232691   1.198   6.496   5.484
10598SOL     OW32692   3.368   1.946   1.198
10598SOL    HW132693   3.278   1.968   1.235
10598SOL    HW232694   3.434   1.941   1.274
10599SOL     OW32695   0.811   1.835   0.916
10599SOL    HW132696   0.909   1.837   0.938
10599SOL    HW232697   0.771   1.926   0.933
10600SOL     OW32698   4.942   1.593   2.088
10600SOL    HW132699   5.014   1.628   2.028
10600SOL    HW232700   4.923   1.660   2.159
10601SOL     OW32701   2.075   1.780   4.985
10601SOL    HW132702   2.166   1.758   4.950
10601SOL    HW232703   2.082   1.813   5.079
10602SOL     OW32704   0.004   0.133   1.548
10602SOL    HW132705   6.941   0.160   1.507
10602SOL    HW232706   0.079   0.153   1.484
10603SOL     OW32707   5.845   0.835   2.686
10603SOL    HW132708   5.767   0.834   2.623
10603SOL    HW232709   5.906   0.760   2.664
10604SOL     OW32710   5.360   2.340   5.120
10604SOL    HW132711   5.298   2.287   5.178
10604SOL    HW232712   5.313   2.364   5.035
10605SOL     OW32713   4.172   2.147   1.248
10605SOL    HW132714   4.169   2.118   1.344
10605SOL    HW232715   4.152   2.244   1.242
10606SOL     OW32716   5.497   1.394   0.765
10606SOL    HW132717   5.454   1.461   0.825
10606SOL    HW232718   5.550   1.441   0.695
10607SOL     OW32719   2.405   4.875   0.969
10607SOL    HW132720   2.464   4.834   1.038
10607SOL    HW232721   2.373   4.965   1.000
10608SOL     OW32722   5.067   4.424   2.750
10608SOL    HW132723   5.166   4.432   2.766
10608SOL    HW232724   5.046   4.330   2.723
10609SOL     OW32725   5.562   6.630   6.244
10609SOL    HW132726   5.610   6.569   6.307
10609SOL    HW232727   5.621   6.649   6.166
10610SOL     OW32728   0.547   1.824   3.167
10610SOL    HW132729   0.545   1.923   3.180
10610SOL    HW232730   0.490   1.779   3.236
10611SOL     OW32731   4.196   5.363   5.996
10611SOL    HW132732   4.110   5.412   6.016
10611SOL    HW232733   4.212   5.295   6.068
10612SOL     OW32734   5.401   2.526   3.342
10612SOL    HW132735   5.374   2.492   3.252
10612SOL    HW232736   5.407   2.626   3.340
10613SOL     OW32737   5.562   5.025   5.494
10613SOL    HW132738   5.617   4.992   5.418
10613SOL    HW232739   5.609   5.006   5.580
10614SOL     OW32740   4.225   2.330   6.755
10614SOL    HW132741   4.281   2.358   6.676
10614SOL    HW232742   4.180   2.411   6.793
10615SOL     OW32743   3.004   2.085   5.504
10615SOL    HW132744   2.987   2.145   5.426
10615SOL    HW232745   2.936   2.011   5.503
10616SOL     OW32746   1.245   5.445   0.269
10616SOL    HW132747   1.273   5.453   0.173
10616SOL    HW232748   1.146   5.451   0.275
10617SOL     OW32749   2.375   3.431   7.019
10617SOL    HW132750   2.427   3.477   0.067
10617SOL    HW232751   2.307   3.493   6.981
10618SOL     OW32752   0.035   4.940   4.238
10618SOL    HW132753   0.085   5.018   4.274
10618SOL    HW232754   6.971   4.970   4.199
10619SOL     OW32755   1.111   2.439   0.921
10619SOL    HW132756   1.117   2.520   0.863
10619SOL    HW232757   1.202   2.412   0.951
10620SOL     OW32758   3.874   0.959   5.711
10620SOL    HW132759   3.909   0.868   5.735
10620SOL    HW232760   3.774   0.956   5.708
10621SOL     OW32761   0.647   4.988   4.918
10621SOL    HW132762   0.551   5.000   4.892
10621SOL    HW232763   0.687   5.076   4.940
10622SOL     OW32764   3.854   1.987   6.135
10622SOL    HW132765   3.937   2.005   6.084
10622SOL    HW232766   3.806   2.072   6.154
10623SOL     OW32767   5.362   4.574   5.489
10623SOL    HW132768   5.274   4.530   5.473
10623SOL    HW232769   5.427   4.545   5.419
10624SOL     OW32770   0.062   1.474   5.642
10624SOL    HW132771   0.086   1.543   5.709
10624SOL    HW232772   0.145   1.442   5.595
10625SOL     OW32773   5.552   5.718   6.732
10625SOL    HW132774   5.599   5.639   6.695
10625SOL    HW232775   5.460   5.692   6.761
10626SOL     OW32776   5.455   4.095   2.226
10626SOL    HW132777   5.439   4.012   2.279
10626SOL    HW232778   5.551   4.097   2.195
10627SOL     OW32779   5.312   4.871   5.519
10627SOL    HW132780   5.388   4.934   5.504
10627SOL    HW232781   5.336   4.780   5.485
10628SOL     OW32782   2.880   5.743   1.643
10628SOL    HW132783   2.904   5.788   1.729
10628SOL    HW232784   2.868   5.813   1.572
10629SOL     OW32785   4.484   6.053   4.354
10629SOL    HW132786   4.575   6.086   4.377
10629SOL    HW232787   4.427   6.053   4.436
10630SOL     OW32788   3.950   0.652   1.145
10630SOL    HW132789   4.025   0.682   1.204
10630SOL    HW232790   3.862   0.674   1.189
10631SOL     OW32791   4.038   6.675   2.024
10631SOL    HW132792   4.002   6.594   1.976
10631SOL    HW232793   3.984   6.692   2.106
10632SOL     OW32794   5.688   0.360   4.700
10632SOL    HW132795   5.738   0.447   4.703
10632SOL    HW232796   5.739   0.295   4.644
10633SOL     OW32797   2.881   3.268   0.028
10633SOL    HW132798   2.823   3.328   6.996
10633SOL    HW232799   2.972   3.307   0.036
10634SOL     OW32800   0.632   4.036   0.086
10634SOL    HW132801   0.616   4.135   0.085
10634SOL    HW232802   0.665   4.009   0.176
10635SOL     OW32803   3.084   4.154   6.941
10635SOL    HW132804   3.176   4.140   6.979
10635SOL    HW232805   3.037   4.226   6.993
10636SOL     OW32806   6.836   2.816   0.763
10636SOL    HW132807   6.830   2.842   0.859
10636SOL    HW232808   6.743   2.801   0.727
10637SOL     OW32809   1.681   0.565   5.553
10637SOL    HW132810   1.737   0.484   5.566
10637SOL    HW232811   1.735   0.636   5.507
10638SOL     OW32812   5.971   4.999   6.824
10638SOL    HW132813   6.058   5.040   6.852
10638SOL    HW232814   5.904   5.071   6.806
10639SOL     OW32815   6.670   5.616   6.861
10639SOL    HW132816   6.663   5.619   6.961
10639SOL    HW232817   6.581   5.635   6.821
10640SOL     OW32818   3.966   5.692   4.538
10640SOL    HW132819   3.881   5.641   4.522
10640SOL    HW232820   4.023   5.642   4.603
10641SOL     OW32821   0.910   1.583   3.992
10641SOL    HW132822   0.928   1.635   4.076
10641SOL    HW232823   0.989   1.527   3.970
10642SOL     OW32824   0.489   1.976   6.348
10642SOL    HW132825   0.520   2.004   6.438
10642SOL    HW232826   0.451   1.884   6.353
10643SOL     OW32827   3.000   5.214   4.912
10643SOL    HW132828   2.983   5.311   4.895
10643SOL    HW232829   2.928   5.160   4.869
10644SOL     OW32830   1.315   3.283   3.414
10644SOL    HW132831   1.368   3.304   3.496
10644SOL    HW232832   1.321   3.360   3.350
10645SOL     OW32833   1.892   3.419   3.604
10645SOL    HW132834   1.812   3.376   3.561
10645SOL    HW232835   1.936   3.481   3.539
10646SOL     OW32836   5.013   1.529   3.361
10646SOL    HW132837   5.048   1.606   3.416
10646SOL    HW232838   5.069   1.519   3.279
10647SOL     OW32839   4.245   5.403   4.761
10647SOL    HW132840   4.198   5.316   4.746
10647SOL    HW232841   4.303   5.395   4.842
10648SOL     OW32842   4.720   3.390   5.708
10648SOL    HW132843   4.711   3.318   5.776
10648SOL    HW232844   4.738   3.477   5.753
10649SOL     OW32845   5.933   3.267   3.614
10649SOL    HW132846   6.026   3.287   3.646
10649SOL    HW232847   5.932   3.177   3.570
10650SOL     OW32848   0.838   0.299   3.121
10650SOL    HW132849   0.775   0.348   3.060
10650SOL    HW232850   0.928   0.295   3.079
10651SOL     OW32851   2.186   5.928   5.604
10651SOL    HW132852   2.119   5.896   5.537
10651SOL    HW232853   2.227   5.850   5.651
10652SOL     OW32854   3.029   0.704   0.048
10652SOL    HW132855   3.125   0.703   0.077
10652SOL    HW232856   3.007   0.791   0.006
10653SOL     OW32857   5.803   6.245   4.500
10653SOL    HW132858   5.828   6.339   4.524
10653SOL    HW232859   5.880   6.184   4.520
10654SOL     OW32860   6.665   1.525   4.174
10654SOL    HW132861   6.613   1.509   4.258
10654SOL    HW232862   6.733   1.452   4.162
10655SOL     OW32863   6.048   5.462   0.494
10655SOL    HW132864   6.130   5.405   0.492
10655SOL    HW232865   5.990   5.435   0.570
10656SOL     OW32866   6.140   0.673   6.258
10656SOL    HW132867   6.099   0.721   6.180
10656SOL    HW232868   6.182   0.588   6.226
10657SOL     OW32869   4.332   6.574   5.663
10657SOL    HW132870   4.345   6.536   5.571
10657SOL    HW232871   4.369   6.667   5.666
10658SOL     OW32872   1.300   1.201   5.410
10658SOL    HW132873   1.359   1.186   5.331
10658SOL    HW232874   1.206   1.178   5.386
10659SOL     OW32875   0.543   5.545   6.550
10659SOL    HW132876   0.573   5.476   6.484
10659SOL    HW232877   0.597   5.628   6.539
10660SOL     OW32878   6.351   2.580   6.532
10660SOL    HW132879   6.268   2.546   6.576
10660SOL    HW232880   6.429   2.524   6.560
10661SOL     OW32881   3.610   5.635   5.453
10661SOL    HW132882   3.680   5.690   5.408
10661SOL    HW232883   3.519   5.671   5.431
10662SOL     OW32884   3.066   1.861   0.920
10662SOL    HW132885   3.080   1.957   0.893
10662SOL    HW232886   2.998   1.857   0.993
10663SOL     OW32887   6.537   3.072   4.008
10663SOL    HW132888   6.446   3.114   4.006
10663SOL    HW232889   6.552   3.023   3.922
10664SOL     OW32890   1.086   6.250   4.889
10664SOL    HW132891   1.067   6.281   4.982
10664SOL    HW232892   1.173   6.201   4.887
10665SOL     OW32893   3.536   3.256   0.433
10665SOL    HW132894   3.453   3.206   0.454
10665SOL    HW232895   3.615   3.194   0.440
10666SOL     OW32896   4.524   3.435   1.432
10666SOL    HW132897   4.623   3.437   1.425
10666SOL    HW232898   4.491   3.341   1.424
10667SOL     OW32899   5.831   2.542   4.288
10667SOL    HW132900   5.902   2.603   4.253
10667SOL    HW232901   5.746   2.559   4.239
10668SOL     OW32902   3.347   3.601   6.184
10668SOL    HW132903   3.293   3.518   6.174
10668SOL    HW232904   3.378   3.610   6.279
10669SOL     OW32905   6.433   3.210   1.895
10669SOL    HW132906   6.346   3.222   1.847
10669SOL    HW232907   6.467   3.300   1.925
10670SOL     OW32908   4.373   4.616   4.241
10670SOL    HW132909   4.344   4.655   4.328
10670SOL    HW232910   4.315   4.652   4.168
10671SOL     OW32911   1.975   3.171   4.893
10671SOL    HW132912   1.906   3.224   4.842
10671SOL    HW232913   2.048   3.232   4.924
10672SOL     OW32914   6.262   4.710   1.422
10672SOL    HW132915   6.190   4.694   1.490
10672SOL    HW232916   6.222   4.756   1.342
10673SOL     OW32917   3.223   1.439   1.834
10673SOL    HW132918   3.139   1.489   1.810
10673SOL    HW232919   3.281   1.431   1.752
10674SOL     OW32920   3.870   3.241   4.669
10674SOL    HW132921   3.849   3.144   4.684
10674SOL    HW232922   3.952   3.249   4.613
10675SOL     OW32923   3.484   6.402   5.819
10675SOL    HW132924   3.434   6.487   5.805
10675SOL    HW232925   3.582   6.418   5.806
10676SOL     OW32926   1.441   1.527   4.646
10676SOL    HW132927   1.368   1.478   4.694
10676SOL    HW232928   1.530   1.498   4.683
10677SOL     OW32929   0.082   1.612   6.955
10677SOL    HW132930   0.148   1.629   0.005
10677SOL    HW232931   0.119   1.646   6.869
10678SOL     OW32932   3.469   4.918   2.380
10678SOL    HW132933   3.470   4.971   2.465
10678SOL    HW232934   3.376   4.885   2.362
10679SOL     OW32935   5.284   3.920   0.359
10679SOL    HW132936   5.367   3.952   0.313
10679SOL    HW232937   5.216   3.993   0.361
10680SOL     OW32938   4.681   1.214   5.153
10680SOL    HW132939   4.641   1.166   5.074
10680SOL    HW232940   4.638   1.303   5.163
10681SOL     OW32941   2.539   3.461   5.337
10681SOL    HW132942   2.453   3.479   5.290
10681SOL    HW232943   2.533   3.374   5.386
10682SOL     OW32944   4.965   3.492   6.089
10682SOL    HW132945   5.010   3.575   6.055
10682SOL    HW232946   4.955   3.426   6.014
10683SOL     OW32947   1.585   0.742   3.249
10683SOL    HW132948   1.536   0.674   3.196
10683SOL    HW232949   1.682   0.738   3.228
10684SOL     OW32950   4.511   4.135   1.367
10684SOL    HW132951   4.429   4.180   1.330
10684SOL    HW232952   4.592   4.168   1.319
10685SOL     OW32953   0.642   0.312   2.787
10685SOL    HW132954   0.661   0.236   2.850
10685SOL    HW232955   0.709   0.310   2.712
10686SOL     OW32956   3.046   1.030   6.457
10686SOL    HW132957   3.099   1.053   6.376
10686SOL    HW232958   3.043   1.109   6.518
10687SOL     OW32959   0.650   2.660   3.239
10687SOL    HW132960   0.614   2.577   3.196
10687SOL    HW232961   0.626   2.739   3.182
10688SOL     OW32962   5.333   1.053   3.732
10688SOL    HW132963   5.387   0.998   3.669
10688SOL    HW232964   5.383   1.063   3.818
10689SOL     OW32965   1.482   1.449   2.676
10689SOL    HW132966   1.455   1.531   2.627
10689SOL    HW232967   1.418   1.432   2.751
10690SOL     OW32968   0.699   6.660   4.291
10690SOL    HW132969   0.733   6.751   4.314
10690SOL    HW232970   0.608   6.647   4.331
10691SOL     OW32971   3.408   6.653   1.146
10691SOL    HW132972   3.424   6.724   1.077
10691SOL    HW232973   3.481   6.657   1.215
10692SOL     OW32974   2.759   2.299   4.348
10692SOL    HW132975   2.803   2.388   4.359
10692SOL    HW232976   2.722   2.292   4.255
10693SOL     OW32977   1.171   4.214   0.466
10693SOL    HW132978   1.093   4.169   0.422
10693SOL    HW232979   1.212   4.280   0.403
10694SOL     OW32980   5.419   1.506   5.275
10694SOL    HW132981   5.412   1.604   5.258
10694SOL    HW232982   5.342   1.476   5.331
10695SOL     OW32983   4.827   4.802   0.901
10695SOL    HW132984   4.883   4.773   0.823
10695SOL    HW232985   4.736   4.761   0.894
10696SOL     OW32986   6.512   4.383   4.624
10696SOL    HW132987   6.433   4.321   4.617
10696SOL    HW232988   6.584   4.353   4.562
10697SOL     OW32989   2.621   5.003   4.406
10697SOL    HW132990   2.597   5.001   4.309
10697SOL    HW232991   2.717   4.975   4.418
10698SOL     OW32992   3.969   4.479   6.798
10698SOL    HW132993   3.887   4.516   6.841
10698SOL    HW232994   4.045   4.481   6.864
10699SOL     OW32995   3.642   3.724   1.233
10699SOL    HW132996   3.735   3.759   1.243
10699SOL    HW232997   3.594   3.730   1.321
10700SOL     OW32998   4.961   0.473   1.297
10700SOL    HW132999   4.996   0.398   1.240
10700SOL    HW233000   4.990   0.458   1.392
10701SOL     OW33001   3.216   6.054   6.291
10701SOL    HW133002   3.257   5.972   6.331
10701SOL    HW233003   3.149   6.027   6.222
10702SOL     OW33004   5.486   2.793   2.455
10702SOL    HW133005   5.548   2.828   2.384
10702SOL    HW233006   5.494   2.849   2.537
10703SOL     OW33007   0.573   1.621   5.647
10703SOL    HW133008   0.537   1.565   5.573
10703SOL    HW233009   0.498   1.653   5.705
10704SOL     OW33010   5.560   6.939   1.958
10704SOL    HW133011   5.507   6.943   2.043
10704SOL    HW233012   5.600   0.005   1.939
10705SOL     OW33013   4.936   3.184   0.965
10705SOL    HW133014   4.962   3.278   0.986
10705SOL    HW233015   4.960   3.125   1.043
10706SOL     OW33016   3.241   0.948   1.877
10706SOL    HW133017   3.183   0.883   1.926
10706SOL    HW233018   3.246   1.034   1.928
10707SOL     OW33019   4.636   6.794   3.303
10707SOL    HW133020   4.679   6.872   3.257
10707SOL    HW233021   4.553   6.825   3.349
10708SOL     OW33022   4.543   1.190   1.190
10708SOL    HW133023   4.629   1.175   1.240
10708SOL    HW233024   4.481   1.113   1.207
10709SOL     OW33025   5.833   4.685   2.568
10709SOL    HW133026   5.768   4.611   2.588
10709SOL    HW233027   5.922   4.663   2.607
10710SOL     OW33028   4.216   1.712   3.283
10710SOL    HW133029   4.315   1.709   3.272
10710SOL    HW233030   4.175   1.629   3.245
10711SOL     OW33031   2.680   6.438   3.095
10711SOL    HW133032   2.701   6.525   3.141
10711SOL    HW233033   2.763   6.401   3.055
10712SOL     OW33034   5.460   0.900   3.525
10712SOL    HW133035   5.443   0.802   3.519
10712SOL    HW233036   5.499   0.932   3.438
10713SOL     OW33037   1.264   3.643   1.592
10713SOL    HW133038   1.175   3.598   1.579
10713SOL    HW233039   1.267   3.682   1.684
10714SOL     OW33040   3.234   4.209   5.197
10714SOL    HW133041   3.164   4.138   5.201
10714SOL    HW233042   3.201   4.290   5.246
10715SOL     OW33043   6.041   0.746   1.890
10715SOL    HW133044   6.050   0.845   1.895
10715SOL    HW233045   5.955   0.721   1.846
10716SOL     OW33046   4.983   1.080   3.522
10716SOL    HW133047   5.030   0.992   3.532
10716SOL    HW233048   5.030   1.135   3.452
10717SOL     OW33049   3.203   2.581   0.343
10717SOL    HW133050   3.256   2.575   0.428
10717SOL    HW233051   3.248   2.643   0.280
10718SOL     OW33052   1.966   5.202   6.474
10718SOL    HW133053   1.996   5.119   6.427
10718SOL    HW233054   1.866   5.210   6.468
10719SOL     OW33055   0.521   5.350   5.227
10719SOL    HW133056   0.463   5.336   5.308
10719SOL    HW233057   0.611   5.309   5.242
10720SOL     OW33058   0.158   5.174   3.004
10720SOL    HW133059   0.075   5.228   3.016
10720SOL    HW233060   0.212   5.212   2.929
10721SOL     OW33061   4.994   2.318   5.814
10721SOL    HW133062   4.965   2.225   5.836
10721SOL    HW233063   5.049   2.317   5.730
10722SOL     OW33064   0.300   3.646   4.994
10722SOL    HW133065   0.361   3.567   4.994
10722SOL    HW233066   0.305   3.693   5.082
10723SOL     OW33067   5.425   6.647   0.515
10723SOL    HW133068   5.485   6.652   0.594
10723SOL    HW233069   5.377   6.560   0.514
10724SOL     OW33070   0.654   6.133   6.261
10724SOL    HW133071   0.590   6.092   6.196
10724SOL    HW233072   0.623   6.224   6.287
10725SOL     OW33073   2.084   6.584   6.117
10725SOL    HW133074   2.061   6.487   6.104
10725SOL    HW233075   2.140   6.615   6.041
10726SOL     OW33076   3.920   0.656   4.327
10726SOL    HW133077   3.979   0.734   4.350
10726SOL    HW233078   3.965   0.601   4.256
10727SOL     OW33079   2.054   6.463   6.428
10727SOL    HW133080   1.986   6.419   6.486
10727SOL    HW233081   2.008   6.504   6.349
10728SOL     OW33082   5.232   5.666   1.420
10728SOL    HW133083   5.210   5.740   1.483
10728SOL    HW233084   5.152   5.607   1.410
10729SOL     OW33085   6.376   2.241   0.931
10729SOL    HW133086   6.397   2.335   0.956
10729SOL    HW233087   6.395   2.227   0.834
10730SOL     OW33088   4.584   0.399   3.075
10730SOL    HW133089   4.632   0.453   3.006
10730SOL    HW233090   4.648   0.334   3.117
10731SOL     OW33091   3.850   0.139   1.040
10731SOL    HW133092   3.755   0.149   1.010
10731SOL    HW233093   3.880   0.225   1.082
10732SOL     OW33094   0.898   3.562   6.264
10732SOL    HW133095   0.805   3.531   6.243
10732SOL    HW233096   0.938   3.603   6.183
10733SOL     OW33097   5.485   1.137   0.282
10733SOL    HW133098   5.485   1.040   0.261
10733SOL    HW233099   5.560   1.158   0.345
10734SOL     OW33100   6.506   2.907   1.862
10734SOL    HW133101   6.588   2.853   1.884
10734SOL    HW233102   6.515   2.998   1.903
10735SOL     OW33103   0.487   5.566   3.058
10735SOL    HW133104   0.471   5.469   3.040
10735SOL    HW233105   0.408   5.604   3.107
10736SOL     OW33106   2.160   1.714   4.605
10736SOL    HW133107   2.216   1.643   4.647
10736SOL    HW233108   2.064   1.687   4.610
10737SOL     OW33109   6.543   1.842   0.309
10737SOL    HW133110   6.595   1.815   0.228
10737SOL    HW233111   6.493   1.927   0.290
10738SOL     OW33112   3.893   0.429   3.613
10738SOL    HW133113   3.854   0.425   3.705
10738SOL    HW233114   3.992   0.437   3.619
10739SOL     OW33115   2.537   1.915   1.934
10739SOL    HW133116   2.635   1.914   1.918
10739SOL    HW233117   2.489   1.900   1.847
10740SOL     OW33118   4.959   6.341   3.303
10740SOL    HW133119   4.903   6.330   3.386
10740SOL    HW233120   4.923   6.417   3.249
10741SOL     OW33121   2.466   0.550   2.951
10741SOL    HW133122   2.386   0.609   2.950
10741SOL    HW233123   2.497   0.538   3.045
10742SOL     OW33124   6.518   5.601   0.646
10742SOL    HW133125   6.531   5.701   0.644
10742SOL    HW233126   6.420   5.581   0.648
10743SOL     OW33127   2.594   2.134   5.226
10743SOL    HW133128   2.664   2.073   5.189
10743SOL    HW233129   2.550   2.184   5.151
10744SOL     OW33130   5.950   1.652   0.033
10744SOL    HW133131   5.907   1.568   0.066
10744SOL    HW233132   5.879   1.716   0.002
10745SOL     OW33133   0.451   5.726   6.189
10745SOL    HW133134   0.513   5.805   6.184
10745SOL    HW233135   0.391   5.736   6.268
10746SOL     OW33136   2.038   4.547   5.988
10746SOL    HW133137   1.958   4.508   5.943
10746SOL    HW233138   2.040   4.518   6.084
10747SOL     OW33139   3.408   2.075   4.632
10747SOL    HW133140   3.327   2.125   4.665
10747SOL    HW233141   3.461   2.043   4.711
10748SOL     OW33142   5.509   1.353   2.349
10748SOL    HW133143   5.512   1.325   2.445
10748SOL    HW233144   5.591   1.404   2.326
10749SOL     OW33145   2.968   6.671   0.196
10749SOL    HW133146   3.029   6.737   0.241
10749SOL    HW233147   2.969   6.687   0.097
10750SOL     OW33148   4.021   6.466   5.975
10750SOL    HW133149   4.037   6.522   6.056
10750SOL    HW233150   3.989   6.375   6.003
10751SOL     OW33151   2.440   5.417   3.722
10751SOL    HW133152   2.512   5.422   3.791
10751SOL    HW233153   2.480   5.426   3.630
10752SOL     OW33154   5.064   5.020   4.008
10752SOL    HW133155   5.069   4.989   3.913
10752SOL    HW233156   4.999   4.963   4.058
10753SOL     OW33157   6.308   4.208   4.633
10753SOL    HW133158   6.265   4.211   4.724
10753SOL    HW233159   6.249   4.158   4.570
10754SOL     OW33160   1.270   0.233   2.374
10754SOL    HW133161   1.356   0.240   2.425
10754SOL    HW233162   1.281   0.167   2.299
10755SOL     OW33163   6.108   5.589   1.526
10755SOL    HW133164   6.175   5.534   1.477
10755SOL    HW233165   6.151   5.674   1.556
10756SOL     OW33166   0.461   0.295   4.974
10756SOL    HW133167   0.418   0.385   4.982
10756SOL    HW233168   0.445   0.242   5.057
10757SOL     OW33169   2.921   2.949   1.101
10757SOL    HW133170   2.972   2.873   1.142
10757SOL    HW233171   2.888   2.922   1.011
10758SOL     OW33172   0.412   5.087   3.903
10758SOL    HW133173   0.333   5.129   3.948
10758SOL    HW233174   0.440   5.005   3.953
10759SOL     OW33175   6.828   1.358   6.706
10759SOL    HW133176   6.916   1.351   6.753
10759SOL    HW233177   6.843   1.361   6.607
10760SOL     OW33178   5.994   1.689   4.647
10760SOL    HW133179   5.938   1.606   4.657
10760SOL    HW233180   6.091   1.664   4.646
10761SOL     OW33181   2.616   4.908   5.632
10761SOL    HW133182   2.521   4.932   5.612
10761SOL    HW233183   2.658   4.980   5.688
10762SOL     OW33184   3.287   1.818   5.784
10762SOL    HW133185   3.269   1.721   5.770
10762SOL    HW233186   3.200   1.866   5.796
10763SOL     OW33187   4.638   6.428   4.119
10763SOL    HW133188   4.564   6.364   4.137
10763SOL    HW233189   4.643   6.446   4.020
10764SOL     OW33190   4.413   6.996   4.885
10764SOL    HW133191   4.480   6.936   4.929
10764SOL    HW233192   4.332   6.943   4.861
10765SOL     OW33193   6.580   3.761   6.955
10765SOL    HW133194   6.635   3.827   7.007
10765SOL    HW233195   6.602   3.770   6.858
10766SOL     OW33196   3.337   3.284   1.704
10766SOL    HW133197   3.357   3.283   1.606
10766SOL    HW233198   3.382   3.207   1.748
10767SOL     OW33199   4.485   1.580   2.436
10767SOL    HW133200   4.389   1.560   2.455
10767SOL    HW233201   4.499   1.584   2.337
10768SOL     OW33202   6.128   4.742   6.501
10768SOL    HW133203   6.152   4.807   6.429
10768SOL    HW233204   6.075   4.667   6.462
10769SOL     OW33205   1.869   3.590   5.256
10769SOL    HW133206   1.839   3.645   5.178
10769SOL    HW233207   1.917   3.509   5.223
10770SOL     OW33208   4.416   6.239   3.825
10770SOL    HW133209   4.467   6.167   3.872
10770SOL    HW233210   4.475   6.320   3.814
10771SOL     OW33211   2.188   1.440   4.204
10771SOL    HW133212   2.198   1.364   4.141
10771SOL    HW233213   2.260   1.436   4.273
10772SOL     OW33214   5.320   5.567   3.635
10772SOL    HW133215   5.249   5.497   3.635
10772SOL    HW233216   5.279   5.658   3.628
10773SOL     OW33217   5.757   4.735   2.949
10773SOL    HW133218   5.776   4.643   2.984
10773SOL    HW233219   5.691   4.728   2.874
10774SOL     OW33220   0.219   6.938   3.149
10774SOL    HW133221   0.264   6.990   3.221
10774SOL    HW233222   0.130   6.905   3.182
10775SOL     OW33223   0.135   3.392   1.008
10775SOL    HW133224   0.215   3.356   0.961
10775SOL    HW233225   0.164   3.454   1.081
10776SOL     OW33226   1.219   0.768   5.588
10776SOL    HW133227   1.166   0.820   5.521
10776SOL    HW233228   1.283   0.708   5.539
10777SOL     OW33229   2.478   5.638   1.276
10777SOL    HW133230   2.495   5.706   1.347
10777SOL    HW233231   2.476   5.547   1.316
10778SOL     OW33232   5.837   5.760   2.311
10778SOL    HW133233   5.791   5.846   2.289
10778SOL    HW233234   5.771   5.697   2.352
10779SOL     OW33235   5.075   3.056   3.501
10779SOL    HW133236   5.102   3.142   3.458
10779SOL    HW233237   5.025   3.001   3.434
10780SOL     OW33238   6.858   0.373   2.095
10780SOL    HW133239   6.911   0.449   2.134
10780SOL    HW233240   6.784   0.410   2.039
10781SOL     OW33241   3.201   0.201   4.353
10781SOL    HW133242   3.174   0.297   4.343
10781SOL    HW233243   3.127   0.150   4.397
10782SOL     OW33244   6.105   5.032   3.666
10782SOL    HW133245   6.068   5.088   3.741
10782SOL    HW233246   6.200   5.057   3.650
10783SOL     OW33247   6.764   2.351   3.033
10783SOL    HW133248   6.793   2.332   3.127
10783SOL    HW233249   6.669   2.322   3.020
10784SOL     OW33250   2.530   1.867   4.710
10784SOL    HW133251   2.624   1.888   4.738
10784SOL    HW233252   2.494   1.941   4.654
10785SOL     OW33253   1.010   3.621   6.027
10785SOL    HW133254   1.016   3.537   5.973
10785SOL    HW233255   1.096   3.671   6.022
10786SOL     OW33256   6.831   4.108   4.128
10786SOL    HW133257   6.923   4.070   4.120
10786SOL    HW233258   6.765   4.046   4.085
10787SOL     OW33259   2.539   2.187   6.605
10787SOL    HW133260   2.564   2.131   6.526
10787SOL    HW233261   2.452   2.233   6.588
10788SOL     OW33262   5.931   3.523   6.153
10788SOL    HW133263   5.868   3.579   6.099
10788SOL    HW233264   6.008   3.495   6.095
10789SOL     OW33265   5.279   1.338   0.228
10789SOL    HW133266   5.252   1.380   0.315
10789SOL    HW233267   5.340   1.261   0.245
10790SOL     OW33268   5.915   6.053   2.944
10790SOL    HW133269   5.993   6.052   2.882
10790SOL    HW233270   5.849   5.983   2.916
10791SOL     OW33271   1.079   6.460   2.724
10791SOL    HW133272   1.114   6.414   2.642
10791SOL    HW233273   0.991   6.420   2.749
10792SOL     OW33274   3.747   4.479   6.238
10792SOL    HW133275   3.830   4.451   6.287
10792SOL    HW233276   3.773   4.527   6.154
10793SOL     OW33277   6.164   3.954   4.085
10793SOL    HW133278   6.148   3.959   3.986
10793SOL    HW233279   6.078   3.935   4.131
10794SOL     OW33280   3.494   3.863   4.458
10794SOL    HW133281   3.583   3.903   4.438
10794SOL    HW233282   3.427   3.935   4.471
10795SOL     OW33283   0.300   5.411   2.813
10795SOL    HW133284   0.310   5.509   2.797
10795SOL    HW233285   0.311   5.362   2.726
10796SOL     OW33286   1.153   6.173   5.557
10796SOL    HW133287   1.129   6.261   5.518
10796SOL    HW233288   1.073   6.133   5.602
10797SOL     OW33289   3.810   2.992   6.948
10797SOL    HW133290   3.746   3.067   6.966
10797SOL    HW233291   3.877   3.020   6.880
10798SOL     OW33292   5.951   1.398   0.999
10798SOL    HW133293   6.007   1.331   0.950
10798SOL    HW233294   5.885   1.350   1.057
10799SOL     OW33295   4.942   1.954   0.943
10799SOL    HW133296   5.040   1.969   0.933
10799SOL    HW233297   4.901   1.939   0.852
10800SOL     OW33298   6.464   6.880   1.235
10800SOL    HW133299   6.399   6.949   1.204
10800SOL    HW233300   6.478   6.889   1.333
10801SOL     OW33301   2.189   0.593   1.252
10801SOL    HW133302   2.226   0.593   1.159
10801SOL    HW233303   2.138   0.508   1.268
10802SOL     OW33304   5.687   1.601   3.816
10802SOL    HW133305   5.650   1.654   3.740
10802SOL    HW233306   5.786   1.590   3.804
10803SOL     OW33307   2.297   5.201   5.970
10803SOL    HW133308   2.291   5.189   5.871
10803SOL    HW233309   2.363   5.137   6.008
10804SOL     OW33310   0.061   3.727   4.212
10804SOL    HW133311   0.126   3.694   4.281
10804SOL    HW233312   0.010   3.650   4.175
10805SOL     OW33313   6.232   0.178   6.359
10805SOL    HW133314   6.318   0.161   6.313
10805SOL    HW233315   6.192   0.091   6.387
10806SOL     OW33316   1.524   5.439   0.387
10806SOL    HW133317   1.437   5.430   0.339
10806SOL    HW233318   1.518   5.513   0.454
10807SOL     OW33319   3.729   5.896   4.492
10807SOL    HW133320   3.822   5.862   4.503
10807SOL    HW233321   3.722   5.950   4.408
10808SOL     OW33322   1.119   3.247   6.221
10808SOL    HW133323   1.071   3.295   6.295
10808SOL    HW233324   1.216   3.271   6.223
10809SOL     OW33325   1.401   0.080   4.461
10809SOL    HW133326   1.359   0.068   4.371
10809SOL    HW233327   1.349   0.147   4.514
10810SOL     OW33328   6.233   0.948   4.364
10810SOL    HW133329   6.327   0.954   4.399
10810SOL    HW233330   6.170   0.943   4.441
10811SOL     OW33331   5.487   5.892   4.891
10811SOL    HW133332   5.419   5.964   4.876
10811SOL    HW233333   5.579   5.931   4.886
10812SOL     OW33334   0.549   2.760   0.697
10812SOL    HW133335   0.461   2.725   0.728
10812SOL    HW233336   0.603   2.685   0.658
10813SOL     OW33337   1.339   3.830   6.712
10813SOL    HW133338   1.244   3.814   6.684
10813SOL    HW233339   1.375   3.748   6.755
10814SOL     OW33340   3.065   1.902   1.290
10814SOL    HW133341   3.036   1.843   1.214
10814SOL    HW233342   2.984   1.930   1.342
10815SOL     OW33343   5.134   1.120   4.773
10815SOL    HW133344   5.152   1.218   4.764
10815SOL    HW233345   5.046   1.106   4.819
10816SOL     OW33346   3.266   3.037   4.790
10816SOL    HW133347   3.326   3.114   4.768
10816SOL    HW233348   3.176   3.051   4.747
10817SOL     OW33349   1.393   5.919   4.420
10817SOL    HW133350   1.323   5.962   4.478
10817SOL    HW233351   1.404   5.972   4.336
10818SOL     OW33352   4.102   4.006   7.015
10818SOL    HW133353   4.033   3.951   0.038
10818SOL    HW233354   4.101   4.099   0.028
10819SOL     OW33355   5.963   6.150   5.490
10819SOL    HW133356   6.040   6.160   5.427
10819SOL    HW233357   5.966   6.059   5.532
10820SOL     OW33358   2.516   4.537   6.214
10820SOL    HW133359   2.609   4.514   6.244
10820SOL    HW233360   2.506   4.511   6.117
10821SOL     OW33361   4.450   5.623   3.831
10821SOL    HW133362   4.351   5.634   3.842
10821SOL    HW233363   4.468   5.547   3.769
10822SOL     OW33364   5.641   0.820   2.235
10822SOL    HW133365   5.549   0.857   2.238
10822SOL    HW233366   5.637   0.720   2.232
10823SOL     OW33367   5.351   6.410   2.191
10823SOL    HW133368   5.443   6.384   2.164
10823SOL    HW233369   5.336   6.507   2.173
10824SOL     OW33370   0.816   3.343   2.793
10824SOL    HW133371   0.845   3.249   2.776
10824SOL    HW233372   0.897   3.400   2.809
10825SOL     OW33373   6.994   2.114   0.668
10825SOL    HW133374   0.027   2.193   0.690
10825SOL    HW233375   6.999   2.048   0.743
10826SOL     OW33376   6.336   3.333   2.430
10826SOL    HW133377   6.423   3.349   2.477
10826SOL    HW233378   6.284   3.262   2.478
10827SOL     OW33379   0.212   3.447   4.548
10827SOL    HW133380   0.184   3.372   4.488
10827SOL    HW233381   0.232   3.411   4.639
10828SOL     OW33382   0.028   4.356   5.258
10828SOL    HW133383   6.998   4.272   5.259
10828SOL    HW233384   0.124   4.334   5.238
10829SOL     OW33385   3.807   3.110   5.594
10829SOL    HW133386   3.860   3.036   5.636
10829SOL    HW233387   3.712   3.081   5.582
10830SOL     OW33388   5.423   2.172   3.115
10830SOL    HW133389   5.356   2.108   3.077
10830SOL    HW233390   5.453   2.140   3.205
10831SOL     OW33391   3.796   0.041   3.669
10831SOL    HW133392   3.750   7.011   3.741
10831SOL    HW233393   3.731   0.060   3.596
10832SOL     OW33394   6.779   2.636   6.801
10832SOL    HW133395   6.683   2.664   6.803
10832SOL    HW233396   6.825   2.681   6.724
10833SOL     OW33397   0.399   1.221   6.627
10833SOL    HW133398   0.474   1.273   6.587
10833SOL    HW233399   0.350   1.277   6.693
10834SOL     OW33400   6.144   6.253   1.610
10834SOL    HW133401   6.125   6.155   1.596
10834SOL    HW233402   6.063   6.306   1.584
10835SOL     OW33403   7.011   2.853   5.481
10835SOL    HW133404   6.969   2.833   5.569
10835SOL    HW233405   6.989   2.780   5.416
10836SOL     OW33406   0.411   1.627   3.469
10836SOL    HW133407   0.389   1.718   3.435
10836SOL    HW233408   0.503   1.601   3.438
10837SOL     OW33409   7.003   3.492   4.105
10837SOL    HW133410   7.015   3.393   4.110
10837SOL    HW233411   6.991   3.519   4.009
10838SOL     OW33412   0.875   6.163   2.508
10838SOL    HW133413   0.852   6.202   2.419
10838SOL    HW233414   0.795   6.115   2.545
10839SOL     OW33415   4.578   2.760   0.234
10839SOL    HW133416   4.623   2.805   0.156
10839SOL    HW233417   4.480   2.753   0.216
10840SOL     OW33418   2.708   0.495   2.156
10840SOL    HW133419   2.663   0.582   2.173
10840SOL    HW233420   2.779   0.479   2.225
10841SOL     OW33421   2.451   4.991   4.968
10841SOL    HW133422   2.489   4.963   4.880
10841SOL    HW233423   2.524   4.998   5.036
10842SOL     OW33424   6.512   4.495   1.694
10842SOL    HW133425   6.602   4.474   1.733
10842SOL    HW233426   6.443   4.494   1.767
10843SOL     OW33427   2.900   1.472   1.325
10843SOL    HW133428   2.832   1.543   1.340
10843SOL    HW233429   2.888   1.433   1.233
10844SOL     OW33430   2.086   5.933   4.823
10844SOL    HW133431   2.176   5.892   4.808
10844SOL    HW233432   2.027   5.913   4.745
10845SOL     OW33433   4.651   0.644   4.668
10845SOL    HW133434   4.560   0.604   4.680
10845SOL    HW233435   4.721   0.573   4.678
10846SOL     OW33436   5.744   0.154   5.973
10846SOL    HW133437   5.842   0.131   5.977
10846SOL    HW233438   5.713   0.182   6.064
10847SOL     OW33439   3.081   0.082   0.045
10847SOL    HW133440   3.152   0.082   6.999
10847SOL    HW233441   3.005   0.141   0.017
10848SOL     OW33442   1.915   3.551   1.800
10848SOL    HW133443   1.905   3.555   1.900
10848SOL    HW233444   1.825   3.544   1.758
10849SOL     OW33445   2.103   6.719   3.679
10849SOL    HW133446   2.094   6.638   3.621
10849SOL    HW233447   2.160   6.696   3.759
10850SOL     OW33448   4.508   4.775   0.865
10850SOL    HW133449   4.461   4.698   0.907
10850SOL    HW233450   4.520   4.758   0.767
10851SOL     OW33451   1.522   4.586   0.734
10851SOL    HW133452   1.457   4.517   0.765
10851SOL    HW233453   1.542   4.649   0.809
10852SOL     OW33454   2.670   1.617   2.319
10852SOL    HW133455   2.660   1.598   2.221
10852SOL    HW233456   2.586   1.659   2.353
10853SOL     OW33457   3.514   0.993   6.395
10853SOL    HW133458   3.471   1.051   6.325
10853SOL    HW233459   3.601   0.959   6.361
10854SOL     OW33460   3.120   5.989   5.584
10854SOL    HW133461   3.105   5.892   5.567
10854SOL    HW233462   3.123   6.006   5.682
10855SOL     OW33463   4.055   0.936   7.017
10855SOL    HW133464   4.077   0.865   6.951
10855SOL    HW233465   3.975   0.987   6.987
10856SOL     OW33466   0.620   1.219   0.485
10856SOL    HW133467   0.575   1.277   0.417
10856SOL    HW233468   0.719   1.233   0.480
10857SOL     OW33469   6.787   2.639   1.377
10857SOL    HW133470   6.687   2.641   1.380
10857SOL    HW233471   6.824   2.662   1.467
10858SOL     OW33472   2.290   6.321   2.295
10858SOL    HW133473   2.302   6.340   2.392
10858SOL    HW233474   2.350   6.247   2.267
10859SOL     OW33475   1.436   4.856   3.584
10859SOL    HW133476   1.405   4.783   3.523
10859SOL    HW233477   1.433   4.824   3.679
10860SOL     OW33478   0.356   3.655   3.325
10860SOL    HW133479   0.450   3.656   3.360
10860SOL    HW233480   0.295   3.697   3.393
10861SOL     OW33481   4.199   3.070   5.492
10861SOL    HW133482   4.112   3.080   5.539
10861SOL    HW233483   4.193   2.995   5.426
10862SOL     OW33484   0.964   0.862   5.023
10862SOL    HW133485   1.049   0.810   5.022
10862SOL    HW233486   0.976   0.943   5.081
10863SOL     OW33487   2.123   6.367   3.971
10863SOL    HW133488   2.065   6.371   4.052
10863SOL    HW233489   2.067   6.358   3.889
10864SOL     OW33490   3.456   6.830   2.975
10864SOL    HW133491   3.532   6.780   3.016
10864SOL    HW233492   3.371   6.780   2.991
10865SOL     OW33493   6.530   1.312   6.248
10865SOL    HW133494   6.510   1.214   6.248
10865SOL    HW233495   6.532   1.345   6.154
10866SOL     OW33496   5.558   5.010   6.794
10866SOL    HW133497   5.562   5.103   6.832
10866SOL    HW233498   5.606   5.008   6.706
10867SOL     OW33499   2.925   1.301   6.905
10867SOL    HW133500   2.890   1.376   6.962
10867SOL    HW233501   2.917   1.215   6.955
10868SOL     OW33502   1.782   2.301   3.290
10868SOL    HW133503   1.701   2.333   3.241
10868SOL    HW233504   1.754   2.241   3.365
10869NA      NA33505   6.423   2.276   5.543
10870NA      NA33506   4.346   4.663   5.216
10871NA      NA33507   2.157   3.529   1.766
10872NA      NA33508   4.908   3.763   5.225
10873NA      NA33509   4.212   2.431   5.329
10874NA      NA33510   3.725   4.813   1.736
10875NA      NA33511   6.897   6.086   4.767
10876NA      NA33512   3.688   3.590   5.111
10877NA      NA33513   4.946   6.456   6.249
10878NA      NA33514   2.656   0.455   5.108
10879NA      NA33515   0.744   5.121   2.590
10880NA      NA33516   2.260   0.534   2.376
10881NA      NA33517   3.573   4.375   1.241
10882NA      NA33518   3.963   3.348   2.901
   7.02361   7.02361   7.02361
