Generated by trjconv : CNT in water t= 325.00000
33518
    1C        C    1   2.849   2.773   4.747
    1C        C    2   2.901   2.723   4.868
    1C        C    3   2.844   2.773   4.986
    1C        C    4   2.850   2.773   4.261
    1C        C    5   2.900   2.727   4.384
    1C        C    6   2.848   2.776   4.506
    1C        C    7   3.019   2.645   4.626
    1C        C    8   2.901   2.723   4.626
    1C        C    9   3.080   2.606   4.747
    1C        C   10   3.008   2.631   4.866
    1C        C   11   3.179   2.490   4.977
    1C        C   12   3.061   2.566   4.978
    1C        C   13   2.851   2.770   3.772
    1C        C   14   2.903   2.725   3.895
    1C        C   15   2.853   2.777   4.017
    1C        C   16   3.019   2.645   4.138
    1C        C   17   2.903   2.726   4.139
    1C        C   18   3.080   2.612   4.262
    1C        C   19   3.018   2.649   4.384
    1C        C   20   3.208   2.548   4.503
    1C        C   21   3.080   2.608   4.504
    1C        C   22   3.275   2.527   4.625
    1C        C   23   3.210   2.549   4.749
    1C        C   24   3.413   2.485   4.867
    1C        C   25   3.271   2.500   4.868
    1C        C   26   3.490   2.472   4.983
    1C        C   27   2.853   2.765   3.281
    1C        C   28   2.909   2.727   3.405
    1C        C   29   2.855   2.771   3.528
    1C        C   30   3.016   2.635   3.650
    1C        C   31   2.903   2.719   3.651
    1C        C   32   3.078   2.602   3.773
    1C        C   33   3.016   2.640   3.895
    1C        C   34   3.206   2.546   4.019
    1C        C   35   3.078   2.604   4.016
    1C        C   36   3.276   2.525   4.140
    1C        C   37   3.207   2.551   4.261
    1C        C   38   3.416   2.505   4.380
    1C        C   39   3.276   2.526   4.381
    1C        C   40   3.483   2.499   4.504
    1C        C   41   3.413   2.498   4.626
    1C        C   42   3.629   2.479   4.744
    1C        C   43   3.487   2.483   4.745
    1C        C   44   3.705   2.485   4.863
    1C        C   45   3.629   2.474   4.981
    1C        C   46   2.839   2.752   2.794
    1C        C   47   2.899   2.715   2.917
    1C        C   48   2.849   2.767   3.039
    1C        C   49   3.018   2.634   3.162
    1C        C   50   2.905   2.718   3.159
    1C        C   51   3.079   2.599   3.285
    1C        C   52   3.018   2.637   3.406
    1C        C   53   3.207   2.542   3.531
    1C        C   54   3.077   2.597   3.528
    1C        C   55   3.277   2.523   3.652
    1C        C   56   3.209   2.551   3.773
    1C        C   57   3.413   2.506   3.896
    1C        C   58   3.273   2.526   3.896
    1C        C   59   3.486   2.500   4.017
    1C        C   60   3.416   2.505   4.140
    1C        C   61   3.631   2.489   4.260
    1C        C   62   3.490   2.495   4.260
    1C        C   63   3.700   2.500   4.383
    1C        C   64   3.625   2.500   4.502
    1C        C   65   3.834   2.542   4.623
    1C        C   66   3.698   2.502   4.623
    1C        C   67   3.902   2.567   4.744
    1C        C   68   3.839   2.528   4.864
    1C        C   69   4.053   2.586   4.976
    1C        C   70   3.925   2.530   4.975
    1C        C   71   2.825   2.735   2.309
    1C        C   72   2.885   2.695   2.430
    1C        C   73   2.831   2.745   2.551
    1C        C   74   3.004   2.620   2.673
    1C        C   75   2.887   2.699   2.672
    1C        C   76   3.070   2.589   2.794
    1C        C   77   3.014   2.634   2.916
    1C        C   78   3.204   2.539   3.039
    1C        C   79   3.076   2.599   3.038
    1C        C   80   3.272   2.519   3.161
    1C        C   81   3.208   2.542   3.285
    1C        C   82   3.413   2.495   3.404
    1C        C   83   3.275   2.523   3.409
    1C        C   84   3.483   2.486   3.527
    1C        C   85   3.415   2.493   3.650
    1C        C   86   3.624   2.501   3.770
    1C        C   87   3.483   2.493   3.774
    1C        C   88   3.696   2.510   3.891
    1C        C   89   3.627   2.504   4.014
    1C        C   90   3.831   2.550   4.138
    1C        C   91   3.697   2.506   4.137
    1C        C   92   3.900   2.574   4.259
    1C        C   93   3.833   2.547   4.381
    1C        C   94   4.026   2.636   4.498
    1C        C   95   3.902   2.569   4.502
    1C        C   96   4.089   2.672   4.619
    1C        C   97   4.030   2.629   4.740
    1C        C   98   4.191   2.768   4.865
    1C        C   99   4.101   2.656   4.861
    1C        C  100   4.210   2.849   4.978
    1C        C  101   2.820   2.728   2.070
    1C        C  102   2.989   2.592   2.191
    1C        C  103   2.876   2.678   2.188
    1C        C  104   3.060   2.564   2.312
    1C        C  105   2.998   2.610   2.430
    1C        C  106   3.197   2.532   2.553
    1C        C  107   3.065   2.583   2.551
    1C        C  108   3.270   2.514   2.673
    1C        C  109   3.201   2.536   2.794
    1C        C  110   3.406   2.487   2.917
    1C        C  111   3.268   2.512   2.916
    1C        C  112   3.480   2.492   3.038
    1C        C  113   3.412   2.500   3.162
    1C        C  114   3.625   2.494   3.282
    1C        C  115   3.484   2.485   3.282
    1C        C  116   3.694   2.503   3.405
    1C        C  117   3.624   2.496   3.527
    1C        C  118   3.832   2.548   3.648
    1C        C  119   3.695   2.513   3.648
    1C        C  120   3.898   2.575   3.770
    1C        C  121   3.831   2.550   3.892
    1C        C  122   4.021   2.641   4.014
    1C        C  123   3.896   2.575   4.015
    1C        C  124   4.085   2.678   4.134
    1C        C  125   4.027   2.637   4.256
    1C        C  126   4.197   2.767   4.377
    1C        C  127   4.088   2.677   4.377
    1C        C  128   4.247   2.817   4.499
    1C        C  129   4.194   2.766   4.620
    1C        C  130   4.321   2.936   4.739
    1C        C  131   4.240   2.819   4.742
    1C        C  132   4.351   3.008   4.856
    1C        C  133   4.287   2.964   4.973
    1C        C  134   3.171   2.467   2.082
    1C        C  135   3.038   2.510   2.084
    1C        C  136   3.258   2.476   2.191
    1C        C  137   3.193   2.512   2.311
    1C        C  138   3.403   2.478   2.430
    1C        C  139   3.265   2.505   2.432
    1C        C  140   3.477   2.476   2.550
    1C        C  141   3.408   2.487   2.672
    1C        C  142   3.618   2.493   2.795
    1C        C  143   3.477   2.478   2.795
    1C        C  144   3.691   2.509   2.914
    1C        C  145   3.621   2.500   3.036
    1C        C  146   3.828   2.542   3.158
    1C        C  147   3.692   2.505   3.158
    1C        C  148   3.895   2.568   3.280
    1C        C  149   3.830   2.542   3.402
    1C        C  150   4.023   2.632   3.523
    1C        C  151   3.896   2.570   3.524
    1C        C  152   4.082   2.673   3.645
    1C        C  153   4.024   2.639   3.770
    1C        C  154   4.190   2.770   3.890
    1C        C  155   4.080   2.682   3.892
    1C        C  156   4.239   2.823   4.011
    1C        C  157   4.193   2.769   4.134
    1C        C  158   4.338   2.925   4.253
    1C        C  159   4.246   2.818   4.255
    1C        C  160   4.373   2.988   4.375
    1C        C  161   4.331   2.930   4.497
    1C        C  162   4.442   3.112   4.614
    1C        C  163   4.366   2.994   4.618
    1C        C  164   4.474   3.181   4.733
    1C        C  165   4.439   3.118   4.854
    1C        C  166   4.511   3.321   4.973
    1C        C  167   4.479   3.185   4.970
    1C        C  168   3.473   2.437   2.072
    1C        C  169   3.399   2.460   2.189
    1C        C  170   3.616   2.463   2.310
    1C        C  171   3.474   2.459   2.309
    1C        C  172   3.689   2.485   2.428
    1C        C  173   3.618   2.489   2.550
    1C        C  174   3.824   2.540   2.670
    1C        C  175   3.687   2.503   2.672
    1C        C  176   3.893   2.564   2.790
    1C        C  177   3.829   2.544   2.914
    1C        C  178   4.023   2.629   3.035
    1C        C  179   3.895   2.569   3.036
    1C        C  180   4.086   2.664   3.156
    1C        C  181   4.021   2.632   3.278
    1C        C  182   4.194   2.753   3.402
    1C        C  183   4.082   2.667   3.400
    1C        C  184   4.247   2.804   3.523
    1C        C  185   4.193   2.760   3.646
    1C        C  186   4.336   2.920   3.763
    1C        C  187   4.244   2.813   3.766
    1C        C  188   4.375   2.980   3.885
    1C        C  189   4.334   2.928   4.010
    1C        C  190   4.448   3.107   4.126
    1C        C  191   4.379   2.983   4.131
    1C        C  192   4.476   3.172   4.248
    1C        C  193   4.447   3.109   4.371
    1C        C  194   4.505   3.315   4.490
    1C        C  195   4.470   3.178   4.492
    1C        C  196   4.521   3.387   4.611
    1C        C  197   4.514   3.318   4.734
    1C        C  198   4.556   3.532   4.850
    1C        C  199   4.535   3.390   4.854
    1C        C  200   4.585   3.620   4.959
    1C        C  201   3.611   2.417   2.075
    1C        C  202   3.824   2.506   2.183
    1C        C  203   3.689   2.458   2.188
    1C        C  204   3.893   2.539   2.303
    1C        C  205   3.826   2.519   2.427
    1C        C  206   4.018   2.616   2.544
    1C        C  207   3.893   2.552   2.547
    1C        C  208   4.077   2.662   2.664
    1C        C  209   4.019   2.627   2.788
    1C        C  210   4.194   2.747   2.909
    1C        C  211   4.081   2.663   2.910
    1C        C  212   4.249   2.792   3.031
    1C        C  213   4.198   2.750   3.156
    1C        C  214   4.335   2.911   3.274
    1C        C  215   4.245   2.802   3.279
    1C        C  216   4.372   2.974   3.395
    1C        C  217   4.334   2.915   3.518
    1C        C  218   4.439   3.101   3.639
    1C        C  219   4.376   2.974   3.639
    1C        C  220   4.470   3.168   3.760
    1C        C  221   4.445   3.103   3.883
    1C        C  222   4.508   3.308   4.002
    1C        C  223   4.472   3.172   4.003
    1C        C  224   4.514   3.381   4.123
    1C        C  225   4.506   3.310   4.246
    1C        C  226   4.523   3.523   4.368
    1C        C  227   4.520   3.382   4.367
    1C        C  228   4.523   3.598   4.488
    1C        C  229   4.533   3.528   4.610
    1C        C  230   4.502   3.742   4.727
    1C        C  231   4.540   3.605   4.728
    1C        C  232   4.497   3.813   4.849
    1C        C  233   4.546   3.754   4.966
    1C        C  234   4.020   2.609   2.064
    1C        C  235   3.894   2.552   2.071
    1C        C  236   4.081   2.647   2.184
    1C        C  237   4.018   2.606   2.304
    1C        C  238   4.196   2.733   2.422
    1C        C  239   4.083   2.647   2.422
    1C        C  240   4.247   2.787   2.542
    1C        C  241   4.188   2.751   2.665
    1C        C  242   4.336   2.903   2.785
    1C        C  243   4.243   2.798   2.787
    1C        C  244   4.381   2.957   2.908
    1C        C  245   4.339   2.901   3.031
    1C        C  246   4.442   3.091   3.146
    1C        C  247   4.377   2.965   3.151
    1C        C  248   4.465   3.157   3.269
    1C        C  249   4.440   3.098   3.394
    1C        C  250   4.503   3.301   3.512
    1C        C  251   4.465   3.165   3.516
    1C        C  252   4.522   3.371   3.633
    1C        C  253   4.506   3.304   3.757
    1C        C  254   4.520   3.517   3.874
    1C        C  255   4.513   3.376   3.878
    1C        C  256   4.523   3.590   3.996
    1C        C  257   4.520   3.522   4.119
    1C        C  258   4.493   3.728   4.239
    1C        C  259   4.521   3.590   4.243
    1C        C  260   4.472   3.798   4.360
    1C        C  261   4.493   3.736   4.485
    1C        C  262   4.421   3.938   4.604
    1C        C  263   4.479   3.809   4.605
    1C        C  264   4.395   4.004   4.726
    1C        C  265   4.439   3.942   4.845
    1C        C  266   4.327   4.133   4.954
    1C        C  267   4.396   4.012   4.958
    1C        C  268   4.257   2.776   2.067
    1C        C  269   4.192   2.734   2.184
    1C        C  270   4.346   2.889   2.300
    1C        C  271   4.254   2.780   2.302
    1C        C  272   4.386   2.950   2.421
    1C        C  273   4.343   2.890   2.541
    1C        C  274   4.441   3.082   2.661
    1C        C  275   4.379   2.956   2.661
    1C        C  276   4.471   3.149   2.781
    1C        C  277   4.447   3.082   2.903
    1C        C  278   4.510   3.289   3.022
    1C        C  279   4.473   3.153   3.023
    1C        C  280   4.515   3.360   3.144
    1C        C  281   4.501   3.294   3.268
    1C        C  282   4.518   3.509   3.388
    1C        C  283   4.507   3.369   3.388
    1C        C  284   4.517   3.584   3.508
    1C        C  285   4.518   3.512   3.630
    1C        C  286   4.492   3.725   3.751
    1C        C  287   4.515   3.586   3.751
    1C        C  288   4.478   3.795   3.873
    1C        C  289   4.496   3.728   3.996
    1C        C  290   4.423   3.929   4.119
    1C        C  291   4.475   3.798   4.117
    1C        C  292   4.397   3.999   4.239
    1C        C  293   4.426   3.932   4.360
    1C        C  294   4.327   4.124   4.480
    1C        C  295   4.392   3.999   4.480
    1C        C  296   4.281   4.186   4.599
    1C        C  297   4.322   4.127   4.720
    1C        C  298   4.198   4.311   4.835
    1C        C  299   4.288   4.200   4.837
    1C        C  300   4.167   4.400   4.943
    1C        C  301   4.356   2.874   2.064
    1C        C  302   4.468   3.067   2.176
    1C        C  303   4.397   2.943   2.179
    1C        C  304   4.487   3.139   2.297
    1C        C  305   4.450   3.076   2.418
    1C        C  306   4.507   3.283   2.536
    1C        C  307   4.473   3.146   2.539
    1C        C  308   4.522   3.355   2.657
    1C        C  309   4.508   3.285   2.779
    1C        C  310   4.525   3.500   2.899
    1C        C  311   4.517   3.359   2.900
    1C        C  312   4.522   3.571   3.021
    1C        C  313   4.517   3.501   3.143
    1C        C  314   4.485   3.714   3.261
    1C        C  315   4.511   3.575   3.264
    1C        C  316   4.472   3.785   3.382
    1C        C  317   4.493   3.723   3.508
    1C        C  318   4.426   3.926   3.625
    1C        C  319   4.473   3.793   3.629
    1C        C  320   4.393   3.987   3.748
    1C        C  321   4.424   3.926   3.871
    1C        C  322   4.315   4.106   3.991
    1C        C  323   4.392   3.988   3.994
    1C        C  324   4.281   4.172   4.111
    1C        C  325   4.324   4.120   4.235
    1C        C  326   4.184   4.277   4.355
    1C        C  327   4.288   4.181   4.357
    1C        C  328   4.134   4.337   4.473
    1C        C  329   4.192   4.296   4.596
    1C        C  330   4.023   4.437   4.712
    1C        C  331   4.137   4.351   4.713
    1C        C  332   3.969   4.491   4.831
    1C        C  333   4.048   4.473   4.945
    1C        C  334   4.556   3.266   2.063
    1C        C  335   4.540   3.127   2.067
    1C        C  336   4.538   3.349   2.175
    1C        C  337   4.517   3.278   2.295
    1C        C  338   4.524   3.495   2.413
    1C        C  339   4.518   3.354   2.415
    1C        C  340   4.525   3.568   2.534
    1C        C  341   4.526   3.496   2.656
    1C        C  342   4.500   3.710   2.773
    1C        C  343   4.519   3.570   2.776
    1C        C  344   4.479   3.780   2.894
    1C        C  345   4.489   3.708   3.015
    1C        C  346   4.420   3.911   3.137
    1C        C  347   4.466   3.777   3.136
    1C        C  348   4.389   3.979   3.257
    1C        C  349   4.424   3.918   3.379
    1C        C  350   4.316   4.103   3.500
    1C        C  351   4.393   3.984   3.500
    1C        C  352   4.276   4.160   3.622
    1C        C  353   4.318   4.107   3.746
    1C        C  354   4.175   4.263   3.870
    1C        C  355   4.274   4.163   3.868
    1C        C  356   4.123   4.315   3.991
    1C        C  357   4.180   4.270   4.113
    1C        C  358   4.009   4.399   4.228
    1C        C  359   4.124   4.318   4.234
    1C        C  360   3.951   4.445   4.348
    1C        C  361   4.016   4.414   4.470
    1C        C  362   3.828   4.517   4.592
    1C        C  363   3.957   4.459   4.590
    1C        C  364   3.761   4.545   4.713
    1C        C  365   3.838   4.543   4.832
    1C        C  366   3.628   4.588   4.949
    1C        C  367   3.767   4.576   4.948
    1C        C  368   4.503   3.564   2.056
    1C        C  369   4.529   3.490   2.173
    1C        C  370   4.507   3.706   2.287
    1C        C  371   4.524   3.566   2.291
    1C        C  372   4.484   3.775   2.408
    1C        C  373   4.499   3.707   2.531
    1C        C  374   4.429   3.910   2.648
    1C        C  375   4.482   3.779   2.651
    1C        C  376   4.396   3.974   2.769
    1C        C  377   4.425   3.911   2.893
    1C        C  378   4.321   4.097   3.008
    1C        C  379   4.395   3.977   3.014
    1C        C  380   4.274   4.151   3.130
    1C        C  381   4.313   4.097   3.254
    1C        C  382   4.177   4.260   3.378
    1C        C  383   4.275   4.159   3.376
    1C        C  384   4.123   4.307   3.500
    1C        C  385   4.178   4.263   3.623
    1C        C  386   4.009   4.388   3.741
    1C        C  387   4.124   4.307   3.746
    1C        C  388   3.944   4.427   3.861
    1C        C  389   4.007   4.394   3.983
    1C        C  390   3.820   4.490   4.106
    1C        C  391   3.950   4.436   4.105
    1C        C  392   3.753   4.516   4.228
    1C        C  393   3.822   4.503   4.350
    1C        C  394   3.615   4.548   4.473
    1C        C  395   3.755   4.530   4.471
    1C        C  396   3.544   4.564   4.594
    1C        C  397   3.621   4.564   4.712
    1C        C  398   3.412   4.549   4.838
    1C        C  399   3.550   4.578   4.833
    1C        C  400   3.338   4.519   4.953
    1C        C  401   4.495   3.703   2.051
    1C        C  402   4.458   3.916   2.166
    1C        C  403   4.498   3.780   2.167
    1C        C  404   4.412   3.977   2.285
    1C        C  405   4.436   3.908   2.406
    1C        C  406   4.322   4.092   2.526
    1C        C  407   4.401   3.974   2.526
    1C        C  408   4.276   4.151   2.646
    1C        C  409   4.320   4.093   2.767
    1C        C  410   4.174   4.251   2.888
    1C        C  411   4.276   4.153   2.887
    1C        C  412   4.122   4.296   3.011
    1C        C  413   4.176   4.254   3.134
    1C        C  414   4.003   4.379   3.251
    1C        C  415   4.122   4.303   3.255
    1C        C  416   3.943   4.413   3.374
    1C        C  417   4.004   4.381   3.498
    1C        C  418   3.816   4.479   3.619
    1C        C  419   3.943   4.419   3.620
    1C        C  420   3.748   4.508   3.740
    1C        C  421   3.813   4.480   3.862
    1C        C  422   3.613   4.541   3.986
    1C        C  423   3.751   4.512   3.984
    1C        C  424   3.542   4.541   4.108
    1C        C  425   3.614   4.541   4.230
    1C        C  426   3.402   4.546   4.356
    1C        C  427   3.543   4.556   4.351
    1C        C  428   3.332   4.541   4.478
    1C        C  429   3.403   4.557   4.599
    1C        C  430   3.193   4.519   4.720
    1C        C  431   3.333   4.544   4.721
    1C        C  432   3.125   4.494   4.842
    1C        C  433   3.203   4.488   4.959
    1C        C  434   4.388   4.123   2.054
    1C        C  435   4.455   4.001   2.055
    1C        C  436   4.304   4.164   2.163
    1C        C  437   4.339   4.099   2.285
    1C        C  438   4.185   4.252   2.401
    1C        C  439   4.282   4.150   2.403
    1C        C  440   4.129   4.300   2.521
    1C        C  441   4.177   4.251   2.645
    1C        C  442   4.011   4.386   2.765
    1C        C  443   4.122   4.298   2.766
    1C        C  444   3.945   4.416   2.887
    1C        C  445   4.006   4.377   3.009
    1C        C  446   3.813   4.472   3.129
    1C        C  447   3.944   4.417   3.129
    1C        C  448   3.747   4.493   3.251
    1C        C  449   3.815   4.473   3.374
    1C        C  450   3.610   4.526   3.495
    1C        C  451   3.749   4.501   3.496
    1C        C  452   3.542   4.544   3.618
    1C        C  453   3.611   4.540   3.741
    1C        C  454   3.400   4.545   3.867
    1C        C  455   3.541   4.548   3.864
    1C        C  456   3.333   4.532   3.990
    1C        C  457   3.401   4.541   4.113
    1C        C  458   3.193   4.499   4.236
    1C        C  459   3.330   4.534   4.235
    1C        C  460   3.126   4.481   4.359
    1C        C  461   3.195   4.508   4.479
    1C        C  462   2.995   4.434   4.599
    1C        C  463   3.125   4.490   4.600
    1C        C  464   2.932   4.399   4.720
    1C        C  465   2.992   4.441   4.842
    1C        C  466   2.802   4.339   4.956
    1C        C  467   2.909   4.429   4.959
    1C        C  468   4.127   4.285   2.038
    1C        C  469   4.184   4.241   2.159
    1C        C  470   4.011   4.374   2.280
    1C        C  471   4.128   4.294   2.278
    1C        C  472   3.945   4.409   2.400
    1C        C  473   4.012   4.379   2.521
    1C        C  474   3.818   4.465   2.642
    1C        C  475   3.952   4.421   2.642
    1C        C  476   3.747   4.491   2.762
    1C        C  477   3.815   4.469   2.884
    1C        C  478   3.609   4.524   3.009
    1C        C  479   3.746   4.492   3.006
    1C        C  480   3.537   4.532   3.130
    1C        C  481   3.609   4.522   3.251
    1C        C  482   3.397   4.528   3.378
    1C        C  483   3.538   4.526   3.374
    1C        C  484   3.329   4.526   3.501
    1C        C  485   3.401   4.543   3.622
    1C        C  486   3.194   4.500   3.746
    1C        C  487   3.330   4.539   3.744
    1C        C  488   3.130   4.474   3.869
    1C        C  489   3.196   4.498   3.992
    1C        C  490   3.001   4.413   4.114
    1C        C  491   3.126   4.478   4.113
    1C        C  492   2.938   4.382   4.237
    1C        C  493   2.996   4.425   4.359
    1C        C  494   2.822   4.302   4.481
    1C        C  495   2.933   4.390   4.480
    1C        C  496   2.775   4.254   4.605
    1C        C  497   2.819   4.312   4.725
    1C        C  498   2.664   4.163   4.840
    1C        C  499   2.752   4.274   4.843
    1C        C  500   2.598   4.116   4.954
    1C        C  501   4.005   4.352   2.041
    1C        C  502   3.819   4.463   2.153
    1C        C  503   3.948   4.406   2.158
    1C        C  504   3.747   4.483   2.273
    1C        C  505   3.813   4.458   2.395
    1C        C  506   3.610   4.505   2.520
    1C        C  507   3.749   4.478   2.520
    1C        C  508   3.539   4.517   2.641
    1C        C  509   3.609   4.517   2.764
    1C        C  510   3.397   4.524   2.886
    1C        C  511   3.539   4.525   2.886
    1C        C  512   3.326   4.523   3.008
    1C        C  513   3.395   4.531   3.130
    1C        C  514   3.192   4.491   3.256
    1C        C  515   3.328   4.527   3.254
    1C        C  516   3.126   4.464   3.378
    1C        C  517   3.193   4.489   3.499
    1C        C  518   3.004   4.404   3.624
    1C        C  519   3.129   4.471   3.624
    1C        C  520   2.949   4.363   3.747
    1C        C  521   3.006   4.406   3.869
    1C        C  522   2.835   4.284   3.994
    1C        C  523   2.942   4.377   3.991
    1C        C  524   2.786   4.234   4.117
    1C        C  525   2.833   4.288   4.239
    1C        C  526   2.695   4.129   4.362
    1C        C  527   2.776   4.245   4.360
    1C        C  528   2.655   4.073   4.485
    1C        C  529   2.693   4.139   4.604
    1C        C  530   2.580   3.958   4.730
    1C        C  531   2.638   4.087   4.724
    1C        C  532   2.541   3.902   4.854
    1C        C  533   2.526   3.996   4.960
    1C        C  534   3.618   4.554   2.039
    1C        C  535   3.753   4.516   2.041
    1C        C  536   3.538   4.537   2.157
    1C        C  537   3.608   4.514   2.278
    1C        C  538   3.395   4.515   2.403
    1C        C  539   3.536   4.518   2.400
    1C        C  540   3.324   4.506   2.525
    1C        C  541   3.398   4.517   2.645
    1C        C  542   3.187   4.480   2.765
    1C        C  543   3.324   4.514   2.766
    1C        C  544   3.123   4.459   2.890
    1C        C  545   3.189   4.487   3.011
    1C        C  546   2.999   4.399   3.136
    1C        C  547   3.123   4.465   3.135
    1C        C  548   2.940   4.362   3.259
    1C        C  549   2.998   4.403   3.381
    1C        C  550   2.831   4.276   3.504
    1C        C  551   2.941   4.365   3.504
    1C        C  552   2.780   4.229   3.627
    1C        C  553   2.834   4.282   3.747
    1C        C  554   2.701   4.121   3.874
    1C        C  555   2.789   4.232   3.871
    1C        C  556   2.666   4.059   3.996
    1C        C  557   2.700   4.122   4.117
    1C        C  558   2.591   3.943   4.243
    1C        C  559   2.657   4.067   4.240
    1C        C  560   2.568   3.878   4.367
    1C        C  561   2.591   3.947   4.488
    1C        C  562   2.524   3.748   4.613
    1C        C  563   2.562   3.884   4.611
    1C        C  564   2.515   3.682   4.738
    1C        C  565   2.515   3.761   4.856
    1C        C  566   2.522   3.547   4.974
    1C        C  567   2.513   3.686   4.975
    1C        C  568   3.329   4.480   2.044
    1C        C  569   3.399   4.508   2.162
    1C        C  570   3.185   4.472   2.281
    1C        C  571   3.323   4.506   2.282
    1C        C  572   3.115   4.460   2.403
    1C        C  573   3.185   4.482   2.524
    1C        C  574   2.990   4.395   2.647
    1C        C  575   3.117   4.456   2.645
    1C        C  576   2.934   4.357   2.771
    1C        C  577   3.000   4.390   2.892
    1C        C  578   2.829   4.270   3.016
    1C        C  579   2.938   4.360   3.015
    1C        C  580   2.779   4.220   3.138
    1C        C  581   2.832   4.271   3.259
    1C        C  582   2.691   4.115   3.383
    1C        C  583   2.784   4.222   3.382
    1C        C  584   2.661   4.055   3.507
    1C        C  585   2.697   4.115   3.630
    1C        C  586   2.594   3.934   3.755
    1C        C  587   2.660   4.059   3.754
    1C        C  588   2.569   3.869   3.879
    1C        C  589   2.602   3.933   4.000
    1C        C  590   2.539   3.734   4.126
    1C        C  591   2.570   3.872   4.123
    1C        C  592   2.522   3.667   4.249
    1C        C  593   2.531   3.741   4.369
    1C        C  594   2.507   3.534   4.493
    1C        C  595   2.511   3.676   4.493
    1C        C  596   2.519   3.465   4.616
    1C        C  597   2.520   3.540   4.736
    1C        C  598   2.532   3.328   4.863
    1C        C  599   2.522   3.469   4.858
    1C        C  600   2.533   3.249   4.979
    1C        C  601   3.197   4.439   2.045
    1C        C  602   2.982   4.391   2.159
    1C        C  603   3.118   4.436   2.161
    1C        C  604   2.926   4.357   2.285
    1C        C  605   2.986   4.402   2.404
    1C        C  606   2.820   4.270   2.529
    1C        C  607   2.926   4.364   2.525
    1C        C  608   2.771   4.217   2.651
    1C        C  609   2.824   4.268   2.771
    1C        C  610   2.684   4.114   2.893
    1C        C  611   2.772   4.224   2.895
    1C        C  612   2.644   4.055   3.015
    1C        C  613   2.691   4.109   3.137
    1C        C  614   2.589   3.929   3.269
    1C        C  615   2.651   4.056   3.261
    1C        C  616   2.563   3.864   3.392
    1C        C  617   2.597   3.929   3.513
    1C        C  618   2.527   3.729   3.638
    1C        C  619   2.567   3.865   3.635
    1C        C  620   2.518   3.660   3.761
    1C        C  621   2.528   3.734   3.882
    1C        C  622   2.509   3.523   4.007
    1C        C  623   2.523   3.664   4.004
    1C        C  624   2.515   3.453   4.130
    1C        C  625   2.516   3.526   4.251
    1C        C  626   2.544   3.320   4.375
    1C        C  627   2.514   3.458   4.375
    1C        C  628   2.563   3.257   4.500
    1C        C  629   2.540   3.326   4.621
    1C        C  630   2.589   3.119   4.742
    1C        C  631   2.549   3.255   4.743
    1C        C  632   2.614   3.048   4.862
    1C        C  633   2.569   3.114   4.981
    1C        C  634   2.781   4.306   2.052
    1C        C  635   2.889   4.394   2.050
    1C        C  636   2.750   4.232   2.167
    1C        C  637   2.813   4.270   2.287
    1C        C  638   2.673   4.112   2.411
    1C        C  639   2.766   4.218   2.410
    1C        C  640   2.632   4.052   2.532
    1C        C  641   2.681   4.108   2.652
    1C        C  642   2.585   3.920   2.777
    1C        C  643   2.642   4.049   2.774
    1C        C  644   2.557   3.858   2.901
    1C        C  645   2.583   3.928   3.022
    1C        C  646   2.526   3.727   3.149
    1C        C  647   2.565   3.863   3.146
    1C        C  648   2.514   3.658   3.271
    1C        C  649   2.525   3.728   3.393
    1C        C  650   2.501   3.519   3.518
    1C        C  651   2.511   3.660   3.516
    1C        C  652   2.507   3.449   3.641
    1C        C  653   2.506   3.519   3.763
    1C        C  654   2.526   3.310   3.889
    1C        C  655   2.507   3.450   3.886
    1C        C  656   2.546   3.240   4.011
    1C        C  657   2.536   3.314   4.131
    1C        C  658   2.605   3.115   4.256
    1C        C  659   2.553   3.247   4.255
    1C        C  660   2.637   3.055   4.380
    1C        C  661   2.607   3.123   4.500
    1C        C  662   2.718   2.944   4.626
    1C        C  663   2.633   3.057   4.623
    1C        C  664   2.759   2.883   4.746
    1C        C  665   2.700   2.933   4.865
    1C        C  666   2.748   2.875   4.983
    1C        C  667   2.678   4.026   2.056
    1C        C  668   2.685   4.107   2.171
    1C        C  669   2.584   3.916   2.290
    1C        C  670   2.640   4.047   2.290
    1C        C  671   2.556   3.852   2.413
    1C        C  672   2.575   3.923   2.534
    1C        C  673   2.519   3.718   2.660
    1C        C  674   2.555   3.855   2.656
    1C        C  675   2.510   3.651   2.784
    1C        C  676   2.525   3.721   2.906
    1C        C  677   2.508   3.512   3.027
    1C        C  678   2.516   3.653   3.029
    1C        C  679   2.511   3.445   3.151
    1C        C  680   2.513   3.516   3.273
    1C        C  681   2.536   3.308   3.400
    1C        C  682   2.511   3.447   3.397
    1C        C  683   2.553   3.241   3.523
    1C        C  684   2.532   3.310   3.645
    1C        C  685   2.595   3.109   3.767
    1C        C  686   2.540   3.239   3.768
    1C        C  687   2.623   3.044   3.890
    1C        C  688   2.586   3.105   4.011
    1C        C  689   2.712   2.934   4.136
    1C        C  690   2.631   3.050   4.134
    1C        C  691   2.757   2.879   4.259
    1C        C  692   2.715   2.937   4.381
    1C        C  693   2.753   2.881   4.505
    1C        C  694   2.626   3.896   2.055
    1C        C  695   2.523   3.707   2.176
    1C        C  696   2.571   3.840   2.171
    1C        C  697   2.507   3.638   2.298
    1C        C  698   2.521   3.716   2.415
    1C        C  699   2.491   3.507   2.541
    1C        C  700   2.504   3.648   2.538
    1C        C  701   2.504   3.437   2.663
    1C        C  702   2.505   3.510   2.783
    1C        C  703   2.526   3.300   2.910
    1C        C  704   2.505   3.439   2.906
    1C        C  705   2.552   3.236   3.034
    1C        C  706   2.535   3.306   3.155
    1C        C  707   2.600   3.106   3.279
    1C        C  708   2.551   3.239   3.278
    1C        C  709   2.636   3.045   3.402
    1C        C  710   2.605   3.110   3.523
    1C        C  711   2.711   2.929   3.648
    1C        C  712   2.630   3.045   3.647
    1C        C  713   2.756   2.874   3.770
    1C        C  714   2.712   2.934   3.891
    1C        C  715   2.760   2.883   4.014
    1C        C  716   2.451   3.505   2.062
    1C        C  717   2.492   3.639   2.058
    1C        C  718   2.467   3.425   2.179
    1C        C  719   2.480   3.499   2.300
    1C        C  720   2.518   3.293   2.423
    1C        C  721   2.482   3.430   2.423
    1C        C  722   2.540   3.225   2.544
    1C        C  723   2.525   3.297   2.665
    1C        C  724   2.599   3.100   2.790
    1C        C  725   2.548   3.232   2.788
    1C        C  726   2.628   3.039   2.913
    1C        C  727   2.601   3.103   3.036
    1C        C  728   2.710   2.922   3.160
    1C        C  729   2.631   3.039   3.159
    1C        C  730   2.758   2.871   3.282
    1C        C  731   2.712   2.926   3.404
    1C        C  732   2.754   2.870   3.526
    1C        C  733   2.491   3.199   2.071
    1C        C  734   2.493   3.284   2.183
    1C        C  735   2.587   3.088   2.304
    1C        C  736   2.531   3.219   2.303
    1C        C  737   2.616   3.024   2.427
    1C        C  738   2.592   3.094   2.547
    1C        C  739   2.700   2.911   2.670
    1C        C  740   2.624   3.031   2.669
    1C        C  741   2.748   2.859   2.793
    1C        C  742   2.704   2.920   2.912
    1C        C  743   2.750   2.868   3.036
    1C        C  744   2.544   3.071   2.071
    1C        C  745   2.685   2.898   2.185
    1C        C  746   2.608   3.016   2.184
    1C        C  747   2.731   2.842   2.306
    1C        C  748   2.691   2.904   2.426
    1C        C  749   2.739   2.852   2.548
    1C        C  750   2.734   2.838   2.069
    1C        C  751   3.653   2.307   1.984
    1C        O  752   3.621   2.191   2.021
    1C        O  753   3.664   2.330   1.846
    1C        C  754   4.634   3.050   1.983
    1C        O  755   4.601   3.002   1.871
    1C        O  756   4.743   2.978   2.035
    1C        C  757   4.450   4.229   1.972
    1C        O  758   4.547   4.298   2.015
    1C        O  759   4.451   4.231   1.832
    1C        C  760   3.603   4.669   1.947
    1C        O  761   3.553   4.774   1.995
    1C        O  762   3.610   4.663   1.807
    1C        C  763   2.885   4.509   1.956
    1C        O  764   2.900   4.493   1.832
    1C        O  765   2.820   4.628   1.993
    1C        C  766   2.343   3.482   1.964
    1C        O  767   2.357   3.472   1.839
    1C        O  768   2.207   3.472   1.997
    1C        C  769   4.700   3.583   5.044
    1C        O  770   4.698   3.564   5.168
    1C        O  771   4.825   3.567   4.982
    1C        C  772   4.281   4.477   4.999
    1C        O  773   4.274   4.525   5.116
    1C        O  774   4.362   4.562   4.924
    1C        C  775   4.155   2.520   5.061
    1C        O  776   4.216   2.418   5.018
    1C        O  777   4.167   2.549   5.197
    1C        C  778   2.877   4.540   5.050
    1C        O  779   2.862   4.661   5.017
    1C        O  780   2.903   4.530   5.188
    1C        C  781   2.477   3.041   5.071
    1C        O  782   2.370   2.979   5.047
    1C        O  783   2.517   3.037   5.204
    1C        C  784   2.385   4.011   5.006
    1C        O  785   2.295   4.031   4.921
    1C        O  786   2.348   4.002   5.141
    1C        C  787   2.938   2.444   1.996
    1C        O  788   2.940   2.472   1.873
    1C        O  789   2.866   2.334   2.041
    1C        C  790   3.182   2.369   5.062
    1C        O  791   3.149   2.261   5.006
    1C        O  792   3.170   2.384   5.200
    1C        H  793   4.303   3.011   5.068
    1C        H  794   4.138   2.849   5.057
    1C        H  795   4.506   3.117   5.048
    1C        H  796   4.513   3.370   5.068
    1C        H  797   4.579   3.808   5.052
    1C        H  798   4.423   3.973   5.054
    1C        H  799   4.300   4.174   5.049
    1C        H  800   4.059   4.567   4.995
    1C        H  801   3.815   4.611   5.036
    1C        H  802   3.601   4.667   5.017
    1C        H  803   3.370   4.571   5.041
    1C        H  804   3.159   4.492   5.056
    1C        H  805   3.888   2.515   5.074
    1C        H  806   3.676   2.429   5.065
    1C        H  807   3.009   2.577   5.071
    1C        H  808   3.447   2.411   5.060
    1C        H  809   2.856   2.716   5.075
    1C        H  810   2.679   2.882   5.064
    1C        H  811   2.506   3.293   5.073
    1C        H  812   2.473   3.504   5.059
    1C        H  813   2.511   3.736   5.069
    1C        H  814   2.607   4.181   5.039
    1C        H  815   2.755   4.318   5.050
    1C        H  816   2.709   2.875   1.972
    1C        H  817   2.790   2.652   2.001
    1C        H  818   3.208   2.419   1.994
    1C        H  819   3.436   2.465   1.976
    1C        H  820   3.844   2.544   1.976
    1C        H  821   4.066   2.624   1.968
    1C        H  822   4.275   2.700   1.995
    1C        H  823   4.424   2.868   1.982
    1C        H  824   4.628   3.298   1.990
    1C        H  825   4.462   3.514   1.971
    1C        H  826   4.485   3.745   1.953
    1C        H  827   3.815   4.568   1.972
    1C        H  828   3.953   4.366   1.949
    1C        H  829   4.197   4.318   1.964
    1C        H  830   4.532   3.985   1.982
    1C        H  831   2.586   3.862   1.962
    1C        H  832   2.720   4.063   1.965
    1C        H  833   2.721   4.290   1.965
    1C        H  834   3.383   4.455   1.955
    1C        H  835   3.168   4.367   1.972
    1C        H  836   2.501   3.007   1.997
    1C        H  837   2.431   3.227   1.987
    1C        H  838   2.462   3.693   1.970
    2V3OU   H29  839   2.805   3.549   3.468
    2V3OU   C27  840   2.790   3.504   3.569
    2V3OU   H27  841   2.733   3.565   3.645
    2V3OU   H28  842   2.743   3.404   3.552
    2V3OU   O11  843   2.915   3.466   3.626
    2V3OU   C15  844   2.925   3.404   3.749
    2V3OU   C13  845   3.052   3.371   3.800
    2V3OU   C14  846   3.084   3.262   3.882
    2V3OU   C16  847   2.983   3.180   3.931
    2V3OU    H6  848   2.999   3.101   4.007
    2V3OU   C12  849   3.219   3.222   3.925
    2V3OU    O2  850   3.235   3.129   4.008
    2V3OU   C10  851   3.329   3.306   3.876
    2V3OU    C8  852   3.457   3.270   3.917
    2V3OU   O10  853   3.487   3.145   3.963
    2V3OU   H26  854   3.402   3.108   3.990
    2V3OU    C6  855   3.566   3.352   3.875
    2V3OU    C5  856   3.539   3.469   3.805
    2V3OU    C4  857   3.704   3.295   3.870
    2V3OU    H4  858   3.720   3.235   3.965
    2V3OU    H5  859   3.711   3.228   3.780
    2V3OU    C2  860   3.818   3.396   3.861
    2V3OU    O6  861   3.810   3.471   3.983
    2V3OU   H21  862   3.771   3.554   3.952
    2V3OU    C3  863   3.781   3.491   3.747
    2V3OU    H2  864   3.865   3.565   3.736
    2V3OU    H3  865   3.782   3.442   3.647
    2V3OU   C25  866   3.952   3.326   3.839
    2V3OU    O7  867   3.998   3.297   3.729
    2V3OU   C26  868   4.030   3.289   3.964
    2V3OU   H22  869   4.071   3.384   4.007
    2V3OU   H23  870   4.115   3.220   3.938
    2V3OU    O8  871   3.968   3.212   4.065
    2V3OU   H24  872   3.928   3.264   4.136
    2V3OU    C1  873   3.649   3.564   3.765
    2V3OU    H1  874   3.626   3.616   3.668
    2V3OU    O3  875   3.663   3.655   3.874
    2V3OU   C19  876   3.620   3.790   3.851
    2V3OU    H9  877   3.517   3.807   3.808
    2V3OU    O4  878   3.709   3.851   3.761
    2V3OU   C20  879   3.839   3.878   3.814
    2V3OU   H10  880   3.899   3.784   3.833
    2V3OU   C24  881   3.608   3.861   3.986
    2V3OU   H16  882   3.538   3.794   4.043
    2V3OU   H17  883   3.556   3.959   3.973
    2V3OU   C23  884   3.749   3.875   4.044
    2V3OU   H15  885   3.792   3.770   4.055
    2V3OU    N1  886   3.733   3.954   4.165
    2V3OU   H19  887   3.807   3.926   4.225
    2V3OU   H20  888   3.645   3.930   4.204
    2V3OU   C21  889   3.848   3.949   3.949
    2V3OU   H11  890   3.948   3.932   3.998
    2V3OU    O5  891   3.826   4.090   3.953
    2V3OU   H18  892   3.781   4.097   4.039
    2V3OU   C22  893   3.915   3.947   3.702
    2V3OU   H12  894   3.863   4.042   3.674
    2V3OU   H13  895   3.905   3.887   3.608
    2V3OU   H14  896   4.020   3.965   3.737
    2V3OU   C11  897   3.160   3.468   3.778
    2V3OU    O1  898   3.141   3.591   3.768
    2V3OU    C9  899   3.299   3.420   3.796
    2V3OU    C7  900   3.406   3.503   3.765
    2V3OU    O9  901   3.387   3.613   3.684
    2V3OU   H25  902   3.291   3.626   3.679
    2V3OU   C17  903   2.830   3.324   3.816
    2V3OU    H7  904   2.730   3.354   3.784
    2V3OU   C18  905   2.853   3.214   3.898
    2V3OU    H8  906   2.789   3.171   3.977
    3SOL     OW  907   2.916   4.500   5.954
    3SOL    HW1  908   2.828   4.536   5.924
    3SOL    HW2  909   2.953   4.440   5.883
    4SOL     OW  910   6.342   6.917   6.588
    4SOL    HW1  911   6.375   6.864   6.511
    4SOL    HW2  912   6.411   6.986   6.613
    5SOL     OW  913   4.685   2.077   2.723
    5SOL    HW1  914   4.756   2.007   2.709
    5SOL    HW2  915   4.609   2.061   2.661
    6SOL     OW  916   4.879   1.802   2.306
    6SOL    HW1  917   4.858   1.774   2.212
    6SOL    HW2  918   4.794   1.821   2.355
    7SOL     OW  919   0.770   3.811   4.220
    7SOL    HW1  920   0.843   3.773   4.163
    7SOL    HW2  921   0.781   3.778   4.314
    8SOL     OW  922   2.886   2.047   5.249
    8SOL    HW1  923   2.919   1.972   5.306
    8SOL    HW2  924   2.929   2.132   5.278
    9SOL     OW  925   5.900   2.303   6.048
    9SOL    HW1  926   5.838   2.279   5.973
    9SOL    HW2  927   5.955   2.382   6.021
   10SOL     OW  928   3.012   4.853   4.589
   10SOL    HW1  929   3.105   4.823   4.613
   10SOL    HW2  930   2.953   4.842   4.669
   11SOL     OW  931   1.972   1.336   6.196
   11SOL    HW1  932   2.070   1.313   6.202
   11SOL    HW2  933   1.918   1.254   6.215
   12SOL     OW  934   2.807   4.778   3.880
   12SOL    HW1  935   2.763   4.694   3.911
   12SOL    HW2  936   2.905   4.774   3.900
   13SOL     OW  937   4.108   6.358   3.571
   13SOL    HW1  938   4.174   6.384   3.501
   13SOL    HW2  939   4.050   6.436   3.593
   14SOL     OW  940   3.786   4.312   6.326
   14SOL    HW1  941   3.750   4.287   6.416
   14SOL    HW2  942   3.851   4.242   6.295
   15SOL     OW  943   0.755   6.746   6.861
   15SOL    HW1  944   0.672   6.698   6.832
   15SOL    HW2  945   0.763   6.831   6.809
   16SOL     OW  946   5.582   2.778   6.788
   16SOL    HW1  947   5.627   2.763   6.700
   16SOL    HW2  948   5.489   2.742   6.783
   17SOL     OW  949   4.711   0.187   6.359
   17SOL    HW1  950   4.719   0.177   6.458
   17SOL    HW2  951   4.702   0.096   6.317
   18SOL     OW  952   3.606   0.785   4.603
   18SOL    HW1  953   3.627   0.790   4.701
   18SOL    HW2  954   3.516   0.823   4.586
   19SOL     OW  955   0.473   2.456   2.179
   19SOL    HW1  956   0.413   2.521   2.133
   19SOL    HW2  957   0.555   2.504   2.211
   20SOL     OW  958   5.065   2.266   5.470
   20SOL    HW1  959   5.136   2.218   5.417
   20SOL    HW2  960   5.010   2.323   5.408
   21SOL     OW  961   2.714   0.700   3.158
   21SOL    HW1  962   2.682   0.753   3.081
   21SOL    HW2  963   2.792   0.746   3.201
   22SOL     OW  964   1.208   6.594   0.547
   22SOL    HW1  965   1.233   6.505   0.583
   22SOL    HW2  966   1.247   6.605   0.455
   23SOL     OW  967   3.927   5.247   2.523
   23SOL    HW1  968   3.945   5.159   2.566
   23SOL    HW2  969   3.836   5.245   2.480
   24SOL     OW  970   3.622   0.656   2.491
   24SOL    HW1  971   3.718   0.640   2.469
   24SOL    HW2  972   3.598   0.604   2.573
   25SOL     OW  973   1.965   0.232   3.889
   25SOL    HW1  974   1.978   0.316   3.943
   25SOL    HW2  975   1.920   0.255   3.803
   26SOL     OW  976   6.741   2.059   6.758
   26SOL    HW1  977   6.779   2.149   6.735
   26SOL    HW2  978   6.704   2.061   6.851
   27SOL     OW  979   1.918   1.305   2.320
   27SOL    HW1  980   1.870   1.285   2.406
   27SOL    HW2  981   1.860   1.359   2.260
   28SOL     OW  982   0.491   0.743   4.824
   28SOL    HW1  983   0.555   0.811   4.859
   28SOL    HW2  984   0.471   0.763   4.727
   29SOL     OW  985   6.866   0.856   1.126
   29SOL    HW1  986   6.835   0.766   1.156
   29SOL    HW2  987   6.913   0.848   1.038
   30SOL     OW  988   4.794   0.258   5.355
   30SOL    HW1  989   4.763   0.334   5.298
   30SOL    HW2  990   4.886   0.277   5.389
   31SOL     OW  991   0.704   2.208   5.670
   31SOL    HW1  992   0.718   2.274   5.597
   31SOL    HW2  993   0.711   2.115   5.632
   32SOL     OW  994   1.462   1.868   2.190
   32SOL    HW1  995   1.475   1.770   2.173
   32SOL    HW2  996   1.546   1.907   2.228
   33SOL     OW  997   0.971   4.732   5.176
   33SOL    HW1  998   0.983   4.794   5.098
   33SOL    HW2  999   0.965   4.786   5.260
   34SOL     OW 1000   2.709   5.504   5.142
   34SOL    HW1 1001   2.727   5.496   5.044
   34SOL    HW2 1002   2.702   5.412   5.182
   35SOL     OW 1003   4.188   2.255   5.465
   35SOL    HW1 1004   4.127   2.224   5.538
   35SOL    HW2 1005   4.215   2.349   5.483
   36SOL     OW 1006   4.760   1.476   3.913
   36SOL    HW1 1007   4.765   1.473   4.012
   36SOL    HW2 1008   4.812   1.555   3.879
   37SOL     OW 1009   1.629   2.080   5.092
   37SOL    HW1 1010   1.695   2.076   5.167
   37SOL    HW2 1011   1.540   2.109   5.128
   38SOL     OW 1012   1.786   4.305   1.721
   38SOL    HW1 1013   1.702   4.259   1.749
   38SOL    HW2 1014   1.847   4.314   1.800
   39SOL     OW 1015   5.800   5.089   6.183
   39SOL    HW1 1016   5.761   4.999   6.203
   39SOL    HW2 1017   5.866   5.080   6.108
   40SOL     OW 1018   3.551   2.015   0.036
   40SOL    HW1 1019   3.538   2.114   0.029
   40SOL    HW2 1020   3.646   1.996   0.062
   41SOL     OW 1021   6.001   3.635   2.916
   41SOL    HW1 1022   5.941   3.595   2.985
   41SOL    HW2 1023   6.063   3.565   2.880
   42SOL     OW 1024   3.240   6.177   4.670
   42SOL    HW1 1025   3.250   6.117   4.749
   42SOL    HW2 1026   3.257   6.272   4.699
   43SOL     OW 1027   4.377   0.590   5.670
   43SOL    HW1 1028   4.467   0.560   5.636
   43SOL    HW2 1029   4.331   0.513   5.714
   44SOL     OW 1030   5.623   2.217   5.079
   44SOL    HW1 1031   5.610   2.287   5.149
   44SOL    HW2 1032   5.720   2.204   5.061
   45SOL     OW 1033   4.189   5.440   1.779
   45SOL    HW1 1034   4.222   5.346   1.784
   45SOL    HW2 1035   4.247   5.499   1.835
   46SOL     OW 1036   1.317   2.272   3.962
   46SOL    HW1 1037   1.329   2.176   3.936
   46SOL    HW2 1038   1.391   2.327   3.923
   47SOL     OW 1039   3.923   4.349   1.440
   47SOL    HW1 1040   3.967   4.390   1.360
   47SOL    HW2 1041   3.827   4.331   1.421
   48SOL     OW 1042   6.556   2.252   6.846
   48SOL    HW1 1043   6.609   2.244   6.931
   48SOL    HW2 1044   6.618   2.273   6.770
   49SOL     OW 1045   5.782   2.470   1.682
   49SOL    HW1 1046   5.823   2.556   1.654
   49SOL    HW2 1047   5.695   2.488   1.729
   50SOL     OW 1048   6.160   1.481   5.621
   50SOL    HW1 1049   6.169   1.573   5.583
   50SOL    HW2 1050   6.097   1.427   5.565
   51SOL     OW 1051   2.189   6.442   2.582
   51SOL    HW1 1052   2.236   6.526   2.605
   51SOL    HW2 1053   2.255   6.367   2.576
   52SOL     OW 1054   5.422   3.098   1.830
   52SOL    HW1 1055   5.505   3.103   1.775
   52SOL    HW2 1056   5.349   3.149   1.784
   53SOL     OW 1057   5.511   0.428   3.394
   53SOL    HW1 1058   5.444   0.354   3.389
   53SOL    HW2 1059   5.571   0.414   3.472
   54SOL     OW 1060   5.426   6.846   0.712
   54SOL    HW1 1061   5.520   6.877   0.728
   54SOL    HW2 1062   5.416   6.752   0.745
   55SOL     OW 1063   2.218   2.425   5.065
   55SOL    HW1 1064   2.136   2.445   5.011
   55SOL    HW2 1065   2.205   2.456   5.159
   56SOL     OW 1066   1.191   1.464   1.193
   56SOL    HW1 1067   1.157   1.380   1.235
   56SOL    HW2 1068   1.281   1.448   1.153
   57SOL     OW 1069   3.714   1.390   0.774
   57SOL    HW1 1070   3.650   1.340   0.832
   57SOL    HW2 1071   3.688   1.376   0.678
   58SOL     OW 1072   0.671   6.461   5.836
   58SOL    HW1 1073   0.689   6.462   5.738
   58SOL    HW2 1074   0.633   6.372   5.862
   59SOL     OW 1075   6.954   3.713   6.055
   59SOL    HW1 1076   6.877   3.772   6.081
   59SOL    HW2 1077   6.944   3.624   6.100
   60SOL     OW 1078   4.904   2.512   3.846
   60SOL    HW1 1079   4.859   2.598   3.820
   60SOL    HW2 1080   4.843   2.435   3.824
   61SOL     OW 1081   6.800   1.134   4.801
   61SOL    HW1 1082   6.746   1.075   4.741
   61SOL    HW2 1083   6.760   1.134   4.893
   62SOL     OW 1084   2.014   1.162   1.931
   62SOL    HW1 1085   2.101   1.131   1.893
   62SOL    HW2 1086   1.981   1.240   1.878
   63SOL     OW 1087   4.287   0.428   3.487
   63SOL    HW1 1088   4.253   0.443   3.580
   63SOL    HW2 1089   4.219   0.377   3.435
   64SOL     OW 1090   0.654   3.147   6.558
   64SOL    HW1 1091   0.748   3.151   6.524
   64SOL    HW2 1092   0.644   3.066   6.616
   65SOL     OW 1093   1.298   6.281   5.851
   65SOL    HW1 1094   1.284   6.228   5.768
   65SOL    HW2 1095   1.220   6.342   5.866
   66SOL     OW 1096   3.226   0.473   3.444
   66SOL    HW1 1097   3.186   0.553   3.487
   66SOL    HW2 1098   3.261   0.497   3.353
   67SOL     OW 1099   0.591   3.392   6.323
   67SOL    HW1 1100   0.521   3.386   6.394
   67SOL    HW2 1101   0.681   3.369   6.362
   68SOL     OW 1102   0.021   1.820   6.284
   68SOL    HW1 1103   0.002   1.903   6.232
   68SOL    HW2 1104   6.958   1.771   6.301
   69SOL     OW 1105   1.765   3.176   4.858
   69SOL    HW1 1106   1.849   3.178   4.912
   69SOL    HW2 1107   1.749   3.265   4.817
   70SOL     OW 1108   5.452   5.128   4.772
   70SOL    HW1 1109   5.525   5.175   4.724
   70SOL    HW2 1110   5.432   5.175   4.858
   71SOL     OW 1111   4.771   1.367   3.419
   71SOL    HW1 1112   4.819   1.281   3.402
   71SOL    HW2 1113   4.684   1.367   3.370
   72SOL     OW 1114   0.627   1.480   3.009
   72SOL    HW1 1115   0.561   1.445   2.943
   72SOL    HW2 1116   0.610   1.577   3.027
   73SOL     OW 1117   3.083   0.547   1.149
   73SOL    HW1 1118   3.096   0.646   1.144
   73SOL    HW2 1119   3.030   0.516   1.070
   74SOL     OW 1120   2.959   1.376   6.343
   74SOL    HW1 1121   3.037   1.374   6.281
   74SOL    HW2 1122   2.910   1.463   6.333
   75SOL     OW 1123   3.856   1.270   1.643
   75SOL    HW1 1124   3.830   1.362   1.612
   75SOL    HW2 1125   3.815   1.254   1.733
   76SOL     OW 1126   2.421   3.489   6.156
   76SOL    HW1 1127   2.497   3.544   6.122
   76SOL    HW2 1128   2.454   3.398   6.180
   77SOL     OW 1129   1.734   5.867   3.217
   77SOL    HW1 1130   1.641   5.846   3.250
   77SOL    HW2 1131   1.793   5.887   3.295
   78SOL     OW 1132   4.081   1.526   1.318
   78SOL    HW1 1133   4.158   1.495   1.262
   78SOL    HW2 1134   4.108   1.527   1.414
   79SOL     OW 1135   2.795   5.961   1.376
   79SOL    HW1 1136   2.797   5.980   1.277
   79SOL    HW2 1137   2.701   5.962   1.408
   80SOL     OW 1138   4.540   1.537   4.432
   80SOL    HW1 1139   4.473   1.474   4.472
   80SOL    HW2 1140   4.503   1.574   4.346
   81SOL     OW 1141   1.749   6.580   1.544
   81SOL    HW1 1142   1.744   6.654   1.477
   81SOL    HW2 1143   1.741   6.617   1.636
   82SOL     OW 1144   6.736   5.678   0.984
   82SOL    HW1 1145   6.722   5.582   0.957
   82SOL    HW2 1146   6.829   5.689   1.020
   83SOL     OW 1147   1.134   0.933   6.526
   83SOL    HW1 1148   1.080   0.996   6.470
   83SOL    HW2 1149   1.096   0.841   6.520
   84SOL     OW 1150   5.910   4.425   3.431
   84SOL    HW1 1151   6.005   4.455   3.435
   84SOL    HW2 1152   5.896   4.350   3.496
   85SOL     OW 1153   1.378   1.044   3.512
   85SOL    HW1 1154   1.346   1.010   3.424
   85SOL    HW2 1155   1.342   1.136   3.528
   86SOL     OW 1156   0.059   1.083   6.526
   86SOL    HW1 1157   0.027   1.134   6.606
   86SOL    HW2 1158   0.138   1.129   6.486
   87SOL     OW 1159   3.747   3.995   0.540
   87SOL    HW1 1160   3.755   3.904   0.579
   87SOL    HW2 1161   3.829   4.048   0.560
   88SOL     OW 1162   3.215   2.313   6.559
   88SOL    HW1 1163   3.183   2.307   6.464
   88SOL    HW2 1164   3.283   2.385   6.567
   89SOL     OW 1165   3.506   3.597   0.403
   89SOL    HW1 1166   3.425   3.555   0.362
   89SOL    HW2 1167   3.483   3.634   0.493
   90SOL     OW 1168   4.150   4.774   2.290
   90SOL    HW1 1169   4.236   4.725   2.298
   90SOL    HW2 1170   4.079   4.727   2.342
   91SOL     OW 1171   5.692   4.852   6.220
   91SOL    HW1 1172   5.672   4.794   6.141
   91SOL    HW2 1173   5.651   4.811   6.302
   92SOL     OW 1174   4.987   4.111   0.389
   92SOL    HW1 1175   5.000   4.199   0.345
   92SOL    HW2 1176   4.906   4.066   0.351
   93SOL     OW 1177   3.030   3.683   0.180
   93SOL    HW1 1178   3.000   3.722   0.093
   93SOL    HW2 1179   2.966   3.613   0.209
   94SOL     OW 1180   1.796   6.032   0.298
   94SOL    HW1 1181   1.848   6.041   0.383
   94SOL    HW2 1182   1.705   6.071   0.311
   95SOL     OW 1183   1.514   0.592   3.170
   95SOL    HW1 1184   1.522   0.619   3.265
   95SOL    HW2 1185   1.589   0.632   3.117
   96SOL     OW 1186   4.885   5.737   6.125
   96SOL    HW1 1187   4.825   5.804   6.169
   96SOL    HW2 1188   4.832   5.684   6.059
   97SOL     OW 1189   2.218   3.770   5.213
   97SOL    HW1 1190   2.269   3.853   5.192
   97SOL    HW2 1191   2.151   3.754   5.140
   98SOL     OW 1192   1.334   1.296   0.998
   98SOL    HW1 1193   1.288   1.331   0.917
   98SOL    HW2 1194   1.421   1.344   1.010
   99SOL     OW 1195   4.050   3.876   2.730
   99SOL    HW1 1196   4.034   3.800   2.668
   99SOL    HW2 1197   4.010   3.959   2.692
  100SOL     OW 1198   6.769   6.812   4.375
  100SOL    HW1 1199   6.761   6.912   4.379
  100SOL    HW2 1200   6.834   6.787   4.304
  101SOL     OW 1201   0.416   5.578   2.428
  101SOL    HW1 1202   0.407   5.664   2.479
  101SOL    HW2 1203   0.348   5.513   2.461
  102SOL     OW 1204   3.590   6.036   2.098
  102SOL    HW1 1205   3.576   6.120   2.152
  102SOL    HW2 1206   3.516   5.972   2.117
  103SOL     OW 1207   1.571   2.120   2.732
  103SOL    HW1 1208   1.511   2.095   2.657
  103SOL    HW2 1209   1.557   2.217   2.755
  104SOL     OW 1210   1.650   4.891   1.833
  104SOL    HW1 1211   1.667   4.988   1.848
  104SOL    HW2 1212   1.555   4.877   1.806
  105SOL     OW 1213   5.663   1.566   5.986
  105SOL    HW1 1214   5.680   1.490   6.049
  105SOL    HW2 1215   5.714   1.551   5.901
  106SOL     OW 1216   4.148   6.175   2.969
  106SOL    HW1 1217   4.218   6.141   3.033
  106SOL    HW2 1218   4.083   6.101   2.949
  107SOL     OW 1219   0.228   0.883   6.867
  107SOL    HW1 1220   0.204   0.833   6.951
  107SOL    HW2 1221   0.163   0.859   6.795
  108SOL     OW 1222   3.727   6.967   5.727
  108SOL    HW1 1223   3.633   6.986   5.754
  108SOL    HW2 1224   3.773   0.030   5.703
  109SOL     OW 1225   2.657   0.639   2.501
  109SOL    HW1 1226   2.666   0.618   2.598
  109SOL    HW2 1227   2.739   0.609   2.452
  110SOL     OW 1228   2.622   5.228   4.407
  110SOL    HW1 1229   2.641   5.200   4.312
  110SOL    HW2 1230   2.596   5.324   4.409
  111SOL     OW 1231   1.875   1.407   3.092
  111SOL    HW1 1232   1.877   1.504   3.067
  111SOL    HW2 1233   1.791   1.388   3.142
  112SOL     OW 1234   5.213   6.595   0.173
  112SOL    HW1 1235   5.159   6.616   0.254
  112SOL    HW2 1236   5.243   6.680   0.130
  113SOL     OW 1237   0.507   6.080   2.794
  113SOL    HW1 1238   0.570   6.011   2.828
  113SOL    HW2 1239   0.499   6.073   2.694
  114SOL     OW 1240   1.640   6.010   1.887
  114SOL    HW1 1241   1.642   5.912   1.866
  114SOL    HW2 1242   1.560   6.051   1.843
  115SOL     OW 1243   5.577   0.718   3.132
  115SOL    HW1 1244   5.668   0.677   3.125
  115SOL    HW2 1245   5.554   0.731   3.229
  116SOL     OW 1246   0.100   5.556   1.316
  116SOL    HW1 1247   0.183   5.508   1.287
  116SOL    HW2 1248   0.125   5.629   1.380
  117SOL     OW 1249   1.820   0.889   0.621
  117SOL    HW1 1250   1.897   0.882   0.684
  117SOL    HW2 1251   1.798   0.798   0.586
  118SOL     OW 1252   1.769   2.413   2.724
  118SOL    HW1 1253   1.793   2.440   2.818
  118SOL    HW2 1254   1.802   2.320   2.707
  119SOL     OW 1255   0.193   0.255   6.708
  119SOL    HW1 1256   0.147   0.320   6.768
  119SOL    HW2 1257   0.239   0.185   6.764
  120SOL     OW 1258   5.227   7.020   4.282
  120SOL    HW1 1259   5.161   6.991   4.213
  120SOL    HW2 1260   5.202   0.088   4.316
  121SOL     OW 1261   1.340   4.070   0.297
  121SOL    HW1 1262   1.268   4.135   0.273
  121SOL    HW2 1263   1.326   3.985   0.245
  122SOL     OW 1264   1.532   3.486   0.089
  122SOL    HW1 1265   1.509   3.429   0.010
  122SOL    HW2 1266   1.557   3.577   0.057
  123SOL     OW 1267   0.974   1.124   2.358
  123SOL    HW1 1268   1.035   1.189   2.314
  123SOL    HW2 1269   0.906   1.092   2.292
  124SOL     OW 1270   3.152   2.170   0.672
  124SOL    HW1 1271   3.225   2.231   0.643
  124SOL    HW2 1272   3.083   2.222   0.723
  125SOL     OW 1273   3.314   2.413   0.606
  125SOL    HW1 1274   3.312   2.372   0.515
  125SOL    HW2 1275   3.392   2.377   0.657
  126SOL     OW 1276   3.835   3.105   3.035
  126SOL    HW1 1277   3.802   3.032   2.975
  126SOL    HW2 1278   3.907   3.156   2.987
  127SOL     OW 1279   6.756   6.354   6.108
  127SOL    HW1 1280   6.839   6.321   6.063
  127SOL    HW2 1281   6.698   6.401   6.041
  128SOL     OW 1282   5.247   3.272   1.628
  128SOL    HW1 1283   5.222   3.333   1.704
  128SOL    HW2 1284   5.187   3.290   1.550
  129SOL     OW 1285   2.956   4.199   0.588
  129SOL    HW1 1286   2.968   4.270   0.656
  129SOL    HW2 1287   3.023   4.126   0.602
  130SOL     OW 1288   6.364   0.612   5.010
  130SOL    HW1 1289   6.266   0.627   5.028
  130SOL    HW2 1290   6.412   0.699   5.010
  131SOL     OW 1291   5.841   0.780   4.181
  131SOL    HW1 1292   5.914   0.849   4.186
  131SOL    HW2 1293   5.780   0.790   4.260
  132SOL     OW 1294   3.287   3.178   1.548
  132SOL    HW1 1295   3.268   3.080   1.553
  132SOL    HW2 1296   3.357   3.195   1.479
  133SOL     OW 1297   5.289   1.497   3.977
  133SOL    HW1 1298   5.337   1.415   3.944
  133SOL    HW2 1299   5.241   1.476   4.062
  134SOL     OW 1300   0.584   0.070   2.633
  134SOL    HW1 1301   0.604   6.997   2.612
  134SOL    HW2 1302   0.644   0.101   2.707
  135SOL     OW 1303   5.105   3.475   4.079
  135SOL    HW1 1304   5.154   3.390   4.060
  135SOL    HW2 1305   5.012   3.454   4.110
  136SOL     OW 1306   2.065   6.265   4.723
  136SOL    HW1 1307   2.046   6.339   4.658
  136SOL    HW2 1308   2.100   6.304   4.808
  137SOL     OW 1309   4.646   0.976   4.447
  137SOL    HW1 1310   4.681   1.029   4.369
  137SOL    HW2 1311   4.684   0.884   4.443
  138SOL     OW 1312   0.735   4.533   3.241
  138SOL    HW1 1313   0.708   4.604   3.305
  138SOL    HW2 1314   0.815   4.485   3.277
  139SOL     OW 1315   2.433   5.772   5.978
  139SOL    HW1 1316   2.479   5.850   6.021
  139SOL    HW2 1317   2.499   5.700   5.959
  140SOL     OW 1318   1.530   6.652   2.831
  140SOL    HW1 1319   1.509   6.654   2.929
  140SOL    HW2 1320   1.615   6.702   2.814
  141SOL     OW 1321   6.838   2.449   6.444
  141SOL    HW1 1322   6.859   2.546   6.428
  141SOL    HW2 1323   6.830   2.433   6.542
  142SOL     OW 1324   2.099   3.712   1.971
  142SOL    HW1 1325   2.128   3.617   1.976
  142SOL    HW2 1326   2.180   3.771   1.965
  143SOL     OW 1327   5.864   5.692   1.087
  143SOL    HW1 1328   5.904   5.759   1.150
  143SOL    HW2 1329   5.768   5.678   1.109
  144SOL     OW 1330   2.563   4.871   4.695
  144SOL    HW1 1331   2.499   4.802   4.730
  144SOL    HW2 1332   2.514   4.934   4.636
  145SOL     OW 1333   1.485   5.234   1.775
  145SOL    HW1 1334   1.580   5.210   1.755
  145SOL    HW2 1335   1.459   5.196   1.864
  146SOL     OW 1336   5.042   1.300   6.003
  146SOL    HW1 1337   5.074   1.252   5.921
  146SOL    HW2 1338   5.114   1.360   6.036
  147SOL     OW 1339   4.901   1.750   5.606
  147SOL    HW1 1340   4.863   1.673   5.658
  147SOL    HW2 1341   4.962   1.803   5.665
  148SOL     OW 1342   0.715   5.583   1.729
  148SOL    HW1 1343   0.740   5.499   1.680
  148SOL    HW2 1344   0.622   5.611   1.701
  149SOL     OW 1345   3.352   1.896   4.817
  149SOL    HW1 1346   3.312   1.963   4.879
  149SOL    HW2 1347   3.288   1.880   4.741
  150SOL     OW 1348   4.537   0.108   5.998
  150SOL    HW1 1349   4.635   0.094   5.981
  150SOL    HW2 1350   4.525   0.166   6.079
  151SOL     OW 1351   3.790   0.924   1.778
  151SOL    HW1 1352   3.747   0.864   1.846
  151SOL    HW2 1353   3.883   0.892   1.760
  152SOL     OW 1354   6.601   1.351   0.318
  152SOL    HW1 1355   6.608   1.422   0.389
  152SOL    HW2 1356   6.679   1.289   0.324
  153SOL     OW 1357   2.883   0.444   3.199
  153SOL    HW1 1358   2.798   0.445   3.146
  153SOL    HW2 1359   2.872   0.502   3.280
  154SOL     OW 1360   6.773   2.961   0.649
  154SOL    HW1 1361   6.855   3.018   0.651
  154SOL    HW2 1362   6.749   2.934   0.742
  155SOL     OW 1363   1.017   6.919   2.520
  155SOL    HW1 1364   0.941   6.952   2.463
  155SOL    HW2 1365   1.058   6.839   2.476
  156SOL     OW 1366   6.077   1.255   0.257
  156SOL    HW1 1367   6.145   1.290   0.192
  156SOL    HW2 1368   6.014   1.329   0.281
  157SOL     OW 1369   5.365   3.362   0.658
  157SOL    HW1 1370   5.358   3.445   0.602
  157SOL    HW2 1371   5.460   3.331   0.660
  158SOL     OW 1372   1.877   2.104   1.020
  158SOL    HW1 1373   1.778   2.092   1.013
  158SOL    HW2 1374   1.897   2.197   1.051
  159SOL     OW 1375   4.365   5.144   1.014
  159SOL    HW1 1376   4.437   5.194   1.062
  159SOL    HW2 1377   4.312   5.091   1.080
  160SOL     OW 1378   6.336   0.052   1.223
  160SOL    HW1 1379   6.405   7.001   1.228
  160SOL    HW2 1380   6.257   0.019   1.171
  161SOL     OW 1381   1.887   0.007   2.117
  161SOL    HW1 1382   1.835   0.083   2.078
  161SOL    HW2 1383   1.843   6.998   2.201
  162SOL     OW 1384   3.048   0.042   0.209
  162SOL    HW1 1385   3.127   0.038   0.270
  162SOL    HW2 1386   3.048   6.984   0.150
  163SOL     OW 1387   0.214   5.159   2.784
  163SOL    HW1 1388   0.183   5.222   2.855
  163SOL    HW2 1389   0.306   5.127   2.807
  164SOL     OW 1390   0.887   2.970   2.668
  164SOL    HW1 1391   0.875   2.943   2.763
  164SOL    HW2 1392   0.941   3.054   2.663
  165SOL     OW 1393   6.017   5.241   0.314
  165SOL    HW1 1394   5.937   5.288   0.351
  165SOL    HW2 1395   5.990   5.153   0.275
  166SOL     OW 1396   6.456   3.394   2.058
  166SOL    HW1 1397   6.378   3.331   2.055
  166SOL    HW2 1398   6.460   3.438   2.147
  167SOL     OW 1399   6.172   1.523   6.142
  167SOL    HW1 1400   6.125   1.436   6.158
  167SOL    HW2 1401   6.161   1.550   6.047
  168SOL     OW 1402   4.058   1.779   1.702
  168SOL    HW1 1403   4.081   1.696   1.652
  168SOL    HW2 1404   3.964   1.774   1.735
  169SOL     OW 1405   5.848   2.879   0.061
  169SOL    HW1 1406   5.792   2.830   0.128
  169SOL    HW2 1407   5.899   2.814   0.005
  170SOL     OW 1408   6.788   6.020   2.584
  170SOL    HW1 1409   6.815   5.959   2.509
  170SOL    HW2 1410   6.866   6.074   2.613
  171SOL     OW 1411   1.893   3.413   0.006
  171SOL    HW1 1412   1.839   3.457   6.956
  171SOL    HW2 1413   1.862   3.446   0.095
  172SOL     OW 1414   6.261   2.460   2.464
  172SOL    HW1 1415   6.260   2.368   2.504
  172SOL    HW2 1416   6.354   2.483   2.436
  173SOL     OW 1417   5.759   0.865   4.714
  173SOL    HW1 1418   5.668   0.840   4.681
  173SOL    HW2 1419   5.766   0.965   4.720
  174SOL     OW 1420   4.646   4.945   4.455
  174SOL    HW1 1421   4.649   4.948   4.355
  174SOL    HW2 1422   4.700   5.021   4.492
  175SOL     OW 1423   3.566   1.216   1.466
  175SOL    HW1 1424   3.650   1.270   1.459
  175SOL    HW2 1425   3.581   1.138   1.527
  176SOL     OW 1426   4.904   4.508   2.783
  176SOL    HW1 1427   4.897   4.409   2.786
  176SOL    HW2 1428   4.812   4.548   2.791
  177SOL     OW 1429   5.170   2.400   5.109
  177SOL    HW1 1430   5.097   2.439   5.164
  177SOL    HW2 1431   5.135   2.373   5.019
  178SOL     OW 1432   3.362   5.054   4.786
  178SOL    HW1 1433   3.371   4.987   4.859
  178SOL    HW2 1434   3.270   5.092   4.786
  179SOL     OW 1435   4.133   6.971   6.803
  179SOL    HW1 1436   4.214   7.013   6.763
  179SOL    HW2 1437   4.133   6.986   6.902
  180SOL     OW 1438   2.696   6.915   0.774
  180SOL    HW1 1439   2.674   6.985   0.842
  180SOL    HW2 1440   2.759   6.953   0.706
  181SOL     OW 1441   3.445   2.985   5.996
  181SOL    HW1 1442   3.435   2.890   5.969
  181SOL    HW2 1443   3.355   3.025   6.014
  182SOL     OW 1444   4.622   2.623   6.860
  182SOL    HW1 1445   4.644   2.579   6.946
  182SOL    HW2 1446   4.523   2.634   6.852
  183SOL     OW 1447   4.172   2.312   3.322
  183SOL    HW1 1448   4.170   2.295   3.421
  183SOL    HW2 1449   4.173   2.410   3.305
  184SOL     OW 1450   0.531   6.575   3.984
  184SOL    HW1 1451   0.499   6.639   4.054
  184SOL    HW2 1452   0.543   6.624   3.898
  185SOL     OW 1453   1.088   1.134   3.966
  185SOL    HW1 1454   0.995   1.169   3.982
  185SOL    HW2 1455   1.151   1.177   4.031
  186SOL     OW 1456   5.495   7.003   4.272
  186SOL    HW1 1457   5.533   0.002   4.362
  186SOL    HW2 1458   5.398   0.003   4.271
  187SOL     OW 1459   5.287   6.409   2.294
  187SOL    HW1 1460   5.347   6.481   2.330
  187SOL    HW2 1461   5.343   6.337   2.253
  188SOL     OW 1462   0.861   2.656   3.677
  188SOL    HW1 1463   0.788   2.724   3.670
  188SOL    HW2 1464   0.832   2.583   3.739
  189SOL     OW 1465   1.093   4.797   6.848
  189SOL    HW1 1466   1.032   4.746   6.787
  189SOL    HW2 1467   1.185   4.758   6.841
  190SOL     OW 1468   5.980   4.420   6.779
  190SOL    HW1 1469   5.921   4.463   6.712
  190SOL    HW2 1470   6.067   4.394   6.736
  191SOL     OW 1471   6.337   1.287   5.678
  191SOL    HW1 1472   6.387   1.274   5.763
  191SOL    HW2 1473   6.278   1.368   5.686
  192SOL     OW 1474   6.964   5.044   1.600
  192SOL    HW1 1475   6.967   4.949   1.569
  192SOL    HW2 1476   0.004   5.099   1.544
  193SOL     OW 1477   5.397   3.794   4.985
  193SOL    HW1 1478   5.312   3.824   4.942
  193SOL    HW2 1479   5.378   3.716   5.045
  194SOL     OW 1480   3.860   6.364   3.183
  194SOL    HW1 1481   3.819   6.436   3.239
  194SOL    HW2 1482   3.916   6.304   3.241
  195SOL     OW 1483   1.687   1.033   3.340
  195SOL    HW1 1484   1.688   0.937   3.369
  195SOL    HW2 1485   1.692   1.038   3.240
  196SOL     OW 1486   3.468   6.923   0.134
  196SOL    HW1 1487   3.494   7.013   0.171
  196SOL    HW2 1488   3.528   6.900   0.057
  197SOL     OW 1489   2.884   6.480   0.173
  197SOL    HW1 1490   2.857   6.498   0.267
  197SOL    HW2 1491   2.976   6.440   0.171
  198SOL     OW 1492   4.870   6.810   1.252
  198SOL    HW1 1493   4.963   6.845   1.259
  198SOL    HW2 1494   4.806   6.879   1.286
  199SOL     OW 1495   6.378   1.158   2.886
  199SOL    HW1 1496   6.328   1.241   2.860
  199SOL    HW2 1497   6.475   1.180   2.898
  200SOL     OW 1498   1.131   4.168   2.617
  200SOL    HW1 1499   1.061   4.227   2.656
  200SOL    HW2 1500   1.140   4.085   2.673
  201SOL     OW 1501   3.700   6.597   5.743
  201SOL    HW1 1502   3.664   6.649   5.665
  201SOL    HW2 1503   3.785   6.553   5.717
  202SOL     OW 1504   5.158   0.657   5.144
  202SOL    HW1 1505   5.081   0.595   5.162
  202SOL    HW2 1506   5.123   0.745   5.112
  203SOL     OW 1507   4.781   2.190   4.840
  203SOL    HW1 1508   4.838   2.112   4.868
  203SOL    HW2 1509   4.685   2.162   4.838
  204SOL     OW 1510   0.927   0.432   6.541
  204SOL    HW1 1511   0.891   0.440   6.634
  204SOL    HW2 1512   0.852   0.430   6.475
  205SOL     OW 1513   0.702   1.317   2.120
  205SOL    HW1 1514   0.617   1.265   2.118
  205SOL    HW2 1515   0.743   1.317   2.028
  206SOL     OW 1516   0.290   4.721   2.767
  206SOL    HW1 1517   0.283   4.624   2.744
  206SOL    HW2 1518   0.358   4.765   2.710
  207SOL     OW 1519   3.819   0.463   5.081
  207SOL    HW1 1520   3.856   0.469   5.173
  207SOL    HW2 1521   3.721   0.485   5.082
  208SOL     OW 1522   4.820   3.592   6.176
  208SOL    HW1 1523   4.816   3.551   6.084
  208SOL    HW2 1524   4.878   3.536   6.235
  209SOL     OW 1525   1.389   5.652   5.879
  209SOL    HW1 1526   1.367   5.623   5.786
  209SOL    HW2 1527   1.362   5.580   5.943
  210SOL     OW 1528   4.083   1.977   2.139
  210SOL    HW1 1529   4.081   2.070   2.104
  210SOL    HW2 1530   3.994   1.954   2.179
  211SOL     OW 1531   0.998   6.515   3.967
  211SOL    HW1 1532   0.917   6.557   3.927
  211SOL    HW2 1533   0.972   6.431   4.015
  212SOL     OW 1534   2.199   4.325   2.280
  212SOL    HW1 1535   2.180   4.265   2.358
  212SOL    HW2 1536   2.279   4.381   2.299
  213SOL     OW 1537   4.069   0.684   6.606
  213SOL    HW1 1538   4.122   0.758   6.565
  213SOL    HW2 1539   4.013   0.721   6.680
  214SOL     OW 1540   3.129   6.212   2.455
  214SOL    HW1 1541   3.182   6.150   2.513
  214SOL    HW2 1542   3.045   6.166   2.426
  215SOL     OW 1543   2.971   3.957   1.739
  215SOL    HW1 1544   2.900   3.972   1.671
  215SOL    HW2 1545   2.990   3.859   1.747
  216SOL     OW 1546   1.607   6.882   5.070
  216SOL    HW1 1547   1.595   6.851   5.164
  216SOL    HW2 1548   1.656   6.969   5.069
  217SOL     OW 1549   2.092   2.730   4.684
  217SOL    HW1 1550   2.011   2.787   4.700
  217SOL    HW2 1551   2.161   2.750   4.753
  218SOL     OW 1552   1.036   2.984   5.015
  218SOL    HW1 1553   0.991   2.972   5.104
  218SOL    HW2 1554   1.109   2.916   5.006
  219SOL     OW 1555   3.345   6.154   6.164
  219SOL    HW1 1556   3.405   6.199   6.098
  219SOL    HW2 1557   3.269   6.215   6.187
  220SOL     OW 1558   3.042   5.954   6.715
  220SOL    HW1 1559   2.962   6.006   6.686
  220SOL    HW2 1560   3.020   5.903   6.799
  221SOL     OW 1561   6.185   4.031   2.498
  221SOL    HW1 1562   6.100   3.990   2.529
  221SOL    HW2 1563   6.166   4.115   2.448
  222SOL     OW 1564   2.174   4.647   5.639
  222SOL    HW1 1565   2.241   4.675   5.708
  222SOL    HW2 1566   2.111   4.722   5.621
  223SOL     OW 1567   6.825   3.948   0.720
  223SOL    HW1 1568   6.786   3.876   0.776
  223SOL    HW2 1569   6.912   3.917   0.681
  224SOL     OW 1570   2.575   2.346   3.653
  224SOL    HW1 1571   2.612   2.370   3.743
  224SOL    HW2 1572   2.494   2.289   3.665
  225SOL     OW 1573   4.972   1.517   6.325
  225SOL    HW1 1574   5.054   1.568   6.299
  225SOL    HW2 1575   4.997   1.423   6.350
  226SOL     OW 1576   0.291   6.380   0.361
  226SOL    HW1 1577   0.341   6.457   0.322
  226SOL    HW2 1578   0.336   6.295   0.335
  227SOL     OW 1579   1.124   4.514   2.506
  227SOL    HW1 1580   1.121   4.436   2.444
  227SOL    HW2 1581   1.174   4.589   2.462
  228SOL     OW 1582   3.175   6.219   3.707
  228SOL    HW1 1583   3.075   6.220   3.720
  228SOL    HW2 1584   3.196   6.250   3.615
  229SOL     OW 1585   6.241   5.771   0.417
  229SOL    HW1 1586   6.204   5.692   0.367
  229SOL    HW2 1587   6.189   5.853   0.392
  230SOL     OW 1588   3.184   4.857   3.741
  230SOL    HW1 1589   3.275   4.893   3.758
  230SOL    HW2 1590   3.130   4.862   3.826
  231SOL     OW 1591   5.954   2.014   5.686
  231SOL    HW1 1592   5.912   2.102   5.663
  231SOL    HW2 1593   5.886   1.942   5.675
  232SOL     OW 1594   0.973   4.477   6.477
  232SOL    HW1 1595   0.940   4.551   6.417
  232SOL    HW2 1596   1.064   4.500   6.510
  233SOL     OW 1597   1.683   1.138   4.692
  233SOL    HW1 1598   1.620   1.143   4.769
  233SOL    HW2 1599   1.632   1.119   4.608
  234SOL     OW 1600   2.520   5.890   5.264
  234SOL    HW1 1601   2.480   5.830   5.334
  234SOL    HW2 1602   2.612   5.918   5.293
  235SOL     OW 1603   2.926   3.611   2.918
  235SOL    HW1 1604   2.909   3.657   2.831
  235SOL    HW2 1605   2.959   3.518   2.901
  236SOL     OW 1606   6.066   2.827   6.478
  236SOL    HW1 1607   6.102   2.875   6.558
  236SOL    HW2 1608   6.014   2.890   6.421
  237SOL     OW 1609   0.163   0.132   1.063
  237SOL    HW1 1610   0.232   0.101   0.998
  237SOL    HW2 1611   0.207   0.189   1.133
  238SOL     OW 1612   6.435   2.624   0.080
  238SOL    HW1 1613   6.487   2.661   0.003
  238SOL    HW2 1614   6.463   2.529   0.095
  239SOL     OW 1615   0.127   4.859   0.002
  239SOL    HW1 1616   0.092   4.942   6.983
  239SOL    HW2 1617   0.066   4.783   7.003
  240SOL     OW 1618   0.305   3.160   5.300
  240SOL    HW1 1619   0.222   3.114   5.267
  240SOL    HW2 1620   0.382   3.134   5.242
  241SOL     OW 1621   0.662   0.536   3.846
  241SOL    HW1 1622   0.603   0.527   3.765
  241SOL    HW2 1623   0.697   0.446   3.872
  242SOL     OW 1624   2.044   2.622   5.742
  242SOL    HW1 1625   2.104   2.676   5.683
  242SOL    HW2 1626   1.966   2.677   5.770
  243SOL     OW 1627   4.714   0.095   5.691
  243SOL    HW1 1628   4.684   0.188   5.708
  243SOL    HW2 1629   4.697   0.070   5.596
  244SOL     OW 1630   4.888   3.187   4.626
  244SOL    HW1 1631   4.914   3.242   4.706
  244SOL    HW2 1632   4.872   3.093   4.654
  245SOL     OW 1633   6.766   2.384   4.407
  245SOL    HW1 1634   6.731   2.469   4.370
  245SOL    HW2 1635   6.790   2.397   4.504
  246SOL     OW 1636   5.600   3.388   3.231
  246SOL    HW1 1637   5.570   3.309   3.178
  246SOL    HW2 1638   5.523   3.450   3.246
  247SOL     OW 1639   1.882   2.127   2.728
  247SOL    HW1 1640   1.825   2.162   2.802
  247SOL    HW2 1641   1.905   2.031   2.747
  248SOL     OW 1642   4.813   2.714   4.534
  248SOL    HW1 1643   4.873   2.781   4.579
  248SOL    HW2 1644   4.766   2.660   4.603
  249SOL     OW 1645   4.428   0.522   5.338
  249SOL    HW1 1646   4.337   0.540   5.376
  249SOL    HW2 1647   4.428   0.433   5.292
  250SOL     OW 1648   4.565   2.145   5.419
  250SOL    HW1 1649   4.598   2.069   5.475
  250SOL    HW2 1650   4.640   2.179   5.362
  251SOL     OW 1651   4.075   4.914   6.018
  251SOL    HW1 1652   3.998   4.857   6.047
  251SOL    HW2 1653   4.127   4.866   5.947
  252SOL     OW 1654   6.580   1.406   5.887
  252SOL    HW1 1655   6.543   1.429   5.977
  252SOL    HW2 1656   6.567   1.309   5.869
  253SOL     OW 1657   2.736   4.479   0.276
  253SOL    HW1 1658   2.692   4.494   0.365
  253SOL    HW2 1659   2.753   4.568   0.232
  254SOL     OW 1660   6.765   2.686   3.627
  254SOL    HW1 1661   6.767   2.588   3.648
  254SOL    HW2 1662   6.842   2.732   3.670
  255SOL     OW 1663   2.313   2.428   3.819
  255SOL    HW1 1664   2.383   2.376   3.868
  255SOL    HW2 1665   2.248   2.364   3.779
  256SOL     OW 1666   6.494   4.628   7.020
  256SOL    HW1 1667   6.541   4.660   0.079
  256SOL    HW2 1668   6.561   4.599   6.951
  257SOL     OW 1669   3.410   5.327   5.472
  257SOL    HW1 1670   3.400   5.350   5.569
  257SOL    HW2 1671   3.337   5.370   5.420
  258SOL     OW 1672   5.197   3.426   4.918
  258SOL    HW1 1673   5.142   3.434   5.001
  258SOL    HW2 1674   5.294   3.429   4.942
  259SOL     OW 1675   2.134   2.939   2.483
  259SOL    HW1 1676   2.046   2.908   2.518
  259SOL    HW2 1677   2.124   2.966   2.387
  260SOL     OW 1678   4.398   0.794   0.839
  260SOL    HW1 1679   4.469   0.743   0.888
  260SOL    HW2 1680   4.323   0.815   0.901
  261SOL     OW 1681   0.074   3.878   0.982
  261SOL    HW1 1682   0.103   3.864   1.076
  261SOL    HW2 1683   0.150   3.913   0.928
  262SOL     OW 1684   0.576   3.809   2.131
  262SOL    HW1 1685   0.583   3.801   2.230
  262SOL    HW2 1686   0.624   3.892   2.101
  263SOL     OW 1687   0.171   1.699   4.231
  263SOL    HW1 1688   0.101   1.637   4.194
  263SOL    HW2 1689   0.257   1.650   4.242
  264SOL     OW 1690   6.456   4.085   5.735
  264SOL    HW1 1691   6.511   4.156   5.690
  264SOL    HW2 1692   6.517   4.023   5.785
  265SOL     OW 1693   4.923   3.968   3.123
  265SOL    HW1 1694   5.004   4.026   3.121
  265SOL    HW2 1695   4.945   3.878   3.085
  266SOL     OW 1696   3.212   2.883   6.274
  266SOL    HW1 1697   3.158   2.828   6.211
  266SOL    HW2 1698   3.297   2.834   6.297
  267SOL     OW 1699   0.023   2.853   6.770
  267SOL    HW1 1700   0.112   2.894   6.749
  267SOL    HW2 1701   7.004   2.903   6.847
  268SOL     OW 1702   5.166   5.438   5.208
  268SOL    HW1 1703   5.217   5.523   5.224
  268SOL    HW2 1704   5.121   5.443   5.120
  269SOL     OW 1705   1.675   1.750   0.290
  269SOL    HW1 1706   1.588   1.789   0.317
  269SOL    HW2 1707   1.661   1.659   0.251
  270SOL     OW 1708   6.356   1.046   1.876
  270SOL    HW1 1709   6.359   1.103   1.794
  270SOL    HW2 1710   6.448   1.013   1.898
  271SOL     OW 1711   2.931   1.408   0.340
  271SOL    HW1 1712   2.849   1.462   0.361
  271SOL    HW2 1713   2.904   1.322   0.297
  272SOL     OW 1714   3.585   4.941   4.050
  272SOL    HW1 1715   3.605   4.929   4.148
  272SOL    HW2 1716   3.649   5.007   4.011
  273SOL     OW 1717   1.645   5.691   5.885
  273SOL    HW1 1718   1.678   5.597   5.899
  273SOL    HW2 1719   1.550   5.688   5.855
  274SOL     OW 1720   4.814   2.086   4.316
  274SOL    HW1 1721   4.779   2.180   4.313
  274SOL    HW2 1722   4.872   2.075   4.397
  275SOL     OW 1723   1.029   5.904   6.253
  275SOL    HW1 1724   1.075   5.816   6.262
  275SOL    HW2 1725   0.996   5.935   6.342
  276SOL     OW 1726   6.689   5.446   4.317
  276SOL    HW1 1727   6.648   5.426   4.228
  276SOL    HW2 1728   6.787   5.427   4.314
  277SOL     OW 1729   3.459   1.197   6.278
  277SOL    HW1 1730   3.512   1.147   6.346
  277SOL    HW2 1731   3.428   1.134   6.206
  278SOL     OW 1732   6.029   3.540   1.920
  278SOL    HW1 1733   5.950   3.492   1.956
  278SOL    HW2 1734   6.066   3.601   1.990
  279SOL     OW 1735   6.459   3.006   4.394
  279SOL    HW1 1736   6.519   3.082   4.370
  279SOL    HW2 1737   6.479   2.928   4.334
  280SOL     OW 1738   4.745   0.195   3.247
  280SOL    HW1 1739   4.839   0.161   3.246
  280SOL    HW2 1740   4.739   0.270   3.313
  281SOL     OW 1741   3.110   5.167   3.663
  281SOL    HW1 1742   3.073   5.229   3.732
  281SOL    HW2 1743   3.080   5.074   3.682
  282SOL     OW 1744   3.830   2.673   5.477
  282SOL    HW1 1745   3.900   2.658   5.547
  282SOL    HW2 1746   3.867   2.731   5.405
  283SOL     OW 1747   5.576   0.456   5.530
  283SOL    HW1 1748   5.534   0.426   5.616
  283SOL    HW2 1749   5.595   0.376   5.473
  284SOL     OW 1750   1.266   4.525   4.568
  284SOL    HW1 1751   1.207   4.491   4.642
  284SOL    HW2 1752   1.359   4.492   4.582
  285SOL     OW 1753   5.315   5.939   0.255
  285SOL    HW1 1754   5.359   5.962   0.169
  285SOL    HW2 1755   5.346   6.000   0.327
  286SOL     OW 1756   4.375   5.185   5.279
  286SOL    HW1 1757   4.361   5.242   5.198
  286SOL    HW2 1758   4.352   5.090   5.259
  287SOL     OW 1759   1.734   5.507   6.795
  287SOL    HW1 1760   1.779   5.468   6.715
  287SOL    HW2 1761   1.729   5.606   6.785
  288SOL     OW 1762   3.867   1.155   0.447
  288SOL    HW1 1763   3.846   1.113   0.535
  288SOL    HW2 1764   3.965   1.149   0.429
  289SOL     OW 1765   1.408   4.945   5.602
  289SOL    HW1 1766   1.478   4.876   5.582
  289SOL    HW2 1767   1.384   4.940   5.699
  290SOL     OW 1768   4.922   0.550   3.483
  290SOL    HW1 1769   4.823   0.548   3.475
  290SOL    HW2 1770   4.961   0.605   3.409
  291SOL     OW 1771   4.636   1.010   3.789
  291SOL    HW1 1772   4.596   1.025   3.880
  291SOL    HW2 1773   4.590   0.934   3.744
  292SOL     OW 1774   4.905   1.401   3.670
  292SOL    HW1 1775   4.834   1.389   3.739
  292SOL    HW2 1776   4.867   1.382   3.580
  293SOL     OW 1777   4.278   6.125   1.097
  293SOL    HW1 1778   4.250   6.113   1.002
  293SOL    HW2 1779   4.221   6.067   1.155
  294SOL     OW 1780   6.561   5.782   6.435
  294SOL    HW1 1781   6.541   5.850   6.365
  294SOL    HW2 1782   6.505   5.800   6.516
  295SOL     OW 1783   2.064   2.081   5.577
  295SOL    HW1 1784   2.154   2.124   5.568
  295SOL    HW2 1785   1.994   2.142   5.541
  296SOL     OW 1786   6.814   2.724   1.435
  296SOL    HW1 1787   6.784   2.763   1.522
  296SOL    HW2 1788   6.903   2.680   1.447
  297SOL     OW 1789   3.444   5.327   3.484
  297SOL    HW1 1790   3.498   5.306   3.403
  297SOL    HW2 1791   3.408   5.242   3.523
  298SOL     OW 1792   4.410   6.953   0.135
  298SOL    HW1 1793   4.417   0.027   0.158
  298SOL    HW2 1794   4.499   6.920   0.103
  299SOL     OW 1795   4.215   1.856   6.998
  299SOL    HW1 1796   4.148   1.923   6.965
  299SOL    HW2 1797   4.306   1.898   7.001
  300SOL     OW 1798   3.778   0.362   2.182
  300SOL    HW1 1799   3.760   0.382   2.278
  300SOL    HW2 1800   3.804   0.266   2.172
  301SOL     OW 1801   5.149   0.827   1.148
  301SOL    HW1 1802   5.113   0.734   1.138
  301SOL    HW2 1803   5.240   0.823   1.188
  302SOL     OW 1804   0.533   0.770   2.311
  302SOL    HW1 1805   0.518   0.675   2.339
  302SOL    HW2 1806   0.624   0.778   2.270
  303SOL     OW 1807   6.668   5.978   1.620
  303SOL    HW1 1808   6.665   6.045   1.546
  303SOL    HW2 1809   6.706   5.892   1.586
  304SOL     OW 1810   2.172   6.193   6.113
  304SOL    HW1 1811   2.084   6.199   6.065
  304SOL    HW2 1812   2.168   6.248   6.196
  305SOL     OW 1813   1.747   2.510   0.565
  305SOL    HW1 1814   1.795   2.423   0.559
  305SOL    HW2 1815   1.741   2.538   0.661
  306SOL     OW 1816   0.072   1.304   2.815
  306SOL    HW1 1817   0.098   1.393   2.778
  306SOL    HW2 1818   0.115   1.231   2.762
  307SOL     OW 1819   3.818   4.481   0.145
  307SOL    HW1 1820   3.758   4.401   0.141
  307SOL    HW2 1821   3.911   4.455   0.120
  308SOL     OW 1822   5.915   2.770   3.878
  308SOL    HW1 1823   5.888   2.686   3.832
  308SOL    HW2 1824   5.977   2.822   3.819
  309SOL     OW 1825   1.509   6.180   0.743
  309SOL    HW1 1826   1.509   6.118   0.822
  309SOL    HW2 1827   1.593   6.235   0.744
  310SOL     OW 1828   4.919   6.614   4.141
  310SOL    HW1 1829   4.898   6.690   4.203
  310SOL    HW2 1830   5.009   6.627   4.101
  311SOL     OW 1831   2.699   5.000   2.971
  311SOL    HW1 1832   2.760   4.925   2.997
  311SOL    HW2 1833   2.753   5.084   2.962
  312SOL     OW 1834   3.606   2.149   3.888
  312SOL    HW1 1835   3.605   2.141   3.988
  312SOL    HW2 1836   3.513   2.167   3.856
  313SOL     OW 1837   3.179   4.098   2.613
  313SOL    HW1 1838   3.081   4.084   2.627
  313SOL    HW2 1839   3.218   4.142   2.695
  314SOL     OW 1840   2.182   4.790   4.791
  314SOL    HW1 1841   2.131   4.775   4.707
  314SOL    HW2 1842   2.195   4.889   4.805
  315SOL     OW 1843   0.668   1.959   3.933
  315SOL    HW1 1844   0.589   1.899   3.944
  315SOL    HW2 1845   0.749   1.904   3.914
  316SOL     OW 1846   3.792   0.667   4.232
  316SOL    HW1 1847   3.704   0.712   4.247
  316SOL    HW2 1848   3.839   0.657   4.320
  317SOL     OW 1849   0.375   1.733   1.898
  317SOL    HW1 1850   0.374   1.818   1.844
  317SOL    HW2 1851   0.373   1.756   1.995
  318SOL     OW 1852   6.315   0.306   6.672
  318SOL    HW1 1853   6.291   0.380   6.734
  318SOL    HW2 1854   6.299   0.335   6.578
  319SOL     OW 1855   6.706   2.030   3.632
  319SOL    HW1 1856   6.713   1.956   3.565
  319SOL    HW2 1857   6.640   2.098   3.600
  320SOL     OW 1858   6.009   3.117   0.129
  320SOL    HW1 1859   6.006   3.021   0.098
  320SOL    HW2 1860   5.969   3.124   0.220
  321SOL     OW 1861   4.577   2.185   0.418
  321SOL    HW1 1862   4.673   2.203   0.395
  321SOL    HW2 1863   4.520   2.259   0.383
  322SOL     OW 1864   3.525   2.920   4.589
  322SOL    HW1 1865   3.474   2.902   4.504
  322SOL    HW2 1866   3.475   2.986   4.644
  323SOL     OW 1867   1.160   2.774   5.251
  323SOL    HW1 1868   1.214   2.786   5.167
  323SOL    HW2 1869   1.219   2.790   5.331
  324SOL     OW 1870   2.598   0.547   3.316
  324SOL    HW1 1871   2.675   0.553   3.379
  324SOL    HW2 1872   2.606   0.617   3.245
  325SOL     OW 1873   0.918   3.516   2.817
  325SOL    HW1 1874   0.906   3.417   2.821
  325SOL    HW2 1875   1.016   3.538   2.815
  326SOL     OW 1876   0.854   4.177   6.011
  326SOL    HW1 1877   0.802   4.206   6.092
  326SOL    HW2 1878   0.949   4.208   6.020
  327SOL     OW 1879   2.605   4.678   2.963
  327SOL    HW1 1880   2.515   4.666   2.923
  327SOL    HW2 1881   2.597   4.725   3.051
  328SOL     OW 1882   2.266   4.945   1.631
  328SOL    HW1 1883   2.327   4.958   1.709
  328SOL    HW2 1884   2.172   4.937   1.663
  329SOL     OW 1885   2.418   3.699   5.817
  329SOL    HW1 1886   2.321   3.718   5.802
  329SOL    HW2 1887   2.436   3.603   5.800
  330SOL     OW 1888   3.209   6.366   0.478
  330SOL    HW1 1889   3.134   6.360   0.543
  330SOL    HW2 1890   3.292   6.330   0.520
  331SOL     OW 1891   5.390   5.667   0.694
  331SOL    HW1 1892   5.466   5.710   0.742
  331SOL    HW2 1893   5.320   5.736   0.674
  332SOL     OW 1894   5.951   2.487   4.744
  332SOL    HW1 1895   5.976   2.485   4.841
  332SOL    HW2 1896   6.022   2.535   4.692
  333SOL     OW 1897   4.057   0.528   4.941
  333SOL    HW1 1898   4.063   0.608   5.001
  333SOL    HW2 1899   3.987   0.465   4.976
  334SOL     OW 1900   3.072   2.378   7.018
  334SOL    HW1 1901   3.105   2.312   0.063
  334SOL    HW2 1902   3.008   2.441   0.039
  335SOL     OW 1903   3.542   0.311   6.833
  335SOL    HW1 1904   3.511   0.363   6.754
  335SOL    HW2 1905   3.467   0.255   6.868
  336SOL     OW 1906   3.113   0.738   3.515
  336SOL    HW1 1907   3.137   0.801   3.590
  336SOL    HW2 1908   3.180   0.748   3.442
  337SOL     OW 1909   0.048   3.347   5.839
  337SOL    HW1 1910   0.091   3.314   5.755
  337SOL    HW2 1911   0.060   3.446   5.847
  338SOL     OW 1912   3.219   2.546   1.551
  338SOL    HW1 1913   3.317   2.561   1.562
  338SOL    HW2 1914   3.193   2.459   1.593
  339SOL     OW 1915   4.906   5.384   4.926
  339SOL    HW1 1916   4.814   5.373   4.889
  339SOL    HW2 1917   4.970   5.397   4.851
  340SOL     OW 1918   5.239   3.373   4.660
  340SOL    HW1 1919   5.168   3.403   4.596
  340SOL    HW2 1920   5.219   3.408   4.751
  341SOL     OW 1921   5.721   6.509   4.634
  341SOL    HW1 1922   5.639   6.471   4.591
  341SOL    HW2 1923   5.800   6.494   4.574
  342SOL     OW 1924   5.034   3.346   0.160
  342SOL    HW1 1925   5.004   3.375   0.251
  342SOL    HW2 1926   5.075   3.255   0.165
  343SOL     OW 1927   0.296   6.215   2.216
  343SOL    HW1 1928   0.217   6.162   2.246
  343SOL    HW2 1929   0.326   6.276   2.290
  344SOL     OW 1930   0.940   3.467   1.702
  344SOL    HW1 1931   0.966   3.378   1.740
  344SOL    HW2 1932   0.989   3.540   1.750
  345SOL     OW 1933   5.675   2.281   3.741
  345SOL    HW1 1934   5.655   2.351   3.810
  345SOL    HW2 1935   5.632   2.306   3.654
  346SOL     OW 1936   1.933   1.025   2.734
  346SOL    HW1 1937   1.985   1.056   2.813
  346SOL    HW2 1938   1.838   1.008   2.761
  347SOL     OW 1939   3.142   5.985   0.281
  347SOL    HW1 1940   3.178   6.034   0.202
  347SOL    HW2 1941   3.066   6.037   0.321
  348SOL     OW 1942   4.930   3.925   2.718
  348SOL    HW1 1943   4.915   3.908   2.620
  348SOL    HW2 1944   5.023   3.898   2.742
  349SOL     OW 1945   6.792   4.916   2.021
  349SOL    HW1 1946   6.715   4.894   1.961
  349SOL    HW2 1947   6.810   4.839   2.082
  350SOL     OW 1948   2.562   2.153   1.194
  350SOL    HW1 1949   2.488   2.203   1.147
  350SOL    HW2 1950   2.530   2.062   1.218
  351SOL     OW 1951   2.080   3.154   0.726
  351SOL    HW1 1952   2.147   3.185   0.659
  351SOL    HW2 1953   2.046   3.233   0.777
  352SOL     OW 1954   3.326   0.042   3.910
  352SOL    HW1 1955   3.371   0.055   3.998
  352SOL    HW2 1956   3.232   0.076   3.916
  353SOL     OW 1957   2.696   0.257   0.048
  353SOL    HW1 1958   2.745   0.204   0.117
  353SOL    HW2 1959   2.627   0.200   0.004
  354SOL     OW 1960   4.376   2.083   1.789
  354SOL    HW1 1961   4.378   2.139   1.872
  354SOL    HW2 1962   4.282   2.073   1.757
  355SOL     OW 1963   1.713   4.440   3.170
  355SOL    HW1 1964   1.723   4.517   3.233
  355SOL    HW2 1965   1.657   4.369   3.213
  356SOL     OW 1966   2.358   0.811   5.480
  356SOL    HW1 1967   2.434   0.765   5.526
  356SOL    HW2 1968   2.393   0.882   5.420
  357SOL     OW 1969   6.943   6.313   5.234
  357SOL    HW1 1970   6.990   6.262   5.162
  357SOL    HW2 1971   6.999   6.391   5.262
  358SOL     OW 1972   4.905   6.308   0.845
  358SOL    HW1 1973   4.819   6.267   0.814
  358SOL    HW2 1974   4.941   6.254   0.921
  359SOL     OW 1975   3.055   1.653   2.325
  359SOL    HW1 1976   3.092   1.618   2.239
  359SOL    HW2 1977   3.041   1.577   2.389
  360SOL     OW 1978   1.384   4.588   5.289
  360SOL    HW1 1979   1.385   4.628   5.381
  360SOL    HW2 1980   1.315   4.516   5.284
  361SOL     OW 1981   6.717   6.205   3.441
  361SOL    HW1 1982   6.789   6.159   3.390
  361SOL    HW2 1983   6.678   6.278   3.384
  362SOL     OW 1984   3.435   2.800   1.769
  362SOL    HW1 1985   3.354   2.788   1.827
  362SOL    HW2 1986   3.457   2.713   1.724
  363SOL     OW 1987   5.820   4.294   3.059
  363SOL    HW1 1988   5.775   4.372   3.015
  363SOL    HW2 1989   5.899   4.326   3.111
  364SOL     OW 1990   0.055   5.189   6.395
  364SOL    HW1 1991   0.008   5.115   6.348
  364SOL    HW2 1992   0.068   5.165   6.491
  365SOL     OW 1993   5.331   0.359   1.670
  365SOL    HW1 1994   5.396   0.402   1.608
  365SOL    HW2 1995   5.352   0.386   1.764
  366SOL     OW 1996   6.054   1.858   6.738
  366SOL    HW1 1997   6.025   1.954   6.739
  366SOL    HW2 1998   5.983   1.801   6.781
  367SOL     OW 1999   6.010   2.728   0.767
  367SOL    HW1 2000   5.950   2.653   0.793
  367SOL    HW2 2001   6.105   2.698   0.772
  368SOL     OW 2002   0.773   2.471   5.219
  368SOL    HW1 2003   0.868   2.443   5.219
  368SOL    HW2 2004   0.735   2.462   5.127
  369SOL     OW 2005   5.809   5.432   2.093
  369SOL    HW1 2006   5.730   5.384   2.054
  369SOL    HW2 2007   5.777   5.503   2.156
  370SOL     OW 2008   1.346   1.709   4.650
  370SOL    HW1 2009   1.297   1.641   4.704
  370SOL    HW2 2010   1.287   1.789   4.636
  371SOL     OW 2011   1.899   4.567   6.811
  371SOL    HW1 2012   1.884   4.612   6.899
  371SOL    HW2 2013   1.921   4.636   6.742
  372SOL     OW 2014   1.921   6.890   5.971
  372SOL    HW1 2015   1.942   6.892   6.068
  372SOL    HW2 2016   1.934   6.797   5.936
  373SOL     OW 2017   5.999   6.127   5.090
  373SOL    HW1 2018   5.929   6.166   5.030
  373SOL    HW2 2019   6.068   6.080   5.034
  374SOL     OW 2020   2.763   2.337   3.435
  374SOL    HW1 2021   2.740   2.299   3.524
  374SOL    HW2 2022   2.830   2.410   3.445
  375SOL     OW 2023   0.685   4.155   3.957
  375SOL    HW1 2024   0.667   4.209   3.875
  375SOL    HW2 2025   0.698   4.216   4.035
  376SOL     OW 2026   1.090   1.289   4.971
  376SOL    HW1 2027   1.030   1.326   4.900
  376SOL    HW2 2028   1.103   1.357   5.043
  377SOL     OW 2029   1.427   1.824   0.557
  377SOL    HW1 2030   1.496   1.772   0.609
  377SOL    HW2 2031   1.458   1.918   0.548
  378SOL     OW 2032   4.540   1.925   0.340
  378SOL    HW1 2033   4.553   2.013   0.385
  378SOL    HW2 2034   4.629   1.889   0.312
  379SOL     OW 2035   5.769   2.122   0.833
  379SOL    HW1 2036   5.744   2.025   0.825
  379SOL    HW2 2037   5.724   2.174   0.761
  380SOL     OW 2038   3.292   1.340   0.916
  380SOL    HW1 2039   3.332   1.377   0.999
  380SOL    HW2 2040   3.233   1.263   0.938
  381SOL     OW 2041   1.578   3.995   3.691
  381SOL    HW1 2042   1.566   3.986   3.790
  381SOL    HW2 2043   1.637   4.073   3.672
  382SOL     OW 2044   5.830   0.804   0.334
  382SOL    HW1 2045   5.882   0.758   0.406
  382SOL    HW2 2046   5.879   0.885   0.303
  383SOL     OW 2047   3.487   3.397   6.604
  383SOL    HW1 2048   3.474   3.330   6.677
  383SOL    HW2 2049   3.545   3.357   6.533
  384SOL     OW 2050   6.638   5.329   4.600
  384SOL    HW1 2051   6.612   5.349   4.505
  384SOL    HW2 2052   6.732   5.360   4.615
  385SOL     OW 2053   3.080   4.819   5.001
  385SOL    HW1 2054   3.016   4.745   5.024
  385SOL    HW2 2055   3.046   4.868   4.921
  386SOL     OW 2056   2.966   5.989   4.154
  386SOL    HW1 2057   3.053   5.987   4.205
  386SOL    HW2 2058   2.909   5.912   4.182
  387SOL     OW 2059   0.968   6.132   3.183
  387SOL    HW1 2060   1.057   6.087   3.183
  387SOL    HW2 2061   0.897   6.065   3.162
  388SOL     OW 2062   1.042   2.123   5.734
  388SOL    HW1 2063   1.034   2.023   5.731
  388SOL    HW2 2064   1.011   2.161   5.647
  389SOL     OW 2065   3.844   4.005   1.999
  389SOL    HW1 2066   3.810   4.048   1.915
  389SOL    HW2 2067   3.775   4.012   2.070
  390SOL     OW 2068   2.666   1.557   2.499
  390SOL    HW1 2069   2.764   1.580   2.496
  390SOL    HW2 2070   2.651   1.487   2.569
  391SOL     OW 2071   2.395   1.860   6.501
  391SOL    HW1 2072   2.459   1.927   6.538
  391SOL    HW2 2073   2.336   1.826   6.574
  392SOL     OW 2074   1.757   4.672   0.787
  392SOL    HW1 2075   1.842   4.623   0.809
  392SOL    HW2 2076   1.698   4.613   0.733
  393SOL     OW 2077   1.347   4.203   6.366
  393SOL    HW1 2078   1.323   4.268   6.438
  393SOL    HW2 2079   1.287   4.123   6.372
  394SOL     OW 2080   6.987   1.349   0.084
  394SOL    HW1 2081   6.999   1.437   0.130
  394SOL    HW2 2082   6.926   1.291   0.139
  395SOL     OW 2083   4.966   3.741   3.000
  395SOL    HW1 2084   5.019   3.745   2.915
  395SOL    HW2 2085   4.888   3.680   2.988
  396SOL     OW 2086   3.517   4.120   1.436
  396SOL    HW1 2087   3.434   4.078   1.473
  396SOL    HW2 2088   3.531   4.210   1.477
  397SOL     OW 2089   4.867   1.942   6.129
  397SOL    HW1 2090   4.856   2.027   6.182
  397SOL    HW2 2091   4.817   1.868   6.175
  398SOL     OW 2092   0.299   6.567   2.701
  398SOL    HW1 2093   0.273   6.628   2.626
  398SOL    HW2 2094   0.218   6.519   2.734
  399SOL     OW 2095   6.092   6.157   2.444
  399SOL    HW1 2096   6.144   6.072   2.434
  399SOL    HW2 2097   6.137   6.230   2.393
  400SOL     OW 2098   6.186   6.846   5.865
  400SOL    HW1 2099   6.108   6.893   5.908
  400SOL    HW2 2100   6.154   6.767   5.814
  401SOL     OW 2101   4.836   0.560   5.488
  401SOL    HW1 2102   4.865   0.574   5.394
  401SOL    HW2 2103   4.861   0.640   5.543
  402SOL     OW 2104   5.348   0.340   3.117
  402SOL    HW1 2105   5.268   0.280   3.115
  402SOL    HW2 2106   5.398   0.327   3.203
  403SOL     OW 2107   3.872   2.057   4.232
  403SOL    HW1 2108   3.866   2.009   4.320
  403SOL    HW2 2109   3.784   2.101   4.213
  404SOL     OW 2110   1.378   5.398   4.903
  404SOL    HW1 2111   1.458   5.371   4.958
  404SOL    HW2 2112   1.365   5.497   4.909
  405SOL     OW 2113   1.816   3.479   1.992
  405SOL    HW1 2114   1.852   3.388   2.008
  405SOL    HW2 2115   1.830   3.504   1.896
  406SOL     OW 2116   0.944   4.625   4.869
  406SOL    HW1 2117   0.866   4.603   4.926
  406SOL    HW2 2118   0.917   4.690   4.798
  407SOL     OW 2119   1.165   0.832   3.803
  407SOL    HW1 2120   1.098   0.868   3.739
  407SOL    HW2 2121   1.246   0.802   3.754
  408SOL     OW 2122   1.084   2.746   2.939
  408SOL    HW1 2123   1.071   2.845   2.941
  408SOL    HW2 2124   1.124   2.720   2.851
  409SOL     OW 2125   6.988   3.018   1.225
  409SOL    HW1 2126   6.904   3.007   1.279
  409SOL    HW2 2127   6.965   3.064   1.139
  410SOL     OW 2128   1.649   1.816   1.606
  410SOL    HW1 2129   1.603   1.785   1.522
  410SOL    HW2 2130   1.748   1.808   1.595
  411SOL     OW 2131   5.268   0.181   1.460
  411SOL    HW1 2132   5.291   0.245   1.533
  411SOL    HW2 2133   5.271   0.229   1.372
  412SOL     OW 2134   4.442   6.102   3.718
  412SOL    HW1 2135   4.498   6.019   3.708
  412SOL    HW2 2136   4.486   6.163   3.784
  413SOL     OW 2137   5.208   4.172   1.649
  413SOL    HW1 2138   5.114   4.160   1.682
  413SOL    HW2 2139   5.224   4.110   1.572
  414SOL     OW 2140   3.681   5.449   3.671
  414SOL    HW1 2141   3.626   5.461   3.754
  414SOL    HW2 2142   3.689   5.351   3.650
  415SOL     OW 2143   0.871   5.706   6.906
  415SOL    HW1 2144   0.811   5.666   6.837
  415SOL    HW2 2145   0.825   5.782   6.952
  416SOL     OW 2146   5.257   6.302   4.087
  416SOL    HW1 2147   5.266   6.230   4.019
  416SOL    HW2 2148   5.164   6.340   4.083
  417SOL     OW 2149   3.074   5.253   0.013
  417SOL    HW1 2150   3.073   5.295   0.103
  417SOL    HW2 2151   2.983   5.259   6.994
  418SOL     OW 2152   4.062   6.469   0.614
  418SOL    HW1 2153   3.996   6.433   0.680
  418SOL    HW2 2154   4.149   6.420   0.625
  419SOL     OW 2155   1.946   0.582   1.699
  419SOL    HW1 2156   1.864   0.565   1.645
  419SOL    HW2 2157   1.978   0.676   1.682
  420SOL     OW 2158   5.151   1.118   6.652
  420SOL    HW1 2159   5.231   1.096   6.597
  420SOL    HW2 2160   5.148   1.058   6.733
  421SOL     OW 2161   6.840   4.104   5.828
  421SOL    HW1 2162   6.754   4.053   5.840
  421SOL    HW2 2163   6.909   4.066   5.889
  422SOL     OW 2164   5.926   3.421   1.105
  422SOL    HW1 2165   5.928   3.321   1.108
  422SOL    HW2 2166   5.982   3.454   1.029
  423SOL     OW 2167   1.107   2.119   6.616
  423SOL    HW1 2168   1.167   2.092   6.541
  423SOL    HW2 2169   1.012   2.116   6.586
  424SOL     OW 2170   1.921   4.695   1.070
  424SOL    HW1 2171   1.965   4.677   1.158
  424SOL    HW2 2172   1.828   4.659   1.072
  425SOL     OW 2173   5.745   1.551   3.415
  425SOL    HW1 2174   5.734   1.598   3.328
  425SOL    HW2 2175   5.837   1.512   3.421
  426SOL     OW 2176   4.023   1.813   4.712
  426SOL    HW1 2177   4.004   1.889   4.651
  426SOL    HW2 2178   4.096   1.839   4.776
  427SOL     OW 2179   4.454   5.882   3.305
  427SOL    HW1 2180   4.393   5.865   3.382
  427SOL    HW2 2181   4.498   5.796   3.278
  428SOL     OW 2182   4.237   0.278   4.628
  428SOL    HW1 2183   4.154   0.257   4.576
  428SOL    HW2 2184   4.295   0.339   4.574
  429SOL     OW 2185   1.407   3.168   1.491
  429SOL    HW1 2186   1.490   3.149   1.543
  429SOL    HW2 2187   1.365   3.252   1.525
  430SOL     OW 2188   0.128   0.387   5.558
  430SOL    HW1 2189   0.079   0.473   5.544
  430SOL    HW2 2190   0.197   0.399   5.629
  431SOL     OW 2191   3.413   6.871   0.609
  431SOL    HW1 2192   3.500   6.823   0.601
  431SOL    HW2 2193   3.345   6.811   0.650
  432SOL     OW 2194   6.611   1.687   0.439
  432SOL    HW1 2195   6.563   1.768   0.406
  432SOL    HW2 2196   6.704   1.686   0.402
  433SOL     OW 2197   2.628   6.551   4.709
  433SOL    HW1 2198   2.654   6.644   4.681
  433SOL    HW2 2199   2.529   6.547   4.722
  434SOL     OW 2200   3.347   5.862   3.151
  434SOL    HW1 2201   3.408   5.791   3.188
  434SOL    HW2 2202   3.352   5.943   3.209
  435SOL     OW 2203   5.271   2.703   6.543
  435SOL    HW1 2204   5.344   2.677   6.481
  435SOL    HW2 2205   5.294   2.675   6.637
  436SOL     OW 2206   2.617   6.182   1.175
  436SOL    HW1 2207   2.550   6.174   1.250
  436SOL    HW2 2208   2.647   6.277   1.167
  437SOL     OW 2209   1.590   0.960   0.420
  437SOL    HW1 2210   1.491   0.947   0.416
  437SOL    HW2 2211   1.616   1.000   0.508
  438SOL     OW 2212   1.930   3.966   3.263
  438SOL    HW1 2213   1.893   3.943   3.353
  438SOL    HW2 2214   2.024   3.999   3.273
  439SOL     OW 2215   5.704   5.169   2.417
  439SOL    HW1 2216   5.666   5.148   2.507
  439SOL    HW2 2217   5.632   5.204   2.357
  440SOL     OW 2218   1.945   1.357   5.106
  440SOL    HW1 2219   1.941   1.442   5.158
  440SOL    HW2 2220   1.888   1.366   5.024
  441SOL     OW 2221   1.266   2.600   4.264
  441SOL    HW1 2222   1.332   2.657   4.216
  441SOL    HW2 2223   1.201   2.562   4.199
  442SOL     OW 2224   3.509   5.585   5.659
  442SOL    HW1 2225   3.602   5.556   5.637
  442SOL    HW2 2226   3.462   5.512   5.709
  443SOL     OW 2227   6.168   4.438   4.268
  443SOL    HW1 2228   6.214   4.393   4.344
  443SOL    HW2 2229   6.069   4.422   4.275
  444SOL     OW 2230   4.952   1.555   5.793
  444SOL    HW1 2231   4.987   1.649   5.797
  444SOL    HW2 2232   4.962   1.512   5.882
  445SOL     OW 2233   0.663   5.942   3.187
  445SOL    HW1 2234   0.569   5.961   3.212
  445SOL    HW2 2235   0.668   5.920   3.089
  446SOL     OW 2236   3.566   5.473   3.898
  446SOL    HW1 2237   3.581   5.556   3.951
  446SOL    HW2 2238   3.469   5.450   3.899
  447SOL     OW 2239   0.394   2.739   6.106
  447SOL    HW1 2240   0.450   2.660   6.130
  447SOL    HW2 2241   0.450   2.822   6.107
  448SOL     OW 2242   1.907   0.562   3.132
  448SOL    HW1 2243   1.842   0.634   3.107
  448SOL    HW2 2244   1.998   0.586   3.099
  449SOL     OW 2245   4.108   1.534   3.922
  449SOL    HW1 2246   4.177   1.518   3.991
  449SOL    HW2 2247   4.152   1.562   3.836
  450SOL     OW 2248   1.500   5.500   3.272
  450SOL    HW1 2249   1.585   5.450   3.255
  450SOL    HW2 2250   1.441   5.447   3.334
  451SOL     OW 2251   1.172   2.296   3.653
  451SOL    HW1 2252   1.261   2.297   3.699
  451SOL    HW2 2253   1.163   2.377   3.595
  452SOL     OW 2254   5.946   6.454   0.919
  452SOL    HW1 2255   6.027   6.471   0.862
  452SOL    HW2 2256   5.870   6.509   0.886
  453SOL     OW 2257   3.619   1.143   5.820
  453SOL    HW1 2258   3.598   1.209   5.747
  453SOL    HW2 2259   3.537   1.088   5.838
  454SOL     OW 2260   6.823   4.596   6.099
  454SOL    HW1 2261   6.730   4.563   6.085
  454SOL    HW2 2262   6.888   4.523   6.077
  455SOL     OW 2263   6.155   2.276   3.596
  455SOL    HW1 2264   6.152   2.363   3.546
  455SOL    HW2 2265   6.154   2.200   3.531
  456SOL     OW 2266   6.322   6.471   3.952
  456SOL    HW1 2267   6.323   6.388   4.008
  456SOL    HW2 2268   6.237   6.474   3.899
  457SOL     OW 2269   1.721   2.122   3.808
  457SOL    HW1 2270   1.813   2.093   3.835
  457SOL    HW2 2271   1.712   2.116   3.709
  458SOL     OW 2272   4.029   5.807   3.371
  458SOL    HW1 2273   3.942   5.782   3.414
  458SOL    HW2 2274   4.053   5.738   3.303
  459SOL     OW 2275   2.033   6.187   5.258
  459SOL    HW1 2276   2.037   6.200   5.357
  459SOL    HW2 2277   2.121   6.153   5.225
  460SOL     OW 2278   1.823   6.627   3.860
  460SOL    HW1 2279   1.738   6.645   3.910
  460SOL    HW2 2280   1.856   6.711   3.819
  461SOL     OW 2281   6.468   6.840   6.278
  461SOL    HW1 2282   6.519   6.905   6.334
  461SOL    HW2 2283   6.400   6.889   6.224
  462SOL     OW 2284   3.856   3.307   6.598
  462SOL    HW1 2285   3.811   3.284   6.512
  462SOL    HW2 2286   3.851   3.229   6.660
  463SOL     OW 2287   5.549   5.962   3.517
  463SOL    HW1 2288   5.524   5.866   3.500
  463SOL    HW2 2289   5.554   5.978   3.616
  464SOL     OW 2290   2.717   1.394   5.043
  464SOL    HW1 2291   2.742   1.310   4.995
  464SOL    HW2 2292   2.653   1.373   5.117
  465SOL     OW 2293   0.970   3.423   6.622
  465SOL    HW1 2294   0.901   3.390   6.558
  465SOL    HW2 2295   1.007   3.346   6.674
  466SOL     OW 2296   0.798   6.648   3.292
  466SOL    HW1 2297   0.782   6.550   3.274
  466SOL    HW2 2298   0.710   6.694   3.306
  467SOL     OW 2299   2.033   1.232   0.963
  467SOL    HW1 2300   2.107   1.298   0.961
  467SOL    HW2 2301   1.986   1.236   1.052
  468SOL     OW 2302   3.676   0.257   6.310
  468SOL    HW1 2303   3.662   0.354   6.292
  468SOL    HW2 2304   3.663   0.205   6.226
  469SOL     OW 2305   3.127   3.168   6.689
  469SOL    HW1 2306   3.192   3.193   6.617
  469SOL    HW2 2307   3.039   3.147   6.648
  470SOL     OW 2308   4.591   6.780   1.534
  470SOL    HW1 2309   4.627   6.844   1.466
  470SOL    HW2 2310   4.564   6.829   1.616
  471SOL     OW 2311   2.471   2.295   3.988
  471SOL    HW1 2312   2.562   2.272   3.955
  471SOL    HW2 2313   2.461   2.266   4.083
  472SOL     OW 2314   4.449   3.447   6.549
  472SOL    HW1 2315   4.523   3.382   6.567
  472SOL    HW2 2316   4.419   3.438   6.454
  473SOL     OW 2317   1.261   2.935   2.762
  473SOL    HW1 2318   1.329   2.953   2.691
  473SOL    HW2 2319   1.207   2.855   2.736
  474SOL     OW 2320   5.290   5.165   4.291
  474SOL    HW1 2321   5.207   5.155   4.347
  474SOL    HW2 2322   5.355   5.094   4.315
  475SOL     OW 2323   5.663   1.144   6.225
  475SOL    HW1 2324   5.598   1.071   6.204
  475SOL    HW2 2325   5.722   1.159   6.145
  476SOL     OW 2326   0.372   3.300   3.760
  476SOL    HW1 2327   0.445   3.332   3.699
  476SOL    HW2 2328   0.399   3.212   3.801
  477SOL     OW 2329   2.159   6.162   3.774
  477SOL    HW1 2330   2.222   6.107   3.828
  477SOL    HW2 2331   2.126   6.239   3.830
  478SOL     OW 2332   3.345   5.918   2.173
  478SOL    HW1 2333   3.339   6.009   2.132
  478SOL    HW2 2334   3.253   5.885   2.195
  479SOL     OW 2335   4.238   1.718   5.894
  479SOL    HW1 2336   4.337   1.709   5.906
  479SOL    HW2 2337   4.219   1.755   5.803
  480SOL     OW 2338   2.898   0.903   6.850
  480SOL    HW1 2339   2.848   0.952   6.921
  480SOL    HW2 2340   2.835   0.840   6.803
  481SOL     OW 2341   2.399   6.539   0.983
  481SOL    HW1 2342   2.493   6.574   0.985
  481SOL    HW2 2343   2.336   6.613   0.959
  482SOL     OW 2344   3.992   4.931   2.111
  482SOL    HW1 2345   3.894   4.913   2.126
  482SOL    HW2 2346   4.044   4.897   2.189
  483SOL     OW 2347   6.443   1.991   2.627
  483SOL    HW1 2348   6.361   1.942   2.657
  483SOL    HW2 2349   6.480   1.946   2.546
  484SOL     OW 2350   2.066   3.333   4.806
  484SOL    HW1 2351   2.047   3.425   4.839
  484SOL    HW2 2352   2.115   3.281   4.877
  485SOL     OW 2353   4.030   5.420   3.108
  485SOL    HW1 2354   4.091   5.455   3.037
  485SOL    HW2 2355   3.935   5.441   3.084
  486SOL     OW 2356   6.962   1.096   6.809
  486SOL    HW1 2357   6.958   1.026   6.880
  486SOL    HW2 2358   6.912   1.177   6.838
  487SOL     OW 2359   0.759   0.509   2.598
  487SOL    HW1 2360   0.726   0.435   2.657
  487SOL    HW2 2361   0.840   0.551   2.639
  488SOL     OW 2362   1.022   1.508   1.937
  488SOL    HW1 2363   0.975   1.521   2.025
  488SOL    HW2 2364   1.093   1.577   1.926
  489SOL     OW 2365   3.895   6.204   6.054
  489SOL    HW1 2366   3.880   6.303   6.048
  489SOL    HW2 2367   3.891   6.164   5.963
  490SOL     OW 2368   6.976   6.137   2.825
  490SOL    HW1 2369   7.022   6.181   2.902
  490SOL    HW2 2370   0.022   6.099   2.762
  491SOL     OW 2371   1.197   3.429   2.699
  491SOL    HW1 2372   1.273   3.405   2.639
  491SOL    HW2 2373   1.165   3.521   2.678
  492SOL     OW 2374   1.404   0.598   4.969
  492SOL    HW1 2375   1.366   0.683   4.932
  492SOL    HW2 2376   1.427   0.611   5.066
  493SOL     OW 2377   4.741   6.193   5.474
  493SOL    HW1 2378   4.653   6.151   5.497
  493SOL    HW2 2379   4.800   6.193   5.554
  494SOL     OW 2380   0.307   6.640   6.991
  494SOL    HW1 2381   0.367   6.651   6.911
  494SOL    HW2 2382   0.219   6.603   6.962
  495SOL     OW 2383   4.629   5.970   4.167
  495SOL    HW1 2384   4.617   5.942   4.263
  495SOL    HW2 2385   4.713   5.931   4.131
  496SOL     OW 2386   4.992   2.969   1.900
  496SOL    HW1 2387   4.954   2.899   1.839
  496SOL    HW2 2388   4.933   2.980   1.980
  497SOL     OW 2389   2.715   1.282   4.426
  497SOL    HW1 2390   2.768   1.305   4.507
  497SOL    HW2 2391   2.775   1.239   4.358
  498SOL     OW 2392   1.087   4.258   1.718
  498SOL    HW1 2393   1.021   4.325   1.750
  498SOL    HW2 2394   1.145   4.229   1.793
  499SOL     OW 2395   1.771   6.146   4.454
  499SOL    HW1 2396   1.700   6.112   4.515
  499SOL    HW2 2397   1.765   6.098   4.366
  500SOL     OW 2398   0.400   2.838   5.433
  500SOL    HW1 2399   0.345   2.760   5.404
  500SOL    HW2 2400   0.461   2.866   5.359
  501SOL     OW 2401   3.147   6.218   0.962
  501SOL    HW1 2402   3.057   6.191   0.928
  501SOL    HW2 2403   3.201   6.136   0.983
  502SOL     OW 2404   0.967   3.934   6.602
  502SOL    HW1 2405   1.061   3.905   6.621
  502SOL    HW2 2406   0.937   3.997   6.673
  503SOL     OW 2407   0.533   5.723   6.632
  503SOL    HW1 2408   0.542   5.671   6.717
  503SOL    HW2 2409   0.621   5.727   6.586
  504SOL     OW 2410   1.326   5.015   2.772
  504SOL    HW1 2411   1.260   5.089   2.778
  504SOL    HW2 2412   1.279   4.927   2.786
  505SOL     OW 2413   2.786   6.008   5.364
  505SOL    HW1 2414   2.801   5.910   5.369
  505SOL    HW2 2415   2.842   6.054   5.433
  506SOL     OW 2416   2.866   5.005   4.133
  506SOL    HW1 2417   2.868   4.933   4.203
  506SOL    HW2 2418   2.942   4.992   4.070
  507SOL     OW 2419   3.476   6.870   3.282
  507SOL    HW1 2420   3.426   6.812   3.218
  507SOL    HW2 2421   3.474   6.829   3.373
  508SOL     OW 2422   6.813   3.388   2.389
  508SOL    HW1 2423   6.742   3.451   2.419
  508SOL    HW2 2424   6.772   3.307   2.347
  509SOL     OW 2425   3.159   1.110   0.984
  509SOL    HW1 2426   3.177   1.028   1.038
  509SOL    HW2 2427   3.064   1.109   0.953
  510SOL     OW 2428   6.389   4.704   6.625
  510SOL    HW1 2429   6.352   4.702   6.718
  510SOL    HW2 2430   6.480   4.661   6.625
  511SOL     OW 2431   0.922   1.789   6.019
  511SOL    HW1 2432   0.971   1.806   5.934
  511SOL    HW2 2433   0.965   1.840   6.093
  512SOL     OW 2434   6.563   3.058   0.011
  512SOL    HW1 2435   6.486   3.041   6.973
  512SOL    HW2 2436   6.529   3.079   0.103
  513SOL     OW 2437   5.865   6.996   3.001
  513SOL    HW1 2438   5.830   6.953   2.918
  513SOL    HW2 2439   5.957   0.009   2.985
  514SOL     OW 2440   6.243   1.925   4.300
  514SOL    HW1 2441   6.187   1.842   4.295
  514SOL    HW2 2442   6.340   1.899   4.306
  515SOL     OW 2443   0.745   0.369   6.297
  515SOL    HW1 2444   0.655   0.375   6.340
  515SOL    HW2 2445   0.785   0.279   6.316
  516SOL     OW 2446   2.560   4.611   2.088
  516SOL    HW1 2447   2.557   4.703   2.127
  516SOL    HW2 2448   2.654   4.588   2.062
  517SOL     OW 2449   4.600   5.726   1.539
  517SOL    HW1 2450   4.639   5.805   1.493
  517SOL    HW2 2451   4.652   5.706   1.622
  518SOL     OW 2452   3.129   2.149   3.429
  518SOL    HW1 2453   3.227   2.132   3.439
  518SOL    HW2 2454   3.103   2.134   3.333
  519SOL     OW 2455   0.335   6.545   4.618
  519SOL    HW1 2456   0.392   6.486   4.676
  519SOL    HW2 2457   0.293   6.616   4.675
  520SOL     OW 2458   5.914   3.827   0.125
  520SOL    HW1 2459   5.886   3.733   0.105
  520SOL    HW2 2460   5.965   3.830   0.211
  521SOL     OW 2461   6.492   5.595   5.333
  521SOL    HW1 2462   6.429   5.559   5.265
  521SOL    HW2 2463   6.496   5.695   5.326
  522SOL     OW 2464   3.468   3.354   4.788
  522SOL    HW1 2465   3.492   3.434   4.733
  522SOL    HW2 2466   3.372   3.359   4.815
  523SOL     OW 2467   0.565   5.963   1.845
  523SOL    HW1 2468   0.510   5.925   1.771
  523SOL    HW2 2469   0.504   5.998   1.917
  524SOL     OW 2470   0.310   2.108   2.422
  524SOL    HW1 2471   0.215   2.104   2.390
  524SOL    HW2 2472   0.311   2.137   2.518
  525SOL     OW 2473   2.096   3.535   5.839
  525SOL    HW1 2474   2.100   3.597   5.761
  525SOL    HW2 2475   2.024   3.467   5.823
  526SOL     OW 2476   4.194   6.502   3.812
  526SOL    HW1 2477   4.148   6.451   3.739
  526SOL    HW2 2478   4.179   6.455   3.899
  527SOL     OW 2479   5.969   2.579   0.208
  527SOL    HW1 2480   6.001   2.530   0.289
  527SOL    HW2 2481   6.028   2.557   0.131
  528SOL     OW 2482   0.797   2.478   3.857
  528SOL    HW1 2483   0.710   2.493   3.811
  528SOL    HW2 2484   0.780   2.450   3.952
  529SOL     OW 2485   1.338   6.790   5.048
  529SOL    HW1 2486   1.355   6.700   5.007
  529SOL    HW2 2487   1.402   6.857   5.010
  530SOL     OW 2488   3.634   3.239   4.484
  530SOL    HW1 2489   3.665   3.168   4.420
  530SOL    HW2 2490   3.541   3.219   4.514
  531SOL     OW 2491   0.416   1.724   3.429
  531SOL    HW1 2492   0.514   1.738   3.443
  531SOL    HW2 2493   0.384   1.782   3.354
  532SOL     OW 2494   0.742   2.923   6.689
  532SOL    HW1 2495   0.750   2.879   6.600
  532SOL    HW2 2496   0.786   2.867   6.759
  533SOL     OW 2497   4.021   6.387   4.241
  533SOL    HW1 2498   3.928   6.422   4.257
  533SOL    HW2 2499   4.083   6.464   4.225
  534SOL     OW 2500   5.209   6.554   2.069
  534SOL    HW1 2501   5.248   6.521   2.155
  534SOL    HW2 2502   5.109   6.545   2.072
  535SOL     OW 2503   0.178   3.375   5.198
  535SOL    HW1 2504   0.223   3.291   5.226
  535SOL    HW2 2505   0.245   3.448   5.190
  536SOL     OW 2506   6.314   5.303   1.941
  536SOL    HW1 2507   6.218   5.324   1.959
  536SOL    HW2 2508   6.357   5.266   2.023
  537SOL     OW 2509   2.713   6.820   4.548
  537SOL    HW1 2510   2.645   6.891   4.526
  537SOL    HW2 2511   2.770   6.804   4.468
  538SOL     OW 2512   0.877   4.695   3.027
  538SOL    HW1 2513   0.969   4.657   3.038
  538SOL    HW2 2514   0.811   4.634   3.071
  539SOL     OW 2515   1.301   5.725   1.499
  539SOL    HW1 2516   1.361   5.790   1.544
  539SOL    HW2 2517   1.302   5.740   1.400
  540SOL     OW 2518   1.222   0.735   3.107
  540SOL    HW1 2519   1.208   0.761   3.011
  540SOL    HW2 2520   1.307   0.683   3.116
  541SOL     OW 2521   4.899   5.861   4.163
  541SOL    HW1 2522   4.979   5.918   4.148
  541SOL    HW2 2523   4.928   5.774   4.203
  542SOL     OW 2524   5.932   6.384   6.486
  542SOL    HW1 2525   5.926   6.311   6.555
  542SOL    HW2 2526   5.845   6.392   6.438
  543SOL     OW 2527   1.238   3.805   5.029
  543SOL    HW1 2528   1.316   3.748   5.055
  543SOL    HW2 2529   1.209   3.781   4.936
  544SOL     OW 2530   2.088   3.979   0.353
  544SOL    HW1 2531   2.130   4.008   0.268
  544SOL    HW2 2532   2.158   3.948   0.417
  545SOL     OW 2533   2.700   1.357   1.712
  545SOL    HW1 2534   2.607   1.389   1.731
  545SOL    HW2 2535   2.696   1.267   1.669
  546SOL     OW 2536   2.153   2.708   0.563
  546SOL    HW1 2537   2.168   2.617   0.602
  546SOL    HW2 2538   2.241   2.749   0.540
  547SOL     OW 2539   3.301   0.968   0.233
  547SOL    HW1 2540   3.235   1.042   0.220
  547SOL    HW2 2541   3.377   1.001   0.289
  548SOL     OW 2542   3.449   3.896   2.605
  548SOL    HW1 2543   3.385   3.968   2.630
  548SOL    HW2 2544   3.439   3.819   2.668
  549SOL     OW 2545   4.912   2.635   1.245
  549SOL    HW1 2546   4.939   2.538   1.242
  549SOL    HW2 2547   4.850   2.649   1.322
  550SOL     OW 2548   0.175   5.821   3.841
  550SOL    HW1 2549   0.132   5.818   3.932
  550SOL    HW2 2550   0.275   5.822   3.852
  551SOL     OW 2551   0.437   0.294   2.531
  551SOL    HW1 2552   0.477   0.220   2.585
  551SOL    HW2 2553   0.456   0.382   2.574
  552SOL     OW 2554   5.421   4.626   0.092
  552SOL    HW1 2555   5.397   4.648   0.186
  552SOL    HW2 2556   5.341   4.640   0.033
  553SOL     OW 2557   2.535   6.492   2.426
  553SOL    HW1 2558   2.614   6.477   2.366
  553SOL    HW2 2559   2.525   6.590   2.444
  554SOL     OW 2560   5.376   0.056   6.518
  554SOL    HW1 2561   5.445   7.007   6.509
  554SOL    HW2 2562   5.296   0.032   6.463
  555SOL     OW 2563   2.107   5.528   3.764
  555SOL    HW1 2564   2.044   5.597   3.799
  555SOL    HW2 2565   2.122   5.543   3.666
  556SOL     OW 2566   4.382   2.429   3.522
  556SOL    HW1 2567   4.458   2.370   3.495
  556SOL    HW2 2568   4.418   2.519   3.548
  557SOL     OW 2569   0.276   5.174   0.722
  557SOL    HW1 2570   0.200   5.229   0.688
  557SOL    HW2 2571   0.339   5.155   0.646
  558SOL     OW 2572   2.907   3.400   4.608
  558SOL    HW1 2573   2.984   3.364   4.555
  558SOL    HW2 2574   2.906   3.356   4.698
  559SOL     OW 2575   6.757   5.813   6.927
  559SOL    HW1 2576   6.854   5.804   6.949
  559SOL    HW2 2577   6.704   5.759   6.993
  560SOL     OW 2578   4.796   4.845   6.907
  560SOL    HW1 2579   4.793   4.945   6.914
  560SOL    HW2 2580   4.733   4.815   6.836
  561SOL     OW 2581   0.374   1.406   0.881
  561SOL    HW1 2582   0.351   1.417   0.977
  561SOL    HW2 2583   0.440   1.476   0.854
  562SOL     OW 2584   4.973   0.652   5.907
  562SOL    HW1 2585   5.030   0.653   5.825
  562SOL    HW2 2586   4.997   0.730   5.965
  563SOL     OW 2587   2.015   0.685   3.778
  563SOL    HW1 2588   2.062   0.598   3.793
  563SOL    HW2 2589   2.023   0.710   3.681
  564SOL     OW 2590   1.373   1.966   6.960
  564SOL    HW1 2591   1.444   2.033   6.982
  564SOL    HW2 2592   1.291   2.015   6.927
  565SOL     OW 2593   3.883   2.835   5.278
  565SOL    HW1 2594   3.894   2.825   5.179
  565SOL    HW2 2595   3.807   2.897   5.296
  566SOL     OW 2596   6.751   5.131   3.937
  566SOL    HW1 2597   6.674   5.073   3.963
  566SOL    HW2 2598   6.725   5.187   3.859
  567SOL     OW 2599   3.048   3.014   1.542
  567SOL    HW1 2600   2.984   3.078   1.501
  567SOL    HW2 2601   3.089   2.958   1.470
  568SOL     OW 2602   4.871   1.445   0.042
  568SOL    HW1 2603   4.799   1.462   0.110
  568SOL    HW2 2604   4.886   1.347   0.034
  569SOL     OW 2605   1.540   2.798   6.681
  569SOL    HW1 2606   1.612   2.867   6.685
  569SOL    HW2 2607   1.560   2.725   6.746
  570SOL     OW 2608   3.126   6.370   6.936
  570SOL    HW1 2609   3.092   6.402   6.848
  570SOL    HW2 2610   3.182   6.441   6.978
  571SOL     OW 2611   3.159   0.432   2.154
  571SOL    HW1 2612   3.163   0.390   2.245
  571SOL    HW2 2613   3.065   0.430   2.120
  572SOL     OW 2614   3.178   4.718   5.708
  572SOL    HW1 2615   3.179   4.714   5.808
  572SOL    HW2 2616   3.125   4.640   5.672
  573SOL     OW 2617   5.341   2.140   5.768
  573SOL    HW1 2618   5.308   2.062   5.715
  573SOL    HW2 2619   5.391   2.107   5.849
  574SOL     OW 2620   3.019   1.874   4.109
  574SOL    HW1 2621   3.095   1.933   4.136
  574SOL    HW2 2622   3.054   1.783   4.084
  575SOL     OW 2623   5.307   3.831   0.622
  575SOL    HW1 2624   5.354   3.760   0.569
  575SOL    HW2 2625   5.209   3.822   0.611
  576SOL     OW 2626   1.186   2.257   2.990
  576SOL    HW1 2627   1.207   2.160   2.978
  576SOL    HW2 2628   1.266   2.312   2.965
  577SOL     OW 2629   1.113   1.334   2.227
  577SOL    HW1 2630   1.117   1.434   2.227
  577SOL    HW2 2631   1.136   1.300   2.135
  578SOL     OW 2632   6.058   5.519   3.239
  578SOL    HW1 2633   5.958   5.523   3.231
  578SOL    HW2 2634   6.093   5.445   3.182
  579SOL     OW 2635   1.867   2.893   2.470
  579SOL    HW1 2636   1.868   2.801   2.509
  579SOL    HW2 2637   1.795   2.899   2.400
  580SOL     OW 2638   6.716   5.267   6.889
  580SOL    HW1 2639   6.777   5.271   6.810
  580SOL    HW2 2640   6.764   5.300   6.970
  581SOL     OW 2641   2.837   3.383   2.158
  581SOL    HW1 2642   2.853   3.481   2.152
  581SOL    HW2 2643   2.761   3.358   2.098
  582SOL     OW 2644   4.944   0.017   2.008
  582SOL    HW1 2645   5.007   0.010   2.085
  582SOL    HW2 2646   4.879   0.091   2.023
  583SOL     OW 2647   3.190   5.269   5.790
  583SOL    HW1 2648   3.174   5.185   5.737
  583SOL    HW2 2649   3.164   5.254   5.885
  584SOL     OW 2650   3.040   4.003   6.325
  584SOL    HW1 2651   3.035   3.957   6.414
  584SOL    HW2 2652   3.112   3.961   6.269
  585SOL     OW 2653   5.339   2.985   6.183
  585SOL    HW1 2654   5.279   2.916   6.144
  585SOL    HW2 2655   5.287   3.045   6.243
  586SOL     OW 2656   3.518   1.756   5.955
  586SOL    HW1 2657   3.484   1.737   5.863
  586SOL    HW2 2658   3.585   1.686   5.981
  587SOL     OW 2659   3.840   0.983   5.750
  587SOL    HW1 2660   3.918   1.001   5.810
  587SOL    HW2 2661   3.757   1.022   5.791
  588SOL     OW 2662   2.339   4.820   1.169
  588SOL    HW1 2663   2.290   4.810   1.256
  588SOL    HW2 2664   2.275   4.851   1.098
  589SOL     OW 2665   2.969   5.164   1.541
  589SOL    HW1 2666   2.941   5.102   1.615
  589SOL    HW2 2667   2.944   5.258   1.565
  590SOL     OW 2668   4.917   3.324   2.724
  590SOL    HW1 2669   4.823   3.314   2.758
  590SOL    HW2 2670   4.926   3.271   2.640
  591SOL     OW 2671   3.708   5.570   4.180
  591SOL    HW1 2672   3.779   5.561   4.249
  591SOL    HW2 2673   3.671   5.480   4.159
  592SOL     OW 2674   3.279   0.938   1.529
  592SOL    HW1 2675   3.361   0.943   1.587
  592SOL    HW2 2676   3.306   0.940   1.433
  593SOL     OW 2677   4.646   2.425   3.105
  593SOL    HW1 2678   4.559   2.389   3.137
  593SOL    HW2 2679   4.631   2.512   3.058
  594SOL     OW 2680   5.503   2.384   6.726
  594SOL    HW1 2681   5.594   2.394   6.686
  594SOL    HW2 2682   5.509   2.333   6.812
  595SOL     OW 2683   5.653   6.677   3.846
  595SOL    HW1 2684   5.579   6.610   3.845
  595SOL    HW2 2685   5.653   6.725   3.934
  596SOL     OW 2686   2.069   4.435   3.284
  596SOL    HW1 2687   1.970   4.448   3.295
  596SOL    HW2 2688   2.111   4.426   3.374
  597SOL     OW 2689   3.578   6.805   6.680
  597SOL    HW1 2690   3.598   6.837   6.773
  597SOL    HW2 2691   3.644   6.734   6.655
  598SOL     OW 2692   3.452   4.480   5.692
  598SOL    HW1 2693   3.517   4.437   5.629
  598SOL    HW2 2694   3.433   4.574   5.662
  599SOL     OW 2695   2.091   6.310   2.251
  599SOL    HW1 2696   2.082   6.269   2.160
  599SOL    HW2 2697   2.184   6.344   2.263
  600SOL     OW 2698   1.083   1.129   0.374
  600SOL    HW1 2699   1.064   1.225   0.394
  600SOL    HW2 2700   0.997   1.077   0.373
  601SOL     OW 2701   3.026   6.967   4.462
  601SOL    HW1 2702   3.089   6.999   4.533
  601SOL    HW2 2703   3.036   0.001   4.381
  602SOL     OW 2704   2.250   2.863   6.401
  602SOL    HW1 2705   2.189   2.851   6.323
  602SOL    HW2 2706   2.345   2.859   6.371
  603SOL     OW 2707   3.357   1.711   3.885
  603SOL    HW1 2708   3.399   1.783   3.829
  603SOL    HW2 2709   3.427   1.646   3.913
  604SOL     OW 2710   0.750   3.676   1.703
  604SOL    HW1 2711   0.694   3.660   1.784
  604SOL    HW2 2712   0.804   3.594   1.683
  605SOL     OW 2713   6.873   6.345   2.336
  605SOL    HW1 2714   6.920   6.386   2.415
  605SOL    HW2 2715   6.774   6.352   2.350
  606SOL     OW 2716   5.047   0.535   6.375
  606SOL    HW1 2717   5.070   0.564   6.282
  606SOL    HW2 2718   5.002   0.446   6.371
  607SOL     OW 2719   5.862   0.253   5.716
  607SOL    HW1 2720   5.957   0.259   5.747
  607SOL    HW2 2721   5.847   0.165   5.672
  608SOL     OW 2722   2.874   6.416   6.516
  608SOL    HW1 2723   2.926   6.450   6.437
  608SOL    HW2 2724   2.777   6.434   6.502
  609SOL     OW 2725   4.002   3.109   3.511
  609SOL    HW1 2726   3.908   3.079   3.493
  609SOL    HW2 2727   4.003   3.169   3.591
  610SOL     OW 2728   4.944   3.245   1.833
  610SOL    HW1 2729   4.870   3.218   1.771
  610SOL    HW2 2730   4.999   3.165   1.855
  611SOL     OW 2731   3.492   0.180   0.178
  611SOL    HW1 2732   3.552   0.260   0.171
  611SOL    HW2 2733   3.446   0.181   0.267
  612SOL     OW 2734   3.546   6.375   5.674
  612SOL    HW1 2735   3.603   6.300   5.705
  612SOL    HW2 2736   3.576   6.461   5.716
  613SOL     OW 2737   4.061   6.830   5.881
  613SOL    HW1 2738   4.122   6.814   5.958
  613SOL    HW2 2739   3.968   6.799   5.904
  614SOL     OW 2740   4.712   4.523   1.152
  614SOL    HW1 2741   4.709   4.463   1.231
  614SOL    HW2 2742   4.630   4.581   1.150
  615SOL     OW 2743   0.253   2.454   1.577
  615SOL    HW1 2744   0.163   2.420   1.604
  615SOL    HW2 2745   0.296   2.498   1.656
  616SOL     OW 2746   0.300   2.343   3.777
  616SOL    HW1 2747   0.272   2.310   3.868
  616SOL    HW2 2748   0.290   2.269   3.711
  617SOL     OW 2749   6.259   3.392   6.202
  617SOL    HW1 2750   6.254   3.393   6.301
  617SOL    HW2 2751   6.166   3.390   6.164
  618SOL     OW 2752   6.540   2.668   6.531
  618SOL    HW1 2753   6.631   2.678   6.570
  618SOL    HW2 2754   6.538   2.709   6.440
  619SOL     OW 2755   4.862   0.554   6.596
  619SOL    HW1 2756   4.778   0.569   6.544
  619SOL    HW2 2757   4.938   0.536   6.534
  620SOL     OW 2758   4.845   2.528   1.540
  620SOL    HW1 2759   4.925   2.474   1.513
  620SOL    HW2 2760   4.766   2.499   1.487
  621SOL     OW 2761   1.981   6.603   5.886
  621SOL    HW1 2762   2.020   6.511   5.875
  621SOL    HW2 2763   1.979   6.649   5.797
  622SOL     OW 2764   0.905   1.157   4.288
  622SOL    HW1 2765   0.903   1.177   4.190
  622SOL    HW2 2766   0.876   1.063   4.303
  623SOL     OW 2767   1.644   6.330   5.970
  623SOL    HW1 2768   1.588   6.252   5.944
  623SOL    HW2 2769   1.729   6.297   6.012
  624SOL     OW 2770   0.368   1.882   1.309
  624SOL    HW1 2771   0.348   1.857   1.404
  624SOL    HW2 2772   0.467   1.881   1.295
  625SOL     OW 2773   1.738   2.124   1.644
  625SOL    HW1 2774   1.728   2.025   1.659
  625SOL    HW2 2775   1.796   2.163   1.715
  626SOL     OW 2776   1.097   5.876   3.024
  626SOL    HW1 2777   1.115   5.873   3.122
  626SOL    HW2 2778   1.156   5.810   2.977
  627SOL     OW 2779   6.831   6.492   1.033
  627SOL    HW1 2780   6.919   6.501   0.986
  627SOL    HW2 2781   6.758   6.525   0.974
  628SOL     OW 2782   5.640   5.821   5.735
  628SOL    HW1 2783   5.609   5.894   5.675
  628SOL    HW2 2784   5.709   5.857   5.799
  629SOL     OW 2785   0.624   0.666   6.589
  629SOL    HW1 2786   0.618   0.644   6.492
  629SOL    HW2 2787   0.715   0.700   6.610
  630SOL     OW 2788   0.325   1.605   0.445
  630SOL    HW1 2789   0.355   1.531   0.385
  630SOL    HW2 2790   0.395   1.676   0.447
  631SOL     OW 2791   3.752   1.324   5.454
  631SOL    HW1 2792   3.670   1.309   5.509
  631SOL    HW2 2793   3.803   1.238   5.447
  632SOL     OW 2794   4.318   1.835   1.510
  632SOL    HW1 2795   4.399   1.840   1.568
  632SOL    HW2 2796   4.236   1.828   1.567
  633SOL     OW 2797   3.356   3.740   6.765
  633SOL    HW1 2798   3.344   3.731   6.864
  633SOL    HW2 2799   3.366   3.650   6.724
  634SOL     OW 2800   4.021   3.546   2.748
  634SOL    HW1 2801   4.049   3.451   2.763
  634SOL    HW2 2802   3.987   3.556   2.655
  635SOL     OW 2803   4.478   5.650   0.947
  635SOL    HW1 2804   4.542   5.573   0.946
  635SOL    HW2 2805   4.528   5.734   0.927
  636SOL     OW 2806   3.413   6.670   0.244
  636SOL    HW1 2807   3.471   6.628   0.314
  636SOL    HW2 2808   3.466   6.736   0.192
  637SOL     OW 2809   0.147   3.096   3.247
  637SOL    HW1 2810   0.068   3.063   3.196
  637SOL    HW2 2811   0.161   3.193   3.228
  638SOL     OW 2812   5.647   3.139   3.032
  638SOL    HW1 2813   5.739   3.119   3.001
  638SOL    HW2 2814   5.582   3.124   2.957
  639SOL     OW 2815   5.036   3.578   2.723
  639SOL    HW1 2816   4.997   3.486   2.719
  639SOL    HW2 2817   5.019   3.625   2.636
  640SOL     OW 2818   0.436   5.168   3.962
  640SOL    HW1 2819   0.387   5.085   3.935
  640SOL    HW2 2820   0.423   5.184   4.060
  641SOL     OW 2821   0.618   4.609   5.450
  641SOL    HW1 2822   0.603   4.645   5.358
  641SOL    HW2 2823   0.650   4.515   5.444
  642SOL     OW 2824   0.063   3.318   4.187
  642SOL    HW1 2825   0.113   3.382   4.245
  642SOL    HW2 2826   0.068   3.348   4.092
  643SOL     OW 2827   6.260   6.983   6.111
  643SOL    HW1 2828   6.308   7.003   6.026
  643SOL    HW2 2829   6.231   6.888   6.112
  644SOL     OW 2830   1.594   6.723   4.169
  644SOL    HW1 2831   1.584   6.655   4.097
  644SOL    HW2 2832   1.576   6.814   4.131
  645SOL     OW 2833   3.937   0.202   4.879
  645SOL    HW1 2834   3.930   0.103   4.886
  645SOL    HW2 2835   4.031   0.231   4.896
  646SOL     OW 2836   3.336   0.716   4.435
  646SOL    HW1 2837   3.295   0.633   4.472
  646SOL    HW2 2838   3.264   0.780   4.408
  647SOL     OW 2839   5.139   2.039   4.909
  647SOL    HW1 2840   5.126   2.137   4.893
  647SOL    HW2 2841   5.143   1.992   4.821
  648SOL     OW 2842   0.658   3.624   4.008
  648SOL    HW1 2843   0.614   3.664   4.089
  648SOL    HW2 2844   0.615   3.659   3.926
  649SOL     OW 2845   2.031   4.112   1.390
  649SOL    HW1 2846   2.090   4.190   1.367
  649SOL    HW2 2847   1.944   4.146   1.425
  650SOL     OW 2848   5.977   4.710   0.311
  650SOL    HW1 2849   6.040   4.691   0.236
  650SOL    HW2 2850   6.013   4.672   0.396
  651SOL     OW 2851   1.281   6.649   6.440
  651SOL    HW1 2852   1.237   6.560   6.453
  651SOL    HW2 2853   1.293   6.666   6.342
  652SOL     OW 2854   5.027   6.945   4.081
  652SOL    HW1 2855   4.931   6.922   4.097
  652SOL    HW2 2856   5.032   0.009   4.030
  653SOL     OW 2857   1.268   5.872   6.981
  653SOL    HW1 2858   1.345   5.929   6.952
  653SOL    HW2 2859   1.253   5.798   6.915
  654SOL     OW 2860   0.673   5.944   0.433
  654SOL    HW1 2861   0.663   5.857   0.481
  654SOL    HW2 2862   0.684   6.018   0.499
  655SOL     OW 2863   6.997   5.617   1.058
  655SOL    HW1 2864   6.981   5.520   1.072
  655SOL    HW2 2865   0.027   5.653   1.136
  656SOL     OW 2866   2.261   5.883   1.047
  656SOL    HW1 2867   2.320   5.963   1.038
  656SOL    HW2 2868   2.273   5.843   1.138
  657SOL     OW 2869   2.556   3.574   1.154
  657SOL    HW1 2870   2.489   3.600   1.085
  657SOL    HW2 2871   2.510   3.558   1.242
  658SOL     OW 2872   1.420   3.289   6.652
  658SOL    HW1 2873   1.360   3.331   6.584
  658SOL    HW2 2874   1.382   3.200   6.680
  659SOL     OW 2875   1.632   6.006   4.921
  659SOL    HW1 2876   1.579   5.946   4.980
  659SOL    HW2 2877   1.694   6.062   4.977
  660SOL     OW 2878   5.970   3.910   2.624
  660SOL    HW1 2879   5.969   3.817   2.587
  660SOL    HW2 2880   5.876   3.945   2.626
  661SOL     OW 2881   5.022   3.765   3.533
  661SOL    HW1 2882   5.083   3.813   3.470
  661SOL    HW2 2883   5.026   3.667   3.516
  662SOL     OW 2884   4.273   0.376   4.894
  662SOL    HW1 2885   4.275   0.328   4.807
  662SOL    HW2 2886   4.196   0.440   4.896
  663SOL     OW 2887   1.242   3.430   6.854
  663SOL    HW1 2888   1.177   3.388   6.790
  663SOL    HW2 2889   1.321   3.370   6.864
  664SOL     OW 2890   0.320   5.344   6.666
  664SOL    HW1 2891   0.269   5.426   6.641
  664SOL    HW2 2892   0.400   5.336   6.606
  665SOL     OW 2893   4.523   5.017   0.848
  665SOL    HW1 2894   4.457   5.067   0.903
  665SOL    HW2 2895   4.475   4.951   0.790
  666SOL     OW 2896   4.987   1.878   2.954
  666SOL    HW1 2897   4.983   1.899   3.052
  666SOL    HW2 2898   5.068   1.823   2.936
  667SOL     OW 2899   6.122   4.007   3.215
  667SOL    HW1 2900   6.222   4.017   3.209
  667SOL    HW2 2901   6.081   4.029   3.127
  668SOL     OW 2902   5.034   6.301   6.872
  668SOL    HW1 2903   5.070   6.394   6.879
  668SOL    HW2 2904   4.973   6.283   6.949
  669SOL     OW 2905   3.934   5.974   3.666
  669SOL    HW1 2906   3.868   5.934   3.602
  669SOL    HW2 2907   4.017   6.001   3.617
  670SOL     OW 2908   2.809   3.246   1.329
  670SOL    HW1 2909   2.906   3.256   1.307
  670SOL    HW2 2910   2.790   3.151   1.353
  671SOL     OW 2911   2.629   5.408   6.935
  671SOL    HW1 2912   2.587   5.408   0.003
  671SOL    HW2 2913   2.559   5.430   6.866
  672SOL     OW 2914   0.796   4.742   1.967
  672SOL    HW1 2915   0.834   4.651   1.986
  672SOL    HW2 2916   0.705   4.732   1.927
  673SOL     OW 2917   6.705   0.544   1.554
  673SOL    HW1 2918   6.644   0.616   1.522
  673SOL    HW2 2919   6.658   0.456   1.550
  674SOL     OW 2920   0.279   3.480   4.851
  674SOL    HW1 2921   0.191   3.494   4.896
  674SOL    HW2 2922   0.334   3.415   4.904
  675SOL     OW 2923   0.619   0.968   4.957
  675SOL    HW1 2924   0.710   1.007   4.974
  675SOL    HW2 2925   0.557   1.040   4.926
  676SOL     OW 2926   3.827   5.759   2.846
  676SOL    HW1 2927   3.792   5.683   2.901
  676SOL    HW2 2928   3.834   5.731   2.751
  677SOL     OW 2929   5.959   1.410   7.007
  677SOL    HW1 2930   5.873   1.450   0.018
  677SOL    HW2 2931   5.939   1.345   6.934
  678SOL     OW 2932   0.912   1.404   4.767
  678SOL    HW1 2933   0.903   1.341   4.690
  678SOL    HW2 2934   0.863   1.489   4.746
  679SOL     OW 2935   4.905   1.745   4.375
  679SOL    HW1 2936   4.951   1.782   4.294
  679SOL    HW2 2937   4.971   1.695   4.431
  680SOL     OW 2938   5.494   5.379   6.124
  680SOL    HW1 2939   5.434   5.443   6.077
  680SOL    HW2 2940   5.589   5.398   6.099
  681SOL     OW 2941   5.610   6.244   1.314
  681SOL    HW1 2942   5.671   6.320   1.336
  681SOL    HW2 2943   5.633   6.165   1.370
  682SOL     OW 2944   1.868   6.771   0.599
  682SOL    HW1 2945   1.838   6.761   0.504
  682SOL    HW2 2946   1.967   6.764   0.603
  683SOL     OW 2947   3.620   2.790   6.647
  683SOL    HW1 2948   3.633   2.881   6.607
  683SOL    HW2 2949   3.684   2.726   6.604
  684SOL     OW 2950   6.074   0.937   6.978
  684SOL    HW1 2951   6.151   0.998   6.958
  684SOL    HW2 2952   6.017   0.927   6.897
  685SOL     OW 2953   4.493   1.033   4.029
  685SOL    HW1 2954   4.405   0.990   4.052
  685SOL    HW2 2955   4.564   0.996   4.089
  686SOL     OW 2956   5.763   3.034   3.309
  686SOL    HW1 2957   5.765   2.935   3.293
  686SOL    HW2 2958   5.708   3.078   3.238
  687SOL     OW 2959   0.145   3.005   4.917
  687SOL    HW1 2960   0.216   3.029   4.850
  687SOL    HW2 2961   0.058   3.048   4.889
  688SOL     OW 2962   1.538   2.578   6.478
  688SOL    HW1 2963   1.538   2.481   6.454
  688SOL    HW2 2964   1.595   2.592   6.559
  689SOL     OW 2965   0.254   4.349   6.227
  689SOL    HW1 2966   0.320   4.311   6.292
  689SOL    HW2 2967   0.271   4.446   6.215
  690SOL     OW 2968   0.670   3.934   3.811
  690SOL    HW1 2969   0.697   4.018   3.858
  690SOL    HW2 2970   0.732   3.918   3.733
  691SOL     OW 2971   2.627   0.414   6.137
  691SOL    HW1 2972   2.565   0.336   6.129
  691SOL    HW2 2973   2.649   0.449   6.046
  692SOL     OW 2974   3.610   6.664   3.579
  692SOL    HW1 2975   3.535   6.726   3.602
  692SOL    HW2 2976   3.696   6.714   3.577
  693SOL     OW 2977   6.339   0.550   3.407
  693SOL    HW1 2978   6.306   0.641   3.431
  693SOL    HW2 2979   6.264   0.495   3.371
  694SOL     OW 2980   3.649   6.357   2.643
  694SOL    HW1 2981   3.697   6.332   2.559
  694SOL    HW2 2982   3.706   6.335   2.722
  695SOL     OW 2983   4.344   5.807   5.482
  695SOL    HW1 2984   4.363   5.710   5.469
  695SOL    HW2 2985   4.252   5.828   5.448
  696SOL     OW 2986   3.236   5.592   2.513
  696SOL    HW1 2987   3.212   5.590   2.416
  696SOL    HW2 2988   3.156   5.566   2.567
  697SOL     OW 2989   2.231   2.957   4.328
  697SOL    HW1 2990   2.231   2.866   4.285
  697SOL    HW2 2991   2.270   3.024   4.265
  698SOL     OW 2992   5.567   0.172   6.681
  698SOL    HW1 2993   5.497   0.126   6.627
  698SOL    HW2 2994   5.549   0.271   6.682
  699SOL     OW 2995   1.233   4.189   6.681
  699SOL    HW1 2996   1.240   4.089   6.674
  699SOL    HW2 2997   1.137   4.216   6.679
  700SOL     OW 2998   2.413   1.869   3.581
  700SOL    HW1 2999   2.502   1.825   3.593
  700SOL    HW2 3000   2.351   1.807   3.533
  701SOL     OW 3001   6.070   3.567   5.180
  701SOL    HW1 3002   6.084   3.663   5.153
  701SOL    HW2 3003   6.040   3.564   5.276
  702SOL     OW 3004   0.117   6.576   6.283
  702SOL    HW1 3005   0.099   6.577   6.382
  702SOL    HW2 3006   0.086   6.490   6.244
  703SOL     OW 3007   3.530   4.087   6.278
  703SOL    HW1 3008   3.613   4.084   6.334
  703SOL    HW2 3009   3.480   4.002   6.288
  704SOL     OW 3010   1.460   1.506   6.323
  704SOL    HW1 3011   1.500   1.588   6.363
  704SOL    HW2 3012   1.365   1.498   6.352
  705SOL     OW 3013   6.358   6.806   3.079
  705SOL    HW1 3014   6.396   6.745   3.010
  705SOL    HW2 3015   6.347   6.756   3.165
  706SOL     OW 3016   4.427   2.284   4.147
  706SOL    HW1 3017   4.433   2.227   4.229
  706SOL    HW2 3018   4.335   2.279   4.109
  707SOL     OW 3019   4.615   6.493   2.214
  707SOL    HW1 3020   4.709   6.492   2.247
  707SOL    HW2 3021   4.568   6.409   2.241
  708SOL     OW 3022   4.208   0.843   1.010
  708SOL    HW1 3023   4.112   0.814   1.002
  708SOL    HW2 3024   4.226   0.874   1.103
  709SOL     OW 3025   1.059   4.955   0.986
  709SOL    HW1 3026   1.089   5.019   1.057
  709SOL    HW2 3027   1.016   4.875   1.028
  710SOL     OW 3028   3.507   2.889   2.680
  710SOL    HW1 3029   3.550   2.903   2.591
  710SOL    HW2 3030   3.419   2.937   2.683
  711SOL     OW 3031   0.088   2.508   6.046
  711SOL    HW1 3032   0.181   2.534   6.018
  711SOL    HW2 3033   0.084   2.410   6.061
  712SOL     OW 3034   3.774   3.763   1.213
  712SOL    HW1 3035   3.852   3.789   1.157
  712SOL    HW2 3036   3.707   3.838   1.214
  713SOL     OW 3037   3.619   2.912   6.212
  713SOL    HW1 3038   3.569   2.972   6.149
  713SOL    HW2 3039   3.649   2.965   6.291
  714SOL     OW 3040   6.366   4.775   3.687
  714SOL    HW1 3041   6.373   4.858   3.632
  714SOL    HW2 3042   6.406   4.792   3.778
  715SOL     OW 3043   5.881   6.135   0.005
  715SOL    HW1 3044   5.946   6.203   0.039
  715SOL    HW2 3045   5.903   6.045   0.044
  716SOL     OW 3046   1.205   0.318   0.600
  716SOL    HW1 3047   1.150   0.309   0.683
  716SOL    HW2 3048   1.170   0.394   0.545
  717SOL     OW 3049   5.841   4.530   6.557
  717SOL    HW1 3050   5.833   4.624   6.589
  717SOL    HW2 3051   5.831   4.527   6.458
  718SOL     OW 3052   4.566   2.374   6.361
  718SOL    HW1 3053   4.646   2.412   6.407
  718SOL    HW2 3054   4.552   2.280   6.390
  719SOL     OW 3055   6.914   1.565   1.800
  719SOL    HW1 3056   6.981   1.514   1.854
  719SOL    HW2 3057   6.826   1.517   1.801
  720SOL     OW 3058   3.680   0.667   6.606
  720SOL    HW1 3059   3.750   0.734   6.634
  720SOL    HW2 3060   3.724   0.580   6.585
  721SOL     OW 3061   2.410   1.062   4.195
  721SOL    HW1 3062   2.359   1.000   4.135
  721SOL    HW2 3063   2.355   1.084   4.275
  722SOL     OW 3064   2.923   0.352   4.339
  722SOL    HW1 3065   2.908   0.369   4.436
  722SOL    HW2 3066   2.887   0.261   4.315
  723SOL     OW 3067   2.066   3.510   3.106
  723SOL    HW1 3068   2.117   3.547   3.029
  723SOL    HW2 3069   1.999   3.576   3.138
  724SOL     OW 3070   1.570   2.724   4.902
  724SOL    HW1 3071   1.602   2.715   4.808
  724SOL    HW2 3072   1.634   2.676   4.963
  725SOL     OW 3073   3.957   6.084   0.683
  725SOL    HW1 3074   4.032   6.023   0.657
  725SOL    HW2 3075   3.875   6.060   0.631
  726SOL     OW 3076   4.263   5.118   0.480
  726SOL    HW1 3077   4.298   5.083   0.567
  726SOL    HW2 3078   4.243   5.041   0.419
  727SOL     OW 3079   5.814   5.648   6.084
  727SOL    HW1 3080   5.787   5.558   6.048
  727SOL    HW2 3081   5.894   5.681   6.035
  728SOL     OW 3082   6.374   3.691   4.743
  728SOL    HW1 3083   6.290   3.743   4.732
  728SOL    HW2 3084   6.381   3.622   4.672
  729SOL     OW 3085   1.148   1.903   0.563
  729SOL    HW1 3086   1.232   1.865   0.525
  729SOL    HW2 3087   1.069   1.856   0.525
  730SOL     OW 3088   5.601   1.738   2.612
  730SOL    HW1 3089   5.550   1.703   2.533
  730SOL    HW2 3090   5.623   1.834   2.597
  731SOL     OW 3091   5.435   4.181   5.883
  731SOL    HW1 3092   5.339   4.197   5.861
  731SOL    HW2 3093   5.445   4.168   5.982
  732SOL     OW 3094   0.328   2.662   0.881
  732SOL    HW1 3095   0.365   2.572   0.906
  732SOL    HW2 3096   0.304   2.712   0.964
  733SOL     OW 3097   6.212   5.877   5.642
  733SOL    HW1 3098   6.257   5.827   5.716
  733SOL    HW2 3099   6.144   5.939   5.681
  734SOL     OW 3100   6.707   4.691   2.533
  734SOL    HW1 3101   6.805   4.702   2.517
  734SOL    HW2 3102   6.694   4.638   2.618
  735SOL     OW 3103   3.701   2.512   0.713
  735SOL    HW1 3104   3.634   2.438   0.718
  735SOL    HW2 3105   3.690   2.560   0.626
  736SOL     OW 3106   0.687   0.347   2.811
  736SOL    HW1 3107   0.695   0.256   2.851
  736SOL    HW2 3108   0.667   0.414   2.882
  737SOL     OW 3109   4.999   2.374   6.071
  737SOL    HW1 3110   4.977   2.472   6.079
  737SOL    HW2 3111   4.931   2.330   6.012
  738SOL     OW 3112   1.944   4.386   2.353
  738SOL    HW1 3113   2.038   4.361   2.332
  738SOL    HW2 3114   1.921   4.472   2.308
  739SOL     OW 3115   4.268   0.456   3.972
  739SOL    HW1 3116   4.239   0.426   3.881
  739SOL    HW2 3117   4.189   0.485   4.025
  740SOL     OW 3118   5.421   0.574   0.833
  740SOL    HW1 3119   5.329   0.594   0.865
  740SOL    HW2 3120   5.471   0.526   0.905
  741SOL     OW 3121   2.044   6.554   3.417
  741SOL    HW1 3122   2.133   6.572   3.375
  741SOL    HW2 3123   2.051   6.473   3.476
  742SOL     OW 3124   2.051   6.566   1.824
  742SOL    HW1 3125   2.083   6.586   1.916
  742SOL    HW2 3126   1.995   6.642   1.791
  743SOL     OW 3127   0.138   3.869   4.167
  743SOL    HW1 3128   0.198   3.943   4.197
  743SOL    HW2 3129   0.190   3.803   4.112
  744SOL     OW 3130   5.274   0.187   6.878
  744SOL    HW1 3131   5.199   0.204   6.814
  744SOL    HW2 3132   5.341   0.127   6.835
  745SOL     OW 3133   0.826   5.342   4.642
  745SOL    HW1 3134   0.754   5.377   4.583
  745SOL    HW2 3135   0.852   5.412   4.709
  746SOL     OW 3136   6.957   5.022   6.221
  746SOL    HW1 3137   6.987   4.979   6.136
  746SOL    HW2 3138   6.860   5.048   6.214
  747SOL     OW 3139   4.102   6.468   4.654
  747SOL    HW1 3140   4.070   6.466   4.749
  747SOL    HW2 3141   4.056   6.541   4.605
  748SOL     OW 3142   3.282   5.199   2.399
  748SOL    HW1 3143   3.268   5.278   2.459
  748SOL    HW2 3144   3.196   5.177   2.353
  749SOL     OW 3145   6.308   4.438   4.959
  749SOL    HW1 3146   6.401   4.456   4.993
  749SOL    HW2 3147   6.242   4.481   5.021
  750SOL     OW 3148   2.272   2.016   0.839
  750SOL    HW1 3149   2.323   2.081   0.783
  750SOL    HW2 3150   2.334   1.943   0.868
  751SOL     OW 3151   3.807   2.534   6.244
  751SOL    HW1 3152   3.710   2.528   6.221
  751SOL    HW2 3153   3.858   2.467   6.191
  752SOL     OW 3154   3.697   1.424   2.176
  752SOL    HW1 3155   3.674   1.490   2.104
  752SOL    HW2 3156   3.626   1.354   2.180
  753SOL     OW 3157   1.770   3.429   4.759
  753SOL    HW1 3158   1.723   3.470   4.681
  753SOL    HW2 3159   1.861   3.470   4.768
  754SOL     OW 3160   5.489   2.831   5.577
  754SOL    HW1 3161   5.533   2.917   5.551
  754SOL    HW2 3162   5.465   2.780   5.495
  755SOL     OW 3163   1.892   4.437   5.578
  755SOL    HW1 3164   1.946   4.451   5.661
  755SOL    HW2 3165   1.847   4.522   5.552
  756SOL     OW 3166   3.648   0.252   0.655
  756SOL    HW1 3167   3.676   0.338   0.613
  756SOL    HW2 3168   3.572   0.213   0.603
  757SOL     OW 3169   0.825   0.048   3.910
  757SOL    HW1 3170   0.817   7.005   3.985
  757SOL    HW2 3171   0.753   0.030   3.842
  758SOL     OW 3172   3.801   6.786   1.883
  758SOL    HW1 3173   3.762   6.827   1.801
  758SOL    HW2 3174   3.778   6.842   1.962
  759SOL     OW 3175   1.045   1.260   1.321
  759SOL    HW1 3176   0.973   1.327   1.302
  759SOL    HW2 3177   1.030   1.220   1.412
  760SOL     OW 3178   5.225   0.422   5.602
  760SOL    HW1 3179   5.152   0.440   5.669
  760SOL    HW2 3180   5.247   0.506   5.553
  761SOL     OW 3181   5.877   2.946   5.657
  761SOL    HW1 3182   5.943   2.990   5.596
  761SOL    HW2 3183   5.902   2.850   5.669
  762SOL     OW 3184   2.844   0.741   4.943
  762SOL    HW1 3185   2.890   0.777   4.862
  762SOL    HW2 3186   2.880   0.785   5.025
  763SOL     OW 3187   4.234   5.045   6.248
  763SOL    HW1 3188   4.312   5.106   6.236
  763SOL    HW2 3189   4.209   5.005   6.160
  764SOL     OW 3190   5.026   1.613   4.818
  764SOL    HW1 3191   4.928   1.591   4.825
  764SOL    HW2 3192   5.071   1.588   4.903
  765SOL     OW 3193   1.271   6.205   1.290
  765SOL    HW1 3194   1.330   6.212   1.209
  765SOL    HW2 3195   1.222   6.118   1.288
  766SOL     OW 3196   2.376   3.688   6.965
  766SOL    HW1 3197   2.334   3.760   6.911
  766SOL    HW2 3198   2.433   3.631   6.906
  767SOL     OW 3199   6.496   6.007   1.842
  767SOL    HW1 3200   6.403   5.980   1.817
  767SOL    HW2 3201   6.553   6.007   1.761
  768SOL     OW 3202   1.854   6.316   1.898
  768SOL    HW1 3203   1.933   6.373   1.876
  768SOL    HW2 3204   1.771   6.372   1.897
  769SOL     OW 3205   3.286   0.737   4.962
  769SOL    HW1 3206   3.308   0.832   4.982
  769SOL    HW2 3207   3.257   0.729   4.866
  770SOL     OW 3208   2.242   4.054   2.972
  770SOL    HW1 3209   2.260   4.000   3.055
  770SOL    HW2 3210   2.289   4.142   2.979
  771SOL     OW 3211   2.647   5.361   2.641
  771SOL    HW1 3212   2.551   5.360   2.671
  771SOL    HW2 3213   2.660   5.292   2.570
  772SOL     OW 3214   5.373   5.056   0.744
  772SOL    HW1 3215   5.292   5.009   0.707
  772SOL    HW2 3216   5.373   5.151   0.711
  773SOL     OW 3217   0.504   3.540   4.720
  773SOL    HW1 3218   0.504   3.498   4.629
  773SOL    HW2 3219   0.432   3.499   4.775
  774SOL     OW 3220   1.511   1.787   1.321
  774SOL    HW1 3221   1.600   1.771   1.278
  774SOL    HW2 3222   1.447   1.715   1.293
  775SOL     OW 3223   0.419   2.410   2.753
  775SOL    HW1 3224   0.375   2.411   2.663
  775SOL    HW2 3225   0.381   2.482   2.810
  776SOL     OW 3226   0.712   6.665   6.131
  776SOL    HW1 3227   0.647   6.734   6.162
  776SOL    HW2 3228   0.792   6.666   6.191
  777SOL     OW 3229   2.544   4.997   1.248
  777SOL    HW1 3230   2.459   4.948   1.231
  777SOL    HW2 3231   2.588   4.961   1.330
  778SOL     OW 3232   2.969   1.496   2.543
  778SOL    HW1 3233   2.998   1.511   2.637
  778SOL    HW2 3234   2.943   1.400   2.531
  779SOL     OW 3235   0.248   2.727   2.352
  779SOL    HW1 3236   0.319   2.793   2.330
  779SOL    HW2 3237   0.189   2.713   2.272
  780SOL     OW 3238   6.500   4.119   3.619
  780SOL    HW1 3239   6.486   4.206   3.572
  780SOL    HW2 3240   6.557   4.059   3.563
  781SOL     OW 3241   5.661   0.777   6.969
  781SOL    HW1 3242   5.569   0.737   6.966
  781SOL    HW2 3243   5.711   0.741   0.025
  782SOL     OW 3244   1.499   4.119   6.693
  782SOL    HW1 3245   1.500   4.028   6.651
  782SOL    HW2 3246   1.406   4.154   6.693
  783SOL     OW 3247   3.808   5.251   1.018
  783SOL    HW1 3248   3.855   5.338   1.037
  783SOL    HW2 3249   3.711   5.269   1.000
  784SOL     OW 3250   5.520   6.604   0.435
  784SOL    HW1 3251   5.423   6.598   0.457
  784SOL    HW2 3252   5.534   6.583   0.339
  785SOL     OW 3253   0.326   2.576   2.936
  785SOL    HW1 3254   0.234   2.574   2.898
  785SOL    HW2 3255   0.322   2.605   3.032
  786SOL     OW 3256   1.440   0.799   1.272
  786SOL    HW1 3257   1.367   0.814   1.339
  786SOL    HW2 3258   1.402   0.805   1.180
  787SOL     OW 3259   3.391   0.002   6.703
  787SOL    HW1 3260   3.373   0.041   6.793
  787SOL    HW2 3261   3.456   6.949   6.711
  788SOL     OW 3262   4.130   2.919   5.361
  788SOL    HW1 3263   4.070   2.912   5.282
  788SOL    HW2 3264   4.077   2.949   5.441
  789SOL     OW 3265   5.275   4.179   0.508
  789SOL    HW1 3266   5.212   4.217   0.440
  789SOL    HW2 3267   5.272   4.079   0.503
  790SOL     OW 3268   1.516   1.404   4.213
  790SOL    HW1 3269   1.470   1.404   4.302
  790SOL    HW2 3270   1.460   1.454   4.147
  791SOL     OW 3271   3.606   5.322   4.147
  791SOL    HW1 3272   3.629   5.284   4.057
  791SOL    HW2 3273   3.534   5.266   4.189
  792SOL     OW 3274   0.873   6.851   1.441
  792SOL    HW1 3275   0.935   6.774   1.424
  792SOL    HW2 3276   0.852   6.855   1.539
  793SOL     OW 3277   4.756   5.112   3.878
  793SOL    HW1 3278   4.730   5.092   3.784
  793SOL    HW2 3279   4.733   5.206   3.900
  794SOL     OW 3280   3.361   3.597   5.633
  794SOL    HW1 3281   3.351   3.664   5.708
  794SOL    HW2 3282   3.423   3.524   5.662
  795SOL     OW 3283   3.909   6.793   4.338
  795SOL    HW1 3284   3.853   6.737   4.277
  795SOL    HW2 3285   3.984   6.834   4.286
  796SOL     OW 3286   1.017   1.708   6.365
  796SOL    HW1 3287   1.082   1.667   6.429
  796SOL    HW2 3288   0.967   1.636   6.317
  797SOL     OW 3289   5.194   2.895   1.292
  797SOL    HW1 3290   5.213   2.980   1.242
  797SOL    HW2 3291   5.253   2.822   1.258
  798SOL     OW 3292   4.745   0.185   2.058
  798SOL    HW1 3293   4.659   0.161   2.103
  798SOL    HW2 3294   4.763   0.282   2.070
  799SOL     OW 3295   6.285   0.646   5.787
  799SOL    HW1 3296   6.355   0.679   5.724
  799SOL    HW2 3297   6.311   0.668   5.881
  800SOL     OW 3298   5.196   1.977   2.587
  800SOL    HW1 3299   5.181   2.012   2.494
  800SOL    HW2 3300   5.125   2.012   2.648
  801SOL     OW 3301   1.230   3.576   4.345
  801SOL    HW1 3302   1.233   3.545   4.440
  801SOL    HW2 3303   1.284   3.659   4.335
  802SOL     OW 3304   4.410   1.396   0.705
  802SOL    HW1 3305   4.369   1.459   0.640
  802SOL    HW2 3306   4.458   1.323   0.656
  803SOL     OW 3307   0.146   6.904   5.113
  803SOL    HW1 3308   0.108   6.915   5.022
  803SOL    HW2 3309   0.075   6.919   5.182
  804SOL     OW 3310   5.326   5.459   6.546
  804SOL    HW1 3311   5.407   5.515   6.531
  804SOL    HW2 3312   5.317   5.392   6.472
  805SOL     OW 3313   3.536   0.695   5.552
  805SOL    HW1 3314   3.458   0.707   5.491
  805SOL    HW2 3315   3.505   0.659   5.640
  806SOL     OW 3316   4.981   1.469   4.301
  806SOL    HW1 3317   5.056   1.526   4.269
  806SOL    HW2 3318   4.946   1.505   4.387
  807SOL     OW 3319   1.334   2.019   3.929
  807SOL    HW1 3320   1.299   1.962   4.003
  807SOL    HW2 3321   1.322   1.971   3.842
  808SOL     OW 3322   4.269   3.456   6.742
  808SOL    HW1 3323   4.316   3.502   6.818
  808SOL    HW2 3324   4.331   3.451   6.664
  809SOL     OW 3325   6.832   5.382   1.996
  809SOL    HW1 3326   6.839   5.353   1.901
  809SOL    HW2 3327   6.837   5.482   2.001
  810SOL     OW 3328   3.294   2.897   1.106
  810SOL    HW1 3329   3.353   2.977   1.096
  810SOL    HW2 3330   3.320   2.827   1.040
  811SOL     OW 3331   3.673   5.796   5.020
  811SOL    HW1 3332   3.730   5.719   4.990
  811SOL    HW2 3333   3.593   5.761   5.069
  812SOL     OW 3334   0.341   1.451   1.881
  812SOL    HW1 3335   0.362   1.437   1.784
  812SOL    HW2 3336   0.355   1.548   1.904
  813SOL     OW 3337   3.482   6.386   5.334
  813SOL    HW1 3338   3.448   6.458   5.394
  813SOL    HW2 3339   3.410   6.318   5.319
  814SOL     OW 3340   6.382   6.492   2.696
  814SOL    HW1 3341   6.326   6.410   2.707
  814SOL    HW2 3342   6.408   6.503   2.600
  815SOL     OW 3343   0.402   3.962   3.333
  815SOL    HW1 3344   0.317   3.945   3.283
  815SOL    HW2 3345   0.449   3.875   3.349
  816SOL     OW 3346   6.298   6.384   0.198
  816SOL    HW1 3347   6.273   6.464   0.144
  816SOL    HW2 3348   6.380   6.405   0.252
  817SOL     OW 3349   1.906   3.612   1.277
  817SOL    HW1 3350   1.894   3.692   1.336
  817SOL    HW2 3351   2.002   3.604   1.251
  818SOL     OW 3352   6.323   2.858   2.178
  818SOL    HW1 3353   6.263   2.841   2.100
  818SOL    HW2 3354   6.283   2.816   2.260
  819SOL     OW 3355   5.648   2.926   2.792
  819SOL    HW1 3356   5.687   2.890   2.707
  819SOL    HW2 3357   5.716   2.983   2.838
  820SOL     OW 3358   2.800   2.916   6.003
  820SOL    HW1 3359   2.794   2.830   5.950
  820SOL    HW2 3360   2.745   2.986   5.958
  821SOL     OW 3361   1.133   4.138   0.882
  821SOL    HW1 3362   1.150   4.118   0.978
  821SOL    HW2 3363   1.154   4.057   0.826
  822SOL     OW 3364   1.736   4.726   4.953
  822SOL    HW1 3365   1.827   4.746   4.991
  822SOL    HW2 3366   1.715   4.792   4.881
  823SOL     OW 3367   5.317   3.806   6.719
  823SOL    HW1 3368   5.398   3.772   6.767
  823SOL    HW2 3369   5.345   3.874   6.652
  824SOL     OW 3370   5.348   1.418   5.488
  824SOL    HW1 3371   5.342   1.427   5.588
  824SOL    HW2 3372   5.439   1.385   5.463
  825SOL     OW 3373   0.492   4.306   1.163
  825SOL    HW1 3374   0.508   4.373   1.235
  825SOL    HW2 3375   0.440   4.229   1.200
  826SOL     OW 3376   5.326   3.056   5.431
  826SOL    HW1 3377   5.392   3.129   5.418
  826SOL    HW2 3378   5.289   3.060   5.524
  827SOL     OW 3379   3.697   4.813   5.622
  827SOL    HW1 3380   3.600   4.825   5.599
  827SOL    HW2 3381   3.716   4.716   5.636
  828SOL     OW 3382   4.834   6.915   6.607
  828SOL    HW1 3383   4.768   6.844   6.634
  828SOL    HW2 3384   4.908   6.872   6.555
  829SOL     OW 3385   2.988   3.882   3.205
  829SOL    HW1 3386   3.059   3.933   3.253
  829SOL    HW2 3387   2.905   3.937   3.199
  830SOL     OW 3388   4.336   4.442   6.272
  830SOL    HW1 3389   4.290   4.408   6.190
  830SOL    HW2 3390   4.323   4.541   6.279
  831SOL     OW 3391   5.759   1.177   6.482
  831SOL    HW1 3392   5.757   1.161   6.383
  831SOL    HW2 3393   5.793   1.095   6.527
  832SOL     OW 3394   3.441   0.791   2.230
  832SOL    HW1 3395   3.442   0.699   2.267
  832SOL    HW2 3396   3.447   0.857   2.304
  833SOL     OW 3397   0.212   3.924   5.290
  833SOL    HW1 3398   0.258   3.852   5.342
  833SOL    HW2 3399   0.261   4.011   5.302
  834SOL     OW 3400   3.535   3.728   0.876
  834SOL    HW1 3401   3.551   3.630   0.892
  834SOL    HW2 3402   3.516   3.743   0.779
  835SOL     OW 3403   3.491   0.202   5.101
  835SOL    HW1 3404   3.527   0.223   5.010
  835SOL    HW2 3405   3.444   0.114   5.098
  836SOL     OW 3406   3.789   6.288   6.948
  836SOL    HW1 3407   3.704   6.330   6.915
  836SOL    HW2 3408   3.862   6.356   6.945
  837SOL     OW 3409   5.706   6.751   0.579
  837SOL    HW1 3410   5.640   6.694   0.531
  837SOL    HW2 3411   5.694   6.846   0.552
  838SOL     OW 3412   2.060   0.703   4.590
  838SOL    HW1 3413   2.022   0.638   4.524
  838SOL    HW2 3414   2.143   0.744   4.551
  839SOL     OW 3415   2.630   2.421   1.924
  839SOL    HW1 3416   2.651   2.477   1.844
  839SOL    HW2 3417   2.715   2.394   1.969
  840SOL     OW 3418   5.869   6.791   6.876
  840SOL    HW1 3419   5.877   6.756   6.969
  840SOL    HW2 3420   5.912   6.727   6.812
  841SOL     OW 3421   4.286   4.857   6.971
  841SOL    HW1 3422   4.201   4.825   6.931
  841SOL    HW2 3423   4.315   4.941   6.924
  842SOL     OW 3424   4.010   6.823   4.815
  842SOL    HW1 3425   4.070   6.898   4.843
  842SOL    HW2 3426   4.024   6.744   4.875
  843SOL     OW 3427   1.747   1.371   1.042
  843SOL    HW1 3428   1.717   1.279   1.018
  843SOL    HW2 3429   1.801   1.368   1.126
  844SOL     OW 3430   6.318   0.674   0.959
  844SOL    HW1 3431   6.412   0.702   0.977
  844SOL    HW2 3432   6.314   0.624   0.873
  845SOL     OW 3433   5.774   3.990   5.262
  845SOL    HW1 3434   5.689   3.992   5.314
  845SOL    HW2 3435   5.763   3.931   5.182
  846SOL     OW 3436   2.259   1.928   0.054
  846SOL    HW1 3437   2.177   1.872   0.047
  846SOL    HW2 3438   2.328   1.893   7.014
  847SOL     OW 3439   1.513   3.062   1.066
  847SOL    HW1 3440   1.465   3.028   1.147
  847SOL    HW2 3441   1.611   3.044   1.077
  848SOL     OW 3442   5.482   0.963   6.088
  848SOL    HW1 3443   5.461   1.014   6.004
  848SOL    HW2 3444   5.424   0.882   6.093
  849SOL     OW 3445   0.688   4.306   6.212
  849SOL    HW1 3446   0.642   4.242   6.275
  849SOL    HW2 3447   0.704   4.393   6.259
  850SOL     OW 3448   5.144   0.938   3.391
  850SOL    HW1 3449   5.115   0.852   3.350
  850SOL    HW2 3450   5.086   1.012   3.357
  851SOL     OW 3451   0.574   2.007   2.314
  851SOL    HW1 3452   0.487   2.033   2.356
  851SOL    HW2 3453   0.624   2.090   2.288
  852SOL     OW 3454   1.658   2.423   0.226
  852SOL    HW1 3455   1.629   2.382   0.312
  852SOL    HW2 3456   1.587   2.484   0.193
  853SOL     OW 3457   1.792   4.422   2.701
  853SOL    HW1 3458   1.887   4.442   2.728
  853SOL    HW2 3459   1.738   4.404   2.782
  854SOL     OW 3460   4.373   5.839   1.788
  854SOL    HW1 3461   4.368   5.929   1.830
  854SOL    HW2 3462   4.283   5.815   1.750
  855SOL     OW 3463   0.325   0.468   1.815
  855SOL    HW1 3464   0.257   0.539   1.830
  855SOL    HW2 3465   0.374   0.485   1.730
  856SOL     OW 3466   1.309   1.431   5.361
  856SOL    HW1 3467   1.272   1.417   5.453
  856SOL    HW2 3468   1.400   1.472   5.368
  857SOL     OW 3469   5.972   5.152   1.588
  857SOL    HW1 3470   5.919   5.079   1.630
  857SOL    HW2 3471   6.066   5.122   1.573
  858SOL     OW 3472   3.031   3.788   1.303
  858SOL    HW1 3473   3.097   3.744   1.364
  858SOL    HW2 3474   2.957   3.723   1.283
  859SOL     OW 3475   4.656   5.573   5.534
  859SOL    HW1 3476   4.600   5.601   5.612
  859SOL    HW2 3477   4.698   5.484   5.554
  860SOL     OW 3478   4.515   3.789   0.822
  860SOL    HW1 3479   4.459   3.863   0.861
  860SOL    HW2 3480   4.481   3.701   0.855
  861SOL     OW 3481   2.679   0.441   3.655
  861SOL    HW1 3482   2.732   0.425   3.739
  861SOL    HW2 3483   2.602   0.501   3.675
  862SOL     OW 3484   0.325   3.699   5.421
  862SOL    HW1 3485   0.362   3.729   5.509
  862SOL    HW2 3486   0.272   3.615   5.435
  863SOL     OW 3487   0.078   0.166   0.670
  863SOL    HW1 3488   7.009   0.154   0.710
  863SOL    HW2 3489   0.147   0.143   0.738
  864SOL     OW 3490   4.132   4.769   3.432
  864SOL    HW1 3491   4.108   4.751   3.528
  864SOL    HW2 3492   4.215   4.717   3.408
  865SOL     OW 3493   1.457   5.893   6.093
  865SOL    HW1 3494   1.370   5.929   6.125
  865SOL    HW2 3495   1.442   5.808   6.043
  866SOL     OW 3496   1.419   2.345   2.215
  866SOL    HW1 3497   1.347   2.286   2.254
  866SOL    HW2 3498   1.430   2.324   2.118
  867SOL     OW 3499   3.799   3.739   0.640
  867SOL    HW1 3500   3.715   3.685   0.643
  867SOL    HW2 3501   3.869   3.689   0.589
  868SOL     OW 3502   5.575   0.140   1.301
  868SOL    HW1 3503   5.526   0.065   1.345
  868SOL    HW2 3504   5.521   0.224   1.308
  869SOL     OW 3505   6.235   5.319   2.894
  869SOL    HW1 3506   6.312   5.293   2.952
  869SOL    HW2 3507   6.237   5.418   2.879
  870SOL     OW 3508   4.418   2.993   1.038
  870SOL    HW1 3509   4.470   2.980   1.122
  870SOL    HW2 3510   4.322   2.973   1.054
  871SOL     OW 3511   4.892   3.013   3.036
  871SOL    HW1 3512   4.890   3.099   3.087
  871SOL    HW2 3513   4.812   2.957   3.062
  872SOL     OW 3514   5.392   4.158   3.893
  872SOL    HW1 3515   5.385   4.059   3.879
  872SOL    HW2 3516   5.475   4.179   3.944
  873SOL     OW 3517   5.653   6.805   4.522
  873SOL    HW1 3518   5.633   6.780   4.427
  873SOL    HW2 3519   5.751   6.795   4.539
  874SOL     OW 3520   0.981   4.787   5.667
  874SOL    HW1 3521   0.887   4.763   5.690
  874SOL    HW2 3522   1.029   4.819   5.749
  875SOL     OW 3523   3.530   2.791   0.636
  875SOL    HW1 3524   3.611   2.841   0.605
  875SOL    HW2 3525   3.475   2.764   0.557
  876SOL     OW 3526   0.654   5.416   3.150
  876SOL    HW1 3527   0.645   5.411   3.050
  876SOL    HW2 3528   0.731   5.359   3.179
  877SOL     OW 3529   3.970   3.371   6.918
  877SOL    HW1 3530   4.008   3.312   6.848
  877SOL    HW2 3531   3.997   3.466   6.901
  878SOL     OW 3532   4.418   5.552   5.345
  878SOL    HW1 3533   4.514   5.577   5.356
  878SOL    HW2 3534   4.404   5.510   5.255
  879SOL     OW 3535   2.772   2.126   1.920
  879SOL    HW1 3536   2.690   2.109   1.976
  879SOL    HW2 3537   2.810   2.215   1.945
  880SOL     OW 3538   3.302   3.825   5.800
  880SOL    HW1 3539   3.391   3.843   5.843
  880SOL    HW2 3540   3.247   3.908   5.799
  881SOL     OW 3541   4.587   4.271   5.252
  881SOL    HW1 3542   4.622   4.217   5.175
  881SOL    HW2 3543   4.542   4.354   5.217
  882SOL     OW 3544   1.660   1.546   3.984
  882SOL    HW1 3545   1.627   1.524   4.075
  882SOL    HW2 3546   1.637   1.641   3.961
  883SOL     OW 3547   4.773   5.610   5.908
  883SOL    HW1 3548   4.858   5.581   5.863
  883SOL    HW2 3549   4.734   5.688   5.859
  884SOL     OW 3550   0.120   4.020   0.082
  884SOL    HW1 3551   0.213   4.019   0.046
  884SOL    HW2 3552   0.058   3.981   0.013
  885SOL     OW 3553   5.105   5.630   6.249
  885SOL    HW1 3554   5.122   5.677   6.335
  885SOL    HW2 3555   5.019   5.662   6.210
  886SOL     OW 3556   3.813   0.606   0.674
  886SOL    HW1 3557   3.890   0.627   0.613
  886SOL    HW2 3558   3.747   0.548   0.627
  887SOL     OW 3559   4.131   6.887   4.173
  887SOL    HW1 3560   4.138   6.979   4.133
  887SOL    HW2 3561   4.222   6.847   4.181
  888SOL     OW 3562   5.860   6.028   2.693
  888SOL    HW1 3563   5.798   5.952   2.715
  888SOL    HW2 3564   5.813   6.092   2.633
  889SOL     OW 3565   1.775   6.270   5.416
  889SOL    HW1 3566   1.746   6.207   5.488
  889SOL    HW2 3567   1.874   6.264   5.403
  890SOL     OW 3568   2.286   4.840   1.957
  890SOL    HW1 3569   2.287   4.791   2.045
  890SOL    HW2 3570   2.191   4.855   1.929
  891SOL     OW 3571   6.391   4.134   1.092
  891SOL    HW1 3572   6.301   4.105   1.059
  891SOL    HW2 3573   6.392   4.234   1.103
  892SOL     OW 3574   3.938   4.167   5.826
  892SOL    HW1 3575   3.930   4.217   5.740
  892SOL    HW2 3576   4.021   4.196   5.873
  893SOL     OW 3577   2.014   0.907   2.503
  893SOL    HW1 3578   1.999   0.948   2.593
  893SOL    HW2 3579   2.078   0.964   2.451
  894SOL     OW 3580   1.576   2.366   3.879
  894SOL    HW1 3581   1.536   2.407   3.796
  894SOL    HW2 3582   1.612   2.275   3.857
  895SOL     OW 3583   1.317   6.071   4.990
  895SOL    HW1 3584   1.253   6.115   4.928
  895SOL    HW2 3585   1.308   5.972   4.983
  896SOL     OW 3586   5.646   7.018   2.191
  896SOL    HW1 3587   5.585   0.049   2.133
  896SOL    HW2 3588   5.683   0.053   2.263
  897SOL     OW 3589   4.965   1.058   0.094
  897SOL    HW1 3590   4.895   0.988   0.111
  897SOL    HW2 3591   4.938   1.114   0.015
  898SOL     OW 3592   4.165   5.759   2.746
  898SOL    HW1 3593   4.157   5.772   2.845
  898SOL    HW2 3594   4.084   5.796   2.701
  899SOL     OW 3595   0.270   5.216   0.312
  899SOL    HW1 3596   0.179   5.253   0.328
  899SOL    HW2 3597   0.268   5.116   0.324
  900SOL     OW 3598   4.877   6.001   1.661
  900SOL    HW1 3599   4.927   5.925   1.618
  900SOL    HW2 3600   4.795   6.021   1.608
  901SOL     OW 3601   1.181   1.018   5.882
  901SOL    HW1 3602   1.183   1.079   5.802
  901SOL    HW2 3603   1.274   0.990   5.904
  902SOL     OW 3604   0.033   2.136   6.953
  902SOL    HW1 3605   0.018   2.152   6.856
  902SOL    HW2 3606   0.131   2.130   6.972
  903SOL     OW 3607   6.782   3.882   6.456
  903SOL    HW1 3608   6.692   3.907   6.488
  903SOL    HW2 3609   6.792   3.782   6.459
  904SOL     OW 3610   1.738   2.653   3.699
  904SOL    HW1 3611   1.653   2.652   3.648
  904SOL    HW2 3612   1.771   2.559   3.711
  905SOL     OW 3613   4.697   3.669   6.517
  905SOL    HW1 3614   4.647   3.616   6.585
  905SOL    HW2 3615   4.637   3.689   6.439
  906SOL     OW 3616   0.873   3.543   5.834
  906SOL    HW1 3617   0.891   3.578   5.742
  906SOL    HW2 3618   0.784   3.576   5.865
  907SOL     OW 3619   5.876   3.091   2.903
  907SOL    HW1 3620   5.946   3.020   2.907
  907SOL    HW2 3621   5.911   3.169   2.850
  908SOL     OW 3622   1.851   6.290   3.201
  908SOL    HW1 3623   1.869   6.291   3.300
  908SOL    HW2 3624   1.911   6.223   3.158
  909SOL     OW 3625   2.714   6.456   2.041
  909SOL    HW1 3626   2.691   6.366   2.005
  909SOL    HW2 3627   2.727   6.520   1.965
  910SOL     OW 3628   2.630   0.569   1.202
  910SOL    HW1 3629   2.540   0.596   1.169
  910SOL    HW2 3630   2.696   0.574   1.128
  911SOL     OW 3631   7.005   5.326   1.091
  911SOL    HW1 3632   7.018   5.318   1.190
  911SOL    HW2 3633   0.034   5.254   1.044
  912SOL     OW 3634   6.298   0.843   4.823
  912SOL    HW1 3635   6.338   0.761   4.784
  912SOL    HW2 3636   6.364   0.918   4.817
  913SOL     OW 3637   1.954   0.533   3.405
  913SOL    HW1 3638   2.013   0.469   3.454
  913SOL    HW2 3639   1.951   0.508   3.309
  914SOL     OW 3640   2.967   6.029   4.853
  914SOL    HW1 3641   2.902   6.075   4.914
  914SOL    HW2 3642   3.031   6.096   4.816
  915SOL     OW 3643   1.261   3.042   0.180
  915SOL    HW1 3644   1.337   3.046   0.115
  915SOL    HW2 3645   1.225   3.135   0.195
  916SOL     OW 3646   1.707   2.494   1.975
  916SOL    HW1 3647   1.693   2.396   1.968
  916SOL    HW2 3648   1.721   2.533   1.884
  917SOL     OW 3649   5.380   0.441   1.929
  917SOL    HW1 3650   5.287   0.412   1.952
  917SOL    HW2 3651   5.430   0.461   2.013
  918SOL     OW 3652   2.721   6.708   6.761
  918SOL    HW1 3653   2.640   6.691   6.704
  918SOL    HW2 3654   2.737   6.629   6.820
  919SOL     OW 3655   6.841   5.611   2.368
  919SOL    HW1 3656   6.838   5.515   2.397
  919SOL    HW2 3657   6.878   5.616   2.275
  920SOL     OW 3658   1.867   5.965   3.463
  920SOL    HW1 3659   1.857   6.064   3.453
  920SOL    HW2 3660   1.948   5.946   3.518
  921SOL     OW 3661   4.777   4.267   3.907
  921SOL    HW1 3662   4.761   4.223   3.818
  921SOL    HW2 3663   4.825   4.203   3.967
  922SOL     OW 3664   3.127   2.685   5.931
  922SOL    HW1 3665   3.077   2.731   5.858
  922SOL    HW2 3666   3.073   2.688   6.016
  923SOL     OW 3667   2.843   4.574   6.387
  923SOL    HW1 3668   2.849   4.486   6.434
  923SOL    HW2 3669   2.923   4.587   6.328
  924SOL     OW 3670   6.416   2.561   2.767
  924SOL    HW1 3671   6.319   2.572   2.787
  924SOL    HW2 3672   6.470   2.590   2.846
  925SOL     OW 3673   6.956   1.932   5.680
  925SOL    HW1 3674   6.870   1.961   5.721
  925SOL    HW2 3675   6.996   1.858   5.734
  926SOL     OW 3676   6.474   0.882   0.162
  926SOL    HW1 3677   6.413   0.804   0.148
  926SOL    HW2 3678   6.503   0.886   0.258
  927SOL     OW 3679   5.569   4.294   3.218
  927SOL    HW1 3680   5.528   4.222   3.163
  927SOL    HW2 3681   5.665   4.304   3.193
  928SOL     OW 3682   1.758   6.661   0.817
  928SOL    HW1 3683   1.808   6.710   0.746
  928SOL    HW2 3684   1.677   6.713   0.844
  929SOL     OW 3685   0.816   0.917   1.169
  929SOL    HW1 3686   0.804   1.009   1.205
  929SOL    HW2 3687   0.824   0.921   1.069
  930SOL     OW 3688   5.654   5.935   4.982
  930SOL    HW1 3689   5.703   5.934   4.894
  930SOL    HW2 3690   5.597   5.853   4.988
  931SOL     OW 3691   5.673   3.553   2.428
  931SOL    HW1 3692   5.689   3.496   2.348
  931SOL    HW2 3693   5.693   3.649   2.405
  932SOL     OW 3694   2.878   6.670   2.711
  932SOL    HW1 3695   2.964   6.654   2.761
  932SOL    HW2 3696   2.865   6.596   2.644
  933SOL     OW 3697   0.670   5.670   3.322
  933SOL    HW1 3698   0.640   5.595   3.263
  933SOL    HW2 3699   0.651   5.757   3.278
  934SOL     OW 3700   1.395   1.036   5.160
  934SOL    HW1 3701   1.449   0.958   5.189
  934SOL    HW2 3702   1.303   1.006   5.135
  935SOL     OW 3703   5.080   3.713   5.305
  935SOL    HW1 3704   5.069   3.677   5.398
  935SOL    HW2 3705   5.076   3.638   5.239
  936SOL     OW 3706   1.646   1.330   6.235
  936SOL    HW1 3707   1.569   1.386   6.268
  936SOL    HW2 3708   1.723   1.340   6.297
  937SOL     OW 3709   4.802   1.501   4.518
  937SOL    HW1 3710   4.809   1.589   4.564
  937SOL    HW2 3711   4.726   1.503   4.453
  938SOL     OW 3712   0.468   5.323   6.396
  938SOL    HW1 3713   0.378   5.365   6.396
  938SOL    HW2 3714   0.525   5.364   6.324
  939SOL     OW 3715   4.522   0.987   5.463
  939SOL    HW1 3716   4.504   1.041   5.545
  939SOL    HW2 3717   4.505   1.043   5.382
  940SOL     OW 3718   0.613   3.405   2.750
  940SOL    HW1 3719   0.674   3.335   2.787
  940SOL    HW2 3720   0.560   3.367   2.674
  941SOL     OW 3721   6.451   0.638   4.722
  941SOL    HW1 3722   6.526   0.605   4.666
  941SOL    HW2 3723   6.446   0.583   4.806
  942SOL     OW 3724   4.922   6.849   3.737
  942SOL    HW1 3725   4.934   6.940   3.698
  942SOL    HW2 3726   4.979   6.783   3.688
  943SOL     OW 3727   1.343   3.680   3.949
  943SOL    HW1 3728   1.356   3.719   3.858
  943SOL    HW2 3729   1.250   3.700   3.980
  944SOL     OW 3730   6.408   4.061   5.403
  944SOL    HW1 3731   6.461   4.127   5.350
  944SOL    HW2 3732   6.337   4.108   5.455
  945SOL     OW 3733   6.519   4.416   5.605
  945SOL    HW1 3734   6.577   4.487   5.644
  945SOL    HW2 3735   6.574   4.335   5.583
  946SOL     OW 3736   4.536   3.488   5.825
  946SOL    HW1 3737   4.559   3.552   5.751
  946SOL    HW2 3738   4.493   3.539   5.900
  947SOL     OW 3739   3.378   3.187   4.477
  947SOL    HW1 3740   3.361   3.145   4.567
  947SOL    HW2 3741   3.315   3.147   4.410
  948SOL     OW 3742   4.120   0.340   0.809
  948SOL    HW1 3743   4.187   0.391   0.754
  948SOL    HW2 3744   4.046   0.307   0.751
  949SOL     OW 3745   0.445   6.380   6.511
  949SOL    HW1 3746   0.506   6.404   6.587
  949SOL    HW2 3747   0.437   6.458   6.449
  950SOL     OW 3748   4.139   5.024   1.568
  950SOL    HW1 3749   4.229   4.981   1.583
  950SOL    HW2 3750   4.132   5.054   1.473
  951SOL     OW 3751   1.464   0.804   2.806
  951SOL    HW1 3752   1.413   0.825   2.723
  951SOL    HW2 3753   1.400   0.796   2.883
  952SOL     OW 3754   5.825   2.027   2.359
  952SOL    HW1 3755   5.794   1.960   2.426
  952SOL    HW2 3756   5.905   1.991   2.310
  953SOL     OW 3757   5.255   5.779   5.063
  953SOL    HW1 3758   5.299   5.802   5.150
  953SOL    HW2 3759   5.161   5.751   5.080
  954SOL     OW 3760   5.128   5.702   0.578
  954SOL    HW1 3761   5.102   5.779   0.520
  954SOL    HW2 3762   5.128   5.618   0.524
  955SOL     OW 3763   0.157   5.156   3.408
  955SOL    HW1 3764   0.160   5.199   3.498
  955SOL    HW2 3765   0.200   5.066   3.413
  956SOL     OW 3766   0.283   2.126   2.692
  956SOL    HW1 3767   0.300   2.217   2.731
  956SOL    HW2 3768   0.224   2.074   2.753
  957SOL     OW 3769   1.003   5.167   4.464
  957SOL    HW1 3770   0.935   5.220   4.515
  957SOL    HW2 3771   1.075   5.136   4.527
  958SOL     OW 3772   4.566   2.510   2.080
  958SOL    HW1 3773   4.509   2.522   1.999
  958SOL    HW2 3774   4.515   2.459   2.149
  959SOL     OW 3775   3.267   5.100   3.454
  959SOL    HW1 3776   3.201   5.140   3.518
  959SOL    HW2 3777   3.269   5.154   3.370
  960SOL     OW 3778   6.912   5.793   3.403
  960SOL    HW1 3779   6.989   5.730   3.391
  960SOL    HW2 3780   6.843   5.774   3.334
  961SOL     OW 3781   4.970   0.131   3.614
  961SOL    HW1 3782   5.060   0.172   3.627
  961SOL    HW2 3783   4.908   0.199   3.575
  962SOL     OW 3784   1.286   0.922   4.055
  962SOL    HW1 3785   1.332   1.009   4.073
  962SOL    HW2 3786   1.250   0.921   3.962
  963SOL     OW 3787   6.473   2.116   6.115
  963SOL    HW1 3788   6.556   2.172   6.115
  963SOL    HW2 3789   6.413   2.144   6.039
  964SOL     OW 3790   6.265   4.454   0.443
  964SOL    HW1 3791   6.326   4.394   0.392
  964SOL    HW2 3792   6.297   4.549   0.434
  965SOL     OW 3793   5.456   1.230   0.881
  965SOL    HW1 3794   5.374   1.269   0.923
  965SOL    HW2 3795   5.446   1.232   0.781
  966SOL     OW 3796   5.230   2.488   2.094
  966SOL    HW1 3797   5.141   2.532   2.109
  966SOL    HW2 3798   5.265   2.453   2.180
  967SOL     OW 3799   2.651   5.003   1.506
  967SOL    HW1 3800   2.715   4.990   1.582
  967SOL    HW2 3801   2.587   5.076   1.529
  968SOL     OW 3802   4.019   1.854   2.518
  968SOL    HW1 3803   4.032   1.947   2.485
  968SOL    HW2 3804   3.923   1.827   2.505
  969SOL     OW 3805   3.636   5.637   6.948
  969SOL    HW1 3806   3.732   5.622   6.923
  969SOL    HW2 3807   3.590   5.549   6.956
  970SOL     OW 3808   4.832   1.464   5.155
  970SOL    HW1 3809   4.884   1.520   5.219
  970SOL    HW2 3810   4.752   1.515   5.123
  971SOL     OW 3811   6.976   1.787   2.756
  971SOL    HW1 3812   6.889   1.827   2.785
  971SOL    HW2 3813   6.959   1.695   2.719
  972SOL     OW 3814   5.677   4.247   1.135
  972SOL    HW1 3815   5.715   4.187   1.205
  972SOL    HW2 3816   5.657   4.194   1.053
  973SOL     OW 3817   6.647   4.524   6.832
  973SOL    HW1 3818   6.722   4.468   6.865
  973SOL    HW2 3819   6.617   4.490   6.743
  974SOL     OW 3820   5.400   0.320   2.266
  974SOL    HW1 3821   5.306   0.297   2.294
  974SOL    HW2 3822   5.463   0.253   2.303
  975SOL     OW 3823   1.579   5.938   6.643
  975SOL    HW1 3824   1.521   6.006   6.597
  975SOL    HW2 3825   1.578   5.853   6.591
  976SOL     OW 3826   6.465   3.292   2.895
  976SOL    HW1 3827   6.508   3.314   2.807
  976SOL    HW2 3828   6.520   3.224   2.943
  977SOL     OW 3829   1.486   0.774   3.465
  977SOL    HW1 3830   1.461   0.725   3.548
  977SOL    HW2 3831   1.445   0.865   3.465
  978SOL     OW 3832   4.678   4.207   5.634
  978SOL    HW1 3833   4.724   4.164   5.711
  978SOL    HW2 3834   4.592   4.159   5.616
  979SOL     OW 3835   0.169   2.147   1.275
  979SOL    HW1 3836   0.251   2.187   1.317
  979SOL    HW2 3837   0.117   2.097   1.343
  980SOL     OW 3838   3.905   2.078   3.936
  980SOL    HW1 3839   3.806   2.090   3.926
  980SOL    HW2 3840   3.927   2.069   4.033
  981SOL     OW 3841   1.224   1.759   5.304
  981SOL    HW1 3842   1.242   1.666   5.338
  981SOL    HW2 3843   1.141   1.758   5.249
  982SOL     OW 3844   2.669   2.057   3.382
  982SOL    HW1 3845   2.579   2.086   3.351
  982SOL    HW2 3846   2.714   2.134   3.429
  983SOL     OW 3847   5.756   2.105   4.432
  983SOL    HW1 3848   5.790   2.175   4.494
  983SOL    HW2 3849   5.687   2.144   4.372
  984SOL     OW 3850   2.871   1.595   3.873
  984SOL    HW1 3851   2.890   1.509   3.826
  984SOL    HW2 3852   2.874   1.580   3.972
  985SOL     OW 3853   5.009   4.993   6.640
  985SOL    HW1 3854   4.981   5.088   6.656
  985SOL    HW2 3855   5.108   4.986   6.649
  986SOL     OW 3856   5.675   4.109   0.403
  986SOL    HW1 3857   5.618   4.188   0.422
  986SOL    HW2 3858   5.658   4.077   0.310
  987SOL     OW 3859   4.151   6.809   1.725
  987SOL    HW1 3860   4.236   6.772   1.688
  987SOL    HW2 3861   4.119   6.883   1.666
  988SOL     OW 3862   3.489   3.117   3.202
  988SOL    HW1 3863   3.465   3.122   3.298
  988SOL    HW2 3864   3.564   3.052   3.190
  989SOL     OW 3865   6.322   1.044   5.526
  989SOL    HW1 3866   6.317   1.128   5.580
  989SOL    HW2 3867   6.308   1.066   5.429
  990SOL     OW 3868   4.280   0.732   1.955
  990SOL    HW1 3869   4.289   0.632   1.952
  990SOL    HW2 3870   4.360   0.773   1.912
  991SOL     OW 3871   1.705   2.612   5.233
  991SOL    HW1 3872   1.750   2.609   5.143
  991SOL    HW2 3873   1.764   2.659   5.298
  992SOL     OW 3874   0.131   2.773   1.969
  992SOL    HW1 3875   0.182   2.846   1.924
  992SOL    HW2 3876   0.072   2.728   1.902
  993SOL     OW 3877   1.454   4.363   2.087
  993SOL    HW1 3878   1.438   4.460   2.108
  993SOL    HW2 3879   1.551   4.342   2.101
  994SOL     OW 3880   3.333   4.138   2.108
  994SOL    HW1 3881   3.249   4.094   2.075
  994SOL    HW2 3882   3.391   4.161   2.030
  995SOL     OW 3883   3.471   2.961   5.686
  995SOL    HW1 3884   3.475   2.974   5.785
  995SOL    HW2 3885   3.548   2.905   5.655
  996SOL     OW 3886   1.571   4.641   4.320
  996SOL    HW1 3887   1.530   4.550   4.328
  996SOL    HW2 3888   1.668   4.631   4.297
  997SOL     OW 3889   0.806   0.707   3.090
  997SOL    HW1 3890   0.746   0.752   3.155
  997SOL    HW2 3891   0.888   0.674   3.137
  998SOL     OW 3892   3.818   6.638   4.648
  998SOL    HW1 3893   3.812   6.551   4.600
  998SOL    HW2 3894   3.776   6.710   4.593
  999SOL     OW 3895   5.356   4.514   2.202
  999SOL    HW1 3896   5.409   4.451   2.145
  999SOL    HW2 3897   5.269   4.534   2.158
 1000SOL     OW 3898   1.255   0.807   1.486
 1000SOL    HW1 3899   1.314   0.784   1.563
 1000SOL    HW2 3900   1.183   0.738   1.477
 1001SOL     OW 3901   6.103   6.916   0.969
 1001SOL    HW1 3902   6.186   6.860   0.974
 1001SOL    HW2 3903   6.035   6.869   0.913
 1002SOL     OW 3904   6.071   1.804   0.134
 1002SOL    HW1 3905   6.108   1.826   0.044
 1002SOL    HW2 3906   6.129   1.846   0.205
 1003SOL     OW 3907   2.335   5.928   1.834
 1003SOL    HW1 3908   2.295   5.849   1.880
 1003SOL    HW2 3909   2.324   6.009   1.892
 1004SOL     OW 3910   0.273   0.036   1.472
 1004SOL    HW1 3911   0.257   7.003   1.390
 1004SOL    HW2 3912   0.190   0.042   1.526
 1005SOL     OW 3913   0.917   2.470   3.277
 1005SOL    HW1 3914   0.952   2.409   3.349
 1005SOL    HW2 3915   0.876   2.415   3.204
 1006SOL     OW 3916   1.266   4.745   1.098
 1006SOL    HW1 3917   1.269   4.840   1.129
 1006SOL    HW2 3918   1.315   4.738   1.011
 1007SOL     OW 3919   5.359   6.679   4.254
 1007SOL    HW1 3920   5.315   6.663   4.342
 1007SOL    HW2 3921   5.458   6.670   4.264
 1008SOL     OW 3922   2.225   3.030   4.632
 1008SOL    HW1 3923   2.231   2.980   4.546
 1008SOL    HW2 3924   2.249   3.126   4.617
 1009SOL     OW 3925   0.535   5.266   4.781
 1009SOL    HW1 3926   0.593   5.305   4.852
 1009SOL    HW2 3927   0.452   5.230   4.822
 1010SOL     OW 3928   3.740   2.616   5.864
 1010SOL    HW1 3929   3.668   2.550   5.885
 1010SOL    HW2 3930   3.764   2.668   5.946
 1011SOL     OW 3931   2.644   5.454   2.288
 1011SOL    HW1 3932   2.627   5.539   2.337
 1011SOL    HW2 3933   2.636   5.377   2.351
 1012SOL     OW 3934   6.857   0.301   0.748
 1012SOL    HW1 3935   6.771   0.270   0.707
 1012SOL    HW2 3936   6.849   0.296   0.848
 1013SOL     OW 3937   1.153   1.083   6.290
 1013SOL    HW1 3938   1.197   1.163   6.250
 1013SOL    HW2 3939   1.059   1.077   6.257
 1014SOL     OW 3940   4.821   5.888   6.637
 1014SOL    HW1 3941   4.865   5.834   6.709
 1014SOL    HW2 3942   4.760   5.956   6.679
 1015SOL     OW 3943   2.205   6.682   5.613
 1015SOL    HW1 3944   2.106   6.680   5.601
 1015SOL    HW2 3945   2.248   6.615   5.552
 1016SOL     OW 3946   3.745   3.477   0.076
 1016SOL    HW1 3947   3.664   3.506   0.025
 1016SOL    HW2 3948   3.820   3.459   0.011
 1017SOL     OW 3949   4.157   2.769   1.170
 1017SOL    HW1 3950   4.213   2.714   1.232
 1017SOL    HW2 3951   4.141   2.718   1.085
 1018SOL     OW 3952   0.793   3.371   4.275
 1018SOL    HW1 3953   0.791   3.326   4.365
 1018SOL    HW2 3954   0.885   3.367   4.238
 1019SOL     OW 3955   0.342   0.440   0.571
 1019SOL    HW1 3956   0.357   0.480   0.661
 1019SOL    HW2 3957   0.383   0.349   0.568
 1020SOL     OW 3958   0.989   6.609   1.455
 1020SOL    HW1 3959   1.001   6.591   1.552
 1020SOL    HW2 3960   0.893   6.597   1.429
 1021SOL     OW 3961   5.521   0.565   1.562
 1021SOL    HW1 3962   5.556   0.479   1.526
 1021SOL    HW2 3963   5.595   0.616   1.606
 1022SOL     OW 3964   3.509   4.879   6.293
 1022SOL    HW1 3965   3.520   4.848   6.388
 1022SOL    HW2 3966   3.458   4.965   6.292
 1023SOL     OW 3967   0.665   6.761   2.198
 1023SOL    HW1 3968   0.714   6.826   2.140
 1023SOL    HW2 3969   0.662   6.796   2.292
 1024SOL     OW 3970   0.005   3.079   4.467
 1024SOL    HW1 3971   6.962   3.059   4.395
 1024SOL    HW2 3972   0.015   3.178   4.477
 1025SOL     OW 3973   2.837   3.240   0.859
 1025SOL    HW1 3974   2.785   3.171   0.809
 1025SOL    HW2 3975   2.779   3.280   0.931
 1026SOL     OW 3976   2.486   2.570   1.183
 1026SOL    HW1 3977   2.540   2.616   1.254
 1026SOL    HW2 3978   2.424   2.504   1.225
 1027SOL     OW 3979   3.102   6.741   0.920
 1027SOL    HW1 3980   3.191   6.700   0.897
 1027SOL    HW2 3981   3.076   6.807   0.850
 1028SOL     OW 3982   2.882   6.268   0.000
 1028SOL    HW1 3983   2.869   6.346   0.061
 1028SOL    HW2 3984   2.964   6.283   6.967
 1029SOL     OW 3985   2.237   0.516   0.249
 1029SOL    HW1 3986   2.295   0.517   0.331
 1029SOL    HW2 3987   2.292   0.538   0.169
 1030SOL     OW 3988   3.616   3.892   1.793
 1030SOL    HW1 3989   3.520   3.903   1.816
 1030SOL    HW2 3990   3.641   3.795   1.796
 1031SOL     OW 3991   4.774   5.105   0.926
 1031SOL    HW1 3992   4.686   5.061   0.907
 1031SOL    HW2 3993   4.798   5.166   0.851
 1032SOL     OW 3994   2.187   1.672   4.892
 1032SOL    HW1 3995   2.234   1.604   4.948
 1032SOL    HW2 3996   2.251   1.710   4.825
 1033SOL     OW 3997   1.591   6.000   0.983
 1033SOL    HW1 3998   1.679   6.036   1.013
 1033SOL    HW2 3999   1.583   5.905   1.010
 1034SOL     OW 4000   0.518   5.371   5.145
 1034SOL    HW1 4001   0.608   5.332   5.126
 1034SOL    HW2 4002   0.530   5.460   5.189
 1035SOL     OW 4003   1.341   1.563   4.032
 1035SOL    HW1 4004   1.272   1.537   3.963
 1035SOL    HW2 4005   1.350   1.662   4.034
 1036SOL     OW 4006   2.586   1.190   2.028
 1036SOL    HW1 4007   2.613   1.094   2.033
 1036SOL    HW2 4008   2.663   1.248   2.055
 1037SOL     OW 4009   1.782   0.897   1.552
 1037SOL    HW1 4010   1.857   0.877   1.616
 1037SOL    HW2 4011   1.704   0.932   1.603
 1038SOL     OW 4012   1.636   0.182   5.873
 1038SOL    HW1 4013   1.564   0.122   5.836
 1038SOL    HW2 4014   1.615   0.203   5.968
 1039SOL     OW 4015   3.244   2.795   5.645
 1039SOL    HW1 4016   3.331   2.831   5.679
 1039SOL    HW2 4017   3.217   2.846   5.564
 1040SOL     OW 4018   4.774   2.659   2.386
 1040SOL    HW1 4019   4.788   2.746   2.434
 1040SOL    HW2 4020   4.786   2.674   2.288
 1041SOL     OW 4021   6.145   0.358   4.403
 1041SOL    HW1 4022   6.094   0.285   4.447
 1041SOL    HW2 4023   6.192   0.323   4.322
 1042SOL     OW 4024   3.593   5.208   2.696
 1042SOL    HW1 4025   3.582   5.115   2.659
 1042SOL    HW2 4026   3.660   5.206   2.770
 1043SOL     OW 4027   4.055   1.227   4.546
 1043SOL    HW1 4028   4.118   1.189   4.614
 1043SOL    HW2 4029   3.961   1.214   4.577
 1044SOL     OW 4030   5.066   4.304   2.000
 1044SOL    HW1 4031   5.065   4.312   1.900
 1044SOL    HW2 4032   4.972   4.300   2.034
 1045SOL     OW 4033   3.861   6.181   2.000
 1045SOL    HW1 4034   3.855   6.272   2.041
 1045SOL    HW2 4035   3.784   6.125   2.031
 1046SOL     OW 4036   1.214   6.962   0.400
 1046SOL    HW1 4037   1.311   6.970   0.380
 1046SOL    HW2 4038   1.174   6.889   0.345
 1047SOL     OW 4039   1.292   6.966   2.840
 1047SOL    HW1 4040   1.226   0.004   2.885
 1047SOL    HW2 4041   1.373   6.957   2.898
 1048SOL     OW 4042   5.524   6.240   4.841
 1048SOL    HW1 4043   5.472   6.321   4.810
 1048SOL    HW2 4044   5.472   6.157   4.819
 1049SOL     OW 4045   6.043   5.322   3.683
 1049SOL    HW1 4046   5.955   5.275   3.698
 1049SOL    HW2 4047   6.093   5.275   3.610
 1050SOL     OW 4048   4.076   5.401   1.100
 1050SOL    HW1 4049   4.051   5.395   1.196
 1050SOL    HW2 4050   4.117   5.490   1.081
 1051SOL     OW 4051   2.296   5.343   0.706
 1051SOL    HW1 4052   2.233   5.401   0.655
 1051SOL    HW2 4053   2.382   5.333   0.654
 1052SOL     OW 4054   3.909   0.648   4.494
 1052SOL    HW1 4055   3.820   0.657   4.540
 1052SOL    HW2 4056   3.979   0.625   4.561
 1053SOL     OW 4057   5.120   5.266   3.141
 1053SOL    HW1 4058   5.035   5.228   3.104
 1053SOL    HW2 4059   5.196   5.240   3.082
 1054SOL     OW 4060   2.195   3.584   5.407
 1054SOL    HW1 4061   2.286   3.553   5.434
 1054SOL    HW2 4062   2.204   3.652   5.334
 1055SOL     OW 4063   5.340   6.458   3.769
 1055SOL    HW1 4064   5.399   6.501   3.700
 1055SOL    HW2 4065   5.369   6.487   3.860
 1056SOL     OW 4066   1.757   4.853   6.044
 1056SOL    HW1 4067   1.730   4.773   6.097
 1056SOL    HW2 4068   1.773   4.826   5.949
 1057SOL     OW 4069   3.511   3.263   2.753
 1057SOL    HW1 4070   3.580   3.299   2.690
 1057SOL    HW2 4071   3.455   3.195   2.705
 1058SOL     OW 4072   5.174   1.712   2.839
 1058SOL    HW1 4073   5.209   1.702   2.746
 1058SOL    HW2 4074   5.117   1.633   2.862
 1059SOL     OW 4075   2.582   0.290   1.550
 1059SOL    HW1 4076   2.497   0.275   1.499
 1059SOL    HW2 4077   2.656   0.310   1.485
 1060SOL     OW 4078   6.918   4.124   4.540
 1060SOL    HW1 4079   6.957   4.208   4.503
 1060SOL    HW2 4080   6.978   4.087   4.611
 1061SOL     OW 4081   5.417   3.745   1.379
 1061SOL    HW1 4082   5.362   3.666   1.351
 1061SOL    HW2 4083   5.447   3.733   1.473
 1062SOL     OW 4084   5.887   4.228   5.447
 1062SOL    HW1 4085   5.798   4.188   5.426
 1062SOL    HW2 4086   5.923   4.274   5.366
 1063SOL     OW 4087   1.411   4.863   1.691
 1063SOL    HW1 4088   1.381   4.939   1.749
 1063SOL    HW2 4089   1.332   4.805   1.669
 1064SOL     OW 4090   1.755   4.439   2.106
 1064SOL    HW1 4091   1.804   4.383   2.039
 1064SOL    HW2 4092   1.726   4.524   2.063
 1065SOL     OW 4093   4.355   6.950   3.951
 1065SOL    HW1 4094   4.314   6.866   3.914
 1065SOL    HW2 4095   4.454   6.941   3.954
 1066SOL     OW 4096   4.828   0.319   3.810
 1066SOL    HW1 4097   4.784   0.322   3.900
 1066SOL    HW2 4098   4.926   0.306   3.822
 1067SOL     OW 4099   1.132   3.311   0.289
 1067SOL    HW1 4100   1.073   3.363   0.350
 1067SOL    HW2 4101   1.228   3.335   0.306
 1068SOL     OW 4102   4.659   5.088   2.498
 1068SOL    HW1 4103   4.635   5.011   2.439
 1068SOL    HW2 4104   4.589   5.098   2.569
 1069SOL     OW 4105   4.912   4.961   0.553
 1069SOL    HW1 4106   4.849   4.969   0.630
 1069SOL    HW2 4107   4.868   4.996   0.470
 1070SOL     OW 4108   0.730   0.776   2.120
 1070SOL    HW1 4109   0.759   0.872   2.121
 1070SOL    HW2 4110   0.674   0.759   2.039
 1071SOL     OW 4111   2.148   0.461   3.754
 1071SOL    HW1 4112   2.156   0.428   3.660
 1071SOL    HW2 4113   2.231   0.438   3.805
 1072SOL     OW 4114   2.002   6.456   1.453
 1072SOL    HW1 4115   1.912   6.467   1.495
 1072SOL    HW2 4116   2.047   6.375   1.492
 1073SOL     OW 4117   4.281   6.318   2.072
 1073SOL    HW1 4118   4.208   6.299   2.137
 1073SOL    HW2 4119   4.272   6.411   2.037
 1074SOL     OW 4120   2.553   5.329   0.487
 1074SOL    HW1 4121   2.627   5.262   0.479
 1074SOL    HW2 4122   2.593   5.420   0.499
 1075SOL     OW 4123   3.976   6.760   3.960
 1075SOL    HW1 4124   4.003   6.826   4.031
 1075SOL    HW2 4125   3.992   6.800   3.870
 1076SOL     OW 4126   6.681   4.480   5.375
 1076SOL    HW1 4127   6.623   4.471   5.457
 1076SOL    HW2 4128   6.772   4.511   5.403
 1077SOL     OW 4129   5.809   0.179   0.718
 1077SOL    HW1 4130   5.805   0.268   0.674
 1077SOL    HW2 4131   5.778   0.187   0.813
 1078SOL     OW 4132   0.588   1.440   2.506
 1078SOL    HW1 4133   0.629   1.362   2.458
 1078SOL    HW2 4134   0.542   1.500   2.441
 1079SOL     OW 4135   1.923   6.205   2.435
 1079SOL    HW1 4136   1.963   6.287   2.394
 1079SOL    HW2 4137   1.907   6.220   2.533
 1080SOL     OW 4138   2.011   4.627   3.547
 1080SOL    HW1 4139   2.062   4.702   3.588
 1080SOL    HW2 4140   2.070   4.546   3.542
 1081SOL     OW 4141   0.085   6.322   6.179
 1081SOL    HW1 4142   0.181   6.326   6.150
 1081SOL    HW2 4143   0.027   6.307   6.098
 1082SOL     OW 4144   3.726   1.979   6.422
 1082SOL    HW1 4145   3.819   2.012   6.404
 1082SOL    HW2 4146   3.681   1.958   6.336
 1083SOL     OW 4147   4.259   4.092   1.156
 1083SOL    HW1 4148   4.167   4.104   1.191
 1083SOL    HW2 4149   4.304   4.017   1.205
 1084SOL     OW 4150   6.304   5.574   1.103
 1084SOL    HW1 4151   6.249   5.553   1.022
 1084SOL    HW2 4152   6.398   5.542   1.088
 1085SOL     OW 4153   1.027   4.311   3.842
 1085SOL    HW1 4154   1.056   4.324   3.937
 1085SOL    HW2 4155   1.107   4.293   3.786
 1086SOL     OW 4156   6.607   6.081   2.098
 1086SOL    HW1 4157   6.607   6.006   2.164
 1086SOL    HW2 4158   6.582   6.046   2.008
 1087SOL     OW 4159   6.195   3.304   5.433
 1087SOL    HW1 4160   6.252   3.368   5.484
 1087SOL    HW2 4161   6.251   3.258   5.364
 1088SOL     OW 4162   5.774   4.641   3.404
 1088SOL    HW1 4163   5.838   4.565   3.416
 1088SOL    HW2 4164   5.681   4.605   3.394
 1089SOL     OW 4165   1.490   6.822   4.444
 1089SOL    HW1 4166   1.525   6.755   4.378
 1089SOL    HW2 4167   1.433   6.776   4.512
 1090SOL     OW 4168   2.267   1.266   3.921
 1090SOL    HW1 4169   2.345   1.296   3.976
 1090SOL    HW2 4170   2.230   1.181   3.959
 1091SOL     OW 4171   2.606   2.869   5.403
 1091SOL    HW1 4172   2.696   2.829   5.388
 1091SOL    HW2 4173   2.580   2.923   5.324
 1092SOL     OW 4174   1.703   3.587   0.532
 1092SOL    HW1 4175   1.691   3.678   0.493
 1092SOL    HW2 4176   1.719   3.594   0.630
 1093SOL     OW 4177   1.914   1.791   1.957
 1093SOL    HW1 4178   1.892   1.706   1.910
 1093SOL    HW2 4179   1.882   1.786   2.052
 1094SOL     OW 4180   0.793   6.209   3.787
 1094SOL    HW1 4181   0.740   6.254   3.858
 1094SOL    HW2 4182   0.799   6.269   3.707
 1095SOL     OW 4183   0.584   2.464   5.786
 1095SOL    HW1 4184   0.543   2.406   5.716
 1095SOL    HW2 4185   0.595   2.557   5.750
 1096SOL     OW 4186   3.294   4.629   1.689
 1096SOL    HW1 4187   3.386   4.662   1.669
 1096SOL    HW2 4188   3.299   4.534   1.720
 1097SOL     OW 4189   1.881   4.162   4.332
 1097SOL    HW1 4190   1.873   4.260   4.350
 1097SOL    HW2 4191   1.968   4.129   4.370
 1098SOL     OW 4192   4.869   3.213   1.087
 1098SOL    HW1 4193   4.825   3.274   1.020
 1098SOL    HW2 4194   4.823   3.124   1.086
 1099SOL     OW 4195   4.230   1.729   5.277
 1099SOL    HW1 4196   4.324   1.752   5.302
 1099SOL    HW2 4197   4.191   1.804   5.223
 1100SOL     OW 4198   3.456   2.054   6.286
 1100SOL    HW1 4199   3.380   2.117   6.303
 1100SOL    HW2 4200   3.455   2.026   6.190
 1101SOL     OW 4201   6.508   2.032   0.208
 1101SOL    HW1 4202   6.589   2.005   0.260
 1101SOL    HW2 4203   6.455   1.951   0.183
 1102SOL     OW 4204   0.560   5.768   4.091
 1102SOL    HW1 4205   0.569   5.824   4.173
 1102SOL    HW2 4206   0.642   5.712   4.078
 1103SOL     OW 4207   3.737   1.663   0.737
 1103SOL    HW1 4208   3.667   1.671   0.666
 1103SOL    HW2 4209   3.748   1.566   0.762
 1104SOL     OW 4210   2.188   3.260   5.499
 1104SOL    HW1 4211   2.240   3.174   5.502
 1104SOL    HW2 4212   2.232   3.323   5.436
 1105SOL     OW 4213   6.092   3.776   4.758
 1105SOL    HW1 4214   5.994   3.792   4.744
 1105SOL    HW2 4215   6.124   3.833   4.834
 1106SOL     OW 4216   0.864   1.802   0.815
 1106SOL    HW1 4217   0.811   1.777   0.735
 1106SOL    HW2 4218   0.916   1.886   0.797
 1107SOL     OW 4219   2.247   0.332   6.488
 1107SOL    HW1 4220   2.151   0.320   6.514
 1107SOL    HW2 4221   2.306   0.304   6.564
 1108SOL     OW 4222   3.125   0.981   5.981
 1108SOL    HW1 4223   3.085   1.010   6.068
 1108SOL    HW2 4224   3.062   0.919   5.935
 1109SOL     OW 4225   4.559   6.980   4.589
 1109SOL    HW1 4226   4.657   6.967   4.578
 1109SOL    HW2 4227   4.541   0.048   4.629
 1110SOL     OW 4228   2.857   2.164   2.901
 1110SOL    HW1 4229   2.777   2.220   2.921
 1110SOL    HW2 4230   2.855   2.137   2.804
 1111SOL     OW 4231   4.776   5.151   6.875
 1111SOL    HW1 4232   4.798   5.215   6.949
 1111SOL    HW2 4233   4.819   5.183   6.791
 1112SOL     OW 4234   6.060   1.551   2.355
 1112SOL    HW1 4235   5.989   1.535   2.287
 1112SOL    HW2 4236   6.110   1.466   2.372
 1113SOL     OW 4237   0.034   4.064   3.245
 1113SOL    HW1 4238   0.100   3.998   3.209
 1113SOL    HW2 4239   0.083   4.133   3.299
 1114SOL     OW 4240   4.448   1.391   6.638
 1114SOL    HW1 4241   4.395   1.373   6.555
 1114SOL    HW2 4242   4.394   1.367   6.718
 1115SOL     OW 4243   4.251   3.069   0.156
 1115SOL    HW1 4244   4.262   3.110   0.246
 1115SOL    HW2 4245   4.331   3.089   0.100
 1116SOL     OW 4246   5.368   5.809   5.561
 1116SOL    HW1 4247   5.436   5.882   5.557
 1116SOL    HW2 4248   5.415   5.720   5.554
 1117SOL     OW 4249   1.770   2.294   1.361
 1117SOL    HW1 4250   1.710   2.280   1.282
 1117SOL    HW2 4251   1.734   2.243   1.440
 1118SOL     OW 4252   2.157   4.341   1.739
 1118SOL    HW1 4253   2.174   4.384   1.827
 1118SOL    HW2 4254   2.113   4.252   1.753
 1119SOL     OW 4255   4.803   4.483   0.655
 1119SOL    HW1 4256   4.866   4.479   0.577
 1119SOL    HW2 4257   4.810   4.572   0.699
 1120SOL     OW 4258   5.748   0.129   4.707
 1120SOL    HW1 4259   5.694   0.213   4.706
 1120SOL    HW2 4260   5.823   0.138   4.772
 1121SOL     OW 4261   5.293   4.850   2.651
 1121SOL    HW1 4262   5.252   4.760   2.663
 1121SOL    HW2 4263   5.354   4.870   2.728
 1122SOL     OW 4264   4.494   3.075   0.027
 1122SOL    HW1 4265   4.509   2.988   0.073
 1122SOL    HW2 4266   4.579   3.129   0.029
 1123SOL     OW 4267   5.366   1.920   3.197
 1123SOL    HW1 4268   5.363   1.884   3.104
 1123SOL    HW2 4269   5.394   1.847   3.260
 1124SOL     OW 4270   6.071   3.918   5.199
 1124SOL    HW1 4271   6.070   4.018   5.202
 1124SOL    HW2 4272   6.016   3.881   5.273
 1125SOL     OW 4273   3.173   1.250   4.784
 1125SOL    HW1 4274   3.123   1.271   4.869
 1125SOL    HW2 4275   3.114   1.198   4.723
 1126SOL     OW 4276   5.428   6.011   0.033
 1126SOL    HW1 4277   5.493   5.959   7.000
 1126SOL    HW2 4278   5.477   6.079   0.087
 1127SOL     OW 4279   5.062   5.175   5.150
 1127SOL    HW1 4280   5.114   5.239   5.206
 1127SOL    HW2 4281   4.990   5.224   5.100
 1128SOL     OW 4282   5.356   2.162   5.471
 1128SOL    HW1 4283   5.379   2.164   5.568
 1128SOL    HW2 4284   5.404   2.086   5.427
 1129SOL     OW 4285   3.468   0.463   6.638
 1129SOL    HW1 4286   3.379   0.505   6.621
 1129SOL    HW2 4287   3.541   0.528   6.615
 1130SOL     OW 4288   1.684   4.571   1.155
 1130SOL    HW1 4289   1.675   4.578   1.255
 1130SOL    HW2 4290   1.613   4.626   1.112
 1131SOL     OW 4291   0.349   6.202   5.851
 1131SOL    HW1 4292   0.327   6.136   5.922
 1131SOL    HW2 4293   0.448   6.206   5.838
 1132SOL     OW 4294   5.123   6.925   1.228
 1132SOL    HW1 4295   5.117   0.000   1.210
 1132SOL    HW2 4296   5.145   6.877   1.143
 1133SOL     OW 4297   1.036   1.121   0.835
 1133SOL    HW1 4298   1.098   1.063   0.781
 1133SOL    HW2 4299   1.061   1.115   0.931
 1134SOL     OW 4300   4.813   1.181   1.704
 1134SOL    HW1 4301   4.810   1.165   1.606
 1134SOL    HW2 4302   4.734   1.238   1.731
 1135SOL     OW 4303   1.985   1.320   2.866
 1135SOL    HW1 4304   1.923   1.354   2.937
 1135SOL    HW2 4305   1.999   1.390   2.797
 1136SOL     OW 4306   3.370   5.280   4.971
 1136SOL    HW1 4307   3.330   5.224   4.898
 1136SOL    HW2 4308   3.443   5.228   5.017
 1137SOL     OW 4309   1.299   1.853   5.630
 1137SOL    HW1 4310   1.381   1.819   5.583
 1137SOL    HW2 4311   1.325   1.899   5.715
 1138SOL     OW 4312   0.536   1.400   6.508
 1138SOL    HW1 4313   0.465   1.443   6.563
 1138SOL    HW2 4314   0.622   1.451   6.519
 1139SOL     OW 4315   2.857   5.678   1.419
 1139SOL    HW1 4316   2.782   5.718   1.366
 1139SOL    HW2 4317   2.836   5.582   1.440
 1140SOL     OW 4318   3.323   1.117   2.012
 1140SOL    HW1 4319   3.239   1.171   2.009
 1140SOL    HW2 4320   3.302   1.022   1.989
 1141SOL     OW 4321   6.939   6.510   6.535
 1141SOL    HW1 4322   6.948   6.609   6.546
 1141SOL    HW2 4323   6.882   6.473   6.608
 1142SOL     OW 4324   3.378   0.501   4.214
 1142SOL    HW1 4325   3.456   0.510   4.153
 1142SOL    HW2 4326   3.312   0.573   4.195
 1143SOL     OW 4327   2.142   3.522   1.685
 1143SOL    HW1 4328   2.222   3.522   1.744
 1143SOL    HW2 4329   2.068   3.470   1.728
 1144SOL     OW 4330   6.160   4.828   5.535
 1144SOL    HW1 4331   6.251   4.789   5.546
 1144SOL    HW2 4332   6.092   4.756   5.545
 1145SOL     OW 4333   0.310   4.295   2.452
 1145SOL    HW1 4334   0.380   4.225   2.438
 1145SOL    HW2 4335   0.249   4.299   2.372
 1146SOL     OW 4336   6.220   0.711   1.592
 1146SOL    HW1 4337   6.146   0.651   1.561
 1146SOL    HW2 4338   6.306   0.680   1.553
 1147SOL     OW 4339   1.441   4.450   1.033
 1147SOL    HW1 4340   1.401   4.406   0.954
 1147SOL    HW2 4341   1.391   4.535   1.053
 1148SOL     OW 4342   4.592   6.739   6.696
 1148SOL    HW1 4343   4.538   6.783   6.767
 1148SOL    HW2 4344   4.531   6.699   6.627
 1149SOL     OW 4345   6.664   4.319   2.752
 1149SOL    HW1 4346   6.573   4.289   2.780
 1149SOL    HW2 4347   6.689   4.274   2.666
 1150SOL     OW 4348   2.378   3.911   0.819
 1150SOL    HW1 4349   2.320   3.989   0.841
 1150SOL    HW2 4350   2.462   3.917   0.873
 1151SOL     OW 4351   5.228   5.065   6.160
 1151SOL    HW1 4352   5.309   5.052   6.102
 1151SOL    HW2 4353   5.154   5.007   6.127
 1152SOL     OW 4354   0.213   5.903   5.707
 1152SOL    HW1 4355   0.250   5.869   5.794
 1152SOL    HW2 4356   0.147   5.837   5.671
 1153SOL     OW 4357   2.322   0.208   2.286
 1153SOL    HW1 4358   2.413   0.183   2.255
 1153SOL    HW2 4359   2.315   0.196   2.385
 1154SOL     OW 4360   0.489   4.024   1.849
 1154SOL    HW1 4361   0.534   3.940   1.880
 1154SOL    HW2 4362   0.473   4.018   1.751
 1155SOL     OW 4363   2.347   5.190   6.762
 1155SOL    HW1 4364   2.361   5.287   6.780
 1155SOL    HW2 4365   2.254   5.176   6.728
 1156SOL     OW 4366   2.737   1.139   4.992
 1156SOL    HW1 4367   2.638   1.136   5.007
 1156SOL    HW2 4368   2.766   1.054   4.948
 1157SOL     OW 4369   6.260   0.670   5.399
 1157SOL    HW1 4370   6.211   0.661   5.487
 1157SOL    HW2 4371   6.196   0.655   5.324
 1158SOL     OW 4372   6.989   5.766   5.631
 1158SOL    HW1 4373   6.970   5.679   5.675
 1158SOL    HW2 4374   6.905   5.821   5.628
 1159SOL     OW 4375   5.475   6.825   3.425
 1159SOL    HW1 4376   5.421   6.850   3.505
 1159SOL    HW2 4377   5.535   6.901   3.400
 1160SOL     OW 4378   3.750   3.123   1.569
 1160SOL    HW1 4379   3.702   3.037   1.586
 1160SOL    HW2 4380   3.761   3.173   1.655
 1161SOL     OW 4381   5.019   0.433   6.057
 1161SOL    HW1 4382   4.982   0.508   6.001
 1161SOL    HW2 4383   4.945   0.370   6.081
 1162SOL     OW 4384   2.979   2.123   6.931
 1162SOL    HW1 4385   3.001   2.110   6.834
 1162SOL    HW2 4386   3.014   2.211   6.962
 1163SOL     OW 4387   6.974   3.085   2.041
 1163SOL    HW1 4388   6.952   3.182   2.052
 1163SOL    HW2 4389   6.986   3.044   2.131
 1164SOL     OW 4390   5.317   2.386   4.190
 1164SOL    HW1 4391   5.325   2.483   4.168
 1164SOL    HW2 4392   5.239   2.347   4.143
 1165SOL     OW 4393   2.014   4.729   4.563
 1165SOL    HW1 4394   2.106   4.708   4.532
 1165SOL    HW2 4395   1.961   4.645   4.569
 1166SOL     OW 4396   3.948   0.228   0.612
 1166SOL    HW1 4397   3.867   0.214   0.670
 1166SOL    HW2 4398   3.920   0.222   0.516
 1167SOL     OW 4399   3.445   6.493   6.320
 1167SOL    HW1 4400   3.455   6.589   6.345
 1167SOL    HW2 4401   3.451   6.436   6.403
 1168SOL     OW 4402   6.183   1.672   3.587
 1168SOL    HW1 4403   6.180   1.687   3.686
 1168SOL    HW2 4404   6.190   1.575   3.567
 1169SOL     OW 4405   5.668   2.749   6.521
 1169SOL    HW1 4406   5.588   2.737   6.462
 1169SOL    HW2 4407   5.745   2.781   6.467
 1170SOL     OW 4408   5.450   1.016   2.063
 1170SOL    HW1 4409   5.357   1.028   2.027
 1170SOL    HW2 4410   5.479   1.099   2.110
 1171SOL     OW 4411   2.959   6.824   0.051
 1171SOL    HW1 4412   2.941   6.726   0.054
 1171SOL    HW2 4413   3.050   6.841   0.015
 1172SOL     OW 4414   3.422   3.746   2.065
 1172SOL    HW1 4415   3.415   3.791   2.154
 1172SOL    HW2 4416   3.519   3.735   2.042
 1173SOL     OW 4417   3.265   6.883   5.755
 1173SOL    HW1 4418   3.185   6.932   5.790
 1173SOL    HW2 4419   3.253   6.866   5.657
 1174SOL     OW 4420   3.148   4.319   0.397
 1174SOL    HW1 4421   3.087   4.275   0.463
 1174SOL    HW2 4422   3.216   4.372   0.447
 1175SOL     OW 4423   4.010   2.998   6.515
 1175SOL    HW1 4424   4.090   3.059   6.521
 1175SOL    HW2 4425   3.930   3.051   6.487
 1176SOL     OW 4426   6.047   4.627   0.587
 1176SOL    HW1 4427   5.988   4.561   0.541
 1176SOL    HW2 4428   5.993   4.686   0.647
 1177SOL     OW 4429   7.010   1.730   5.847
 1177SOL    HW1 4430   0.003   1.631   5.844
 1177SOL    HW2 4431   6.936   1.750   5.912
 1178SOL     OW 4432   3.972   3.810   1.046
 1178SOL    HW1 4433   3.979   3.712   1.030
 1178SOL    HW2 4434   4.000   3.859   0.963
 1179SOL     OW 4435   3.115   5.688   0.573
 1179SOL    HW1 4436   3.110   5.727   0.666
 1179SOL    HW2 4437   3.198   5.721   0.528
 1180SOL     OW 4438   2.420   6.737   3.995
 1180SOL    HW1 4439   2.496   6.695   3.947
 1180SOL    HW2 4440   2.441   6.834   4.012
 1181SOL     OW 4441   6.751   2.795   4.867
 1181SOL    HW1 4442   6.696   2.833   4.941
 1181SOL    HW2 4443   6.735   2.848   4.783
 1182SOL     OW 4444   2.901   5.228   3.931
 1182SOL    HW1 4445   3.001   5.228   3.932
 1182SOL    HW2 4446   2.868   5.145   3.886
 1183SOL     OW 4447   3.895   6.461   1.514
 1183SOL    HW1 4448   3.926   6.521   1.441
 1183SOL    HW2 4449   3.954   6.473   1.594
 1184SOL     OW 4450   4.108   0.125   6.021
 1184SOL    HW1 4451   4.104   0.037   6.069
 1184SOL    HW2 4452   4.184   0.124   5.956
 1185SOL     OW 4453   1.587   6.888   0.832
 1185SOL    HW1 4454   1.567   6.888   0.734
 1185SOL    HW2 4455   1.508   6.855   0.883
 1186SOL     OW 4456   5.844   5.777   6.309
 1186SOL    HW1 4457   5.834   5.724   6.224
 1186SOL    HW2 4458   5.829   5.874   6.290
 1187SOL     OW 4459   5.410   0.126   5.360
 1187SOL    HW1 4460   5.363   0.072   5.430
 1187SOL    HW2 4461   5.345   0.187   5.316
 1188SOL     OW 4462   3.261   6.031   6.574
 1188SOL    HW1 4463   3.227   5.992   6.489
 1188SOL    HW2 4464   3.198   6.010   6.649
 1189SOL     OW 4465   5.964   1.044   2.034
 1189SOL    HW1 4466   6.058   1.033   2.066
 1189SOL    HW2 4467   5.929   0.955   2.004
 1190SOL     OW 4468   3.956   4.882   4.022
 1190SOL    HW1 4469   3.930   4.925   4.109
 1190SOL    HW2 4470   3.900   4.918   3.948
 1191SOL     OW 4471   3.084   6.692   4.624
 1191SOL    HW1 4472   3.160   6.661   4.566
 1191SOL    HW2 4473   2.998   6.660   4.585
 1192SOL     OW 4474   5.442   5.879   2.801
 1192SOL    HW1 4475   5.376   5.953   2.788
 1192SOL    HW2 4476   5.399   5.792   2.778
 1193SOL     OW 4477   0.064   0.506   5.820
 1193SOL    HW1 4478   0.000   0.429   5.810
 1193SOL    HW2 4479   0.156   0.471   5.833
 1194SOL     OW 4480   6.914   1.846   0.960
 1194SOL    HW1 4481   6.983   1.783   0.923
 1194SOL    HW2 4482   6.950   1.939   0.960
 1195SOL     OW 4483   6.798   3.328   1.537
 1195SOL    HW1 4484   6.772   3.261   1.468
 1195SOL    HW2 4485   6.762   3.302   1.626
 1196SOL     OW 4486   6.311   4.984   1.782
 1196SOL    HW1 4487   6.313   5.068   1.836
 1196SOL    HW2 4488   6.293   5.006   1.686
 1197SOL     OW 4489   4.563   6.458   4.374
 1197SOL    HW1 4490   4.642   6.398   4.392
 1197SOL    HW2 4491   4.479   6.412   4.404
 1198SOL     OW 4492   1.415   3.773   2.614
 1198SOL    HW1 4493   1.371   3.753   2.526
 1198SOL    HW2 4494   1.515   3.768   2.603
 1199SOL     OW 4495   3.858   3.284   3.265
 1199SOL    HW1 4496   3.957   3.283   3.282
 1199SOL    HW2 4497   3.837   3.219   3.192
 1200SOL     OW 4498   3.908   3.853   4.673
 1200SOL    HW1 4499   3.878   3.767   4.713
 1200SOL    HW2 4500   3.986   3.837   4.613
 1201SOL     OW 4501   6.604   0.982   4.665
 1201SOL    HW1 4502   6.636   0.910   4.604
 1201SOL    HW2 4503   6.538   1.040   4.616
 1202SOL     OW 4504   6.165   1.111   5.809
 1202SOL    HW1 4505   6.256   1.132   5.774
 1202SOL    HW2 4506   6.170   1.031   5.868
 1203SOL     OW 4507   7.013   6.737   1.187
 1203SOL    HW1 4508   6.974   6.667   1.248
 1203SOL    HW2 4509   6.952   6.751   1.109
 1204SOL     OW 4510   4.462   1.574   1.699
 1204SOL    HW1 4511   4.456   1.674   1.704
 1204SOL    HW2 4512   4.470   1.536   1.791
 1205SOL     OW 4513   3.880   3.176   0.070
 1205SOL    HW1 4514   3.932   3.121   0.005
 1205SOL    HW2 4515   3.878   3.271   0.041
 1206SOL     OW 4516   1.477   2.119   4.534
 1206SOL    HW1 4517   1.469   2.081   4.442
 1206SOL    HW2 4518   1.510   2.213   4.529
 1207SOL     OW 4519   0.134   0.352   6.987
 1207SOL    HW1 4520   0.163   0.334   0.058
 1207SOL    HW2 4521   0.050   0.300   6.967
 1208SOL     OW 4522   3.206   3.709   1.589
 1208SOL    HW1 4523   3.108   3.708   1.609
 1208SOL    HW2 4524   3.257   3.678   1.669
 1209SOL     OW 4525   5.724   0.840   4.411
 1209SOL    HW1 4526   5.626   0.825   4.424
 1209SOL    HW2 4527   5.774   0.789   4.481
 1210SOL     OW 4528   4.597   0.067   3.630
 1210SOL    HW1 4529   4.656   0.142   3.599
 1210SOL    HW2 4530   4.523   0.104   3.687
 1211SOL     OW 4531   1.034   3.452   3.858
 1211SOL    HW1 4532   1.128   3.437   3.828
 1211SOL    HW2 4533   1.031   3.528   3.922
 1212SOL     OW 4534   6.599   0.982   5.837
 1212SOL    HW1 4535   6.611   0.911   5.768
 1212SOL    HW2 4536   6.689   1.014   5.868
 1213SOL     OW 4537   5.600   2.725   3.032
 1213SOL    HW1 4538   5.625   2.732   2.936
 1213SOL    HW2 4539   5.601   2.629   3.060
 1214SOL     OW 4540   0.543   2.272   6.110
 1214SOL    HW1 4541   0.604   2.241   6.182
 1214SOL    HW2 4542   0.459   2.218   6.111
 1215SOL     OW 4543   2.404   5.375   2.826
 1215SOL    HW1 4544   2.472   5.326   2.881
 1215SOL    HW2 4545   2.340   5.424   2.887
 1216SOL     OW 4546   0.345   1.068   0.035
 1216SOL    HW1 4547   0.323   1.003   6.984
 1216SOL    HW2 4548   0.442   1.092   0.029
 1217SOL     OW 4549   2.896   5.010   1.087
 1217SOL    HW1 4550   2.912   5.082   1.020
 1217SOL    HW2 4551   2.800   5.011   1.115
 1218SOL     OW 4552   0.965   3.877   5.668
 1218SOL    HW1 4553   0.897   3.913   5.604
 1218SOL    HW2 4554   1.012   3.954   5.712
 1219SOL     OW 4555   4.990   5.573   1.776
 1219SOL    HW1 4556   4.908   5.629   1.789
 1219SOL    HW2 4557   5.003   5.556   1.679
 1220SOL     OW 4558   6.500   4.126   2.972
 1220SOL    HW1 4559   6.460   4.040   2.938
 1220SOL    HW2 4560   6.600   4.119   2.970
 1221SOL     OW 4561   5.419   3.804   6.207
 1221SOL    HW1 4562   5.464   3.750   6.136
 1221SOL    HW2 4563   5.486   3.833   6.274
 1222SOL     OW 4564   0.748   0.452   0.448
 1222SOL    HW1 4565   0.707   0.361   0.459
 1222SOL    HW2 4566   0.682   0.513   0.402
 1223SOL     OW 4567   3.964   1.772   0.155
 1223SOL    HW1 4568   4.044   1.823   0.123
 1223SOL    HW2 4569   3.965   1.680   0.115
 1224SOL     OW 4570   2.601   5.703   0.225
 1224SOL    HW1 4571   2.698   5.721   0.245
 1224SOL    HW2 4572   2.592   5.612   0.185
 1225SOL     OW 4573   4.131   2.356   0.458
 1225SOL    HW1 4574   4.057   2.396   0.405
 1225SOL    HW2 4575   4.101   2.342   0.552
 1226SOL     OW 4576   4.690   6.203   0.723
 1226SOL    HW1 4577   4.740   6.229   0.640
 1226SOL    HW2 4578   4.623   6.273   0.745
 1227SOL     OW 4579   4.919   5.288   6.623
 1227SOL    HW1 4580   5.011   5.309   6.658
 1227SOL    HW2 4581   4.908   5.330   6.532
 1228SOL     OW 4582   3.350   2.991   0.454
 1228SOL    HW1 4583   3.250   2.993   0.455
 1228SOL    HW2 4584   3.385   3.076   0.413
 1229SOL     OW 4585   2.067   5.479   0.588
 1229SOL    HW1 4586   2.049   5.557   0.527
 1229SOL    HW2 4587   2.058   5.394   0.536
 1230SOL     OW 4588   5.568   5.810   2.512
 1230SOL    HW1 4589   5.564   5.909   2.499
 1230SOL    HW2 4590   5.655   5.776   2.478
 1231SOL     OW 4591   1.526   1.572   5.363
 1231SOL    HW1 4592   1.535   1.653   5.420
 1231SOL    HW2 4593   1.532   1.598   5.266
 1232SOL     OW 4594   5.674   1.395   5.147
 1232SOL    HW1 4595   5.697   1.325   5.078
 1232SOL    HW2 4596   5.709   1.484   5.117
 1233SOL     OW 4597   0.564   5.749   4.838
 1233SOL    HW1 4598   0.515   5.663   4.824
 1233SOL    HW2 4599   0.535   5.790   4.925
 1234SOL     OW 4600   5.977   2.109   5.358
 1234SOL    HW1 4601   5.980   2.207   5.378
 1234SOL    HW2 4602   6.061   2.066   5.390
 1235SOL     OW 4603   6.105   4.843   0.936
 1235SOL    HW1 4604   6.010   4.830   0.906
 1235SOL    HW2 4605   6.144   4.922   0.890
 1236SOL     OW 4606   3.760   0.999   2.123
 1236SOL    HW1 4607   3.846   0.963   2.160
 1236SOL    HW2 4608   3.703   0.923   2.093
 1237SOL     OW 4609   1.035   5.279   5.069
 1237SOL    HW1 4610   1.095   5.264   4.990
 1237SOL    HW2 4611   1.050   5.207   5.136
 1238SOL     OW 4612   0.820   0.402   5.278
 1238SOL    HW1 4613   0.809   0.311   5.237
 1238SOL    HW2 4614   0.729   0.441   5.295
 1239SOL     OW 4615   0.274   0.126   5.790
 1239SOL    HW1 4616   0.357   0.074   5.769
 1239SOL    HW2 4617   0.256   0.121   5.888
 1240SOL     OW 4618   5.863   5.101   1.332
 1240SOL    HW1 4619   5.879   5.007   1.365
 1240SOL    HW2 4620   5.768   5.127   1.353
 1241SOL     OW 4621   5.773   4.680   5.077
 1241SOL    HW1 4622   5.783   4.772   5.115
 1241SOL    HW2 4623   5.759   4.615   5.152
 1242SOL     OW 4624   1.883   4.090   0.610
 1242SOL    HW1 4625   1.951   4.096   0.683
 1242SOL    HW2 4626   1.925   4.118   0.523
 1243SOL     OW 4627   0.323   1.145   4.848
 1243SOL    HW1 4628   0.229   1.112   4.849
 1243SOL    HW2 4629   0.331   1.220   4.781
 1244SOL     OW 4630   5.433   6.065   5.328
 1244SOL    HW1 4631   5.441   6.064   5.428
 1244SOL    HW2 4632   5.488   5.991   5.290
 1245SOL     OW 4633   5.629   4.901   6.807
 1245SOL    HW1 4634   5.580   4.973   6.857
 1245SOL    HW2 4635   5.569   4.821   6.798
 1246SOL     OW 4636   2.958   1.874   2.534
 1246SOL    HW1 4637   2.897   1.896   2.458
 1246SOL    HW2 4638   2.976   1.776   2.534
 1247SOL     OW 4639   5.495   0.265   6.173
 1247SOL    HW1 4640   5.579   0.317   6.162
 1247SOL    HW2 4641   5.517   0.171   6.200
 1248SOL     OW 4642   1.730   5.988   4.222
 1248SOL    HW1 4643   1.732   6.033   4.133
 1248SOL    HW2 4644   1.694   5.895   4.213
 1249SOL     OW 4645   0.442   3.405   1.284
 1249SOL    HW1 4646   0.471   3.469   1.213
 1249SOL    HW2 4647   0.466   3.312   1.257
 1250SOL     OW 4648   6.069   4.388   3.182
 1250SOL    HW1 4649   6.086   4.487   3.178
 1250SOL    HW2 4650   6.137   4.340   3.128
 1251SOL     OW 4651   1.777   1.022   3.072
 1251SOL    HW1 4652   1.740   1.027   2.979
 1251SOL    HW2 4653   1.875   1.042   3.070
 1252SOL     OW 4654   3.424   4.624   6.224
 1252SOL    HW1 4655   3.454   4.719   6.230
 1252SOL    HW2 4656   3.484   4.574   6.161
 1253SOL     OW 4657   2.364   0.616   2.726
 1253SOL    HW1 4658   2.402   0.550   2.791
 1253SOL    HW2 4659   2.436   0.676   2.693
 1254SOL     OW 4660   0.212   2.764   3.933
 1254SOL    HW1 4661   0.216   2.685   3.872
 1254SOL    HW2 4662   0.159   2.740   4.015
 1255SOL     OW 4663   5.305   2.092   6.278
 1255SOL    HW1 4664   5.319   2.155   6.202
 1255SOL    HW2 4665   5.369   2.114   6.351
 1256SOL     OW 4666   0.593   6.305   3.957
 1256SOL    HW1 4667   0.577   6.230   4.021
 1256SOL    HW2 4668   0.544   6.386   3.989
 1257SOL     OW 4669   0.141   4.617   4.118
 1257SOL    HW1 4670   0.213   4.619   4.187
 1257SOL    HW2 4671   0.070   4.684   4.142
 1258SOL     OW 4672   2.437   4.991   3.390
 1258SOL    HW1 4673   2.362   5.051   3.361
 1258SOL    HW2 4674   2.441   4.988   3.490
 1259SOL     OW 4675   3.749   6.715   4.906
 1259SOL    HW1 4676   3.783   6.700   4.813
 1259SOL    HW2 4677   3.725   6.811   4.919
 1260SOL     OW 4678   2.777   1.149   0.607
 1260SOL    HW1 4679   2.706   1.206   0.567
 1260SOL    HW2 4680   2.741   1.057   0.624
 1261SOL     OW 4681   0.152   5.116   6.655
 1261SOL    HW1 4682   0.214   5.043   6.625
 1261SOL    HW2 4683   0.206   5.194   6.685
 1262SOL     OW 4684   5.185   5.255   1.515
 1262SOL    HW1 4685   5.094   5.218   1.535
 1262SOL    HW2 4686   5.223   5.208   1.436
 1263SOL     OW 4687   0.023   1.996   1.482
 1263SOL    HW1 4688   6.949   2.020   1.488
 1263SOL    HW2 4689   0.035   1.901   1.511
 1264SOL     OW 4690   0.113   3.573   1.636
 1264SOL    HW1 4691   0.208   3.569   1.667
 1264SOL    HW2 4692   0.052   3.549   1.711
 1265SOL     OW 4693   5.885   5.196   3.407
 1265SOL    HW1 4694   5.898   5.185   3.505
 1265SOL    HW2 4695   5.831   5.278   3.389
 1266SOL     OW 4696   0.833   1.199   4.027
 1266SOL    HW1 4697   0.768   1.275   4.034
 1266SOL    HW2 4698   0.785   1.117   3.996
 1267SOL     OW 4699   5.455   6.627   1.073
 1267SOL    HW1 4700   5.424   6.600   0.982
 1267SOL    HW2 4701   5.551   6.651   1.069
 1268SOL     OW 4702   4.654   2.503   0.444
 1268SOL    HW1 4703   4.581   2.562   0.410
 1268SOL    HW2 4704   4.619   2.410   0.455
 1269SOL     OW 4705   5.608   6.842   5.999
 1269SOL    HW1 4706   5.656   6.895   5.928
 1269SOL    HW2 4707   5.602   6.746   5.971
 1270SOL     OW 4708   2.171   3.759   4.132
 1270SOL    HW1 4709   2.243   3.694   4.154
 1270SOL    HW2 4710   2.155   3.761   4.034
 1271SOL     OW 4711   3.092   1.507   3.515
 1271SOL    HW1 4712   3.183   1.484   3.548
 1271SOL    HW2 4713   3.099   1.562   3.432
 1272SOL     OW 4714   6.178   5.690   0.116
 1272SOL    HW1 4715   6.275   5.709   0.099
 1272SOL    HW2 4716   6.153   5.606   0.067
 1273SOL     OW 4717   0.849   4.539   0.041
 1273SOL    HW1 4718   0.885   4.573   0.128
 1273SOL    HW2 4719   0.923   4.498   7.011
 1274SOL     OW 4720   6.437   2.842   1.522
 1274SOL    HW1 4721   6.438   2.910   1.595
 1274SOL    HW2 4722   6.480   2.880   1.440
 1275SOL     OW 4723   3.110   1.275   3.969
 1275SOL    HW1 4724   3.147   1.211   4.037
 1275SOL    HW2 4725   3.183   1.306   3.909
 1276SOL     OW 4726   6.963   0.570   4.652
 1276SOL    HW1 4727   0.028   0.536   4.617
 1276SOL    HW2 4728   6.976   0.663   4.687
 1277SOL     OW 4729   1.223   6.618   6.171
 1277SOL    HW1 4730   1.193   6.690   6.108
 1277SOL    HW2 4731   1.304   6.573   6.134
 1278SOL     OW 4732   0.990   0.614   5.257
 1278SOL    HW1 4733   0.945   0.531   5.289
 1278SOL    HW2 4734   0.948   0.694   5.301
 1279SOL     OW 4735   3.677   5.690   0.867
 1279SOL    HW1 4736   3.773   5.681   0.841
 1279SOL    HW2 4737   3.619   5.658   0.792
 1280SOL     OW 4738   3.410   6.829   4.299
 1280SOL    HW1 4739   3.430   6.906   4.239
 1280SOL    HW2 4740   3.399   6.746   4.245
 1281SOL     OW 4741   1.478   5.899   2.821
 1281SOL    HW1 4742   1.545   5.955   2.871
 1281SOL    HW2 4743   1.416   5.958   2.771
 1282SOL     OW 4744   0.556   1.143   6.226
 1282SOL    HW1 4745   0.651   1.164   6.245
 1282SOL    HW2 4746   0.503   1.228   6.222
 1283SOL     OW 4747   6.051   2.916   5.127
 1283SOL    HW1 4748   6.111   2.932   5.206
 1283SOL    HW2 4749   6.082   2.836   5.077
 1284SOL     OW 4750   4.705   1.209   2.323
 1284SOL    HW1 4751   4.796   1.173   2.303
 1284SOL    HW2 4752   4.695   1.221   2.422
 1285SOL     OW 4753   4.604   2.872   6.709
 1285SOL    HW1 4754   4.576   2.781   6.737
 1285SOL    HW2 4755   4.687   2.898   6.759
 1286SOL     OW 4756   4.861   3.502   1.884
 1286SOL    HW1 4757   4.820   3.520   1.795
 1286SOL    HW2 4758   4.897   3.408   1.887
 1287SOL     OW 4759   5.089   4.474   5.507
 1287SOL    HW1 4760   5.072   4.379   5.533
 1287SOL    HW2 4761   5.124   4.524   5.586
 1288SOL     OW 4762   4.850   3.665   0.472
 1288SOL    HW1 4763   4.844   3.571   0.439
 1288SOL    HW2 4764   4.880   3.725   0.397
 1289SOL     OW 4765   0.708   6.072   2.498
 1289SOL    HW1 4766   0.752   6.094   2.411
 1289SOL    HW2 4767   0.721   5.975   2.518
 1290SOL     OW 4768   1.379   0.316   6.802
 1290SOL    HW1 4769   1.312   0.257   6.758
 1290SOL    HW2 4770   1.443   0.260   6.855
 1291SOL     OW 4771   7.003   3.859   5.426
 1291SOL    HW1 4772   6.967   3.775   5.385
 1291SOL    HW2 4773   0.062   3.887   5.376
 1292SOL     OW 4774   0.139   6.139   2.594
 1292SOL    HW1 4775   0.235   6.165   2.602
 1292SOL    HW2 4776   0.124   6.095   2.506
 1293SOL     OW 4777   1.186   1.378   6.948
 1293SOL    HW1 4778   1.271   1.398   6.900
 1293SOL    HW2 4779   1.205   1.316   0.002
 1294SOL     OW 4780   1.483   3.966   6.969
 1294SOL    HW1 4781   1.513   4.014   6.886
 1294SOL    HW2 4782   1.383   3.958   6.968
 1295SOL     OW 4783   0.021   3.411   2.545
 1295SOL    HW1 4784   6.960   3.429   2.493
 1295SOL    HW2 4785   0.082   3.490   2.538
 1296SOL     OW 4786   3.473   0.310   5.517
 1296SOL    HW1 4787   3.532   0.354   5.449
 1296SOL    HW2 4788   3.394   0.369   5.535
 1297SOL     OW 4789   5.702   0.731   0.916
 1297SOL    HW1 4790   5.673   0.790   0.840
 1297SOL    HW2 4791   5.716   0.787   0.998
 1298SOL     OW 4792   6.338   4.825   2.462
 1298SOL    HW1 4793   6.251   4.813   2.509
 1298SOL    HW2 4794   6.338   4.912   2.412
 1299SOL     OW 4795   0.904   3.954   3.380
 1299SOL    HW1 4796   0.877   3.929   3.473
 1299SOL    HW2 4797   0.842   4.025   3.345
 1300SOL     OW 4798   3.648   3.633   1.964
 1300SOL    HW1 4799   3.614   3.572   1.892
 1300SOL    HW2 4800   3.661   3.581   2.048
 1301SOL     OW 4801   0.156   5.382   1.692
 1301SOL    HW1 4802   0.238   5.431   1.721
 1301SOL    HW2 4803   0.128   5.318   1.764
 1302SOL     OW 4804   4.189   0.316   5.479
 1302SOL    HW1 4805   4.175   0.247   5.408
 1302SOL    HW2 4806   4.144   0.401   5.453
 1303SOL     OW 4807   4.399   1.258   2.315
 1303SOL    HW1 4808   4.355   1.304   2.392
 1303SOL    HW2 4809   4.492   1.293   2.304
 1304SOL     OW 4810   1.377   1.018   6.846
 1304SOL    HW1 4811   1.323   0.943   6.808
 1304SOL    HW2 4812   1.345   1.104   6.807
 1305SOL     OW 4813   4.318   2.958   6.820
 1305SOL    HW1 4814   4.293   3.038   6.765
 1305SOL    HW2 4815   4.385   2.984   6.889
 1306SOL     OW 4816   0.535   4.163   5.070
 1306SOL    HW1 4817   0.475   4.242   5.068
 1306SOL    HW2 4818   0.630   4.194   5.079
 1307SOL     OW 4819   0.915   3.662   5.288
 1307SOL    HW1 4820   0.957   3.572   5.277
 1307SOL    HW2 4821   0.881   3.694   5.200
 1308SOL     OW 4822   5.354   6.055   4.738
 1308SOL    HW1 4823   5.309   6.095   4.658
 1308SOL    HW2 4824   5.287   6.005   4.792
 1309SOL     OW 4825   4.675   2.993   5.350
 1309SOL    HW1 4826   4.615   3.071   5.339
 1309SOL    HW2 4827   4.703   2.985   5.445
 1310SOL     OW 4828   0.233   3.756   5.050
 1310SOL    HW1 4829   0.295   3.682   5.077
 1310SOL    HW2 4830   0.239   3.831   5.116
 1311SOL     OW 4831   0.036   0.667   4.319
 1311SOL    HW1 4832   0.112   0.731   4.332
 1311SOL    HW2 4833   6.979   0.717   4.285
 1312SOL     OW 4834   1.411   0.497   6.609
 1312SOL    HW1 4835   1.331   0.544   6.572
 1312SOL    HW2 4836   1.382   0.431   6.678
 1313SOL     OW 4837   1.172   4.322   4.075
 1313SOL    HW1 4838   1.101   4.343   4.143
 1313SOL    HW2 4839   1.241   4.395   4.077
 1314SOL     OW 4840   3.867   1.052   5.490
 1314SOL    HW1 4841   3.845   1.021   5.583
 1314SOL    HW2 4842   3.965   1.038   5.474
 1315SOL     OW 4843   0.433   0.998   0.768
 1315SOL    HW1 4844   0.503   1.046   0.717
 1315SOL    HW2 4845   0.357   1.060   0.788
 1316SOL     OW 4846   1.916   6.381   4.517
 1316SOL    HW1 4847   1.866   6.295   4.506
 1316SOL    HW2 4848   1.865   6.455   4.473
 1317SOL     OW 4849   1.832   3.997   5.296
 1317SOL    HW1 4850   1.914   4.011   5.240
 1317SOL    HW2 4851   1.752   3.988   5.236
 1318SOL     OW 4852   1.115   0.959   0.617
 1318SOL    HW1 4853   1.208   0.961   0.579
 1318SOL    HW2 4854   1.049   0.960   0.542
 1319SOL     OW 4855   0.096   0.821   6.605
 1319SOL    HW1 4856   0.078   0.907   6.556
 1319SOL    HW2 4857   0.188   0.790   6.584
 1320SOL     OW 4858   5.410   3.575   0.516
 1320SOL    HW1 4859   5.502   3.536   0.515
 1320SOL    HW2 4860   5.393   3.624   0.430
 1321SOL     OW 4861   4.797   2.207   6.226
 1321SOL    HW1 4862   4.784   2.288   6.170
 1321SOL    HW2 4863   4.865   2.226   6.297
 1322SOL     OW 4864   4.087   0.638   3.788
 1322SOL    HW1 4865   4.023   0.710   3.816
 1322SOL    HW2 4866   4.177   0.656   3.827
 1323SOL     OW 4867   4.924   1.739   5.183
 1323SOL    HW1 4868   4.935   1.831   5.220
 1323SOL    HW2 4869   4.833   1.730   5.143
 1324SOL     OW 4870   1.071   2.805   7.006
 1324SOL    HW1 4871   1.021   2.891   7.018
 1324SOL    HW2 4872   1.084   2.761   0.072
 1325SOL     OW 4873   1.629   6.601   2.377
 1325SOL    HW1 4874   1.708   6.659   2.359
 1325SOL    HW2 4875   1.546   6.657   2.378
 1326SOL     OW 4876   4.947   3.381   4.837
 1326SOL    HW1 4877   5.044   3.398   4.854
 1326SOL    HW2 4878   4.892   3.442   4.893
 1327SOL     OW 4879   1.895   4.569   1.586
 1327SOL    HW1 4880   1.861   4.484   1.627
 1327SOL    HW2 4881   1.946   4.621   1.655
 1328SOL     OW 4882   1.925   2.621   0.747
 1328SOL    HW1 4883   1.909   2.688   0.675
 1328SOL    HW2 4884   1.946   2.668   0.833
 1329SOL     OW 4885   1.174   2.575   1.057
 1329SOL    HW1 4886   1.133   2.602   0.970
 1329SOL    HW2 4887   1.137   2.632   1.131
 1330SOL     OW 4888   6.852   1.072   1.427
 1330SOL    HW1 4889   6.856   1.019   1.342
 1330SOL    HW2 4890   6.858   1.169   1.406
 1331SOL     OW 4891   5.117   2.534   3.380
 1331SOL    HW1 4892   5.177   2.456   3.401
 1331SOL    HW2 4893   5.031   2.500   3.342
 1332SOL     OW 4894   2.515   0.042   0.028
 1332SOL    HW1 4895   2.575   0.008   6.978
 1332SOL    HW2 4896   2.448   6.994   0.051
 1333SOL     OW 4897   3.690   3.462   5.951
 1333SOL    HW1 4898   3.616   3.512   5.995
 1333SOL    HW2 4899   3.758   3.527   5.916
 1334SOL     OW 4900   6.271   2.336   4.545
 1334SOL    HW1 4901   6.220   2.250   4.555
 1334SOL    HW2 4902   6.294   2.371   4.636
 1335SOL     OW 4903   2.765   1.289   3.101
 1335SOL    HW1 4904   2.853   1.293   3.055
 1335SOL    HW2 4905   2.775   1.316   3.196
 1336SOL     OW 4906   1.757   1.741   5.710
 1336SOL    HW1 4907   1.800   1.713   5.624
 1336SOL    HW2 4908   1.805   1.700   5.787
 1337SOL     OW 4909   1.540   1.454   5.075
 1337SOL    HW1 4910   1.554   1.409   4.987
 1337SOL    HW2 4911   1.599   1.534   5.083
 1338SOL     OW 4912   5.598   2.060   6.563
 1338SOL    HW1 4913   5.691   2.024   6.570
 1338SOL    HW2 4914   5.540   2.016   6.632
 1339SOL     OW 4915   0.820   1.147   6.520
 1339SOL    HW1 4916   0.742   1.131   6.581
 1339SOL    HW2 4917   0.807   1.094   6.436
 1340SOL     OW 4918   0.828   2.304   2.055
 1340SOL    HW1 4919   0.832   2.286   2.153
 1340SOL    HW2 4920   0.805   2.219   2.007
 1341SOL     OW 4921   5.266   0.602   5.980
 1341SOL    HW1 4922   5.204   0.526   5.960
 1341SOL    HW2 4923   5.243   0.681   5.923
 1342SOL     OW 4924   1.651   4.617   6.140
 1342SOL    HW1 4925   1.575   4.553   6.131
 1342SOL    HW2 4926   1.735   4.574   6.106
 1343SOL     OW 4927   4.230   6.009   2.402
 1343SOL    HW1 4928   4.245   6.073   2.477
 1343SOL    HW2 4929   4.315   5.963   2.379
 1344SOL     OW 4930   6.949   4.882   3.894
 1344SOL    HW1 4931   6.860   4.912   3.860
 1344SOL    HW2 4932   7.007   4.856   3.816
 1345SOL     OW 4933   1.563   1.282   2.870
 1345SOL    HW1 4934   1.650   1.327   2.850
 1345SOL    HW2 4935   1.580   1.188   2.900
 1346SOL     OW 4936   0.799   6.518   4.329
 1346SOL    HW1 4937   0.829   6.609   4.360
 1346SOL    HW2 4938   0.711   6.526   4.282
 1347SOL     OW 4939   6.558   5.679   4.340
 1347SOL    HW1 4940   6.468   5.672   4.298
 1347SOL    HW2 4941   6.601   5.588   4.343
 1348SOL     OW 4942   5.120   4.823   2.395
 1348SOL    HW1 4943   5.127   4.742   2.454
 1348SOL    HW2 4944   5.170   4.899   2.437
 1349SOL     OW 4945   4.653   1.776   6.187
 1349SOL    HW1 4946   4.642   1.729   6.274
 1349SOL    HW2 4947   4.591   1.855   6.184
 1350SOL     OW 4948   5.058   4.418   6.921
 1350SOL    HW1 4949   4.984   4.428   6.987
 1350SOL    HW2 4950   5.112   4.502   6.919
 1351SOL     OW 4951   6.392   1.853   3.475
 1351SOL    HW1 4952   6.478   1.807   3.454
 1351SOL    HW2 4953   6.318   1.786   3.477
 1352SOL     OW 4954   6.733   0.026   3.026
 1352SOL    HW1 4955   6.812   0.036   3.086
 1352SOL    HW2 4956   6.764   0.019   2.931
 1353SOL     OW 4957   6.758   3.902   6.172
 1353SOL    HW1 4958   6.766   3.889   6.271
 1353SOL    HW2 4959   6.796   3.991   6.147
 1354SOL     OW 4960   0.601   2.251   0.261
 1354SOL    HW1 4961   0.559   2.330   0.216
 1354SOL    HW2 4962   0.661   2.283   0.334
 1355SOL     OW 4963   0.256   2.548   5.448
 1355SOL    HW1 4964   0.193   2.562   5.524
 1355SOL    HW2 4965   0.205   2.521   5.366
 1356SOL     OW 4966   2.985   3.643   3.327
 1356SOL    HW1 4967   2.947   3.721   3.277
 1356SOL    HW2 4968   3.075   3.668   3.364
 1357SOL     OW 4969   1.529   4.301   5.460
 1357SOL    HW1 4970   1.560   4.294   5.555
 1357SOL    HW2 4971   1.449   4.243   5.446
 1358SOL     OW 4972   4.090   0.978   5.866
 1358SOL    HW1 4973   4.156   0.952   5.795
 1358SOL    HW2 4974   4.119   0.940   5.954
 1359SOL     OW 4975   6.353   4.743   1.607
 1359SOL    HW1 4976   6.351   4.782   1.516
 1359SOL    HW2 4977   6.298   4.799   1.669
 1360SOL     OW 4978   4.193   3.127   1.276
 1360SOL    HW1 4979   4.270   3.087   1.325
 1360SOL    HW2 4980   4.114   3.067   1.282
 1361SOL     OW 4981   0.311   6.085   5.501
 1361SOL    HW1 4982   0.270   6.037   5.579
 1361SOL    HW2 4983   0.284   6.181   5.504
 1362SOL     OW 4984   3.058   3.798   4.389
 1362SOL    HW1 4985   3.100   3.857   4.319
 1362SOL    HW2 4986   3.028   3.854   4.466
 1363SOL     OW 4987   6.713   5.677   3.545
 1363SOL    HW1 4988   6.806   5.708   3.526
 1363SOL    HW2 4989   6.672   5.640   3.462
 1364SOL     OW 4990   6.728   2.350   0.567
 1364SOL    HW1 4991   6.795   2.368   0.495
 1364SOL    HW2 4992   6.704   2.436   0.613
 1365SOL     OW 4993   1.106   2.818   5.665
 1365SOL    HW1 4994   1.086   2.825   5.763
 1365SOL    HW2 4995   1.030   2.772   5.620
 1366SOL     OW 4996   0.256   4.086   0.575
 1366SOL    HW1 4997   0.355   4.071   0.581
 1366SOL    HW2 4998   0.232   4.170   0.624
 1367SOL     OW 4999   1.675   5.872   2.443
 1367SOL    HW1 5000   1.679   5.800   2.373
 1367SOL    HW2 5001   1.759   5.870   2.497
 1368SOL     OW 5002   6.961   0.379   3.841
 1368SOL    HW1 5003   6.913   0.342   3.762
 1368SOL    HW2 5004   0.010   0.442   3.810
 1369SOL     OW 5005   2.234   6.829   2.261
 1369SOL    HW1 5006   2.174   6.849   2.339
 1369SOL    HW2 5007   2.232   6.905   2.197
 1370SOL     OW 5008   4.577   1.666   2.817
 1370SOL    HW1 5009   4.661   1.705   2.780
 1370SOL    HW2 5010   4.513   1.648   2.743
 1371SOL     OW 5011   5.815   1.446   4.867
 1371SOL    HW1 5012   5.905   1.401   4.868
 1371SOL    HW2 5013   5.748   1.383   4.829
 1372SOL     OW 5014   1.262   2.434   0.420
 1372SOL    HW1 5015   1.349   2.427   0.468
 1372SOL    HW2 5016   1.229   2.343   0.396
 1373SOL     OW 5017   4.457   2.649   0.326
 1373SOL    HW1 5018   4.416   2.670   0.237
 1373SOL    HW2 5019   4.401   2.688   0.399
 1374SOL     OW 5020   4.333   2.085   1.064
 1374SOL    HW1 5021   4.338   2.003   1.007
 1374SOL    HW2 5022   4.269   2.069   1.139
 1375SOL     OW 5023   0.287   6.048   6.070
 1375SOL    HW1 5024   0.334   6.041   6.158
 1375SOL    HW2 5025   0.188   6.046   6.085
 1376SOL     OW 5026   4.570   4.717   4.954
 1376SOL    HW1 5027   4.506   4.645   4.926
 1376SOL    HW2 5028   4.663   4.682   4.949
 1377SOL     OW 5029   0.577   3.363   5.205
 1377SOL    HW1 5030   0.547   3.303   5.131
 1377SOL    HW2 5031   0.673   3.343   5.226
 1378SOL     OW 5032   5.484   1.700   4.363
 1378SOL    HW1 5033   5.560   1.738   4.312
 1378SOL    HW2 5034   5.519   1.642   4.437
 1379SOL     OW 5035   4.019   6.188   3.345
 1379SOL    HW1 5036   4.023   6.240   3.430
 1379SOL    HW2 5037   4.074   6.105   3.353
 1380SOL     OW 5038   0.587   7.007   3.764
 1380SOL    HW1 5039   0.520   0.032   3.707
 1380SOL    HW2 5040   0.670   6.992   3.711
 1381SOL     OW 5041   5.858   1.779   0.674
 1381SOL    HW1 5042   5.913   1.804   0.593
 1381SOL    HW2 5043   5.840   1.681   0.673
 1382SOL     OW 5044   5.178   2.885   0.944
 1382SOL    HW1 5045   5.083   2.855   0.954
 1382SOL    HW2 5046   5.190   2.975   0.985
 1383SOL     OW 5047   0.919   0.696   2.362
 1383SOL    HW1 5048   0.914   0.596   2.364
 1383SOL    HW2 5049   0.891   0.728   2.271
 1384SOL     OW 5050   4.703   0.634   1.913
 1384SOL    HW1 5051   4.768   0.676   1.850
 1384SOL    HW2 5052   4.695   0.691   1.995
 1385SOL     OW 5053   2.900   4.811   3.297
 1385SOL    HW1 5054   2.980   4.816   3.356
 1385SOL    HW2 5055   2.818   4.793   3.352
 1386SOL     OW 5056   2.970   1.066   3.821
 1386SOL    HW1 5057   2.885   1.083   3.773
 1386SOL    HW2 5058   3.023   1.150   3.829
 1387SOL     OW 5059   3.413   5.986   2.927
 1387SOL    HW1 5060   3.415   5.915   2.997
 1387SOL    HW2 5061   3.485   5.968   2.859
 1388SOL     OW 5062   0.576   0.753   2.859
 1388SOL    HW1 5063   0.673   0.743   2.881
 1388SOL    HW2 5064   0.565   0.768   2.761
 1389SOL     OW 5065   6.882   1.278   3.821
 1389SOL    HW1 5066   6.790   1.313   3.841
 1389SOL    HW2 5067   6.894   1.188   3.864
 1390SOL     OW 5068   6.274   2.788   6.259
 1390SOL    HW1 5069   6.197   2.814   6.201
 1390SOL    HW2 5070   6.251   2.805   6.355
 1391SOL     OW 5071   6.266   0.268   5.065
 1391SOL    HW1 5072   6.290   0.364   5.079
 1391SOL    HW2 5073   6.192   0.243   5.129
 1392SOL     OW 5074   5.858   6.589   5.866
 1392SOL    HW1 5075   5.869   6.504   5.917
 1392SOL    HW2 5076   5.903   6.664   5.915
 1393SOL     OW 5077   6.828   4.212   6.182
 1393SOL    HW1 5078   6.842   4.279   6.254
 1393SOL    HW2 5079   6.915   4.194   6.136
 1394SOL     OW 5080   3.695   5.848   5.420
 1394SOL    HW1 5081   3.764   5.832   5.491
 1394SOL    HW2 5082   3.702   5.775   5.351
 1395SOL     OW 5083   1.662   4.964   4.833
 1395SOL    HW1 5084   1.698   5.042   4.885
 1395SOL    HW2 5085   1.715   4.953   4.749
 1396SOL     OW 5086   6.709   1.379   5.107
 1396SOL    HW1 5087   6.800   1.340   5.119
 1396SOL    HW2 5088   6.651   1.314   5.059
 1397SOL     OW 5089   0.813   6.314   4.791
 1397SOL    HW1 5090   0.841   6.218   4.796
 1397SOL    HW2 5091   0.889   6.373   4.820
 1398SOL     OW 5092   2.721   0.866   6.609
 1398SOL    HW1 5093   2.659   0.908   6.543
 1398SOL    HW2 5094   2.798   0.826   6.561
 1399SOL     OW 5095   3.990   5.192   0.626
 1399SOL    HW1 5096   4.081   5.204   0.587
 1399SOL    HW2 5097   3.972   5.265   0.691
 1400SOL     OW 5098   0.408   1.579   4.248
 1400SOL    HW1 5099   0.474   1.646   4.280
 1400SOL    HW2 5100   0.438   1.487   4.273
 1401SOL     OW 5101   6.323   0.259   4.203
 1401SOL    HW1 5102   6.422   0.264   4.216
 1401SOL    HW2 5103   6.301   0.175   4.152
 1402SOL     OW 5104   5.184   3.865   6.373
 1402SOL    HW1 5105   5.238   3.851   6.290
 1402SOL    HW2 5106   5.198   3.788   6.435
 1403SOL     OW 5107   2.746   1.623   0.415
 1403SOL    HW1 5108   2.807   1.612   0.494
 1403SOL    HW2 5109   2.747   1.719   0.385
 1404SOL     OW 5110   6.837   0.032   6.623
 1404SOL    HW1 5111   6.929   0.038   6.584
 1404SOL    HW2 5112   6.788   0.117   6.603
 1405SOL     OW 5113   2.681   3.039   0.738
 1405SOL    HW1 5114   2.588   3.012   0.712
 1405SOL    HW2 5115   2.719   2.969   0.799
 1406SOL     OW 5116   0.872   5.672   0.775
 1406SOL    HW1 5117   0.934   5.596   0.791
 1406SOL    HW2 5118   0.788   5.659   0.828
 1407SOL     OW 5119   0.646   3.337   4.026
 1407SOL    HW1 5120   0.613   3.431   4.013
 1407SOL    HW2 5121   0.697   3.332   4.112
 1408SOL     OW 5122   4.950   1.622   6.076
 1408SOL    HW1 5123   4.904   1.557   6.136
 1408SOL    HW2 5124   5.031   1.657   6.122
 1409SOL     OW 5125   0.127   0.106   5.578
 1409SOL    HW1 5126   0.140   0.203   5.558
 1409SOL    HW2 5127   0.154   0.087   5.672
 1410SOL     OW 5128   1.553   4.039   6.324
 1410SOL    HW1 5129   1.481   4.102   6.352
 1410SOL    HW2 5130   1.640   4.089   6.316
 1411SOL     OW 5131   3.049   6.748   0.406
 1411SOL    HW1 5132   3.080   6.823   0.348
 1411SOL    HW2 5133   3.118   6.730   0.477
 1412SOL     OW 5134   1.313   3.032   1.283
 1412SOL    HW1 5135   1.229   3.065   1.240
 1412SOL    HW2 5136   1.332   3.087   1.365
 1413SOL     OW 5137   2.036   1.327   4.722
 1413SOL    HW1 5138   2.005   1.288   4.635
 1413SOL    HW2 5139   2.010   1.424   4.726
 1414SOL     OW 5140   1.775   1.696   2.182
 1414SOL    HW1 5141   1.786   1.598   2.194
 1414SOL    HW2 5142   1.758   1.740   2.270
 1415SOL     OW 5143   1.778   1.360   4.872
 1415SOL    HW1 5144   1.832   1.439   4.841
 1415SOL    HW2 5145   1.775   1.291   4.800
 1416SOL     OW 5146   4.213   6.000   4.650
 1416SOL    HW1 5147   4.169   5.919   4.612
 1416SOL    HW2 5148   4.224   6.069   4.578
 1417SOL     OW 5149   3.121   2.598   0.572
 1417SOL    HW1 5150   3.048   2.531   0.558
 1417SOL    HW2 5151   3.210   2.551   0.571
 1418SOL     OW 5152   3.127   3.691   2.306
 1418SOL    HW1 5153   3.150   3.769   2.364
 1418SOL    HW2 5154   3.040   3.652   2.335
 1419SOL     OW 5155   3.262   6.323   4.194
 1419SOL    HW1 5156   3.236   6.299   4.101
 1419SOL    HW2 5157   3.193   6.383   4.234
 1420SOL     OW 5158   2.889   6.410   2.571
 1420SOL    HW1 5159   2.818   6.343   2.549
 1420SOL    HW2 5160   2.940   6.433   2.488
 1421SOL     OW 5161   2.136   4.882   3.918
 1421SOL    HW1 5162   2.144   4.835   4.005
 1421SOL    HW2 5163   2.163   4.977   3.928
 1422SOL     OW 5164   1.776   4.190   6.302
 1422SOL    HW1 5165   1.824   4.120   6.249
 1422SOL    HW2 5166   1.811   4.192   6.395
 1423SOL     OW 5167   4.665   6.696   4.579
 1423SOL    HW1 5168   4.661   6.633   4.502
 1423SOL    HW2 5169   4.593   6.765   4.568
 1424SOL     OW 5170   6.424   3.772   6.341
 1424SOL    HW1 5171   6.420   3.869   6.365
 1424SOL    HW2 5172   6.420   3.762   6.242
 1425SOL     OW 5173   1.795   5.209   5.982
 1425SOL    HW1 5174   1.749   5.120   5.990
 1425SOL    HW2 5175   1.894   5.194   5.978
 1426SOL     OW 5176   2.628   2.829   6.858
 1426SOL    HW1 5177   2.559   2.818   6.930
 1426SOL    HW2 5178   2.598   2.900   6.794
 1427SOL     OW 5179   6.758   0.239   4.017
 1427SOL    HW1 5180   6.824   0.299   3.972
 1427SOL    HW2 5181   6.666   0.261   3.985
 1428SOL     OW 5182   0.706   1.881   6.891
 1428SOL    HW1 5183   0.607   1.870   6.884
 1428SOL    HW2 5184   0.727   1.957   6.952
 1429SOL     OW 5185   4.913   1.182   6.882
 1429SOL    HW1 5186   4.844   1.181   6.810
 1429SOL    HW2 5187   5.000   1.146   6.846
 1430SOL     OW 5188   2.129   5.070   4.135
 1430SOL    HW1 5189   2.091   5.153   4.175
 1430SOL    HW2 5190   2.089   4.990   4.181
 1431SOL     OW 5191   2.574   2.105   6.727
 1431SOL    HW1 5192   2.475   2.113   6.717
 1431SOL    HW2 5193   2.616   2.104   6.636
 1432SOL     OW 5194   3.062   1.641   1.060
 1432SOL    HW1 5195   3.000   1.573   1.098
 1432SOL    HW2 5196   3.120   1.677   1.133
 1433SOL     OW 5197   4.893   0.615   5.208
 1433SOL    HW1 5198   4.831   0.556   5.157
 1433SOL    HW2 5199   4.857   0.708   5.210
 1434SOL     OW 5200   1.040   0.212   5.995
 1434SOL    HW1 5201   1.139   0.202   6.008
 1434SOL    HW2 5202   1.015   0.309   6.001
 1435SOL     OW 5203   6.888   7.007   3.681
 1435SOL    HW1 5204   6.829   6.964   3.749
 1435SOL    HW2 5205   6.959   6.943   3.653
 1436SOL     OW 5206   4.660   3.949   6.897
 1436SOL    HW1 5207   4.594   3.973   6.826
 1436SOL    HW2 5208   4.749   3.930   6.856
 1437SOL     OW 5209   3.325   1.968   5.595
 1437SOL    HW1 5210   3.393   1.895   5.584
 1437SOL    HW2 5211   3.266   1.972   5.515
 1438SOL     OW 5212   2.941   6.838   2.094
 1438SOL    HW1 5213   2.861   6.846   2.154
 1438SOL    HW2 5214   2.967   6.929   2.062
 1439SOL     OW 5215   6.698   4.955   0.485
 1439SOL    HW1 5216   6.725   5.043   0.524
 1439SOL    HW2 5217   6.774   4.890   0.493
 1440SOL     OW 5218   3.306   3.120   6.384
 1440SOL    HW1 5219   3.330   3.196   6.323
 1440SOL    HW2 5220   3.276   3.042   6.330
 1441SOL     OW 5221   6.095   2.005   4.071
 1441SOL    HW1 5222   6.001   1.997   4.102
 1441SOL    HW2 5223   6.156   2.008   4.150
 1442SOL     OW 5224   6.908   5.382   6.610
 1442SOL    HW1 5225   6.843   5.453   6.637
 1442SOL    HW2 5226   7.001   5.421   6.608
 1443SOL     OW 5227   0.886   2.904   4.191
 1443SOL    HW1 5228   0.831   2.883   4.110
 1443SOL    HW2 5229   0.839   2.873   4.273
 1444SOL     OW 5230   4.216   5.675   1.023
 1444SOL    HW1 5231   4.303   5.648   0.982
 1444SOL    HW2 5232   4.161   5.725   0.956
 1445SOL     OW 5233   0.419   3.289   2.568
 1445SOL    HW1 5234   0.355   3.309   2.643
 1445SOL    HW2 5235   0.417   3.364   2.502
 1446SOL     OW 5236   5.066   2.398   0.257
 1446SOL    HW1 5237   5.015   2.465   0.311
 1446SOL    HW2 5238   5.145   2.443   0.214
 1447SOL     OW 5239   5.859   6.843   5.566
 1447SOL    HW1 5240   5.940   6.812   5.517
 1447SOL    HW2 5241   5.778   6.798   5.528
 1448SOL     OW 5242   6.679   2.312   6.142
 1448SOL    HW1 5243   6.676   2.279   6.236
 1448SOL    HW2 5244   6.724   2.401   6.139
 1449SOL     OW 5245   0.858   0.932   0.409
 1449SOL    HW1 5246   0.834   0.917   0.505
 1449SOL    HW2 5247   0.791   0.886   0.350
 1450SOL     OW 5248   0.869   2.473   1.316
 1450SOL    HW1 5249   0.838   2.418   1.394
 1450SOL    HW2 5250   0.905   2.412   1.245
 1451SOL     OW 5251   1.712   0.198   2.028
 1451SOL    HW1 5252   1.648   0.124   2.008
 1451SOL    HW2 5253   1.662   0.285   2.029
 1452SOL     OW 5254   4.543   1.024   4.752
 1452SOL    HW1 5255   4.572   0.997   4.660
 1452SOL    HW2 5256   4.447   0.999   4.766
 1453SOL     OW 5257   0.131   3.887   5.650
 1453SOL    HW1 5258   0.221   3.860   5.617
 1453SOL    HW2 5259   0.061   3.851   5.589
 1454SOL     OW 5260   0.186   3.485   2.228
 1454SOL    HW1 5261   0.095   3.460   2.195
 1454SOL    HW2 5262   0.247   3.502   2.150
 1455SOL     OW 5263   0.820   1.049   2.142
 1455SOL    HW1 5264   0.772   1.132   2.116
 1455SOL    HW2 5265   0.883   1.023   2.069
 1456SOL     OW 5266   6.798   6.493   5.118
 1456SOL    HW1 5267   6.843   6.418   5.168
 1456SOL    HW2 5268   6.836   6.499   5.026
 1457SOL     OW 5269   1.358   6.611   1.752
 1457SOL    HW1 5270   1.376   6.516   1.776
 1457SOL    HW2 5271   1.353   6.620   1.652
 1458SOL     OW 5272   6.181   5.772   3.213
 1458SOL    HW1 5273   6.111   5.842   3.223
 1458SOL    HW2 5274   6.140   5.681   3.224
 1459SOL     OW 5275   2.963   5.619   5.928
 1459SOL    HW1 5276   2.953   5.567   5.843
 1459SOL    HW2 5277   2.985   5.714   5.906
 1460SOL     OW 5278   0.801   5.845   5.445
 1460SOL    HW1 5279   0.746   5.789   5.383
 1460SOL    HW2 5280   0.749   5.865   5.528
 1461SOL     OW 5281   6.446   5.409   3.589
 1461SOL    HW1 5282   6.387   5.468   3.535
 1461SOL    HW2 5283   6.449   5.318   3.547
 1462SOL     OW 5284   1.039   0.178   6.510
 1462SOL    HW1 5285   0.977   0.255   6.527
 1462SOL    HW2 5286   1.025   0.144   6.417
 1463SOL     OW 5287   6.914   6.070   6.844
 1463SOL    HW1 5288   6.830   6.125   6.850
 1463SOL    HW2 5289   6.915   6.003   6.918
 1464SOL     OW 5290   6.850   0.316   1.011
 1464SOL    HW1 5291   6.927   0.379   1.000
 1464SOL    HW2 5292   6.791   0.347   1.085
 1465SOL     OW 5293   1.668   1.152   3.596
 1465SOL    HW1 5294   1.639   1.116   3.507
 1465SOL    HW2 5295   1.767   1.164   3.597
 1466SOL     OW 5296   1.513   1.780   1.835
 1466SOL    HW1 5297   1.563   1.791   1.749
 1466SOL    HW2 5298   1.471   1.868   1.860
 1467SOL     OW 5299   1.656   1.879   2.879
 1467SOL    HW1 5300   1.660   1.782   2.855
 1467SOL    HW2 5301   1.611   1.930   2.806
 1468SOL     OW 5302   4.514   5.716   2.301
 1468SOL    HW1 5303   4.600   5.669   2.283
 1468SOL    HW2 5304   4.523   5.772   2.383
 1469SOL     OW 5305   0.789   1.253   1.870
 1469SOL    HW1 5306   0.801   1.318   1.796
 1469SOL    HW2 5307   0.878   1.219   1.900
 1470SOL     OW 5308   1.638   1.581   2.637
 1470SOL    HW1 5309   1.631   1.660   2.576
 1470SOL    HW2 5310   1.563   1.517   2.617
 1471SOL     OW 5311   0.890   7.022   1.234
 1471SOL    HW1 5312   0.845   6.994   1.149
 1471SOL    HW2 5313   0.875   6.953   1.304
 1472SOL     OW 5314   3.728   6.112   5.729
 1472SOL    HW1 5315   3.823   6.142   5.737
 1472SOL    HW2 5316   3.710   6.040   5.796
 1473SOL     OW 5317   4.870   5.927   4.723
 1473SOL    HW1 5318   4.793   5.985   4.751
 1473SOL    HW2 5319   4.914   5.967   4.643
 1474SOL     OW 5320   5.340   5.442   2.491
 1474SOL    HW1 5321   5.336   5.389   2.575
 1474SOL    HW2 5322   5.362   5.381   2.414
 1475SOL     OW 5323   6.531   0.273   2.175
 1475SOL    HW1 5324   6.470   0.214   2.124
 1475SOL    HW2 5325   6.563   0.348   2.116
 1476SOL     OW 5326   2.721   1.214   1.238
 1476SOL    HW1 5327   2.735   1.133   1.296
 1476SOL    HW2 5328   2.707   1.294   1.296
 1477SOL     OW 5329   3.774   6.963   6.361
 1477SOL    HW1 5330   3.834   6.914   6.423
 1477SOL    HW2 5331   3.784   0.039   6.376
 1478SOL     OW 5332   6.544   5.544   6.884
 1478SOL    HW1 5333   6.470   5.481   6.860
 1478SOL    HW2 5334   6.599   5.563   6.803
 1479SOL     OW 5335   1.677   2.639   6.873
 1479SOL    HW1 5336   1.761   2.585   6.880
 1479SOL    HW2 5337   1.598   2.580   6.891
 1480SOL     OW 5338   3.268   0.455   5.638
 1480SOL    HW1 5339   3.235   0.545   5.609
 1480SOL    HW2 5340   3.274   0.451   5.737
 1481SOL     OW 5341   6.762   2.750   5.751
 1481SOL    HW1 5342   6.739   2.695   5.671
 1481SOL    HW2 5343   6.794   2.840   5.721
 1482SOL     OW 5344   4.768   2.183   1.407
 1482SOL    HW1 5345   4.714   2.232   1.475
 1482SOL    HW2 5346   4.787   2.090   1.440
 1483SOL     OW 5347   4.875   2.094   0.090
 1483SOL    HW1 5348   4.881   2.128   0.184
 1483SOL    HW2 5349   4.797   2.032   0.082
 1484SOL     OW 5350   6.081   4.705   3.973
 1484SOL    HW1 5351   6.141   4.740   4.046
 1484SOL    HW2 5352   5.996   4.758   3.972
 1485SOL     OW 5353   3.696   1.379   3.278
 1485SOL    HW1 5354   3.599   1.389   3.302
 1485SOL    HW2 5355   3.745   1.462   3.305
 1486SOL     OW 5356   5.266   1.715   2.543
 1486SOL    HW1 5357   5.319   1.694   2.461
 1486SOL    HW2 5358   5.253   1.814   2.550
 1487SOL     OW 5359   6.739   1.957   6.294
 1487SOL    HW1 5360   6.696   2.033   6.343
 1487SOL    HW2 5361   6.733   1.874   6.349
 1488SOL     OW 5362   4.774   1.201   3.968
 1488SOL    HW1 5363   4.745   1.146   3.890
 1488SOL    HW2 5364   4.779   1.297   3.940
 1489SOL     OW 5365   4.235   5.328   4.604
 1489SOL    HW1 5366   4.184   5.316   4.519
 1489SOL    HW2 5367   4.310   5.262   4.608
 1490SOL     OW 5368   1.171   2.899   2.228
 1490SOL    HW1 5369   1.080   2.872   2.199
 1490SOL    HW2 5370   1.231   2.819   2.228
 1491SOL     OW 5371   6.393   3.843   3.208
 1491SOL    HW1 5372   6.424   3.750   3.227
 1491SOL    HW2 5373   6.387   3.856   3.109
 1492SOL     OW 5374   5.459   0.819   2.259
 1492SOL    HW1 5375   5.478   0.908   2.218
 1492SOL    HW2 5376   5.523   0.803   2.335
 1493SOL     OW 5377   4.042   6.477   4.916
 1493SOL    HW1 5378   4.111   6.429   4.970
 1493SOL    HW2 5379   3.957   6.484   4.969
 1494SOL     OW 5380   5.151   1.948   6.118
 1494SOL    HW1 5381   5.052   1.966   6.114
 1494SOL    HW2 5382   5.191   1.998   6.194
 1495SOL     OW 5383   6.690   2.651   4.453
 1495SOL    HW1 5384   6.624   2.632   4.525
 1495SOL    HW2 5385   6.775   2.684   4.494
 1496SOL     OW 5386   0.556   1.708   1.525
 1496SOL    HW1 5387   0.509   1.638   1.471
 1496SOL    HW2 5388   0.647   1.723   1.486
 1497SOL     OW 5389   6.076   3.318   3.392
 1497SOL    HW1 5390   6.085   3.287   3.298
 1497SOL    HW2 5391   5.983   3.351   3.408
 1498SOL     OW 5392   2.081   5.309   6.530
 1498SOL    HW1 5393   2.081   5.217   6.569
 1498SOL    HW2 5394   1.996   5.356   6.555
 1499SOL     OW 5395   1.240   2.672   6.348
 1499SOL    HW1 5396   1.176   2.634   6.281
 1499SOL    HW2 5397   1.332   2.672   6.311
 1500SOL     OW 5398   6.849   6.952   6.896
 1500SOL    HW1 5399   6.773   6.892   6.920
 1500SOL    HW2 5400   6.844   6.973   6.798
 1501SOL     OW 5401   5.482   2.710   6.336
 1501SOL    HW1 5402   5.414   2.662   6.281
 1501SOL    HW2 5403   5.489   2.805   6.305
 1502SOL     OW 5404   4.504   0.075   0.574
 1502SOL    HW1 5405   4.416   0.083   0.528
 1502SOL    HW2 5406   4.490   0.044   0.669
 1503SOL     OW 5407   0.496   3.755   1.342
 1503SOL    HW1 5408   0.548   3.819   1.400
 1503SOL    HW2 5409   0.469   3.675   1.396
 1504SOL     OW 5410   0.838   0.408   5.794
 1504SOL    HW1 5411   0.845   0.431   5.891
 1504SOL    HW2 5412   0.922   0.436   5.747
 1505SOL     OW 5413   5.563   1.165   5.824
 1505SOL    HW1 5414   5.508   1.138   5.745
 1505SOL    HW2 5415   5.503   1.184   5.902
 1506SOL     OW 5416   0.927   6.033   1.038
 1506SOL    HW1 5417   0.851   6.086   1.000
 1506SOL    HW2 5418   0.957   5.966   0.971
 1507SOL     OW 5419   1.014   1.798   5.145
 1507SOL    HW1 5420   1.048   1.831   5.057
 1507SOL    HW2 5421   0.932   1.850   5.171
 1508SOL     OW 5422   6.756   0.905   2.098
 1508SOL    HW1 5423   6.752   0.989   2.153
 1508SOL    HW2 5424   6.762   0.826   2.158
 1509SOL     OW 5425   4.124   1.563   6.094
 1509SOL    HW1 5426   4.135   1.619   6.012
 1509SOL    HW2 5427   4.101   1.469   6.069
 1510SOL     OW 5428   4.481   2.080   4.852
 1510SOL    HW1 5429   4.488   2.178   4.871
 1510SOL    HW2 5430   4.431   2.066   4.767
 1511SOL     OW 5431   3.639   3.220   2.017
 1511SOL    HW1 5432   3.542   3.241   2.030
 1511SOL    HW2 5433   3.650   3.121   2.003
 1512SOL     OW 5434   0.148   5.221   1.492
 1512SOL    HW1 5435   0.216   5.157   1.527
 1512SOL    HW2 5436   0.149   5.304   1.546
 1513SOL     OW 5437   3.634   0.924   3.753
 1513SOL    HW1 5438   3.656   0.976   3.835
 1513SOL    HW2 5439   3.718   0.894   3.708
 1514SOL     OW 5440   4.356   1.974   6.000
 1514SOL    HW1 5441   4.324   1.904   6.064
 1514SOL    HW2 5442   4.277   2.013   5.952
 1515SOL     OW 5443   5.775   2.175   3.430
 1515SOL    HW1 5444   5.768   2.131   3.520
 1515SOL    HW2 5445   5.794   2.105   3.361
 1516SOL     OW 5446   6.550   6.957   0.161
 1516SOL    HW1 5447   6.517   6.969   0.067
 1516SOL    HW2 5448   6.595   6.868   0.170
 1517SOL     OW 5449   4.655   6.239   3.474
 1517SOL    HW1 5450   4.580   6.275   3.528
 1517SOL    HW2 5451   4.676   6.146   3.503
 1518SOL     OW 5452   1.299   2.780   0.266
 1518SOL    HW1 5453   1.272   2.861   0.214
 1518SOL    HW2 5454   1.328   2.808   0.358
 1519SOL     OW 5455   6.239   5.072   1.544
 1519SOL    HW1 5456   6.238   4.995   1.480
 1519SOL    HW2 5457   6.307   5.139   1.514
 1520SOL     OW 5458   0.314   3.815   2.070
 1520SOL    HW1 5459   0.409   3.804   2.100
 1520SOL    HW2 5460   0.309   3.799   1.971
 1521SOL     OW 5461   1.984   3.665   6.363
 1521SOL    HW1 5462   2.079   3.696   6.362
 1521SOL    HW2 5463   1.948   3.669   6.270
 1522SOL     OW 5464   6.305   6.746   5.395
 1522SOL    HW1 5465   6.216   6.720   5.432
 1522SOL    HW2 5466   6.372   6.675   5.414
 1523SOL     OW 5467   5.253   5.446   0.895
 1523SOL    HW1 5468   5.309   5.504   0.836
 1523SOL    HW2 5469   5.304   5.363   0.918
 1524SOL     OW 5470   1.905   2.070   1.888
 1524SOL    HW1 5471   1.907   1.978   1.928
 1524SOL    HW2 5472   1.996   2.093   1.853
 1525SOL     OW 5473   6.687   2.156   0.028
 1525SOL    HW1 5474   6.760   2.186   0.089
 1525SOL    HW2 5475   6.610   2.123   0.081
 1526SOL     OW 5476   6.185   0.077   6.348
 1526SOL    HW1 5477   6.189   0.176   6.356
 1526SOL    HW2 5478   6.207   0.050   6.254
 1527SOL     OW 5479   3.157   1.449   5.373
 1527SOL    HW1 5480   3.137   1.352   5.376
 1527SOL    HW2 5481   3.108   1.491   5.297
 1528SOL     OW 5482   4.743   6.172   2.774
 1528SOL    HW1 5483   4.810   6.121   2.720
 1528SOL    HW2 5484   4.732   6.129   2.863
 1529SOL     OW 5485   4.018   0.806   0.296
 1529SOL    HW1 5486   4.079   0.878   0.329
 1529SOL    HW2 5487   3.927   0.844   0.280
 1530SOL     OW 5488   3.375   1.766   2.129
 1530SOL    HW1 5489   3.423   1.852   2.144
 1530SOL    HW2 5490   3.362   1.719   2.216
 1531SOL     OW 5491   4.185   1.210   4.803
 1531SOL    HW1 5492   4.181   1.169   4.894
 1531SOL    HW2 5493   4.275   1.251   4.790
 1532SOL     OW 5494   2.634   3.635   6.055
 1532SOL    HW1 5495   2.640   3.642   5.956
 1532SOL    HW2 5496   2.647   3.725   6.096
 1533SOL     OW 5497   6.379   3.530   6.874
 1533SOL    HW1 5498   6.320   3.504   6.797
 1533SOL    HW2 5499   6.344   3.613   6.917
 1534SOL     OW 5500   2.183   4.770   6.459
 1534SOL    HW1 5501   2.263   4.800   6.407
 1534SOL    HW2 5502   2.108   4.749   6.397
 1535SOL     OW 5503   5.331   6.183   3.811
 1535SOL    HW1 5504   5.242   6.155   3.773
 1535SOL    HW2 5505   5.347   6.280   3.791
 1536SOL     OW 5506   4.112   4.492   5.332
 1536SOL    HW1 5507   4.172   4.487   5.253
 1536SOL    HW2 5508   4.039   4.424   5.322
 1537SOL     OW 5509   4.491   6.888   3.155
 1537SOL    HW1 5510   4.527   6.819   3.218
 1537SOL    HW2 5511   4.475   6.973   3.206
 1538SOL     OW 5512   3.955   5.865   5.896
 1538SOL    HW1 5513   3.990   5.882   5.988
 1538SOL    HW2 5514   3.857   5.843   5.901
 1539SOL     OW 5515   4.056   3.869   2.067
 1539SOL    HW1 5516   4.139   3.924   2.062
 1539SOL    HW2 5517   3.979   3.922   2.032
 1540SOL     OW 5518   1.957   5.656   5.934
 1540SOL    HW1 5519   2.032   5.722   5.944
 1540SOL    HW2 5520   1.875   5.692   5.978
 1541SOL     OW 5521   3.750   2.915   2.845
 1541SOL    HW1 5522   3.793   2.827   2.865
 1541SOL    HW2 5523   3.669   2.901   2.787
 1542SOL     OW 5524   6.037   5.910   2.145
 1542SOL    HW1 5525   6.052   5.860   2.059
 1542SOL    HW2 5526   6.025   5.845   2.220
 1543SOL     OW 5527   3.626   4.494   5.370
 1543SOL    HW1 5528   3.578   4.407   5.385
 1543SOL    HW2 5529   3.719   4.475   5.339
 1544SOL     OW 5530   3.455   3.590   2.982
 1544SOL    HW1 5531   3.441   3.604   2.884
 1544SOL    HW2 5532   3.478   3.678   3.024
 1545SOL     OW 5533   4.831   0.809   3.936
 1545SOL    HW1 5534   4.822   0.735   3.870
 1545SOL    HW2 5535   4.819   0.897   3.889
 1546SOL     OW 5536   3.776   6.037   6.271
 1546SOL    HW1 5537   3.767   5.939   6.254
 1546SOL    HW2 5538   3.791   6.085   6.185
 1547SOL     OW 5539   1.486   3.540   3.089
 1547SOL    HW1 5540   1.547   3.541   3.169
 1547SOL    HW2 5541   1.393   3.517   3.119
 1548SOL     OW 5542   4.804   4.079   5.824
 1548SOL    HW1 5543   4.767   4.117   5.908
 1548SOL    HW2 5544   4.877   4.015   5.846
 1549SOL     OW 5545   4.901   1.018   2.921
 1549SOL    HW1 5546   4.972   1.067   2.870
 1549SOL    HW2 5547   4.834   0.979   2.858
 1550SOL     OW 5548   3.068   4.367   6.927
 1550SOL    HW1 5549   3.050   4.350   0.002
 1550SOL    HW2 5550   2.982   4.364   6.877
 1551SOL     OW 5551   2.244   4.519   6.044
 1551SOL    HW1 5552   2.328   4.470   6.068
 1551SOL    HW2 5553   2.224   4.587   6.115
 1552SOL     OW 5554   0.049   6.571   6.966
 1552SOL    HW1 5555   6.977   6.592   6.943
 1552SOL    HW2 5556   0.057   6.551   0.041
 1553SOL     OW 5557   0.256   1.244   5.466
 1553SOL    HW1 5558   0.186   1.189   5.420
 1553SOL    HW2 5559   0.283   1.197   5.550
 1554SOL     OW 5560   4.532   1.349   3.262
 1554SOL    HW1 5561   4.552   1.431   3.208
 1554SOL    HW2 5562   4.435   1.324   3.252
 1555SOL     OW 5563   5.302   1.727   0.053
 1555SOL    HW1 5564   5.275   1.651   0.113
 1555SOL    HW2 5565   5.221   1.778   0.026
 1556SOL     OW 5566   2.602   1.177   0.984
 1556SOL    HW1 5567   2.667   1.176   1.060
 1556SOL    HW2 5568   2.548   1.093   0.985
 1557SOL     OW 5569   1.809   1.244   6.484
 1557SOL    HW1 5570   1.783   1.312   6.553
 1557SOL    HW2 5571   1.763   1.157   6.503
 1558SOL     OW 5572   5.159   0.922   4.494
 1558SOL    HW1 5573   5.091   0.852   4.515
 1558SOL    HW2 5574   5.153   0.996   4.560
 1559SOL     OW 5575   0.129   2.612   7.005
 1559SOL    HW1 5576   0.193   2.689   7.009
 1559SOL    HW2 5577   0.065   2.616   0.059
 1560SOL     OW 5578   2.634   1.916   5.949
 1560SOL    HW1 5579   2.542   1.888   5.977
 1560SOL    HW2 5580   2.701   1.859   5.995
 1561SOL     OW 5581   0.127   6.070   3.780
 1561SOL    HW1 5582   0.160   5.979   3.801
 1561SOL    HW2 5583   0.060   6.099   3.848
 1562SOL     OW 5584   3.784   5.487   3.059
 1562SOL    HW1 5585   3.703   5.458   3.008
 1562SOL    HW2 5586   3.759   5.500   3.155
 1563SOL     OW 5587   2.303   0.419   6.227
 1563SOL    HW1 5588   2.261   0.373   6.305
 1563SOL    HW2 5589   2.322   0.353   6.155
 1564SOL     OW 5590   1.138   3.006   3.127
 1564SOL    HW1 5591   1.218   2.984   3.182
 1564SOL    HW2 5592   1.057   2.960   3.165
 1565SOL     OW 5593   4.200   5.143   4.977
 1565SOL    HW1 5594   4.209   5.234   5.016
 1565SOL    HW2 5595   4.115   5.138   4.923
 1566SOL     OW 5596   5.240   5.155   3.647
 1566SOL    HW1 5597   5.199   5.240   3.680
 1566SOL    HW2 5598   5.183   5.077   3.673
 1567SOL     OW 5599   5.897   6.202   6.726
 1567SOL    HW1 5600   5.968   6.163   6.786
 1567SOL    HW2 5601   5.816   6.144   6.730
 1568SOL     OW 5602   1.899   5.363   1.357
 1568SOL    HW1 5603   1.873   5.431   1.425
 1568SOL    HW2 5604   1.873   5.272   1.390
 1569SOL     OW 5605   2.945   6.821   3.523
 1569SOL    HW1 5606   3.032   6.842   3.479
 1569SOL    HW2 5607   2.952   6.733   3.571
 1570SOL     OW 5608   1.974   6.551   0.950
 1570SOL    HW1 5609   1.891   6.597   0.918
 1570SOL    HW2 5610   1.967   6.535   1.048
 1571SOL     OW 5611   6.222   1.787   2.312
 1571SOL    HW1 5612   6.297   1.762   2.372
 1571SOL    HW2 5613   6.148   1.719   2.321
 1572SOL     OW 5614   0.958   6.440   0.694
 1572SOL    HW1 5615   0.992   6.372   0.629
 1572SOL    HW2 5616   1.023   6.515   0.701
 1573SOL     OW 5617   6.361   3.584   1.860
 1573SOL    HW1 5618   6.423   3.529   1.917
 1573SOL    HW2 5619   6.375   3.681   1.879
 1574SOL     OW 5620   0.176   1.070   2.990
 1574SOL    HW1 5621   0.170   1.083   2.891
 1574SOL    HW2 5622   0.241   0.996   3.010
 1575SOL     OW 5623   2.753   2.143   0.686
 1575SOL    HW1 5624   2.770   2.105   0.595
 1575SOL    HW2 5625   2.838   2.184   0.720
 1576SOL     OW 5626   0.925   1.093   3.007
 1576SOL    HW1 5627   0.892   1.185   2.986
 1576SOL    HW2 5628   0.911   1.033   2.928
 1577SOL     OW 5629   2.854   0.556   5.260
 1577SOL    HW1 5630   2.881   0.496   5.335
 1577SOL    HW2 5631   2.936   0.594   5.216
 1578SOL     OW 5632   5.478   3.023   5.910
 1578SOL    HW1 5633   5.440   3.016   6.003
 1578SOL    HW2 5634   5.534   2.943   5.891
 1579SOL     OW 5635   0.697   1.939   2.576
 1579SOL    HW1 5636   0.796   1.931   2.564
 1579SOL    HW2 5637   0.654   1.964   2.490
 1580SOL     OW 5638   3.125   4.020   4.234
 1580SOL    HW1 5639   3.073   4.097   4.197
 1580SOL    HW2 5640   3.222   4.032   4.213
 1581SOL     OW 5641   6.707   4.207   5.617
 1581SOL    HW1 5642   6.750   4.171   5.534
 1581SOL    HW2 5643   6.757   4.174   5.697
 1582SOL     OW 5644   2.518   7.013   4.020
 1582SOL    HW1 5645   2.617   7.008   4.006
 1582SOL    HW2 5646   2.473   0.014   3.934
 1583SOL     OW 5647   1.108   5.111   3.423
 1583SOL    HW1 5648   1.135   5.126   3.518
 1583SOL    HW2 5649   1.016   5.072   3.420
 1584SOL     OW 5650   1.201   6.025   6.079
 1584SOL    HW1 5651   1.118   6.000   6.127
 1584SOL    HW2 5652   1.210   6.124   6.077
 1585SOL     OW 5653   5.380   1.223   3.243
 1585SOL    HW1 5654   5.338   1.135   3.222
 1585SOL    HW2 5655   5.475   1.209   3.272
 1586SOL     OW 5656   3.364   4.867   2.162
 1586SOL    HW1 5657   3.430   4.815   2.108
 1586SOL    HW2 5658   3.318   4.934   2.103
 1587SOL     OW 5659   3.216   5.736   6.522
 1587SOL    HW1 5660   3.220   5.716   6.424
 1587SOL    HW2 5661   3.146   5.805   6.540
 1588SOL     OW 5662   4.223   0.350   2.781
 1588SOL    HW1 5663   4.201   0.445   2.756
 1588SOL    HW2 5664   4.138   0.300   2.800
 1589SOL     OW 5665   6.376   3.129   2.218
 1589SOL    HW1 5666   6.365   3.030   2.208
 1589SOL    HW2 5667   6.320   3.176   2.151
 1590SOL     OW 5668   4.006   6.181   5.762
 1590SOL    HW1 5669   4.045   6.130   5.685
 1590SOL    HW2 5670   4.071   6.182   5.838
 1591SOL     OW 5671   6.740   5.181   2.171
 1591SOL    HW1 5672   6.756   5.246   2.097
 1591SOL    HW2 5673   6.801   5.102   2.160
 1592SOL     OW 5674   2.225   4.085   0.123
 1592SOL    HW1 5675   2.306   4.083   0.065
 1592SOL    HW2 5676   2.191   4.178   0.129
 1593SOL     OW 5677   1.404   6.434   5.596
 1593SOL    HW1 5678   1.377   6.341   5.620
 1593SOL    HW2 5679   1.346   6.468   5.522
 1594SOL     OW 5680   0.397   6.258   1.962
 1594SOL    HW1 5681   0.331   6.296   1.897
 1594SOL    HW2 5682   0.365   6.275   2.055
 1595SOL     OW 5683   1.216   5.502   0.363
 1595SOL    HW1 5684   1.197   5.570   0.433
 1595SOL    HW2 5685   1.263   5.545   0.286
 1596SOL     OW 5686   0.575   2.651   4.044
 1596SOL    HW1 5687   0.503   2.705   4.000
 1596SOL    HW2 5688   0.549   2.554   4.044
 1597SOL     OW 5689   1.309   6.067   0.186
 1597SOL    HW1 5690   1.404   6.047   0.207
 1597SOL    HW2 5691   1.280   6.010   0.109
 1598SOL     OW 5692   0.432   4.099   5.869
 1598SOL    HW1 5693   0.529   4.079   5.882
 1598SOL    HW2 5694   0.412   4.190   5.906
 1599SOL     OW 5695   4.867   4.702   4.999
 1599SOL    HW1 5696   4.852   4.604   5.011
 1599SOL    HW2 5697   4.855   4.748   5.087
 1600SOL     OW 5698   4.324   1.044   3.314
 1600SOL    HW1 5699   4.416   1.075   3.338
 1600SOL    HW2 5700   4.323   1.012   3.219
 1601SOL     OW 5701   0.006   4.842   4.514
 1601SOL    HW1 5702   0.072   4.908   4.549
 1601SOL    HW2 5703   6.955   4.830   4.581
 1602SOL     OW 5704   3.866   5.172   3.169
 1602SOL    HW1 5705   3.895   5.241   3.234
 1602SOL    HW2 5706   3.920   5.088   3.183
 1603SOL     OW 5707   0.847   6.390   3.102
 1603SOL    HW1 5708   0.909   6.420   3.029
 1603SOL    HW2 5709   0.862   6.293   3.121
 1604SOL     OW 5710   5.508   4.743   1.487
 1604SOL    HW1 5711   5.453   4.757   1.569
 1604SOL    HW2 5712   5.501   4.648   1.457
 1605SOL     OW 5713   6.194   5.660   1.330
 1605SOL    HW1 5714   6.219   5.631   1.238
 1605SOL    HW2 5715   6.132   5.738   1.325
 1606SOL     OW 5716   3.262   1.297   5.635
 1606SOL    HW1 5717   3.227   1.301   5.541
 1606SOL    HW2 5718   3.210   1.230   5.687
 1607SOL     OW 5719   4.348   0.999   1.226
 1607SOL    HW1 5720   4.377   1.025   1.318
 1607SOL    HW2 5721   4.423   1.017   1.162
 1608SOL     OW 5722   0.694   0.642   3.409
 1608SOL    HW1 5723   0.725   0.736   3.395
 1608SOL    HW2 5724   0.758   0.579   3.366
 1609SOL     OW 5725   4.230   0.171   0.418
 1609SOL    HW1 5726   4.145   0.126   0.446
 1609SOL    HW2 5727   4.220   0.270   0.425
 1610SOL     OW 5728   5.602   5.054   6.552
 1610SOL    HW1 5729   5.657   5.135   6.529
 1610SOL    HW2 5730   5.653   4.997   6.616
 1611SOL     OW 5731   2.057   3.329   0.965
 1611SOL    HW1 5732   2.109   3.264   1.021
 1611SOL    HW2 5733   2.075   3.422   0.996
 1612SOL     OW 5734   2.810   0.469   6.354
 1612SOL    HW1 5735   2.863   0.403   6.300
 1612SOL    HW2 5736   2.715   0.468   6.324
 1613SOL     OW 5737   1.767   5.175   1.736
 1613SOL    HW1 5738   1.845   5.238   1.744
 1613SOL    HW2 5739   1.767   5.134   1.645
 1614SOL     OW 5740   5.949   3.426   0.297
 1614SOL    HW1 5741   5.985   3.349   0.350
 1614SOL    HW2 5742   6.003   3.435   0.213
 1615SOL     OW 5743   5.931   5.052   0.625
 1615SOL    HW1 5744   5.854   5.107   0.591
 1615SOL    HW2 5745   5.896   4.969   0.668
 1616SOL     OW 5746   3.073   1.060   5.110
 1616SOL    HW1 5747   3.030   1.146   5.082
 1616SOL    HW2 5748   3.002   0.992   5.129
 1617SOL     OW 5749   6.149   6.833   2.664
 1617SOL    HW1 5750   6.123   6.737   2.667
 1617SOL    HW2 5751   6.187   6.855   2.574
 1618SOL     OW 5752   1.921   4.242   1.966
 1618SOL    HW1 5753   2.014   4.222   1.996
 1618SOL    HW2 5754   1.856   4.196   2.026
 1619SOL     OW 5755   1.548   3.458   1.834
 1619SOL    HW1 5756   1.511   3.395   1.902
 1619SOL    HW2 5757   1.637   3.491   1.866
 1620SOL     OW 5758   2.694   4.733   1.763
 1620SOL    HW1 5759   2.607   4.693   1.737
 1620SOL    HW2 5760   2.735   4.679   1.837
 1621SOL     OW 5761   0.251   1.143   0.348
 1621SOL    HW1 5762   0.257   1.242   0.357
 1621SOL    HW2 5763   0.343   1.104   0.350
 1622SOL     OW 5764   0.683   3.036   4.939
 1622SOL    HW1 5765   0.719   3.024   4.846
 1622SOL    HW2 5766   0.679   2.947   4.985
 1623SOL     OW 5767   2.139   3.044   4.926
 1623SOL    HW1 5768   2.162   3.021   4.832
 1623SOL    HW2 5769   2.218   3.027   4.985
 1624SOL     OW 5770   2.945   0.834   4.702
 1624SOL    HW1 5771   2.902   0.769   4.640
 1624SOL    HW2 5772   2.906   0.925   4.687
 1625SOL     OW 5773   0.965   5.296   0.674
 1625SOL    HW1 5774   0.991   5.200   0.691
 1625SOL    HW2 5775   0.869   5.299   0.647
 1626SOL     OW 5776   4.232   2.119   6.768
 1626SOL    HW1 5777   4.288   2.038   6.753
 1626SOL    HW2 5778   4.160   2.099   6.833
 1627SOL     OW 5779   6.361   3.853   2.933
 1627SOL    HW1 5780   6.309   3.884   2.854
 1627SOL    HW2 5781   6.354   3.754   2.941
 1628SOL     OW 5782   4.739   4.172   0.075
 1628SOL    HW1 5783   4.750   4.078   0.044
 1628SOL    HW2 5784   4.713   4.172   0.171
 1629SOL     OW 5785   2.423   0.761   3.981
 1629SOL    HW1 5786   2.517   0.789   3.999
 1629SOL    HW2 5787   2.377   0.740   4.068
 1630SOL     OW 5788   1.702   5.056   5.477
 1630SOL    HW1 5789   1.700   5.026   5.381
 1630SOL    HW2 5790   1.786   5.109   5.493
 1631SOL     OW 5791   1.001   2.724   6.753
 1631SOL    HW1 5792   1.055   2.783   6.814
 1631SOL    HW2 5793   1.007   2.630   6.786
 1632SOL     OW 5794   6.991   1.958   0.167
 1632SOL    HW1 5795   0.055   1.950   0.216
 1632SOL    HW2 5796   7.009   1.986   0.072
 1633SOL     OW 5797   5.183   3.398   4.357
 1633SOL    HW1 5798   5.116   3.449   4.411
 1633SOL    HW2 5799   5.232   3.460   4.296
 1634SOL     OW 5800   4.536   5.482   4.922
 1634SOL    HW1 5801   4.615   5.527   4.964
 1634SOL    HW2 5802   4.459   5.545   4.920
 1635SOL     OW 5803   0.260   5.274   5.824
 1635SOL    HW1 5804   0.359   5.276   5.842
 1635SOL    HW2 5805   0.212   5.237   5.904
 1636SOL     OW 5806   3.134   4.351   1.730
 1636SOL    HW1 5807   3.068   4.423   1.753
 1636SOL    HW2 5808   3.090   4.262   1.739
 1637SOL     OW 5809   1.183   0.822   2.846
 1637SOL    HW1 5810   1.182   0.757   2.770
 1637SOL    HW2 5811   1.173   0.915   2.811
 1638SOL     OW 5812   0.350   4.233   3.138
 1638SOL    HW1 5813   0.306   4.227   3.048
 1638SOL    HW2 5814   0.282   4.253   3.208
 1639SOL     OW 5815   5.213   6.819   2.482
 1639SOL    HW1 5816   5.168   6.865   2.558
 1639SOL    HW2 5817   5.284   6.878   2.444
 1640SOL     OW 5818   5.810   1.247   0.635
 1640SOL    HW1 5819   5.847   1.273   0.546
 1640SOL    HW2 5820   5.744   1.173   0.623
 1641SOL     OW 5821   4.837   2.453   3.299
 1641SOL    HW1 5822   4.785   2.528   3.341
 1641SOL    HW2 5823   4.790   2.422   3.217
 1642SOL     OW 5824   5.833   3.664   6.513
 1642SOL    HW1 5825   5.896   3.685   6.438
 1642SOL    HW2 5826   5.826   3.743   6.573
 1643SOL     OW 5827   3.150   5.033   4.370
 1643SOL    HW1 5828   3.099   5.107   4.326
 1643SOL    HW2 5829   3.097   4.995   4.445
 1644SOL     OW 5830   6.479   3.709   0.404
 1644SOL    HW1 5831   6.396   3.673   0.446
 1644SOL    HW2 5832   6.482   3.808   0.416
 1645SOL     OW 5833   3.024   5.496   5.656
 1645SOL    HW1 5834   3.096   5.440   5.698
 1645SOL    HW2 5835   3.066   5.562   5.594
 1646SOL     OW 5836   2.636   6.127   0.489
 1646SOL    HW1 5837   2.630   6.102   0.393
 1646SOL    HW2 5838   2.722   6.174   0.506
 1647SOL     OW 5839   6.092   2.975   4.702
 1647SOL    HW1 5840   6.032   2.916   4.757
 1647SOL    HW2 5841   6.053   2.987   4.611
 1648SOL     OW 5842   5.484   5.327   0.668
 1648SOL    HW1 5843   5.433   5.374   0.596
 1648SOL    HW2 5844   5.582   5.342   0.654
 1649SOL     OW 5845   3.133   0.874   4.343
 1649SOL    HW1 5846   3.063   0.803   4.330
 1649SOL    HW2 5847   3.096   0.947   4.400
 1650SOL     OW 5848   2.130   5.946   5.471
 1650SOL    HW1 5849   2.129   5.954   5.571
 1650SOL    HW2 5850   2.052   5.890   5.442
 1651SOL     OW 5851   0.667   1.829   1.265
 1651SOL    HW1 5852   0.719   1.818   1.349
 1651SOL    HW2 5853   0.720   1.884   1.200
 1652SOL     OW 5854   1.063   4.099   2.360
 1652SOL    HW1 5855   1.092   4.113   2.455
 1652SOL    HW2 5856   1.101   4.012   2.327
 1653SOL     OW 5857   1.199   6.771   1.231
 1653SOL    HW1 5858   1.146   6.856   1.227
 1653SOL    HW2 5859   1.294   6.791   1.253
 1654SOL     OW 5860   0.328   3.636   1.130
 1654SOL    HW1 5861   0.350   3.656   1.034
 1654SOL    HW2 5862   0.368   3.706   1.189
 1655SOL     OW 5863   6.669   2.278   5.315
 1655SOL    HW1 5864   6.621   2.328   5.387
 1655SOL    HW2 5865   6.702   2.190   5.351
 1656SOL     OW 5866   2.411   4.476   2.314
 1656SOL    HW1 5867   2.398   4.528   2.399
 1656SOL    HW2 5868   2.472   4.527   2.253
 1657SOL     OW 5869   0.100   1.328   3.368
 1657SOL    HW1 5870   0.082   1.414   3.416
 1657SOL    HW2 5871   0.068   1.252   3.425
 1658SOL     OW 5872   0.846   6.325   1.221
 1658SOL    HW1 5873   0.823   6.413   1.178
 1658SOL    HW2 5874   0.944   6.307   1.211
 1659SOL     OW 5875   3.639   0.391   5.864
 1659SOL    HW1 5876   3.598   0.330   5.931
 1659SOL    HW2 5877   3.704   0.340   5.808
 1660SOL     OW 5878   1.394   5.642   4.302
 1660SOL    HW1 5879   1.375   5.627   4.399
 1660SOL    HW2 5880   1.373   5.737   4.278
 1661SOL     OW 5881   2.360   0.885   2.104
 1661SOL    HW1 5882   2.406   0.830   2.173
 1661SOL    HW2 5883   2.429   0.925   2.043
 1662SOL     OW 5884   6.429   0.656   4.286
 1662SOL    HW1 5885   6.392   0.594   4.217
 1662SOL    HW2 5886   6.362   0.668   4.360
 1663SOL     OW 5887   4.272   6.005   2.122
 1663SOL    HW1 5888   4.238   6.008   2.216
 1663SOL    HW2 5889   4.303   5.913   2.101
 1664SOL     OW 5890   1.704   0.084   4.811
 1664SOL    HW1 5891   1.740   7.019   4.778
 1664SOL    HW2 5892   1.605   0.077   4.822
 1665SOL     OW 5893   0.015   1.621   3.081
 1665SOL    HW1 5894   0.110   1.607   3.054
 1665SOL    HW2 5895   0.010   1.695   3.148
 1666SOL     OW 5896   5.526   2.611   0.028
 1666SOL    HW1 5897   5.596   2.614   0.099
 1666SOL    HW2 5898   5.560   2.653   6.967
 1667SOL     OW 5899   6.916   6.007   1.221
 1667SOL    HW1 5900   6.998   6.023   1.276
 1667SOL    HW2 5901   6.905   5.909   1.204
 1668SOL     OW 5902   4.952   5.963   5.706
 1668SOL    HW1 5903   4.970   6.005   5.795
 1668SOL    HW2 5904   5.012   6.004   5.638
 1669SOL     OW 5905   0.132   5.952   6.350
 1669SOL    HW1 5906   0.050   5.938   6.406
 1669SOL    HW2 5907   0.212   5.916   6.399
 1670SOL     OW 5908   0.122   3.613   5.879
 1670SOL    HW1 5909   0.070   3.686   5.924
 1670SOL    HW2 5910   0.217   3.616   5.909
 1671SOL     OW 5911   5.160   1.343   1.290
 1671SOL    HW1 5912   5.119   1.275   1.230
 1671SOL    HW2 5913   5.208   1.296   1.364
 1672SOL     OW 5914   2.010   2.724   0.983
 1672SOL    HW1 5915   2.087   2.687   1.035
 1672SOL    HW2 5916   1.992   2.817   1.013
 1673SOL     OW 5917   0.529   2.133   4.449
 1673SOL    HW1 5918   0.623   2.122   4.415
 1673SOL    HW2 5919   0.500   2.228   4.436
 1674SOL     OW 5920   0.833   3.762   2.728
 1674SOL    HW1 5921   0.800   3.822   2.801
 1674SOL    HW2 5922   0.836   3.667   2.762
 1675SOL     OW 5923   4.359   0.179   6.218
 1675SOL    HW1 5924   4.265   0.205   6.193
 1675SOL    HW2 5925   4.361   0.150   6.313
 1676SOL     OW 5926   2.217   2.194   1.858
 1676SOL    HW1 5927   2.190   2.259   1.787
 1676SOL    HW2 5928   2.317   2.195   1.867
 1677SOL     OW 5929   3.150   3.413   5.532
 1677SOL    HW1 5930   3.204   3.380   5.455
 1677SOL    HW2 5931   3.199   3.488   5.577
 1678SOL     OW 5932   4.860   3.995   4.334
 1678SOL    HW1 5933   4.862   4.021   4.237
 1678SOL    HW2 5934   4.847   4.076   4.390
 1679SOL     OW 5935   2.459   2.142   4.315
 1679SOL    HW1 5936   2.529   2.183   4.373
 1679SOL    HW2 5937   2.374   2.193   4.324
 1680SOL     OW 5938   0.019   3.357   4.915
 1680SOL    HW1 5939   6.995   3.292   4.855
 1680SOL    HW2 5940   0.008   3.329   5.010
 1681SOL     OW 5941   6.587   5.901   0.270
 1681SOL    HW1 5942   6.506   5.956   0.252
 1681SOL    HW2 5943   6.580   5.814   0.221
 1682SOL     OW 5944   1.142   0.835   4.287
 1682SOL    HW1 5945   1.127   0.904   4.358
 1682SOL    HW2 5946   1.208   0.869   4.221
 1683SOL     OW 5947   4.616   5.373   1.687
 1683SOL    HW1 5948   4.564   5.427   1.754
 1683SOL    HW2 5949   4.574   5.283   1.676
 1684SOL     OW 5950   1.465   6.042   2.346
 1684SOL    HW1 5951   1.535   5.990   2.395
 1684SOL    HW2 5952   1.508   6.102   2.279
 1685SOL     OW 5953   2.629   0.670   5.426
 1685SOL    HW1 5954   2.656   0.766   5.425
 1685SOL    HW2 5955   2.706   0.614   5.397
 1686SOL     OW 5956   3.054   5.805   4.995
 1686SOL    HW1 5957   3.028   5.891   4.950
 1686SOL    HW2 5958   3.139   5.771   4.954
 1687SOL     OW 5959   2.296   4.064   1.259
 1687SOL    HW1 5960   2.293   3.967   1.285
 1687SOL    HW2 5961   2.268   4.120   1.336
 1688SOL     OW 5962   2.258   2.284   4.392
 1688SOL    HW1 5963   2.210   2.204   4.428
 1688SOL    HW2 5964   2.241   2.362   4.452
 1689SOL     OW 5965   5.798   1.634   2.746
 1689SOL    HW1 5966   5.837   1.708   2.801
 1689SOL    HW2 5967   5.717   1.668   2.697
 1690SOL     OW 5968   1.760   2.885   3.841
 1690SOL    HW1 5969   1.746   2.802   3.786
 1690SOL    HW2 5970   1.690   2.890   3.912
 1691SOL     OW 5971   5.848   3.513   3.109
 1691SOL    HW1 5972   5.882   3.567   3.186
 1691SOL    HW2 5973   5.774   3.454   3.141
 1692SOL     OW 5974   5.603   6.873   1.546
 1692SOL    HW1 5975   5.632   6.778   1.558
 1692SOL    HW2 5976   5.518   6.875   1.494
 1693SOL     OW 5977   0.310   2.380   1.866
 1693SOL    HW1 5978   0.309   2.459   1.926
 1693SOL    HW2 5979   0.291   2.297   1.919
 1694SOL     OW 5980   5.229   0.631   3.032
 1694SOL    HW1 5981   5.272   0.541   3.021
 1694SOL    HW2 5982   5.258   0.671   3.120
 1695SOL     OW 5983   3.228   1.501   5.828
 1695SOL    HW1 5984   3.253   1.411   5.790
 1695SOL    HW2 5985   3.296   1.569   5.800
 1696SOL     OW 5986   4.543   4.480   0.529
 1696SOL    HW1 5987   4.493   4.411   0.581
 1696SOL    HW2 5988   4.641   4.468   0.545
 1697SOL     OW 5989   5.681   6.875   0.889
 1697SOL    HW1 5990   5.707   6.896   0.983
 1697SOL    HW2 5991   5.763   6.864   0.833
 1698SOL     OW 5992   4.162   0.473   0.144
 1698SOL    HW1 5993   4.129   0.473   0.050
 1698SOL    HW2 5994   4.225   0.550   0.157
 1699SOL     OW 5995   2.063   0.856   0.738
 1699SOL    HW1 5996   2.121   0.877   0.817
 1699SOL    HW2 5997   2.080   0.762   0.709
 1700SOL     OW 5998   5.757   2.480   3.156
 1700SOL    HW1 5999   5.837   2.457   3.211
 1700SOL    HW2 6000   5.683   2.415   3.177
 1701SOL     OW 6001   4.618   4.152   6.650
 1701SOL    HW1 6002   4.712   4.173   6.622
 1701SOL    HW2 6003   4.587   4.221   6.715
 1702SOL     OW 6004   6.790   2.447   0.312
 1702SOL    HW1 6005   6.837   2.361   0.291
 1702SOL    HW2 6006   6.693   2.437   0.292
 1703SOL     OW 6007   3.159   2.720   1.828
 1703SOL    HW1 6008   3.086   2.680   1.884
 1703SOL    HW2 6009   3.128   2.726   1.733
 1704SOL     OW 6010   0.979   2.339   1.092
 1704SOL    HW1 6011   1.054   2.397   1.058
 1704SOL    HW2 6012   0.894   2.364   1.046
 1705SOL     OW 6013   3.162   1.599   2.078
 1705SOL    HW1 6014   3.115   1.676   2.034
 1705SOL    HW2 6015   3.261   1.614   2.074
 1706SOL     OW 6016   4.549   0.980   2.451
 1706SOL    HW1 6017   4.491   1.007   2.374
 1706SOL    HW2 6018   4.492   0.937   2.522
 1707SOL     OW 6019   5.277   1.784   2.135
 1707SOL    HW1 6020   5.353   1.722   2.116
 1707SOL    HW2 6021   5.306   1.878   2.120
 1708SOL     OW 6022   5.128   5.067   2.177
 1708SOL    HW1 6023   5.149   5.061   2.275
 1708SOL    HW2 6024   5.038   5.107   2.165
 1709SOL     OW 6025   3.041   5.376   1.813
 1709SOL    HW1 6026   3.074   5.282   1.810
 1709SOL    HW2 6027   3.048   5.411   1.906
 1710SOL     OW 6028   5.087   5.443   3.993
 1710SOL    HW1 6029   5.077   5.497   3.909
 1710SOL    HW2 6030   5.068   5.347   3.973
 1711SOL     OW 6031   0.491   4.820   4.264
 1711SOL    HW1 6032   0.434   4.871   4.199
 1711SOL    HW2 6033   0.576   4.792   4.220
 1712SOL     OW 6034   0.245   2.835   5.848
 1712SOL    HW1 6035   0.147   2.827   5.835
 1712SOL    HW2 6036   0.268   2.815   5.943
 1713SOL     OW 6037   5.077   2.269   1.779
 1713SOL    HW1 6038   5.090   2.225   1.867
 1713SOL    HW2 6039   5.147   2.339   1.766
 1714SOL     OW 6040   3.673   1.946   5.457
 1714SOL    HW1 6041   3.620   2.007   5.398
 1714SOL    HW2 6042   3.664   1.976   5.552
 1715SOL     OW 6043   0.045   5.421   2.946
 1715SOL    HW1 6044   7.018   5.334   2.951
 1715SOL    HW2 6045   7.018   5.484   2.887
 1716SOL     OW 6046   4.835   6.746   3.053
 1716SOL    HW1 6047   4.845   6.648   3.073
 1716SOL    HW2 6048   4.762   6.783   3.110
 1717SOL     OW 6049   2.435   6.512   5.782
 1717SOL    HW1 6050   2.369   6.567   5.731
 1717SOL    HW2 6051   2.387   6.442   5.836
 1718SOL     OW 6052   2.146   1.701   1.023
 1718SOL    HW1 6053   2.112   1.620   0.975
 1718SOL    HW2 6054   2.216   1.746   0.968
 1719SOL     OW 6055   1.757   3.312   0.880
 1719SOL    HW1 6056   1.770   3.248   0.804
 1719SOL    HW2 6057   1.842   3.318   0.933
 1720SOL     OW 6058   0.276   2.529   6.735
 1720SOL    HW1 6059   0.264   2.513   6.833
 1720SOL    HW2 6060   0.350   2.470   6.700
 1721SOL     OW 6061   1.412   6.079   1.476
 1721SOL    HW1 6062   1.339   6.046   1.535
 1721SOL    HW2 6063   1.373   6.132   1.401
 1722SOL     OW 6064   3.843   1.717   4.146
 1722SOL    HW1 6065   3.768   1.773   4.182
 1722SOL    HW2 6066   3.921   1.776   4.123
 1723SOL     OW 6067   6.166   2.578   2.851
 1723SOL    HW1 6068   6.090   2.642   2.863
 1723SOL    HW2 6069   6.138   2.486   2.879
 1724SOL     OW 6070   6.770   2.902   0.916
 1724SOL    HW1 6071   6.767   2.817   0.969
 1724SOL    HW2 6072   6.691   2.958   0.938
 1725SOL     OW 6073   2.076   5.092   6.680
 1725SOL    HW1 6074   2.109   5.001   6.704
 1725SOL    HW2 6075   2.022   5.129   6.756
 1726SOL     OW 6076   5.444   4.483   5.212
 1726SOL    HW1 6077   5.374   4.540   5.255
 1726SOL    HW2 6078   5.427   4.387   5.235
 1727SOL     OW 6079   3.908   3.305   4.332
 1727SOL    HW1 6080   3.886   3.213   4.364
 1727SOL    HW2 6081   3.824   3.359   4.323
 1728SOL     OW 6082   4.867   4.810   5.272
 1728SOL    HW1 6083   4.839   4.732   5.327
 1728SOL    HW2 6084   4.958   4.840   5.301
 1729SOL     OW 6085   2.363   4.314   2.961
 1729SOL    HW1 6086   2.375   4.403   2.917
 1729SOL    HW2 6087   2.368   4.325   3.060
 1730SOL     OW 6088   1.181   6.847   6.016
 1730SOL    HW1 6089   1.091   6.887   6.001
 1730SOL    HW2 6090   1.234   6.850   5.931
 1731SOL     OW 6091   6.856   3.586   2.782
 1731SOL    HW1 6092   6.867   3.651   2.856
 1731SOL    HW2 6093   6.843   3.635   2.696
 1732SOL     OW 6094   2.528   5.105   5.719
 1732SOL    HW1 6095   2.519   5.019   5.669
 1732SOL    HW2 6096   2.437   5.145   5.732
 1733SOL     OW 6097   1.533   4.303   1.555
 1733SOL    HW1 6098   1.544   4.209   1.588
 1733SOL    HW2 6099   1.556   4.367   1.628
 1734SOL     OW 6100   4.411   2.976   1.487
 1734SOL    HW1 6101   4.469   3.057   1.484
 1734SOL    HW2 6102   4.354   2.980   1.569
 1735SOL     OW 6103   5.376   6.136   0.458
 1735SOL    HW1 6104   5.454   6.184   0.497
 1735SOL    HW2 6105   5.301   6.200   0.442
 1736SOL     OW 6106   3.526   3.235   0.639
 1736SOL    HW1 6107   3.440   3.238   0.690
 1736SOL    HW2 6108   3.506   3.239   0.541
 1737SOL     OW 6109   2.442   1.358   4.441
 1737SOL    HW1 6110   2.389   1.378   4.358
 1737SOL    HW2 6111   2.536   1.335   4.416
 1738SOL     OW 6112   1.949   2.314   3.768
 1738SOL    HW1 6113   2.029   2.304   3.709
 1738SOL    HW2 6114   1.873   2.354   3.716
 1739SOL     OW 6115   0.071   2.183   5.276
 1739SOL    HW1 6116   0.139   2.188   5.349
 1739SOL    HW2 6117   0.093   2.107   5.216
 1740SOL     OW 6118   6.738   2.080   5.821
 1740SOL    HW1 6119   6.754   2.175   5.848
 1740SOL    HW2 6120   6.715   2.025   5.901
 1741SOL     OW 6121   1.959   0.757   4.036
 1741SOL    HW1 6122   1.899   0.835   4.017
 1741SOL    HW2 6123   1.986   0.715   3.950
 1742SOL     OW 6124   5.404   0.872   5.739
 1742SOL    HW1 6125   5.408   0.937   5.663
 1742SOL    HW2 6126   5.497   0.843   5.763
 1743SOL     OW 6127   1.378   2.430   1.516
 1743SOL    HW1 6128   1.378   2.380   1.603
 1743SOL    HW2 6129   1.471   2.459   1.495
 1744SOL     OW 6130   7.016   1.743   2.426
 1744SOL    HW1 6131   6.924   1.776   2.445
 1744SOL    HW2 6132   0.056   1.777   2.496
 1745SOL     OW 6133   6.352   6.649   3.309
 1745SOL    HW1 6134   6.424   6.676   3.374
 1745SOL    HW2 6135   6.266   6.637   3.358
 1746SOL     OW 6136   1.902   5.138   4.463
 1746SOL    HW1 6137   1.994   5.139   4.503
 1746SOL    HW2 6138   1.866   5.231   4.462
 1747SOL     OW 6139   5.674   2.237   2.394
 1747SOL    HW1 6140   5.590   2.255   2.344
 1747SOL    HW2 6141   5.698   2.141   2.386
 1748SOL     OW 6142   0.693   0.544   4.577
 1748SOL    HW1 6143   0.728   0.599   4.653
 1748SOL    HW2 6144   0.709   0.447   4.596
 1749SOL     OW 6145   2.940   0.446   4.968
 1749SOL    HW1 6146   2.859   0.392   4.993
 1749SOL    HW2 6147   2.919   0.543   4.975
 1750SOL     OW 6148   5.348   6.855   3.897
 1750SOL    HW1 6149   5.286   6.808   3.960
 1750SOL    HW2 6150   5.435   6.871   3.943
 1751SOL     OW 6151   4.400   6.029   5.149
 1751SOL    HW1 6152   4.490   5.986   5.146
 1751SOL    HW2 6153   4.391   6.092   5.072
 1752SOL     OW 6154   7.002   2.467   1.429
 1752SOL    HW1 6155   0.020   2.412   1.355
 1752SOL    HW2 6156   6.919   2.422   1.462
 1753SOL     OW 6157   0.238   1.192   0.757
 1753SOL    HW1 6158   0.149   1.197   0.803
 1753SOL    HW2 6159   0.294   1.271   0.782
 1754SOL     OW 6160   2.041   4.159   0.802
 1754SOL    HW1 6161   2.113   4.138   0.868
 1754SOL    HW2 6162   2.020   4.257   0.805
 1755SOL     OW 6163   6.886   6.076   2.250
 1755SOL    HW1 6164   6.868   6.171   2.278
 1755SOL    HW2 6165   6.846   6.059   2.160
 1756SOL     OW 6166   4.225   5.567   6.081
 1756SOL    HW1 6167   4.137   5.541   6.041
 1756SOL    HW2 6168   4.283   5.486   6.091
 1757SOL     OW 6169   2.773   5.427   4.885
 1757SOL    HW1 6170   2.872   5.432   4.870
 1757SOL    HW2 6171   2.746   5.332   4.897
 1758SOL     OW 6172   1.713   0.320   4.117
 1758SOL    HW1 6173   1.741   0.410   4.086
 1758SOL    HW2 6174   1.663   0.328   4.203
 1759SOL     OW 6175   1.806   5.418   6.222
 1759SOL    HW1 6176   1.868   5.487   6.258
 1759SOL    HW2 6177   1.794   5.431   6.123
 1760SOL     OW 6178   5.700   2.068   2.949
 1760SOL    HW1 6179   5.657   2.142   2.899
 1760SOL    HW2 6180   5.676   2.074   3.046
 1761SOL     OW 6181   0.170   0.143   0.392
 1761SOL    HW1 6182   0.128   0.173   0.478
 1761SOL    HW2 6183   0.222   0.059   0.408
 1762SOL     OW 6184   6.962   1.343   5.226
 1762SOL    HW1 6185   6.922   1.285   5.297
 1762SOL    HW2 6186   7.000   1.426   5.268
 1763SOL     OW 6187   1.384   3.825   3.727
 1763SOL    HW1 6188   1.292   3.849   3.695
 1763SOL    HW2 6189   1.447   3.899   3.707
 1764SOL     OW 6190   2.094   3.884   2.541
 1764SOL    HW1 6191   2.157   3.812   2.511
 1764SOL    HW2 6192   2.000   3.849   2.538
 1765SOL     OW 6193   3.578   0.995   0.981
 1765SOL    HW1 6194   3.658   0.983   1.039
 1765SOL    HW2 6195   3.523   1.071   1.015
 1766SOL     OW 6196   4.765   3.999   2.912
 1766SOL    HW1 6197   4.821   4.003   2.995
 1766SOL    HW2 6198   4.816   3.950   2.841
 1767SOL     OW 6199   0.325   3.586   3.200
 1767SOL    HW1 6200   0.253   3.581   3.130
 1767SOL    HW2 6201   0.414   3.590   3.156
 1768SOL     OW 6202   4.456   1.516   5.524
 1768SOL    HW1 6203   4.543   1.542   5.482
 1768SOL    HW2 6204   4.464   1.521   5.624
 1769SOL     OW 6205   4.272   2.181   5.846
 1769SOL    HW1 6206   4.340   2.212   5.779
 1769SOL    HW2 6207   4.314   2.175   5.936
 1770SOL     OW 6208   6.437   4.579   4.422
 1770SOL    HW1 6209   6.367   4.615   4.360
 1770SOL    HW2 6210   6.400   4.501   4.473
 1771SOL     OW 6211   2.217   4.991   0.211
 1771SOL    HW1 6212   2.158   4.921   0.252
 1771SOL    HW2 6213   2.262   5.043   0.284
 1772SOL     OW 6214   3.497   0.107   3.392
 1772SOL    HW1 6215   3.460   0.090   3.483
 1772SOL    HW2 6216   3.490   0.024   3.336
 1773SOL     OW 6217   3.551   4.028   0.016
 1773SOL    HW1 6218   3.556   3.941   0.065
 1773SOL    HW2 6219   3.608   4.025   6.957
 1774SOL     OW 6220   4.516   0.436   1.822
 1774SOL    HW1 6221   4.573   0.517   1.833
 1774SOL    HW2 6222   4.571   0.354   1.840
 1775SOL     OW 6223   1.818   5.641   4.196
 1775SOL    HW1 6224   1.792   5.603   4.284
 1775SOL    HW2 6225   1.737   5.674   4.148
 1776SOL     OW 6226   4.115   0.967   5.486
 1776SOL    HW1 6227   4.195   0.996   5.539
 1776SOL    HW2 6228   4.107   0.867   5.489
 1777SOL     OW 6229   3.161   5.702   5.473
 1777SOL    HW1 6230   3.112   5.757   5.406
 1777SOL    HW2 6231   3.258   5.727   5.473
 1778SOL     OW 6232   4.181   2.240   4.576
 1778SOL    HW1 6233   4.152   2.231   4.481
 1778SOL    HW2 6234   4.270   2.287   4.579
 1779SOL     OW 6235   4.501   2.045   4.376
 1779SOL    HW1 6236   4.470   2.076   4.465
 1779SOL    HW2 6237   4.601   2.041   4.374
 1780SOL     OW 6238   2.390   4.300   5.738
 1780SOL    HW1 6239   2.377   4.399   5.725
 1780SOL    HW2 6240   2.469   4.285   5.798
 1781SOL     OW 6241   4.724   5.452   3.544
 1781SOL    HW1 6242   4.752   5.362   3.576
 1781SOL    HW2 6243   4.628   5.450   3.517
 1782SOL     OW 6244   2.707   1.651   3.141
 1782SOL    HW1 6245   2.666   1.593   3.071
 1782SOL    HW2 6246   2.800   1.619   3.160
 1783SOL     OW 6247   1.948   3.119   6.533
 1783SOL    HW1 6248   1.934   3.020   6.546
 1783SOL    HW2 6249   2.040   3.143   6.561
 1784SOL     OW 6250   2.961   0.891   3.336
 1784SOL    HW1 6251   2.996   0.825   3.402
 1784SOL    HW2 6252   2.987   0.984   3.364
 1785SOL     OW 6253   5.332   5.829   3.845
 1785SOL    HW1 6254   5.381   5.823   3.933
 1785SOL    HW2 6255   5.391   5.871   3.777
 1786SOL     OW 6256   1.586   2.774   0.550
 1786SOL    HW1 6257   1.651   2.847   0.568
 1786SOL    HW2 6258   1.635   2.693   0.519
 1787SOL     OW 6259   1.586   0.852   4.750
 1787SOL    HW1 6260   1.495   0.833   4.785
 1787SOL    HW2 6261   1.582   0.868   4.651
 1788SOL     OW 6262   3.108   3.925   0.296
 1788SOL    HW1 6263   3.098   3.828   0.274
 1788SOL    HW2 6264   3.141   3.974   0.216
 1789SOL     OW 6265   6.429   2.243   2.240
 1789SOL    HW1 6266   6.510   2.223   2.296
 1789SOL    HW2 6267   6.346   2.224   2.294
 1790SOL     OW 6268   4.029   5.933   4.200
 1790SOL    HW1 6269   4.005   5.926   4.103
 1790SOL    HW2 6270   3.976   6.008   4.241
 1791SOL     OW 6271   0.633   2.032   4.950
 1791SOL    HW1 6272   0.604   2.114   4.901
 1791SOL    HW2 6273   0.562   2.006   5.016
 1792SOL     OW 6274   0.367   1.678   4.566
 1792SOL    HW1 6275   0.365   1.769   4.525
 1792SOL    HW2 6276   0.437   1.675   4.638
 1793SOL     OW 6277   6.817   0.249   3.641
 1793SOL    HW1 6278   6.719   0.247   3.619
 1793SOL    HW2 6279   6.847   0.159   3.669
 1794SOL     OW 6280   4.998   6.366   6.316
 1794SOL    HW1 6281   5.012   6.334   6.410
 1794SOL    HW2 6282   4.992   6.287   6.255
 1795SOL     OW 6283   6.977   4.680   2.565
 1795SOL    HW1 6284   6.944   4.604   2.621
 1795SOL    HW2 6285   7.000   4.757   2.624
 1796SOL     OW 6286   1.487   1.525   4.493
 1796SOL    HW1 6287   1.441   1.595   4.548
 1796SOL    HW2 6288   1.585   1.545   4.489
 1797SOL     OW 6289   1.291   0.591   5.908
 1797SOL    HW1 6290   1.270   0.511   5.851
 1797SOL    HW2 6291   1.245   0.581   5.997
 1798SOL     OW 6292   4.674   2.706   5.416
 1798SOL    HW1 6293   4.660   2.804   5.404
 1798SOL    HW2 6294   4.673   2.661   5.327
 1799SOL     OW 6295   6.306   1.838   6.618
 1799SOL    HW1 6296   6.313   1.932   6.584
 1799SOL    HW2 6297   6.210   1.817   6.637
 1800SOL     OW 6298   5.015   4.632   3.899
 1800SOL    HW1 6299   4.953   4.646   3.822
 1800SOL    HW2 6300   5.109   4.651   3.870
 1801SOL     OW 6301   1.154   1.407   2.500
 1801SOL    HW1 6302   1.107   1.353   2.570
 1801SOL    HW2 6303   1.153   1.358   2.413
 1802SOL     OW 6304   5.611   5.124   2.681
 1802SOL    HW1 6305   5.568   5.209   2.652
 1802SOL    HW2 6306   5.636   5.130   2.777
 1803SOL     OW 6307   6.657   6.233   0.746
 1803SOL    HW1 6308   6.657   6.148   0.800
 1803SOL    HW2 6309   6.742   6.283   0.763
 1804SOL     OW 6310   2.992   3.078   5.806
 1804SOL    HW1 6311   2.989   3.175   5.830
 1804SOL    HW2 6312   2.936   3.025   5.870
 1805SOL     OW 6313   0.674   3.984   5.909
 1805SOL    HW1 6314   0.669   4.005   5.811
 1805SOL    HW2 6315   0.745   4.039   5.951
 1806SOL     OW 6316   1.589   1.422   1.832
 1806SOL    HW1 6317   1.646   1.394   1.755
 1806SOL    HW2 6318   1.598   1.521   1.845
 1807SOL     OW 6319   6.054   2.132   6.651
 1807SOL    HW1 6320   6.140   2.107   6.605
 1807SOL    HW2 6321   6.041   2.231   6.644
 1808SOL     OW 6322   6.533   4.022   4.754
 1808SOL    HW1 6323   6.494   4.064   4.835
 1808SOL    HW2 6324   6.471   3.951   4.720
 1809SOL     OW 6325   2.289   2.627   4.511
 1809SOL    HW1 6326   2.228   2.662   4.582
 1809SOL    HW2 6327   2.254   2.653   4.421
 1810SOL     OW 6328   2.375   0.316   5.221
 1810SOL    HW1 6329   2.291   0.279   5.260
 1810SOL    HW2 6330   2.355   0.403   5.176
 1811SOL     OW 6331   3.973   4.928   3.243
 1811SOL    HW1 6332   4.014   4.860   3.304
 1811SOL    HW2 6333   3.982   4.897   3.148
 1812SOL     OW 6334   4.312   0.159   5.863
 1812SOL    HW1 6335   4.340   0.169   5.768
 1812SOL    HW2 6336   4.390   0.127   5.917
 1813SOL     OW 6337   4.448   4.874   1.305
 1813SOL    HW1 6338   4.468   4.796   1.245
 1813SOL    HW2 6339   4.534   4.918   1.333
 1814SOL     OW 6340   6.592   0.556   0.215
 1814SOL    HW1 6341   6.513   0.576   0.156
 1814SOL    HW2 6342   6.676   0.559   0.160
 1815SOL     OW 6343   6.532   1.492   1.844
 1815SOL    HW1 6344   6.477   1.421   1.798
 1815SOL    HW2 6345   6.564   1.457   1.932
 1816SOL     OW 6346   1.736   4.316   0.923
 1816SOL    HW1 6347   1.671   4.386   0.953
 1816SOL    HW2 6348   1.829   4.354   0.927
 1817SOL     OW 6349   3.694   6.514   3.322
 1817SOL    HW1 6350   3.609   6.463   3.310
 1817SOL    HW2 6351   3.698   6.550   3.415
 1818SOL     OW 6352   2.476   5.919   1.389
 1818SOL    HW1 6353   2.402   5.984   1.372
 1818SOL    HW2 6354   2.458   5.835   1.338
 1819SOL     OW 6355   1.123   5.497   1.597
 1819SOL    HW1 6356   1.204   5.555   1.603
 1819SOL    HW2 6357   1.043   5.547   1.629
 1820SOL     OW 6358   2.556   0.064   2.284
 1820SOL    HW1 6359   2.642   0.106   2.313
 1820SOL    HW2 6360   2.574   6.995   2.247
 1821SOL     OW 6361   2.476   0.578   2.067
 1821SOL    HW1 6362   2.448   0.582   1.972
 1821SOL    HW2 6363   2.399   0.548   2.124
 1822SOL     OW 6364   1.115   3.150   0.762
 1822SOL    HW1 6365   1.106   3.248   0.743
 1822SOL    HW2 6366   1.212   3.125   0.757
 1823SOL     OW 6367   3.092   5.808   3.290
 1823SOL    HW1 6368   3.041   5.893   3.306
 1823SOL    HW2 6369   3.177   5.828   3.241
 1824SOL     OW 6370   3.657   3.495   0.663
 1824SOL    HW1 6371   3.625   3.473   0.571
 1824SOL    HW2 6372   3.583   3.477   0.728
 1825SOL     OW 6373   2.121   2.056   4.483
 1825SOL    HW1 6374   2.075   2.107   4.556
 1825SOL    HW2 6375   2.164   1.975   4.522
 1826SOL     OW 6376   3.639   1.867   1.386
 1826SOL    HW1 6377   3.712   1.812   1.348
 1826SOL    HW2 6378   3.675   1.955   1.416
 1827SOL     OW 6379   6.800   5.413   0.922
 1827SOL    HW1 6380   6.727   5.358   0.881
 1827SOL    HW2 6381   6.859   5.356   0.977
 1828SOL     OW 6382   1.790   2.200   0.491
 1828SOL    HW1 6383   1.847   2.187   0.410
 1828SOL    HW2 6384   1.849   2.222   0.569
 1829SOL     OW 6385   3.126   1.039   3.080
 1829SOL    HW1 6386   3.129   1.061   3.178
 1829SOL    HW2 6387   3.178   0.956   3.062
 1830SOL     OW 6388   5.766   6.221   3.736
 1830SOL    HW1 6389   5.844   6.211   3.674
 1830SOL    HW2 6390   5.797   6.262   3.822
 1831SOL     OW 6391   6.079   0.127   1.991
 1831SOL    HW1 6392   6.087   0.181   2.075
 1831SOL    HW2 6393   6.020   0.048   2.008
 1832SOL     OW 6394   4.551   1.589   1.426
 1832SOL    HW1 6395   4.496   1.594   1.510
 1832SOL    HW2 6396   4.552   1.495   1.392
 1833SOL     OW 6397   5.592   0.585   0.611
 1833SOL    HW1 6398   5.534   0.584   0.692
 1833SOL    HW2 6399   5.558   0.653   0.546
 1834SOL     OW 6400   2.382   3.465   0.488
 1834SOL    HW1 6401   2.454   3.514   0.439
 1834SOL    HW2 6402   2.299   3.463   0.432
 1835SOL     OW 6403   0.239   4.905   2.164
 1835SOL    HW1 6404   0.191   4.907   2.076
 1835SOL    HW2 6405   0.225   4.816   2.207
 1836SOL     OW 6406   5.550   1.709   1.361
 1836SOL    HW1 6407   5.599   1.789   1.396
 1836SOL    HW2 6408   5.613   1.651   1.309
 1837SOL     OW 6409   0.990   0.135   4.588
 1837SOL    HW1 6410   0.918   0.203   4.596
 1837SOL    HW2 6411   0.991   0.098   4.495
 1838SOL     OW 6412   6.475   1.635   5.793
 1838SOL    HW1 6413   6.545   1.648   5.723
 1838SOL    HW2 6414   6.494   1.550   5.844
 1839SOL     OW 6415   6.598   1.841   5.224
 1839SOL    HW1 6416   6.565   1.880   5.138
 1839SOL    HW2 6417   6.534   1.864   5.298
 1840SOL     OW 6418   3.837   0.198   1.479
 1840SOL    HW1 6419   3.932   0.212   1.451
 1840SOL    HW2 6420   3.776   0.230   1.407
 1841SOL     OW 6421   2.002   1.337   3.630
 1841SOL    HW1 6422   1.942   1.393   3.688
 1841SOL    HW2 6423   2.040   1.263   3.685
 1842SOL     OW 6424   1.346   5.674   0.150
 1842SOL    HW1 6425   1.370   5.709   0.240
 1842SOL    HW2 6426   1.339   5.750   0.085
 1843SOL     OW 6427   6.175   1.725   3.927
 1843SOL    HW1 6428   6.256   1.780   3.943
 1843SOL    HW2 6429   6.097   1.785   3.908
 1844SOL     OW 6430   3.434   6.577   5.124
 1844SOL    HW1 6431   3.435   6.513   5.200
 1844SOL    HW2 6432   3.469   6.531   5.042
 1845SOL     OW 6433   3.456   0.327   4.411
 1845SOL    HW1 6434   3.463   0.376   4.497
 1845SOL    HW2 6435   3.424   0.389   4.340
 1846SOL     OW 6436   3.151   1.311   1.976
 1846SOL    HW1 6437   3.197   1.397   1.997
 1846SOL    HW2 6438   3.084   1.326   1.904
 1847SOL     OW 6439   1.621   0.660   6.589
 1847SOL    HW1 6440   1.634   0.736   6.653
 1847SOL    HW2 6441   1.538   0.610   6.612
 1848SOL     OW 6442   1.768   6.431   3.641
 1848SOL    HW1 6443   1.686   6.383   3.671
 1848SOL    HW2 6444   1.809   6.479   3.720
 1849SOL     OW 6445   3.992   2.649   1.666
 1849SOL    HW1 6446   3.955   2.658   1.574
 1849SOL    HW2 6447   4.075   2.703   1.674
 1850SOL     OW 6448   0.458   2.868   2.222
 1850SOL    HW1 6449   0.459   2.823   2.132
 1850SOL    HW2 6450   0.548   2.858   2.264
 1851SOL     OW 6451   0.081   2.722   0.390
 1851SOL    HW1 6452   0.177   2.749   0.402
 1851SOL    HW2 6453   0.023   2.778   0.448
 1852SOL     OW 6454   6.684   4.179   2.528
 1852SOL    HW1 6455   6.595   4.136   2.543
 1852SOL    HW2 6456   6.689   4.215   2.435
 1853SOL     OW 6457   0.597   2.694   2.903
 1853SOL    HW1 6458   0.675   2.649   2.947
 1853SOL    HW2 6459   0.513   2.645   2.927
 1854SOL     OW 6460   2.696   5.546   3.349
 1854SOL    HW1 6461   2.787   5.525   3.383
 1854SOL    HW2 6462   2.698   5.635   3.303
 1855SOL     OW 6463   5.168   2.925   5.248
 1855SOL    HW1 6464   5.238   2.982   5.291
 1855SOL    HW2 6465   5.149   2.958   5.155
 1856SOL     OW 6466   5.703   3.979   6.049
 1856SOL    HW1 6467   5.689   3.891   6.094
 1856SOL    HW2 6468   5.784   3.975   5.991
 1857SOL     OW 6469   4.286   2.160   6.457
 1857SOL    HW1 6470   4.272   2.254   6.427
 1857SOL    HW2 6471   4.379   2.149   6.492
 1858SOL     OW 6472   5.479   4.051   3.127
 1858SOL    HW1 6473   5.404   3.990   3.099
 1858SOL    HW2 6474   5.515   4.021   3.215
 1859SOL     OW 6475   5.452   1.710   3.974
 1859SOL    HW1 6476   5.381   1.640   3.971
 1859SOL    HW2 6477   5.410   1.801   3.976
 1860SOL     OW 6478   0.207   0.904   5.532
 1860SOL    HW1 6479   0.239   0.855   5.614
 1860SOL    HW2 6480   0.230   0.851   5.451
 1861SOL     OW 6481   6.509   6.876   2.191
 1861SOL    HW1 6482   6.457   6.791   2.184
 1861SOL    HW2 6483   6.495   6.931   2.109
 1862SOL     OW 6484   3.416   6.721   6.438
 1862SOL    HW1 6485   3.468   6.729   6.523
 1862SOL    HW2 6486   3.442   6.795   6.376
 1863SOL     OW 6487   0.473   3.012   3.738
 1863SOL    HW1 6488   0.407   2.995   3.810
 1863SOL    HW2 6489   0.429   3.004   3.649
 1864SOL     OW 6490   1.420   6.688   5.296
 1864SOL    HW1 6491   1.344   6.638   5.338
 1864SOL    HW2 6492   1.389   6.731   5.212
 1865SOL     OW 6493   3.644   6.902   6.950
 1865SOL    HW1 6494   3.716   6.840   6.980
 1865SOL    HW2 6495   3.683   6.990   6.925
 1866SOL     OW 6496   5.564   4.817   3.585
 1866SOL    HW1 6497   5.551   4.721   3.610
 1866SOL    HW2 6498   5.586   4.824   3.488
 1867SOL     OW 6499   0.349   4.418   6.967
 1867SOL    HW1 6500   0.408   4.376   0.013
 1867SOL    HW2 6501   0.371   4.515   6.959
 1868SOL     OW 6502   4.728   3.406   6.386
 1868SOL    HW1 6503   4.738   3.505   6.389
 1868SOL    HW2 6504   4.648   3.381   6.332
 1869SOL     OW 6505   6.563   3.609   4.932
 1869SOL    HW1 6506   6.481   3.633   4.880
 1869SOL    HW2 6507   6.557   3.515   4.964
 1870SOL     OW 6508   1.822   2.616   4.991
 1870SOL    HW1 6509   1.891   2.557   4.950
 1870SOL    HW2 6510   1.847   2.712   4.976
 1871SOL     OW 6511   0.578   0.659   0.356
 1871SOL    HW1 6512   0.533   0.739   0.317
 1871SOL    HW2 6513   0.591   0.672   0.454
 1872SOL     OW 6514   4.440   1.961   0.101
 1872SOL    HW1 6515   4.492   1.933   0.182
 1872SOL    HW2 6516   4.443   2.061   0.093
 1873SOL     OW 6517   5.835   1.498   5.771
 1873SOL    HW1 6518   5.804   1.562   5.701
 1873SOL    HW2 6519   5.865   1.413   5.727
 1874SOL     OW 6520   2.463   1.122   0.249
 1874SOL    HW1 6521   2.372   1.098   0.215
 1874SOL    HW2 6522   2.519   1.158   0.174
 1875SOL     OW 6523   0.289   0.592   0.328
 1875SOL    HW1 6524   0.346   0.672   0.313
 1875SOL    HW2 6525   0.289   0.569   0.426
 1876SOL     OW 6526   3.062   6.209   6.081
 1876SOL    HW1 6527   3.065   6.202   5.982
 1876SOL    HW2 6528   3.095   6.299   6.109
 1877SOL     OW 6529   0.427   1.998   2.995
 1877SOL    HW1 6530   0.389   1.917   2.949
 1877SOL    HW2 6531   0.490   2.045   2.934
 1878SOL     OW 6532   6.549   3.261   4.266
 1878SOL    HW1 6533   6.462   3.283   4.224
 1878SOL    HW2 6534   6.598   3.346   4.288
 1879SOL     OW 6535   1.519   5.434   3.797
 1879SOL    HW1 6536   1.558   5.517   3.757
 1879SOL    HW2 6537   1.489   5.454   3.891
 1880SOL     OW 6538   6.570   1.438   3.976
 1880SOL    HW1 6539   6.529   1.481   4.057
 1880SOL    HW2 6540   6.636   1.501   3.935
 1881SOL     OW 6541   0.751   2.935   2.905
 1881SOL    HW1 6542   0.679   2.869   2.887
 1881SOL    HW2 6543   0.739   2.975   2.996
 1882SOL     OW 6544   1.025   4.083   0.034
 1882SOL    HW1 6545   0.938   4.132   0.038
 1882SOL    HW2 6546   1.084   4.113   0.108
 1883SOL     OW 6547   1.382   2.936   3.772
 1883SOL    HW1 6548   1.433   2.885   3.842
 1883SOL    HW2 6549   1.327   3.007   3.816
 1884SOL     OW 6550   5.987   2.719   6.928
 1884SOL    HW1 6551   5.960   2.686   6.838
 1884SOL    HW2 6552   6.063   2.664   6.962
 1885SOL     OW 6553   1.031   2.247   6.249
 1885SOL    HW1 6554   1.039   2.148   6.263
 1885SOL    HW2 6555   1.088   2.274   6.172
 1886SOL     OW 6556   2.282   0.819   1.776
 1886SOL    HW1 6557   2.360   0.833   1.715
 1886SOL    HW2 6558   2.294   0.732   1.824
 1887SOL     OW 6559   1.606   5.706   6.492
 1887SOL    HW1 6560   1.557   5.660   6.417
 1887SOL    HW2 6561   1.686   5.753   6.455
 1888SOL     OW 6562   3.021   2.582   6.761
 1888SOL    HW1 6563   3.066   2.523   6.829
 1888SOL    HW2 6564   3.088   2.642   6.720
 1889SOL     OW 6565   5.864   3.161   6.669
 1889SOL    HW1 6566   5.810   3.122   6.743
 1889SOL    HW2 6567   5.861   3.261   6.675
 1890SOL     OW 6568   1.334   5.861   4.804
 1890SOL    HW1 6569   1.373   5.921   4.734
 1890SOL    HW2 6570   1.384   5.775   4.806
 1891SOL     OW 6571   5.970   2.395   3.368
 1891SOL    HW1 6572   5.900   2.341   3.415
 1891SOL    HW2 6573   6.018   2.452   3.435
 1892SOL     OW 6574   3.418   0.832   0.585
 1892SOL    HW1 6575   3.398   0.890   0.664
 1892SOL    HW2 6576   3.490   0.873   0.530
 1893SOL     OW 6577   3.120   2.929   0.158
 1893SOL    HW1 6578   3.097   2.832   0.167
 1893SOL    HW2 6579   3.118   2.955   0.062
 1894SOL     OW 6580   3.783   3.697   3.450
 1894SOL    HW1 6581   3.739   3.648   3.374
 1894SOL    HW2 6582   3.755   3.793   3.449
 1895SOL     OW 6583   5.878   1.366   2.188
 1895SOL    HW1 6584   5.850   1.426   2.113
 1895SOL    HW2 6585   5.798   1.342   2.243
 1896SOL     OW 6586   0.534   0.492   1.993
 1896SOL    HW1 6587   0.458   0.472   1.932
 1896SOL    HW2 6588   0.576   0.579   1.966
 1897SOL     OW 6589   1.476   4.790   2.645
 1897SOL    HW1 6590   1.377   4.778   2.653
 1897SOL    HW2 6591   1.515   4.809   2.735
 1898SOL     OW 6592   3.323   4.925   2.852
 1898SOL    HW1 6593   3.272   4.917   2.937
 1898SOL    HW2 6594   3.259   4.933   2.775
 1899SOL     OW 6595   1.180   1.686   2.566
 1899SOL    HW1 6596   1.139   1.600   2.536
 1899SOL    HW2 6597   1.201   1.681   2.663
 1900SOL     OW 6598   1.265   0.333   6.318
 1900SOL    HW1 6599   1.201   0.317   6.393
 1900SOL    HW2 6600   1.359   0.331   6.352
 1901SOL     OW 6601   2.129   1.518   1.646
 1901SOL    HW1 6602   2.186   1.568   1.712
 1901SOL    HW2 6603   2.071   1.583   1.596
 1902SOL     OW 6604   2.425   1.929   5.059
 1902SOL    HW1 6605   2.462   1.859   4.997
 1902SOL    HW2 6606   2.501   1.979   5.101
 1903SOL     OW 6607   6.386   3.402   3.662
 1903SOL    HW1 6608   6.300   3.372   3.703
 1903SOL    HW2 6609   6.395   3.363   3.571
 1904SOL     OW 6610   5.667   6.607   4.890
 1904SOL    HW1 6611   5.684   6.595   4.793
 1904SOL    HW2 6612   5.602   6.682   4.904
 1905SOL     OW 6613   1.692   0.883   4.229
 1905SOL    HW1 6614   1.632   0.859   4.153
 1905SOL    HW2 6615   1.712   0.981   4.226
 1906SOL     OW 6616   2.369   0.057   5.136
 1906SOL    HW1 6617   2.286   0.014   5.173
 1906SOL    HW2 6618   2.385   0.144   5.182
 1907SOL     OW 6619   3.296   6.431   3.194
 1907SOL    HW1 6620   3.262   6.416   3.101
 1907SOL    HW2 6621   3.378   6.377   3.209
 1908SOL     OW 6622   3.806   0.244   5.333
 1908SOL    HW1 6623   3.749   0.326   5.338
 1908SOL    HW2 6624   3.749   0.162   5.342
 1909SOL     OW 6625   0.879   4.127   2.733
 1909SOL    HW1 6626   0.824   4.124   2.817
 1909SOL    HW2 6627   0.964   4.074   2.747
 1910SOL     OW 6628   6.824   2.912   6.517
 1910SOL    HW1 6629   6.756   2.957   6.459
 1910SOL    HW2 6630   6.876   2.980   6.568
 1911SOL     OW 6631   6.027   3.297   5.067
 1911SOL    HW1 6632   6.006   3.293   4.969
 1911SOL    HW2 6633   6.045   3.393   5.093
 1912SOL     OW 6634   2.973   6.794   1.152
 1912SOL    HW1 6635   3.001   6.780   1.057
 1912SOL    HW2 6636   3.053   6.787   1.211
 1913SOL     OW 6637   1.345   5.908   5.362
 1913SOL    HW1 6638   1.430   5.912   5.414
 1913SOL    HW2 6639   1.355   5.964   5.279
 1914SOL     OW 6640   3.684   3.054   6.527
 1914SOL    HW1 6641   3.686   3.082   6.623
 1914SOL    HW2 6642   3.631   3.120   6.474
 1915SOL     OW 6643   3.745   2.107   5.058
 1915SOL    HW1 6644   3.698   2.060   5.132
 1915SOL    HW2 6645   3.680   2.162   5.006
 1916SOL     OW 6646   3.572   5.674   1.447
 1916SOL    HW1 6647   3.597   5.584   1.482
 1916SOL    HW2 6648   3.478   5.696   1.474
 1917SOL     OW 6649   2.927   3.297   4.867
 1917SOL    HW1 6650   2.978   3.222   4.825
 1917SOL    HW2 6651   2.842   3.260   4.906
 1918SOL     OW 6652   0.821   1.072   5.793
 1918SOL    HW1 6653   0.900   1.058   5.852
 1918SOL    HW2 6654   0.756   1.133   5.838
 1919SOL     OW 6655   2.861   0.897   1.422
 1919SOL    HW1 6656   2.883   0.911   1.326
 1919SOL    HW2 6657   2.790   0.827   1.430
 1920SOL     OW 6658   1.665   4.638   2.534
 1920SOL    HW1 6659   1.694   4.590   2.617
 1920SOL    HW2 6660   1.584   4.694   2.555
 1921SOL     OW 6661   0.864   4.963   6.963
 1921SOL    HW1 6662   0.833   5.057   6.948
 1921SOL    HW2 6663   0.931   4.938   6.893
 1922SOL     OW 6664   2.067   4.402   1.158
 1922SOL    HW1 6665   2.025   4.418   1.247
 1922SOL    HW2 6666   2.164   4.381   1.170
 1923SOL     OW 6667   2.847   0.611   5.629
 1923SOL    HW1 6668   2.821   0.590   5.723
 1923SOL    HW2 6669   2.787   0.681   5.592
 1924SOL     OW 6670   4.474   5.444   1.363
 1924SOL    HW1 6671   4.491   5.533   1.322
 1924SOL    HW2 6672   4.528   5.434   1.447
 1925SOL     OW 6673   1.702   4.369   0.455
 1925SOL    HW1 6674   1.797   4.350   0.430
 1925SOL    HW2 6675   1.672   4.305   0.527
 1926SOL     OW 6676   2.274   6.883   3.368
 1926SOL    HW1 6677   2.326   6.908   3.449
 1926SOL    HW2 6678   2.195   6.943   3.359
 1927SOL     OW 6679   3.114   4.263   6.450
 1927SOL    HW1 6680   3.172   4.321   6.392
 1927SOL    HW2 6681   3.071   4.192   6.394
 1928SOL     OW 6682   6.422   4.301   5.981
 1928SOL    HW1 6683   6.500   4.302   5.919
 1928SOL    HW2 6684   6.432   4.225   6.046
 1929SOL     OW 6685   0.763   5.082   1.587
 1929SOL    HW1 6686   0.836   5.023   1.553
 1929SOL    HW2 6687   0.803   5.161   1.633
 1930SOL     OW 6688   3.836   3.670   6.519
 1930SOL    HW1 6689   3.923   3.656   6.566
 1930SOL    HW2 6690   3.802   3.762   6.540
 1931SOL     OW 6691   0.247   3.354   2.766
 1931SOL    HW1 6692   0.171   3.289   2.761
 1931SOL    HW2 6693   0.211   3.446   2.776
 1932SOL     OW 6694   4.916   3.263   3.143
 1932SOL    HW1 6695   4.933   3.242   3.240
 1932SOL    HW2 6696   4.882   3.357   3.136
 1933SOL     OW 6697   1.915   3.806   0.622
 1933SOL    HW1 6698   1.929   3.901   0.596
 1933SOL    HW2 6699   1.996   3.772   0.670
 1934SOL     OW 6700   0.359   0.079   5.210
 1934SOL    HW1 6701   0.423   0.111   5.141
 1934SOL    HW2 6702   0.281   0.034   5.166
 1935SOL     OW 6703   4.180   6.096   3.585
 1935SOL    HW1 6704   4.162   6.195   3.591
 1935SOL    HW2 6705   4.258   6.073   3.643
 1936SOL     OW 6706   5.930   3.660   4.058
 1936SOL    HW1 6707   5.873   3.725   4.008
 1936SOL    HW2 6708   6.006   3.708   4.100
 1937SOL     OW 6709   3.656   6.957   1.150
 1937SOL    HW1 6710   3.690   0.028   1.137
 1937SOL    HW2 6711   3.566   6.949   1.107
 1938SOL     OW 6712   2.154   1.874   1.674
 1938SOL    HW1 6713   2.191   1.822   1.751
 1938SOL    HW2 6714   2.225   1.931   1.635
 1939SOL     OW 6715   6.702   0.549   4.630
 1939SOL    HW1 6716   6.657   0.467   4.667
 1939SOL    HW2 6717   6.801   0.541   4.644
 1940SOL     OW 6718   5.139   4.891   0.670
 1940SOL    HW1 6719   5.070   4.901   0.597
 1940SOL    HW2 6720   5.124   4.804   0.717
 1941SOL     OW 6721   0.641   4.044   4.407
 1941SOL    HW1 6722   0.667   3.960   4.359
 1941SOL    HW2 6723   0.601   4.021   4.496
 1942SOL     OW 6724   5.527   1.422   1.601
 1942SOL    HW1 6725   5.436   1.411   1.641
 1942SOL    HW2 6726   5.559   1.334   1.566
 1943SOL     OW 6727   2.131   6.312   3.521
 1943SOL    HW1 6728   2.192   6.233   3.518
 1943SOL    HW2 6729   2.102   6.328   3.616
 1944SOL     OW 6730   6.303   2.834   0.200
 1944SOL    HW1 6731   6.334   2.756   0.146
 1944SOL    HW2 6732   6.246   2.801   0.275
 1945SOL     OW 6733   4.010   5.414   0.786
 1945SOL    HW1 6734   3.951   5.402   0.866
 1945SOL    HW2 6735   4.104   5.389   0.810
 1946SOL     OW 6736   6.437   6.901   0.686
 1946SOL    HW1 6737   6.366   6.908   0.615
 1946SOL    HW2 6738   6.514   6.960   0.661
 1947SOL     OW 6739   4.439   6.219   4.647
 1947SOL    HW1 6740   4.496   6.190   4.570
 1947SOL    HW2 6741   4.359   6.267   4.612
 1948SOL     OW 6742   5.766   5.436   3.932
 1948SOL    HW1 6743   5.677   5.456   3.889
 1948SOL    HW2 6744   5.752   5.378   4.012
 1949SOL     OW 6745   3.459   4.339   6.344
 1949SOL    HW1 6746   3.475   4.243   6.322
 1949SOL    HW2 6747   3.486   4.356   6.439
 1950SOL     OW 6748   3.885   3.719   0.277
 1950SOL    HW1 6749   3.867   3.713   0.179
 1950SOL    HW2 6750   3.848   3.638   0.322
 1951SOL     OW 6751   5.928   3.570   6.970
 1951SOL    HW1 6752   5.910   3.472   6.980
 1951SOL    HW2 6753   5.843   3.616   6.947
 1952SOL     OW 6754   4.761   3.382   0.877
 1952SOL    HW1 6755   4.797   3.358   0.787
 1952SOL    HW2 6756   4.804   3.467   0.908
 1953SOL     OW 6757   6.219   1.742   5.557
 1953SOL    HW1 6758   6.293   1.740   5.491
 1953SOL    HW2 6759   6.244   1.800   5.634
 1954SOL     OW 6760   6.488   0.576   2.792
 1954SOL    HW1 6761   6.580   0.538   2.780
 1954SOL    HW2 6762   6.427   0.539   2.722
 1955SOL     OW 6763   0.481   1.229   2.659
 1955SOL    HW1 6764   0.542   1.154   2.682
 1955SOL    HW2 6765   0.534   1.313   2.645
 1956SOL     OW 6766   4.820   6.691   2.759
 1956SOL    HW1 6767   4.838   6.719   2.853
 1956SOL    HW2 6768   4.906   6.660   2.717
 1957SOL     OW 6769   5.891   4.456   4.258
 1957SOL    HW1 6770   5.803   4.448   4.304
 1957SOL    HW2 6771   5.880   4.430   4.161
 1958SOL     OW 6772   4.818   1.756   1.992
 1958SOL    HW1 6773   4.890   1.808   1.946
 1958SOL    HW2 6774   4.731   1.806   1.985
 1959SOL     OW 6775   1.171   0.381   4.428
 1959SOL    HW1 6776   1.164   0.440   4.508
 1959SOL    HW2 6777   1.080   0.366   4.389
 1960SOL     OW 6778   6.871   4.401   2.224
 1960SOL    HW1 6779   6.812   4.332   2.183
 1960SOL    HW2 6780   6.966   4.383   2.200
 1961SOL     OW 6781   6.130   4.345   3.743
 1961SOL    HW1 6782   6.107   4.335   3.839
 1961SOL    HW2 6783   6.117   4.440   3.715
 1962SOL     OW 6784   1.225   6.506   3.363
 1962SOL    HW1 6785   1.296   6.571   3.387
 1962SOL    HW2 6786   1.147   6.518   3.425
 1963SOL     OW 6787   0.850   1.924   1.073
 1963SOL    HW1 6788   0.841   1.877   0.985
 1963SOL    HW2 6789   0.946   1.922   1.102
 1964SOL     OW 6790   4.802   4.752   0.802
 1964SOL    HW1 6791   4.734   4.764   0.874
 1964SOL    HW2 6792   4.892   4.740   0.842
 1965SOL     OW 6793   1.981   3.025   4.387
 1965SOL    HW1 6794   2.071   2.993   4.357
 1965SOL    HW2 6795   1.970   3.007   4.485
 1966SOL     OW 6796   0.273   6.128   0.751
 1966SOL    HW1 6797   0.364   6.110   0.790
 1966SOL    HW2 6798   0.211   6.054   0.778
 1967SOL     OW 6799   5.601   2.781   5.835
 1967SOL    HW1 6800   5.699   2.767   5.842
 1967SOL    HW2 6801   5.575   2.783   5.738
 1968SOL     OW 6802   1.626   6.574   5.689
 1968SOL    HW1 6803   1.569   6.496   5.663
 1968SOL    HW2 6804   1.593   6.611   5.776
 1969SOL     OW 6805   0.804   1.461   1.215
 1969SOL    HW1 6806   0.859   1.523   1.160
 1969SOL    HW2 6807   0.727   1.511   1.255
 1970SOL     OW 6808   2.744   6.482   6.133
 1970SOL    HW1 6809   2.749   6.477   6.033
 1970SOL    HW2 6810   2.679   6.414   6.167
 1971SOL     OW 6811   0.670   0.139   5.909
 1971SOL    HW1 6812   0.736   0.204   5.871
 1971SOL    HW2 6813   0.585   0.187   5.931
 1972SOL     OW 6814   5.552   1.948   1.762
 1972SOL    HW1 6815   5.526   1.859   1.799
 1972SOL    HW2 6816   5.650   1.962   1.773
 1973SOL     OW 6817   3.392   3.282   0.095
 1973SOL    HW1 6818   3.315   3.345   0.088
 1973SOL    HW2 6819   3.478   3.332   0.086
 1974SOL     OW 6820   5.866   6.650   5.097
 1974SOL    HW1 6821   5.830   6.570   5.144
 1974SOL    HW2 6822   5.800   6.680   5.027
 1975SOL     OW 6823   1.893   1.516   3.824
 1975SOL    HW1 6824   1.813   1.490   3.879
 1975SOL    HW2 6825   1.956   1.569   3.880
 1976SOL     OW 6826   0.028   6.732   0.259
 1976SOL    HW1 6827   0.122   6.756   0.236
 1976SOL    HW2 6828   0.012   6.636   0.238
 1977SOL     OW 6829   1.937   3.043   4.669
 1977SOL    HW1 6830   1.883   3.097   4.733
 1977SOL    HW2 6831   2.034   3.061   4.685
 1978SOL     OW 6832   1.655   6.055   2.961
 1978SOL    HW1 6833   1.710   6.037   3.042
 1978SOL    HW2 6834   1.607   6.142   2.971
 1979SOL     OW 6835   5.889   4.173   6.410
 1979SOL    HW1 6836   5.934   4.132   6.331
 1979SOL    HW2 6837   5.953   4.176   6.487
 1980SOL     OW 6838   3.552   0.208   4.788
 1980SOL    HW1 6839   3.635   0.234   4.739
 1980SOL    HW2 6840   3.504   0.136   4.737
 1981SOL     OW 6841   6.981   2.794   2.199
 1981SOL    HW1 6842   6.997   2.882   2.246
 1981SOL    HW2 6843   7.016   2.799   2.106
 1982SOL     OW 6844   0.604   4.437   4.097
 1982SOL    HW1 6845   0.596   4.377   4.176
 1982SOL    HW2 6846   0.547   4.401   4.023
 1983SOL     OW 6847   0.872   0.875   2.822
 1983SOL    HW1 6848   0.883   0.874   2.722
 1983SOL    HW2 6849   0.960   0.855   2.865
 1984SOL     OW 6850   4.679   1.869   4.824
 1984SOL    HW1 6851   4.755   1.899   4.882
 1984SOL    HW2 6852   4.604   1.934   4.832
 1985SOL     OW 6853   1.310   6.508   2.421
 1985SOL    HW1 6854   1.387   6.444   2.417
 1985SOL    HW2 6855   1.290   6.530   2.517
 1986SOL     OW 6856   2.494   1.172   6.966
 1986SOL    HW1 6857   2.521   1.217   6.881
 1986SOL    HW2 6858   2.422   1.106   6.948
 1987SOL     OW 6859   1.876   2.670   2.639
 1987SOL    HW1 6860   1.960   2.698   2.686
 1987SOL    HW2 6861   1.881   2.574   2.615
 1988SOL     OW 6862   6.104   3.440   0.873
 1988SOL    HW1 6863   6.170   3.374   0.908
 1988SOL    HW2 6864   6.029   3.392   0.828
 1989SOL     OW 6865   2.430   5.385   5.297
 1989SOL    HW1 6866   2.439   5.484   5.290
 1989SOL    HW2 6867   2.499   5.341   5.240
 1990SOL     OW 6868   3.706   5.943   0.634
 1990SOL    HW1 6869   3.633   5.935   0.567
 1990SOL    HW2 6870   3.690   5.879   0.709
 1991SOL     OW 6871   2.843   5.253   6.881
 1991SOL    HW1 6872   2.758   5.305   6.889
 1991SOL    HW2 6873   2.849   5.211   6.790
 1992SOL     OW 6874   0.558   1.095   0.313
 1992SOL    HW1 6875   0.558   1.127   0.219
 1992SOL    HW2 6876   0.599   1.165   0.372
 1993SOL     OW 6877   3.541   2.383   5.445
 1993SOL    HW1 6878   3.491   2.466   5.418
 1993SOL    HW2 6879   3.526   2.366   5.542
 1994SOL     OW 6880   1.030   1.775   0.332
 1994SOL    HW1 6881   1.087   1.746   0.255
 1994SOL    HW2 6882   0.937   1.794   0.300
 1995SOL     OW 6883   5.258   2.291   3.409
 1995SOL    HW1 6884   5.274   2.247   3.498
 1995SOL    HW2 6885   5.242   2.221   3.340
 1996SOL     OW 6886   1.803   2.670   0.215
 1996SOL    HW1 6887   1.767   2.578   0.201
 1996SOL    HW2 6888   1.886   2.665   0.270
 1997SOL     OW 6889   3.212   1.572   5.068
 1997SOL    HW1 6890   3.252   1.556   4.978
 1997SOL    HW2 6891   3.276   1.540   5.139
 1998SOL     OW 6892   2.808   4.327   6.814
 1998SOL    HW1 6893   2.734   4.386   6.845
 1998SOL    HW2 6894   2.809   4.243   6.868
 1999SOL     OW 6895   2.405   6.404   6.132
 1999SOL    HW1 6896   2.462   6.362   6.202
 1999SOL    HW2 6897   2.394   6.342   6.055
 2000SOL     OW 6898   4.405   2.683   5.187
 2000SOL    HW1 6899   4.306   2.676   5.175
 2000SOL    HW2 6900   4.425   2.741   5.265
 2001SOL     OW 6901   3.062   0.312   1.687
 2001SOL    HW1 6902   2.983   0.357   1.728
 2001SOL    HW2 6903   3.143   0.371   1.695
 2002SOL     OW 6904   0.440   4.714   0.499
 2002SOL    HW1 6905   0.428   4.730   0.597
 2002SOL    HW2 6906   0.517   4.768   0.465
 2003SOL     OW 6907   5.944   5.527   2.666
 2003SOL    HW1 6908   5.898   5.614   2.647
 2003SOL    HW2 6909   6.042   5.537   2.650
 2004SOL     OW 6910   4.773   1.539   4.872
 2004SOL    HW1 6911   4.726   1.585   4.796
 2004SOL    HW2 6912   4.704   1.498   4.932
 2005SOL     OW 6913   0.472   5.208   0.101
 2005SOL    HW1 6914   0.531   5.128   0.093
 2005SOL    HW2 6915   0.403   5.192   0.171
 2006SOL     OW 6916   5.986   0.080   3.413
 2006SOL    HW1 6917   6.059   0.055   3.349
 2006SOL    HW2 6918   5.919   0.137   3.366
 2007SOL     OW 6919   4.811   4.371   0.937
 2007SOL    HW1 6920   4.755   4.413   0.866
 2007SOL    HW2 6921   4.780   4.402   1.027
 2008SOL     OW 6922   2.014   4.456   3.866
 2008SOL    HW1 6923   1.999   4.473   3.769
 2008SOL    HW2 6924   2.076   4.525   3.903
 2009SOL     OW 6925   5.338   0.763   2.603
 2009SOL    HW1 6926   5.332   0.681   2.660
 2009SOL    HW2 6927   5.288   0.748   2.518
 2010SOL     OW 6928   2.193   1.689   1.871
 2010SOL    HW1 6929   2.265   1.678   1.940
 2010SOL    HW2 6930   2.120   1.748   1.908
 2011SOL     OW 6931   6.539   6.708   4.896
 2011SOL    HW1 6932   6.484   6.778   4.941
 2011SOL    HW2 6933   6.602   6.750   4.831
 2012SOL     OW 6934   1.146   4.340   2.301
 2012SOL    HW1 6935   1.095   4.255   2.306
 2012SOL    HW2 6936   1.243   4.320   2.285
 2013SOL     OW 6937   6.176   2.540   3.497
 2013SOL    HW1 6938   6.256   2.554   3.438
 2013SOL    HW2 6939   6.183   2.599   3.577
 2014SOL     OW 6940   2.440   6.439   3.623
 2014SOL    HW1 6941   2.395   6.356   3.591
 2014SOL    HW2 6942   2.373   6.513   3.630
 2015SOL     OW 6943   1.906   0.557   6.931
 2015SOL    HW1 6944   1.914   0.513   7.021
 2015SOL    HW2 6945   1.977   0.626   6.922
 2016SOL     OW 6946   2.077   5.872   6.085
 2016SOL    HW1 6947   1.984   5.906   6.071
 2016SOL    HW2 6948   2.140   5.949   6.091
 2017SOL     OW 6949   3.647   6.954   4.427
 2017SOL    HW1 6950   3.558   6.918   4.400
 2017SOL    HW2 6951   3.719   6.904   4.379
 2018SOL     OW 6952   5.264   1.830   5.013
 2018SOL    HW1 6953   5.322   1.827   4.932
 2018SOL    HW2 6954   5.207   1.913   5.011
 2019SOL     OW 6955   5.227   3.540   6.197
 2019SOL    HW1 6956   5.171   3.491   6.130
 2019SOL    HW2 6957   5.244   3.633   6.165
 2020SOL     OW 6958   1.836   6.980   5.421
 2020SOL    HW1 6959   1.802   0.025   5.486
 2020SOL    HW2 6960   1.776   6.900   5.422
 2021SOL     OW 6961   0.631   6.287   5.209
 2021SOL    HW1 6962   0.715   6.342   5.202
 2021SOL    HW2 6963   0.638   6.208   5.147
 2022SOL     OW 6964   1.594   4.382   3.488
 2022SOL    HW1 6965   1.611   4.322   3.411
 2022SOL    HW2 6966   1.497   4.409   3.489
 2023SOL     OW 6967   6.962   0.586   6.595
 2023SOL    HW1 6968   0.014   0.645   6.564
 2023SOL    HW2 6969   6.935   0.611   6.688
 2024SOL     OW 6970   0.083   6.207   3.289
 2024SOL    HW1 6971   7.022   6.157   3.311
 2024SOL    HW2 6972   0.153   6.187   3.359
 2025SOL     OW 6973   2.832   1.190   3.550
 2025SOL    HW1 6974   2.815   1.266   3.487
 2025SOL    HW2 6975   2.768   1.115   3.530
 2026SOL     OW 6976   6.576   2.926   5.432
 2026SOL    HW1 6977   6.671   2.894   5.424
 2026SOL    HW2 6978   6.574   3.026   5.422
 2027SOL     OW 6979   1.476   0.150   0.560
 2027SOL    HW1 6980   1.551   0.200   0.603
 2027SOL    HW2 6981   1.393   0.205   0.563
 2028SOL     OW 6982   2.534   6.817   4.911
 2028SOL    HW1 6983   2.495   6.812   4.819
 2028SOL    HW2 6984   2.622   6.770   4.912
 2029SOL     OW 6985   6.708   1.007   0.073
 2029SOL    HW1 6986   6.639   0.947   0.114
 2029SOL    HW2 6987   6.669   1.051   7.014
 2030SOL     OW 6988   2.626   0.982   3.613
 2030SOL    HW1 6989   2.584   1.033   3.689
 2030SOL    HW2 6990   2.694   0.918   3.650
 2031SOL     OW 6991   6.576   5.848   1.124
 2031SOL    HW1 6992   6.496   5.792   1.146
 2031SOL    HW2 6993   6.646   5.791   1.080
 2032SOL     OW 6994   4.813   0.441   2.128
 2032SOL    HW1 6995   4.818   0.515   2.060
 2032SOL    HW2 6996   4.840   0.477   2.217
 2033SOL     OW 6997   3.194   3.089   6.026
 2033SOL    HW1 6998   3.145   3.072   5.940
 2033SOL    HW2 6999   3.160   3.173   6.068
 2034SOL     OW 7000   2.324   5.632   5.522
 2034SOL    HW1 7001   2.341   5.648   5.425
 2034SOL    HW2 7002   2.262   5.554   5.532
 2035SOL     OW 7003   6.952   6.449   3.908
 2035SOL    HW1 7004   6.859   6.425   3.878
 2035SOL    HW2 7005   6.967   6.547   3.892
 2036SOL     OW 7006   1.280   4.454   2.919
 2036SOL    HW1 7007   1.361   4.511   2.904
 2036SOL    HW2 7008   1.213   4.504   2.973
 2037SOL     OW 7009   6.208   3.094   5.784
 2037SOL    HW1 7010   6.304   3.107   5.759
 2037SOL    HW2 7011   6.151   3.104   5.702
 2038SOL     OW 7012   2.023   2.037   0.167
 2038SOL    HW1 7013   2.004   2.129   0.202
 2038SOL    HW2 7014   2.115   2.034   0.130
 2039SOL     OW 7015   0.127   5.312   4.228
 2039SOL    HW1 7016   0.038   5.305   4.183
 2039SOL    HW2 7017   0.154   5.222   4.264
 2040SOL     OW 7018   2.700   3.122   5.863
 2040SOL    HW1 7019   2.622   3.079   5.818
 2040SOL    HW2 7020   2.701   3.220   5.842
 2041SOL     OW 7021   1.047   6.376   5.892
 2041SOL    HW1 7022   0.992   6.460   5.898
 2041SOL    HW2 7023   1.077   6.349   5.983
 2042SOL     OW 7024   4.624   6.033   6.731
 2042SOL    HW1 7025   4.586   6.112   6.683
 2042SOL    HW2 7026   4.550   5.975   6.764
 2043SOL     OW 7027   6.060   3.899   2.879
 2043SOL    HW1 7028   6.047   3.910   2.780
 2043SOL    HW2 7029   6.051   3.802   2.903
 2044SOL     OW 7030   6.939   0.538   1.822
 2044SOL    HW1 7031   6.843   0.552   1.846
 2044SOL    HW2 7032   6.945   0.499   1.730
 2045SOL     OW 7033   1.586   5.233   4.268
 2045SOL    HW1 7034   1.602   5.208   4.173
 2045SOL    HW2 7035   1.587   5.150   4.324
 2046SOL     OW 7036   6.937   1.948   4.478
 2046SOL    HW1 7037   6.850   1.900   4.487
 2046SOL    HW2 7038   7.012   1.881   4.481
 2047SOL     OW 7039   6.967   2.606   0.192
 2047SOL    HW1 7040   6.894   2.554   0.237
 2047SOL    HW2 7041   0.000   2.652   0.261
 2048SOL     OW 7042   1.699   6.739   6.084
 2048SOL    HW1 7043   1.667   6.766   5.994
 2048SOL    HW2 7044   1.766   6.665   6.075
 2049SOL     OW 7045   5.972   1.698   4.675
 2049SOL    HW1 7046   5.989   1.774   4.613
 2049SOL    HW2 7047   5.922   1.626   4.626
 2050SOL     OW 7048   6.026   2.696   4.199
 2050SOL    HW1 7049   6.080   2.658   4.274
 2050SOL    HW2 7050   5.958   2.629   4.170
 2051SOL     OW 7051   0.827   6.109   0.079
 2051SOL    HW1 7052   0.833   6.032   0.143
 2051SOL    HW2 7053   0.735   6.114   0.040
 2052SOL     OW 7054   1.551   2.788   1.368
 2052SOL    HW1 7055   1.605   2.870   1.350
 2052SOL    HW2 7056   1.491   2.804   1.447
 2053SOL     OW 7057   6.910   6.303   4.384
 2053SOL    HW1 7058   6.964   6.377   4.342
 2053SOL    HW2 7059   6.816   6.333   4.395
 2054SOL     OW 7060   3.441   4.067   3.333
 2054SOL    HW1 7061   3.471   4.081   3.427
 2054SOL    HW2 7062   3.519   4.075   3.272
 2055SOL     OW 7063   5.480   3.641   3.883
 2055SOL    HW1 7064   5.534   3.652   3.800
 2055SOL    HW2 7065   5.526   3.578   3.946
 2056SOL     OW 7066   4.018   5.889   1.772
 2056SOL    HW1 7067   4.052   5.956   1.707
 2056SOL    HW2 7068   4.037   5.920   1.865
 2057SOL     OW 7069   5.119   4.203   5.905
 2057SOL    HW1 7070   5.108   4.106   5.929
 2057SOL    HW2 7071   5.072   4.260   5.973
 2058SOL     OW 7072   0.292   0.741   3.369
 2058SOL    HW1 7073   0.368   0.806   3.368
 2058SOL    HW2 7074   0.222   0.772   3.305
 2059SOL     OW 7075   1.807   5.842   6.365
 2059SOL    HW1 7076   1.752   5.917   6.329
 2059SOL    HW2 7077   1.889   5.879   6.409
 2060SOL     OW 7078   0.433   4.039   1.579
 2060SOL    HW1 7079   0.519   3.990   1.564
 2060SOL    HW2 7080   0.410   4.092   1.497
 2061SOL     OW 7081   1.426   1.851   2.531
 2061SOL    HW1 7082   1.391   1.944   2.516
 2061SOL    HW2 7083   1.355   1.785   2.509
 2062SOL     OW 7084   0.051   5.253   5.022
 2062SOL    HW1 7085   7.003   5.269   4.953
 2062SOL    HW2 7086   0.008   5.247   5.112
 2063SOL     OW 7087   1.206   6.460   5.400
 2063SOL    HW1 7088   1.198   6.388   5.469
 2063SOL    HW2 7089   1.118   6.507   5.390
 2064SOL     OW 7090   0.465   2.552   4.854
 2064SOL    HW1 7091   0.389   2.552   4.789
 2064SOL    HW2 7092   0.467   2.464   4.903
 2065SOL     OW 7093   6.060   2.521   5.831
 2065SOL    HW1 7094   6.143   2.555   5.785
 2065SOL    HW2 7095   6.056   2.556   5.924
 2066SOL     OW 7096   0.323   4.328   4.467
 2066SOL    HW1 7097   0.260   4.404   4.451
 2066SOL    HW2 7098   0.357   4.332   4.562
 2067SOL     OW 7099   0.057   5.314   0.655
 2067SOL    HW1 7100   0.013   5.234   0.694
 2067SOL    HW2 7101   0.042   5.393   0.715
 2068SOL     OW 7102   1.707   0.278   4.636
 2068SOL    HW1 7103   1.642   0.345   4.673
 2068SOL    HW2 7104   1.714   0.201   4.699
 2069SOL     OW 7105   6.207   2.773   4.003
 2069SOL    HW1 7106   6.116   2.754   4.041
 2069SOL    HW2 7107   6.239   2.694   3.950
 2070SOL     OW 7108   1.125   1.131   1.100
 2070SOL    HW1 7109   1.091   1.175   1.183
 2070SOL    HW2 7110   1.203   1.183   1.065
 2071SOL     OW 7111   6.026   0.626   5.929
 2071SOL    HW1 7112   5.999   0.715   5.892
 2071SOL    HW2 7113   6.099   0.588   5.873
 2072SOL     OW 7114   4.465   5.207   4.191
 2072SOL    HW1 7115   4.558   5.170   4.187
 2072SOL    HW2 7116   4.424   5.205   4.100
 2073SOL     OW 7117   4.958   6.784   4.773
 2073SOL    HW1 7118   4.945   6.867   4.828
 2073SOL    HW2 7119   4.898   6.712   4.807
 2074SOL     OW 7120   2.117   2.207   6.206
 2074SOL    HW1 7121   2.197   2.250   6.162
 2074SOL    HW2 7122   2.134   2.109   6.216
 2075SOL     OW 7123   6.896   2.482   3.356
 2075SOL    HW1 7124   6.953   2.414   3.403
 2075SOL    HW2 7125   6.941   2.571   3.358
 2076SOL     OW 7126   5.238   6.496   6.287
 2076SOL    HW1 7127   5.222   6.575   6.228
 2076SOL    HW2 7128   5.151   6.448   6.303
 2077SOL     OW 7129   6.457   2.098   3.173
 2077SOL    HW1 7130   6.490   2.018   3.124
 2077SOL    HW2 7131   6.471   2.086   3.272
 2078SOL     OW 7132   1.528   5.256   6.197
 2078SOL    HW1 7133   1.485   5.206   6.272
 2078SOL    HW2 7134   1.616   5.293   6.228
 2079SOL     OW 7135   6.759   2.478   3.091
 2079SOL    HW1 7136   6.822   2.410   3.052
 2079SOL    HW2 7137   6.797   2.512   3.177
 2080SOL     OW 7138   1.505   0.570   5.249
 2080SOL    HW1 7139   1.532   0.477   5.222
 2080SOL    HW2 7140   1.525   0.583   5.346
 2081SOL     OW 7141   0.825   6.311   4.514
 2081SOL    HW1 7142   0.789   6.396   4.476
 2081SOL    HW2 7143   0.827   6.317   4.614
 2082SOL     OW 7144   0.733   0.007   3.408
 2082SOL    HW1 7145   0.761   0.100   3.383
 2082SOL    HW2 7146   0.770   7.007   3.498
 2083SOL     OW 7147   1.342   4.979   5.861
 2083SOL    HW1 7148   1.251   4.963   5.900
 2083SOL    HW2 7149   1.410   4.969   5.933
 2084SOL     OW 7150   0.622   4.306   3.119
 2084SOL    HW1 7151   0.523   4.292   3.127
 2084SOL    HW2 7152   0.644   4.402   3.139
 2085SOL     OW 7153   5.092   0.620   0.765
 2085SOL    HW1 7154   5.132   0.561   0.695
 2085SOL    HW2 7155   5.071   0.566   0.847
 2086SOL     OW 7156   3.902   6.713   6.416
 2086SOL    HW1 7157   3.853   6.702   6.330
 2086SOL    HW2 7158   3.850   6.671   6.490
 2087SOL     OW 7159   4.956   1.128   1.942
 2087SOL    HW1 7160   4.881   1.099   2.001
 2087SOL    HW2 7161   4.921   1.143   1.850
 2088SOL     OW 7162   1.069   6.107   6.906
 2088SOL    HW1 7163   1.059   6.053   6.822
 2088SOL    HW2 7164   1.000   6.078   6.973
 2089SOL     OW 7165   4.732   2.702   6.107
 2089SOL    HW1 7166   4.641   2.681   6.073
 2089SOL    HW2 7167   4.737   2.799   6.131
 2090SOL     OW 7168   4.186   3.537   6.059
 2090SOL    HW1 7169   4.146   3.478   6.129
 2090SOL    HW2 7170   4.187   3.489   5.971
 2091SOL     OW 7171   6.947   4.865   0.253
 2091SOL    HW1 7172   6.944   4.820   0.164
 2091SOL    HW2 7173   6.913   4.803   0.323
 2092SOL     OW 7174   5.276   3.680   0.281
 2092SOL    HW1 7175   5.198   3.712   0.227
 2092SOL    HW2 7176   5.347   3.646   0.219
 2093SOL     OW 7177   2.975   2.195   1.518
 2093SOL    HW1 7178   3.008   2.257   1.590
 2093SOL    HW2 7179   2.889   2.152   1.548
 2094SOL     OW 7180   6.033   1.409   1.818
 2094SOL    HW1 7181   5.962   1.466   1.860
 2094SOL    HW2 7182   5.996   1.318   1.799
 2095SOL     OW 7183   6.280   6.361   5.179
 2095SOL    HW1 7184   6.224   6.411   5.112
 2095SOL    HW2 7185   6.374   6.356   5.147
 2096SOL     OW 7186   4.735   4.749   3.051
 2096SOL    HW1 7187   4.731   4.663   3.101
 2096SOL    HW2 7188   4.739   4.826   3.115
 2097SOL     OW 7189   2.997   2.637   6.469
 2097SOL    HW1 7190   3.072   2.679   6.519
 2097SOL    HW2 7191   2.912   2.688   6.485
 2098SOL     OW 7192   4.924   5.984   1.937
 2098SOL    HW1 7193   4.912   6.012   1.842
 2098SOL    HW2 7194   4.843   5.932   1.967
 2099SOL     OW 7195   3.622   2.128   6.656
 2099SOL    HW1 7196   3.638   2.227   6.662
 2099SOL    HW2 7197   3.657   2.094   6.569
 2100SOL     OW 7198   5.362   1.626   0.594
 2100SOL    HW1 7199   5.358   1.638   0.693
 2100SOL    HW2 7200   5.447   1.579   0.570
 2101SOL     OW 7201   0.503   6.667   1.265
 2101SOL    HW1 7202   0.472   6.577   1.296
 2101SOL    HW2 7203   0.428   6.732   1.273
 2102SOL     OW 7204   5.080   4.210   2.506
 2102SOL    HW1 7205   5.137   4.265   2.445
 2102SOL    HW2 7206   5.118   4.212   2.598
 2103SOL     OW 7207   3.537   3.523   6.958
 2103SOL    HW1 7208   3.477   3.595   6.993
 2103SOL    HW2 7209   3.564   3.545   6.865
 2104SOL     OW 7210   1.646   4.423   2.366
 2104SOL    HW1 7211   1.673   4.441   2.271
 2104SOL    HW2 7212   1.666   4.503   2.422
 2105SOL     OW 7213   4.626   4.502   6.306
 2105SOL    HW1 7214   4.629   4.402   6.310
 2105SOL    HW2 7215   4.549   4.531   6.248
 2106SOL     OW 7216   5.412   3.435   0.942
 2106SOL    HW1 7217   5.411   3.470   0.848
 2106SOL    HW2 7218   5.319   3.427   0.975
 2107SOL     OW 7219   6.417   2.224   5.452
 2107SOL    HW1 7220   6.472   2.149   5.487
 2107SOL    HW2 7221   6.425   2.227   5.352
 2108SOL     OW 7222   6.342   5.539   5.101
 2108SOL    HW1 7223   6.282   5.605   5.055
 2108SOL    HW2 7224   6.365   5.465   5.037
 2109SOL     OW 7225   3.804   6.296   2.426
 2109SOL    HW1 7226   3.747   6.282   2.345
 2109SOL    HW2 7227   3.862   6.216   2.440
 2110SOL     OW 7228   3.204   0.785   0.406
 2110SOL    HW1 7229   3.268   0.791   0.482
 2110SOL    HW2 7230   3.234   0.846   0.332
 2111SOL     OW 7231   2.202   3.118   6.830
 2111SOL    HW1 7232   2.225   3.105   6.734
 2111SOL    HW2 7233   2.118   3.068   6.851
 2112SOL     OW 7234   5.588   2.008   0.456
 2112SOL    HW1 7235   5.532   1.925   0.462
 2112SOL    HW2 7236   5.680   1.984   0.425
 2113SOL     OW 7237   2.207   1.228   5.218
 2113SOL    HW1 7238   2.116   1.252   5.185
 2113SOL    HW2 7239   2.210   1.131   5.241
 2114SOL     OW 7240   2.287   1.782   6.751
 2114SOL    HW1 7241   2.193   1.747   6.755
 2114SOL    HW2 7242   2.344   1.730   6.814
 2115SOL     OW 7243   0.522   3.949   2.710
 2115SOL    HW1 7244   0.590   3.948   2.637
 2115SOL    HW2 7245   0.541   4.026   2.772
 2116SOL     OW 7246   1.088   3.804   2.507
 2116SOL    HW1 7247   1.092   3.769   2.601
 2116SOL    HW2 7248   0.999   3.782   2.467
 2117SOL     OW 7249   6.168   4.255   1.293
 2117SOL    HW1 7250   6.172   4.178   1.357
 2117SOL    HW2 7251   6.256   4.302   1.291
 2118SOL     OW 7252   5.910   3.649   3.579
 2118SOL    HW1 7253   5.919   3.554   3.609
 2118SOL    HW2 7254   5.933   3.711   3.654
 2119SOL     OW 7255   1.520   0.426   1.054
 2119SOL    HW1 7256   1.458   0.468   1.120
 2119SOL    HW2 7257   1.612   0.465   1.066
 2120SOL     OW 7258   0.650   4.127   3.304
 2120SOL    HW1 7259   0.629   4.186   3.226
 2120SOL    HW2 7260   0.590   4.047   3.302
 2121SOL     OW 7261   1.507   3.036   5.194
 2121SOL    HW1 7262   1.415   3.074   5.186
 2121SOL    HW2 7263   1.543   3.018   5.102
 2122SOL     OW 7264   5.983   5.556   6.611
 2122SOL    HW1 7265   5.997   5.626   6.541
 2122SOL    HW2 7266   6.022   5.469   6.579
 2123SOL     OW 7267   6.586   5.380   1.698
 2123SOL    HW1 7268   6.565   5.431   1.781
 2123SOL    HW2 7269   6.684   5.386   1.678
 2124SOL     OW 7270   3.275   1.765   0.522
 2124SOL    HW1 7271   3.222   1.708   0.460
 2124SOL    HW2 7272   3.213   1.820   0.579
 2125SOL     OW 7273   1.657   6.406   2.172
 2125SOL    HW1 7274   1.638   6.437   2.079
 2125SOL    HW2 7275   1.629   6.477   2.237
 2126SOL     OW 7276   3.987   2.737   6.630
 2126SOL    HW1 7277   3.920   2.678   6.586
 2126SOL    HW2 7278   3.987   2.827   6.586
 2127SOL     OW 7279   0.593   1.550   6.048
 2127SOL    HW1 7280   0.676   1.558   6.104
 2127SOL    HW2 7281   0.558   1.641   6.026
 2128SOL     OW 7282   6.360   2.909   2.868
 2128SOL    HW1 7283   6.266   2.939   2.884
 2128SOL    HW2 7284   6.401   2.880   2.954
 2129SOL     OW 7285   5.196   4.108   5.139
 2129SOL    HW1 7286   5.129   4.049   5.183
 2129SOL    HW2 7287   5.162   4.202   5.138
 2130SOL     OW 7288   2.885   6.878   2.504
 2130SOL    HW1 7289   2.892   6.836   2.595
 2130SOL    HW2 7290   2.936   6.823   2.438
 2131SOL     OW 7291   5.320   1.620   0.912
 2131SOL    HW1 7292   5.329   1.683   0.989
 2131SOL    HW2 7293   5.225   1.594   0.900
 2132SOL     OW 7294   3.332   1.371   0.111
 2132SOL    HW1 7295   3.306   1.440   0.044
 2132SOL    HW2 7296   3.349   1.415   0.200
 2133SOL     OW 7297   3.595   2.574   1.258
 2133SOL    HW1 7298   3.677   2.525   1.288
 2133SOL    HW2 7299   3.553   2.525   1.181
 2134SOL     OW 7300   0.821   0.895   4.291
 2134SOL    HW1 7301   0.862   0.819   4.342
 2134SOL    HW2 7302   0.763   0.858   4.218
 2135SOL     OW 7303   0.645   1.735   4.160
 2135SOL    HW1 7304   0.657   1.815   4.101
 2135SOL    HW2 7305   0.602   1.661   4.108
 2136SOL     OW 7306   1.174   4.059   4.708
 2136SOL    HW1 7307   1.173   4.107   4.796
 2136SOL    HW2 7308   1.081   4.059   4.669
 2137SOL     OW 7309   0.125   6.293   4.088
 2137SOL    HW1 7310   0.099   6.389   4.085
 2137SOL    HW2 7311   0.067   6.240   4.026
 2138SOL     OW 7312   6.793   1.346   1.396
 2138SOL    HW1 7313   6.734   1.329   1.317
 2138SOL    HW2 7314   6.824   1.441   1.395
 2139SOL     OW 7315   3.754   1.021   2.774
 2139SOL    HW1 7316   3.742   1.003   2.676
 2139SOL    HW2 7317   3.735   1.117   2.792
 2140SOL     OW 7318   3.234   5.493   3.071
 2140SOL    HW1 7319   3.242   5.500   2.972
 2140SOL    HW2 7320   3.138   5.503   3.098
 2141SOL     OW 7321   6.438   4.471   0.798
 2141SOL    HW1 7322   6.418   4.373   0.805
 2141SOL    HW2 7323   6.358   4.518   0.760
 2142SOL     OW 7324   1.298   1.998   2.956
 2142SOL    HW1 7325   1.375   1.978   3.017
 2142SOL    HW2 7326   1.305   1.940   2.874
 2143SOL     OW 7327   3.149   4.954   1.529
 2143SOL    HW1 7328   3.104   5.041   1.507
 2143SOL    HW2 7329   3.114   4.882   1.469
 2144SOL     OW 7330   1.598   6.132   3.348
 2144SOL    HW1 7331   1.614   6.165   3.255
 2144SOL    HW2 7332   1.677   6.079   3.379
 2145SOL     OW 7333   3.318   6.639   4.492
 2145SOL    HW1 7334   3.381   6.567   4.520
 2145SOL    HW2 7335   3.364   6.700   4.428
 2146SOL     OW 7336   2.550   3.288   1.700
 2146SOL    HW1 7337   2.637   3.278   1.749
 2146SOL    HW2 7338   2.482   3.330   1.761
 2147SOL     OW 7339   0.371   1.173   6.588
 2147SOL    HW1 7340   0.347   1.148   6.682
 2147SOL    HW2 7341   0.439   1.246   6.589
 2148SOL     OW 7342   5.124   2.783   4.176
 2148SOL    HW1 7343   5.040   2.783   4.231
 2148SOL    HW2 7344   5.102   2.763   4.081
 2149SOL     OW 7345   3.794   0.975   1.140
 2149SOL    HW1 7346   3.795   0.950   1.237
 2149SOL    HW2 7347   3.887   0.977   1.105
 2150SOL     OW 7348   2.135   2.620   2.355
 2150SOL    HW1 7349   2.210   2.662   2.304
 2150SOL    HW2 7350   2.168   2.595   2.447
 2151SOL     OW 7351   2.045   1.434   4.136
 2151SOL    HW1 7352   2.051   1.516   4.080
 2151SOL    HW2 7353   2.018   1.459   4.229
 2152SOL     OW 7354   3.888   6.278   1.127
 2152SOL    HW1 7355   3.935   6.191   1.143
 2152SOL    HW2 7356   3.792   6.269   1.154
 2153SOL     OW 7357   4.057   0.014   3.088
 2153SOL    HW1 7358   4.000   0.096   3.087
 2153SOL    HW2 7359   4.132   0.024   3.022
 2154SOL     OW 7360   5.025   0.648   4.418
 2154SOL    HW1 7361   4.926   0.661   4.426
 2154SOL    HW2 7362   5.045   0.604   4.331
 2155SOL     OW 7363   2.076   5.252   0.445
 2155SOL    HW1 7364   2.033   5.253   0.354
 2155SOL    HW2 7365   2.023   5.195   0.507
 2156SOL     OW 7366   2.566   0.466   2.912
 2156SOL    HW1 7367   2.513   0.467   2.996
 2156SOL    HW2 7368   2.532   0.394   2.852
 2157SOL     OW 7369   6.089   0.641   3.186
 2157SOL    HW1 7370   6.120   0.620   3.093
 2157SOL    HW2 7371   6.108   0.563   3.246
 2158SOL     OW 7372   3.817   6.596   0.980
 2158SOL    HW1 7373   3.852   6.510   0.943
 2158SOL    HW2 7374   3.880   6.670   0.958
 2159SOL     OW 7375   2.391   6.111   5.628
 2159SOL    HW1 7376   2.413   6.122   5.531
 2159SOL    HW2 7377   2.438   6.031   5.664
 2160SOL     OW 7378   4.892   3.503   1.306
 2160SOL    HW1 7379   4.951   3.439   1.255
 2160SOL    HW2 7380   4.802   3.507   1.263
 2161SOL     OW 7381   5.217   3.258   3.986
 2161SOL    HW1 7382   5.261   3.329   3.931
 2161SOL    HW2 7383   5.284   3.218   4.049
 2162SOL     OW 7384   2.963   0.746   0.104
 2162SOL    HW1 7385   2.991   0.746   0.008
 2162SOL    HW2 7386   3.029   0.694   0.158
 2163SOL     OW 7387   0.302   4.969   6.193
 2163SOL    HW1 7388   0.326   4.927   6.106
 2163SOL    HW2 7389   0.232   5.038   6.179
 2164SOL     OW 7390   1.911   2.257   0.239
 2164SOL    HW1 7391   1.820   2.268   0.198
 2164SOL    HW2 7392   1.970   2.332   0.210
 2165SOL     OW 7393   1.228   1.495   2.810
 2165SOL    HW1 7394   1.236   1.431   2.886
 2165SOL    HW2 7395   1.204   1.444   2.727
 2166SOL     OW 7396   1.817   1.779   5.231
 2166SOL    HW1 7397   1.872   1.793   5.149
 2166SOL    HW2 7398   1.812   1.864   5.284
 2167SOL     OW 7399   1.544   0.924   3.768
 2167SOL    HW1 7400   1.525   0.836   3.725
 2167SOL    HW2 7401   1.502   0.998   3.715
 2168SOL     OW 7402   0.532   2.184   3.600
 2168SOL    HW1 7403   0.603   2.192   3.671
 2168SOL    HW2 7404   0.491   2.093   3.603
 2169SOL     OW 7405   5.721   2.224   5.853
 2169SOL    HW1 7406   5.771   2.204   5.769
 2169SOL    HW2 7407   5.668   2.144   5.880
 2170SOL     OW 7408   5.608   4.977   5.831
 2170SOL    HW1 7409   5.639   4.907   5.896
 2170SOL    HW2 7410   5.685   5.037   5.809
 2171SOL     OW 7411   6.502   3.070   1.644
 2171SOL    HW1 7412   6.462   3.137   1.581
 2171SOL    HW2 7413   6.569   3.116   1.703
 2172SOL     OW 7414   3.107   1.598   0.308
 2172SOL    HW1 7415   3.054   1.514   0.320
 2172SOL    HW2 7416   3.067   1.653   0.235
 2173SOL     OW 7417   4.080   0.137   5.271
 2173SOL    HW1 7418   4.070   0.105   5.177
 2173SOL    HW2 7419   3.997   0.185   5.299
 2174SOL     OW 7420   5.806   5.170   5.782
 2174SOL    HW1 7421   5.771   5.175   5.688
 2174SOL    HW2 7422   5.892   5.119   5.784
 2175SOL     OW 7423   3.295   1.808   3.535
 2175SOL    HW1 7424   3.236   1.785   3.458
 2175SOL    HW2 7425   3.248   1.872   3.596
 2176SOL     OW 7426   0.683   3.084   6.923
 2176SOL    HW1 7427   0.686   3.005   6.863
 2176SOL    HW2 7428   0.739   3.067   7.004
 2177SOL     OW 7429   6.840   0.644   3.400
 2177SOL    HW1 7430   6.875   0.658   3.308
 2177SOL    HW2 7431   6.892   0.700   3.465
 2178SOL     OW 7432   1.611   4.041   0.180
 2178SOL    HW1 7433   1.527   4.032   0.233
 2178SOL    HW2 7434   1.593   4.017   0.084
 2179SOL     OW 7435   1.524   5.615   4.778
 2179SOL    HW1 7436   1.483   5.539   4.729
 2179SOL    HW2 7437   1.576   5.672   4.714
 2180SOL     OW 7438   2.725   3.614   1.692
 2180SOL    HW1 7439   2.632   3.639   1.719
 2180SOL    HW2 7440   2.722   3.539   1.626
 2181SOL     OW 7441   5.596   4.005   5.686
 2181SOL    HW1 7442   5.686   3.968   5.711
 2181SOL    HW2 7443   5.559   4.058   5.761
 2182SOL     OW 7444   6.585   3.012   4.692
 2182SOL    HW1 7445   6.625   3.070   4.620
 2182SOL    HW2 7446   6.497   2.977   4.661
 2183SOL     OW 7447   3.225   3.556   6.552
 2183SOL    HW1 7448   3.298   3.599   6.499
 2183SOL    HW2 7449   3.164   3.507   6.490
 2184SOL     OW 7450   3.858   1.410   5.209
 2184SOL    HW1 7451   3.813   1.486   5.163
 2184SOL    HW2 7452   3.826   1.404   5.304
 2185SOL     OW 7453   1.536   2.072   0.575
 2185SOL    HW1 7454   1.596   2.098   0.651
 2185SOL    HW2 7455   1.568   2.116   0.491
 2186SOL     OW 7456   6.820   4.680   2.207
 2186SOL    HW1 7457   6.816   4.588   2.167
 2186SOL    HW2 7458   6.771   4.681   2.294
 2187SOL     OW 7459   0.495   2.075   2.001
 2187SOL    HW1 7460   0.514   1.983   2.033
 2187SOL    HW2 7461   0.423   2.116   2.057
 2188SOL     OW 7462   5.519   5.845   4.043
 2188SOL    HW1 7463   5.589   5.826   4.111
 2188SOL    HW2 7464   5.550   5.918   3.982
 2189SOL     OW 7465   1.888   6.607   6.900
 2189SOL    HW1 7466   1.969   6.664   6.904
 2189SOL    HW2 7467   1.880   6.565   6.809
 2190SOL     OW 7468   0.457   3.154   2.156
 2190SOL    HW1 7469   0.395   3.165   2.078
 2190SOL    HW2 7470   0.454   3.060   2.188
 2191SOL     OW 7471   3.207   1.626   6.500
 2191SOL    HW1 7472   3.188   1.598   6.406
 2191SOL    HW2 7473   3.261   1.711   6.499
 2192SOL     OW 7474   3.711   6.955   3.976
 2192SOL    HW1 7475   3.663   6.876   3.939
 2192SOL    HW2 7476   3.763   7.000   3.903
 2193SOL     OW 7477   0.574   5.806   6.032
 2193SOL    HW1 7478   0.657   5.771   6.076
 2193SOL    HW2 7479   0.592   5.896   5.994
 2194SOL     OW 7480   2.447   4.657   6.761
 2194SOL    HW1 7481   2.516   4.650   6.689
 2194SOL    HW2 7482   2.487   4.629   6.848
 2195SOL     OW 7483   7.018   6.754   3.344
 2195SOL    HW1 7484   0.041   6.696   3.412
 2195SOL    HW2 7485   6.919   6.746   3.353
 2196SOL     OW 7486   3.406   0.038   5.544
 2196SOL    HW1 7487   3.329   0.011   5.487
 2196SOL    HW2 7488   3.413   0.138   5.547
 2197SOL     OW 7489   4.124   3.856   1.787
 2197SOL    HW1 7490   4.049   3.827   1.846
 2197SOL    HW2 7491   4.127   3.955   1.784
 2198SOL     OW 7492   6.604   1.610   0.132
 2198SOL    HW1 7493   6.616   1.526   0.185
 2198SOL    HW2 7494   6.693   1.653   0.116
 2199SOL     OW 7495   5.217   1.013   1.947
 2199SOL    HW1 7496   5.161   1.095   1.935
 2199SOL    HW2 7497   5.173   0.951   2.010
 2200SOL     OW 7498   3.949   0.247   4.498
 2200SOL    HW1 7499   4.017   0.177   4.474
 2200SOL    HW2 7500   3.873   0.242   4.433
 2201SOL     OW 7501   6.253   2.753   2.422
 2201SOL    HW1 7502   6.289   2.799   2.503
 2201SOL    HW2 7503   6.234   2.658   2.444
 2202SOL     OW 7504   3.750   4.898   3.670
 2202SOL    HW1 7505   3.732   4.989   3.634
 2202SOL    HW2 7506   3.839   4.866   3.637
 2203SOL     OW 7507   2.010   2.731   1.478
 2203SOL    HW1 7508   2.094   2.703   1.524
 2203SOL    HW2 7509   1.992   2.669   1.401
 2204SOL     OW 7510   3.726   1.805   7.021
 2204SOL    HW1 7511   3.654   1.786   0.065
 2204SOL    HW2 7512   3.815   1.800   0.043
 2205SOL     OW 7513   2.029   6.896   6.238
 2205SOL    HW1 7514   2.120   6.939   6.238
 2205SOL    HW2 7515   2.015   6.847   6.324
 2206SOL     OW 7516   2.598   4.237   5.450
 2206SOL    HW1 7517   2.541   4.297   5.394
 2206SOL    HW2 7518   2.563   4.143   5.446
 2207SOL     OW 7519   2.223   3.815   6.318
 2207SOL    HW1 7520   2.188   3.900   6.358
 2207SOL    HW2 7521   2.310   3.792   6.362
 2208SOL     OW 7522   2.118   5.122   2.971
 2208SOL    HW1 7523   2.209   5.086   2.991
 2208SOL    HW2 7524   2.090   5.091   2.880
 2209SOL     OW 7525   1.627   5.410   5.932
 2209SOL    HW1 7526   1.699   5.342   5.916
 2209SOL    HW2 7527   1.565   5.377   6.003
 2210SOL     OW 7528   0.044   4.741   3.596
 2210SOL    HW1 7529   6.990   4.686   3.630
 2210SOL    HW2 7530   0.075   4.704   3.508
 2211SOL     OW 7531   5.223   0.677   6.553
 2211SOL    HW1 7532   5.311   0.707   6.517
 2211SOL    HW2 7533   5.174   0.625   6.483
 2212SOL     OW 7534   1.777   5.793   0.522
 2212SOL    HW1 7535   1.783   5.847   0.438
 2212SOL    HW2 7536   1.782   5.695   0.500
 2213SOL     OW 7537   4.202   2.649   5.457
 2213SOL    HW1 7538   4.163   2.578   5.399
 2213SOL    HW2 7539   4.196   2.737   5.409
 2214SOL     OW 7540   5.000   2.078   5.704
 2214SOL    HW1 7541   4.918   2.115   5.662
 2214SOL    HW2 7542   5.074   2.145   5.698
 2215SOL     OW 7543   6.725   1.763   6.499
 2215SOL    HW1 7544   6.636   1.775   6.543
 2215SOL    HW2 7545   6.798   1.782   6.565
 2216SOL     OW 7546   2.034   0.892   6.635
 2216SOL    HW1 7547   2.115   0.856   6.590
 2216SOL    HW2 7548   1.955   0.883   6.574
 2217SOL     OW 7549   3.312   0.304   1.367
 2217SOL    HW1 7550   3.304   0.395   1.408
 2217SOL    HW2 7551   3.352   0.311   1.276
 2218SOL     OW 7552   1.030   6.651   0.912
 2218SOL    HW1 7553   1.109   6.595   0.937
 2218SOL    HW2 7554   1.060   6.722   0.847
 2219SOL     OW 7555   0.507   3.724   3.384
 2219SOL    HW1 7556   0.445   3.646   3.374
 2219SOL    HW2 7557   0.581   3.716   3.318
 2220SOL     OW 7558   0.299   0.974   4.381
 2220SOL    HW1 7559   0.264   1.033   4.454
 2220SOL    HW2 7560   0.344   1.030   4.312
 2221SOL     OW 7561   6.374   1.137   6.200
 2221SOL    HW1 7562   6.472   1.161   6.201
 2221SOL    HW2 7563   6.330   1.175   6.281
 2222SOL     OW 7564   3.970   0.578   0.993
 2222SOL    HW1 7565   3.976   0.491   0.944
 2222SOL    HW2 7566   3.969   0.560   1.092
 2223SOL     OW 7567   5.915   6.293   3.979
 2223SOL    HW1 7568   5.941   6.282   4.075
 2223SOL    HW2 7569   5.995   6.321   3.926
 2224SOL     OW 7570   2.150   4.780   2.218
 2224SOL    HW1 7571   2.155   4.873   2.254
 2224SOL    HW2 7572   2.055   4.760   2.190
 2225SOL     OW 7573   6.554   5.888   3.127
 2225SOL    HW1 7574   6.461   5.908   3.098
 2225SOL    HW2 7575   6.551   5.823   3.203
 2226SOL     OW 7576   4.245   4.035   0.480
 2226SOL    HW1 7577   4.270   3.940   0.460
 2226SOL    HW2 7578   4.322   4.081   0.526
 2227SOL     OW 7579   5.660   3.639   0.294
 2227SOL    HW1 7580   5.584   3.693   0.330
 2227SOL    HW2 7581   5.744   3.662   0.343
 2228SOL     OW 7582   2.679   5.647   1.028
 2228SOL    HW1 7583   2.766   5.609   1.062
 2228SOL    HW2 7584   2.617   5.572   1.004
 2229SOL     OW 7585   4.305   1.376   4.494
 2229SOL    HW1 7586   4.314   1.276   4.490
 2229SOL    HW2 7587   4.212   1.399   4.524
 2230SOL     OW 7588   0.376   5.809   5.438
 2230SOL    HW1 7589   0.335   5.779   5.524
 2230SOL    HW2 7590   0.388   5.908   5.439
 2231SOL     OW 7591   2.056   0.630   1.414
 2231SOL    HW1 7592   2.127   0.576   1.370
 2231SOL    HW2 7593   2.069   0.727   1.392
 2232SOL     OW 7594   1.357   1.855   3.702
 2232SOL    HW1 7595   1.388   1.768   3.740
 2232SOL    HW2 7596   1.275   1.840   3.647
 2233SOL     OW 7597   1.806   4.865   1.358
 2233SOL    HW1 7598   1.726   4.872   1.298
 2233SOL    HW2 7599   1.854   4.779   1.340
 2234SOL     OW 7600   4.775   1.921   1.558
 2234SOL    HW1 7601   4.842   1.985   1.597
 2234SOL    HW2 7602   4.821   1.835   1.534
 2235SOL     OW 7603   2.201   6.704   0.918
 2235SOL    HW1 7604   2.226   6.701   0.821
 2235SOL    HW2 7605   2.129   6.637   0.936
 2236SOL     OW 7606   0.546   4.331   0.103
 2236SOL    HW1 7607   0.564   4.413   0.157
 2236SOL    HW2 7608   0.632   4.281   0.089
 2237SOL     OW 7609   5.518   4.223   4.389
 2237SOL    HW1 7610   5.494   4.129   4.367
 2237SOL    HW2 7611   5.435   4.275   4.408
 2238SOL     OW 7612   6.305   5.642   2.079
 2238SOL    HW1 7613   6.385   5.615   2.026
 2238SOL    HW2 7614   6.298   5.584   2.161
 2239SOL     OW 7615   3.900   5.556   3.950
 2239SOL    HW1 7616   3.815   5.574   4.000
 2239SOL    HW2 7617   3.976   5.555   4.015
 2240SOL     OW 7618   5.569   6.042   3.783
 2240SOL    HW1 7619   5.495   6.106   3.806
 2240SOL    HW2 7620   5.651   6.094   3.757
 2241SOL     OW 7621   0.442   6.910   2.415
 2241SOL    HW1 7622   0.378   6.835   2.433
 2241SOL    HW2 7623   0.407   6.995   2.454
 2242SOL     OW 7624   5.049   2.656   2.557
 2242SOL    HW1 7625   5.000   2.577   2.594
 2242SOL    HW2 7626   5.086   2.711   2.632
 2243SOL     OW 7627   2.706   6.282   5.276
 2243SOL    HW1 7628   2.739   6.201   5.324
 2243SOL    HW2 7629   2.613   6.265   5.242
 2244SOL     OW 7630   3.661   0.718   3.008
 2244SOL    HW1 7631   3.632   0.656   3.081
 2244SOL    HW2 7632   3.750   0.690   2.974
 2245SOL     OW 7633   0.566   2.349   1.738
 2245SOL    HW1 7634   0.479   2.359   1.786
 2245SOL    HW2 7635   0.549   2.313   1.646
 2246SOL     OW 7636   1.151   1.391   4.532
 2246SOL    HW1 7637   1.177   1.444   4.612
 2246SOL    HW2 7638   1.185   1.437   4.449
 2247SOL     OW 7639   2.541   2.524   6.210
 2247SOL    HW1 7640   2.635   2.545   6.237
 2247SOL    HW2 7641   2.488   2.500   6.291
 2248SOL     OW 7642   4.531   4.010   6.326
 2248SOL    HW1 7643   4.523   3.914   6.302
 2248SOL    HW2 7644   4.447   4.041   6.371
 2249SOL     OW 7645   6.145   6.268   2.712
 2249SOL    HW1 7646   6.121   6.216   2.630
 2249SOL    HW2 7647   6.066   6.274   2.773
 2250SOL     OW 7648   5.295   3.958   0.861
 2250SOL    HW1 7649   5.313   3.884   0.795
 2250SOL    HW2 7650   5.258   3.919   0.945
 2251SOL     OW 7651   5.283   1.317   6.875
 2251SOL    HW1 7652   5.232   1.231   6.868
 2251SOL    HW2 7653   5.240   1.376   6.942
 2252SOL     OW 7654   6.971   2.376   4.150
 2252SOL    HW1 7655   6.874   2.386   4.130
 2252SOL    HW2 7656   6.983   2.307   4.222
 2253SOL     OW 7657   0.944   3.041   0.042
 2253SOL    HW1 7658   0.923   3.039   0.140
 2253SOL    HW2 7659   0.974   3.133   0.017
 2254SOL     OW 7660   2.181   2.762   5.578
 2254SOL    HW1 7661   2.159   2.859   5.566
 2254SOL    HW2 7662   2.278   2.746   5.560
 2255SOL     OW 7663   5.620   2.216   0.620
 2255SOL    HW1 7664   5.535   2.236   0.669
 2255SOL    HW2 7665   5.610   2.131   0.568
 2256SOL     OW 7666   3.754   6.218   1.495
 2256SOL    HW1 7667   3.816   6.294   1.476
 2256SOL    HW2 7668   3.682   6.248   1.558
 2257SOL     OW 7669   0.464   2.957   4.577
 2257SOL    HW1 7670   0.464   2.964   4.477
 2257SOL    HW2 7671   0.512   2.874   4.604
 2258SOL     OW 7672   0.959   5.413   5.315
 2258SOL    HW1 7673   1.022   5.376   5.384
 2258SOL    HW2 7674   0.992   5.389   5.224
 2259SOL     OW 7675   4.708   3.494   6.791
 2259SOL    HW1 7676   4.796   3.506   6.837
 2259SOL    HW2 7677   4.696   3.397   6.767
 2260SOL     OW 7678   5.508   4.376   2.891
 2260SOL    HW1 7679   5.518   4.279   2.870
 2260SOL    HW2 7680   5.415   4.393   2.924
 2261SOL     OW 7681   6.358   6.780   0.999
 2261SOL    HW1 7682   6.448   6.782   1.042
 2261SOL    HW2 7683   6.358   6.713   0.925
 2262SOL     OW 7684   5.745   2.914   2.522
 2262SOL    HW1 7685   5.747   3.009   2.552
 2262SOL    HW2 7686   5.691   2.907   2.438
 2263SOL     OW 7687   2.985   5.920   5.981
 2263SOL    HW1 7688   2.887   5.936   5.968
 2263SOL    HW2 7689   3.037   5.989   5.930
 2264SOL     OW 7690   3.242   3.550   2.084
 2264SOL    HW1 7691   3.224   3.582   2.177
 2264SOL    HW2 7692   3.318   3.602   2.046
 2265SOL     OW 7693   0.286   0.635   4.103
 2265SOL    HW1 7694   0.187   0.643   4.092
 2265SOL    HW2 7695   0.306   0.577   4.182
 2266SOL     OW 7696   6.029   1.414   1.259
 2266SOL    HW1 7697   6.047   1.426   1.357
 2266SOL    HW2 7698   6.087   1.475   1.207
 2267SOL     OW 7699   5.334   2.375   5.325
 2267SOL    HW1 7700   5.333   2.289   5.377
 2267SOL    HW2 7701   5.270   2.368   5.248
 2268SOL     OW 7702   6.628   4.486   6.561
 2268SOL    HW1 7703   6.614   4.389   6.581
 2268SOL    HW2 7704   6.716   4.499   6.516
 2269SOL     OW 7705   5.980   5.759   5.247
 2269SOL    HW1 7706   6.001   5.699   5.325
 2269SOL    HW2 7707   5.975   5.854   5.278
 2270SOL     OW 7708   3.779   3.103   6.771
 2270SOL    HW1 7709   3.837   3.022   6.776
 2270SOL    HW2 7710   3.777   3.147   6.861
 2271SOL     OW 7711   6.180   4.360   0.693
 2271SOL    HW1 7712   6.178   4.414   0.610
 2271SOL    HW2 7713   6.242   4.282   0.681
 2272SOL     OW 7714   5.913   2.173   5.064
 2272SOL    HW1 7715   5.930   2.105   4.992
 2272SOL    HW2 7716   5.929   2.132   5.153
 2273SOL     OW 7717   1.761   1.261   1.639
 2273SOL    HW1 7718   1.861   1.257   1.639
 2273SOL    HW2 7719   1.724   1.171   1.662
 2274SOL     OW 7720   1.053   2.638   6.142
 2274SOL    HW1 7721   0.957   2.641   6.168
 2274SOL    HW2 7722   1.067   2.695   6.061
 2275SOL     OW 7723   5.335   0.619   4.370
 2275SOL    HW1 7724   5.286   0.667   4.443
 2275SOL    HW2 7725   5.283   0.626   4.285
 2276SOL     OW 7726   3.093   4.728   1.372
 2276SOL    HW1 7727   3.004   4.725   1.325
 2276SOL    HW2 7728   3.141   4.641   1.356
 2277SOL     OW 7729   3.311   3.912   4.666
 2277SOL    HW1 7730   3.362   3.978   4.611
 2277SOL    HW2 7731   3.216   3.941   4.674
 2278SOL     OW 7732   5.317   6.646   4.520
 2278SOL    HW1 7733   5.222   6.626   4.543
 2278SOL    HW2 7734   5.346   6.730   4.567
 2279SOL     OW 7735   5.071   5.488   4.719
 2279SOL    HW1 7736   4.995   5.487   4.654
 2279SOL    HW2 7737   5.156   5.467   4.672
 2280SOL     OW 7738   0.047   6.461   4.760
 2280SOL    HW1 7739   6.973   6.476   4.738
 2280SOL    HW2 7740   0.078   6.377   4.716
 2281SOL     OW 7741   3.555   1.043   1.677
 2281SOL    HW1 7742   3.629   1.002   1.731
 2281SOL    HW2 7743   3.509   1.112   1.732
 2282SOL     OW 7744   5.155   0.553   4.643
 2282SOL    HW1 7745   5.111   0.575   4.556
 2282SOL    HW2 7746   5.106   0.478   4.687
 2283SOL     OW 7747   6.849   4.524   1.180
 2283SOL    HW1 7748   6.907   4.568   1.249
 2283SOL    HW2 7749   6.896   4.443   1.144
 2284SOL     OW 7750   2.155   1.592   0.150
 2284SOL    HW1 7751   2.178   1.662   0.217
 2284SOL    HW2 7752   2.235   1.535   0.134
 2285SOL     OW 7753   1.746   3.026   0.362
 2285SOL    HW1 7754   1.754   3.025   0.461
 2285SOL    HW2 7755   1.660   3.069   0.335
 2286SOL     OW 7756   6.899   6.712   4.590
 2286SOL    HW1 7757   6.846   6.738   4.509
 2286SOL    HW2 7758   6.874   6.619   4.618
 2287SOL     OW 7759   2.520   2.890   1.627
 2287SOL    HW1 7760   2.611   2.847   1.631
 2287SOL    HW2 7761   2.530   2.989   1.625
 2288SOL     OW 7762   6.825   4.773   4.347
 2288SOL    HW1 7763   6.751   4.817   4.398
 2288SOL    HW2 7764   6.912   4.816   4.371
 2289SOL     OW 7765   6.415   4.061   2.651
 2289SOL    HW1 7766   6.415   4.159   2.670
 2289SOL    HW2 7767   6.337   4.038   2.593
 2290SOL     OW 7768   2.025   3.504   2.181
 2290SOL    HW1 7769   2.109   3.497   2.126
 2290SOL    HW2 7770   1.946   3.500   2.121
 2291SOL     OW 7771   2.418   2.036   0.423
 2291SOL    HW1 7772   2.502   2.021   0.370
 2291SOL    HW2 7773   2.389   1.949   0.464
 2292SOL     OW 7774   5.557   2.301   3.106
 2292SOL    HW1 7775   5.538   2.222   3.164
 2292SOL    HW2 7776   5.477   2.322   3.050
 2293SOL     OW 7777   7.005   6.825   0.873
 2293SOL    HW1 7778   6.956   6.909   0.896
 2293SOL    HW2 7779   0.072   6.848   0.835
 2294SOL     OW 7780   3.400   1.323   5.985
 2294SOL    HW1 7781   3.454   1.274   5.917
 2294SOL    HW2 7782   3.450   1.327   6.071
 2295SOL     OW 7783   0.628   1.752   3.047
 2295SOL    HW1 7784   0.614   1.839   2.999
 2295SOL    HW2 7785   0.726   1.733   3.052
 2296SOL     OW 7786   3.075   5.133   3.080
 2296SOL    HW1 7787   3.130   5.053   3.105
 2296SOL    HW2 7788   2.982   5.104   3.058
 2297SOL     OW 7789   4.942   4.776   5.745
 2297SOL    HW1 7790   5.031   4.772   5.698
 2297SOL    HW2 7791   4.952   4.828   5.829
 2298SOL     OW 7792   4.095   3.728   2.959
 2298SOL    HW1 7793   4.136   3.793   2.895
 2298SOL    HW2 7794   4.055   3.652   2.907
 2299SOL     OW 7795   5.058   4.374   5.159
 2299SOL    HW1 7796   4.987   4.357   5.227
 2299SOL    HW2 7797   5.117   4.449   5.189
 2300SOL     OW 7798   2.707   6.517   3.662
 2300SOL    HW1 7799   2.616   6.492   3.628
 2300SOL    HW2 7800   2.774   6.451   3.629
 2301SOL     OW 7801   3.453   3.052   3.678
 2301SOL    HW1 7802   3.515   3.093   3.611
 2301SOL    HW2 7803   3.491   3.063   3.769
 2302SOL     OW 7804   3.646   0.515   1.215
 2302SOL    HW1 7805   3.717   0.534   1.148
 2302SOL    HW2 7806   3.613   0.602   1.255
 2303SOL     OW 7807   2.458   3.357   0.872
 2303SOL    HW1 7808   2.418   3.267   0.856
 2303SOL    HW2 7809   2.520   3.353   0.950
 2304SOL     OW 7810   5.927   6.112   4.452
 2304SOL    HW1 7811   5.848   6.148   4.501
 2304SOL    HW2 7812   5.955   6.026   4.493
 2305SOL     OW 7813   2.177   0.640   3.070
 2305SOL    HW1 7814   2.169   0.688   3.158
 2305SOL    HW2 7815   2.254   0.576   3.074
 2306SOL     OW 7816   1.570   5.174   1.474
 2306SOL    HW1 7817   1.526   5.117   1.543
 2306SOL    HW2 7818   1.500   5.214   1.414
 2307SOL     OW 7819   0.244   2.969   5.600
 2307SOL    HW1 7820   0.307   2.934   5.531
 2307SOL    HW2 7821   0.249   2.913   5.683
 2308SOL     OW 7822   2.699   4.538   1.263
 2308SOL    HW1 7823   2.612   4.524   1.310
 2308SOL    HW2 7824   2.764   4.467   1.291
 2309SOL     OW 7825   1.834   0.833   5.069
 2309SOL    HW1 7826   1.844   0.734   5.061
 2309SOL    HW2 7827   1.887   0.865   5.147
 2310SOL     OW 7828   5.788   6.050   2.173
 2310SOL    HW1 7829   5.871   5.995   2.172
 2310SOL    HW2 7830   5.718   6.005   2.117
 2311SOL     OW 7831   2.567   6.377   0.436
 2311SOL    HW1 7832   2.564   6.280   0.461
 2311SOL    HW2 7833   2.644   6.420   0.483
 2312SOL     OW 7834   4.836   5.618   3.354
 2312SOL    HW1 7835   4.780   5.565   3.417
 2312SOL    HW2 7836   4.855   5.708   3.394
 2313SOL     OW 7837   4.659   5.330   2.104
 2313SOL    HW1 7838   4.560   5.332   2.096
 2313SOL    HW2 7839   4.688   5.392   2.177
 2314SOL     OW 7840   4.353   6.217   2.553
 2314SOL    HW1 7841   4.375   6.220   2.455
 2314SOL    HW2 7842   4.424   6.265   2.604
 2315SOL     OW 7843   4.969   2.943   5.880
 2315SOL    HW1 7844   5.058   2.941   5.835
 2315SOL    HW2 7845   4.972   2.888   5.963
 2316SOL     OW 7846   4.597   2.067   3.859
 2316SOL    HW1 7847   4.627   2.033   3.770
 2316SOL    HW2 7848   4.595   1.991   3.924
 2317SOL     OW 7849   0.180   5.522   3.163
 2317SOL    HW1 7850   0.161   5.619   3.177
 2317SOL    HW2 7851   0.150   5.495   3.071
 2318SOL     OW 7852   0.668   2.849   3.623
 2318SOL    HW1 7853   0.604   2.793   3.571
 2318SOL    HW2 7854   0.617   2.908   3.685
 2319SOL     OW 7855   1.272   4.788   4.630
 2319SOL    HW1 7856   1.267   4.690   4.612
 2319SOL    HW2 7857   1.272   4.838   4.543
 2320SOL     OW 7858   1.131   2.444   4.061
 2320SOL    HW1 7859   1.188   2.373   4.020
 2320SOL    HW2 7860   1.045   2.404   4.093
 2321SOL     OW 7861   3.120   1.186   5.374
 2321SOL    HW1 7862   3.124   1.150   5.281
 2321SOL    HW2 7863   3.146   1.114   5.439
 2322SOL     OW 7864   2.491   1.619   5.154
 2322SOL    HW1 7865   2.554   1.661   5.088
 2322SOL    HW2 7866   2.408   1.675   5.161
 2323SOL     OW 7867   3.020   4.860   2.286
 2323SOL    HW1 7868   3.089   4.788   2.275
 2323SOL    HW2 7869   2.969   4.843   2.371
 2324SOL     OW 7870   0.137   6.526   3.036
 2324SOL    HW1 7871   0.052   6.473   3.034
 2324SOL    HW2 7872   0.213   6.466   3.013
 2325SOL     OW 7873   0.504   4.555   1.280
 2325SOL    HW1 7874   0.444   4.529   1.356
 2325SOL    HW2 7875   0.467   4.636   1.235
 2326SOL     OW 7876   3.217   3.893   6.119
 2326SOL    HW1 7877   3.297   3.838   6.146
 2326SOL    HW2 7878   3.246   3.987   6.102
 2327SOL     OW 7879   5.546   2.823   4.613
 2327SOL    HW1 7880   5.463   2.778   4.644
 2327SOL    HW2 7881   5.578   2.887   4.683
 2328SOL     OW 7882   4.498   1.670   3.393
 2328SOL    HW1 7883   4.543   1.759   3.393
 2328SOL    HW2 7884   4.545   1.609   3.458
 2329SOL     OW 7885   1.653   5.351   4.783
 2329SOL    HW1 7886   1.668   5.276   4.848
 2329SOL    HW2 7887   1.605   5.316   4.703
 2330SOL     OW 7888   6.998   4.115   2.621
 2330SOL    HW1 7889   6.902   4.097   2.599
 2330SOL    HW2 7890   0.030   4.114   2.537
 2331SOL     OW 7891   6.447   5.057   6.525
 2331SOL    HW1 7892   6.360   5.018   6.493
 2331SOL    HW2 7893   6.484   5.000   6.598
 2332SOL     OW 7894   4.448   1.847   5.414
 2332SOL    HW1 7895   4.400   1.917   5.468
 2332SOL    HW2 7896   4.503   1.790   5.476
 2333SOL     OW 7897   6.339   4.696   2.722
 2333SOL    HW1 7898   6.353   4.745   2.636
 2333SOL    HW2 7899   6.421   4.642   2.743
 2334SOL     OW 7900   2.793   0.275   0.447
 2334SOL    HW1 7901   2.709   0.311   0.488
 2334SOL    HW2 7902   2.771   0.197   0.388
 2335SOL     OW 7903   6.008   0.906   3.077
 2335SOL    HW1 7904   6.044   0.821   3.115
 2335SOL    HW2 7905   6.070   0.940   3.007
 2336SOL     OW 7906   4.687   1.957   5.574
 2336SOL    HW1 7907   4.760   1.889   5.569
 2336SOL    HW2 7908   4.638   1.947   5.661
 2337SOL     OW 7909   5.038   0.708   3.289
 2337SOL    HW1 7910   4.981   0.709   3.207
 2337SOL    HW2 7911   5.115   0.645   3.275
 2338SOL     OW 7912   0.844   7.006   6.764
 2338SOL    HW1 7913   0.766   0.045   6.749
 2338SOL    HW2 7914   0.884   0.002   6.854
 2339SOL     OW 7915   3.794   3.805   5.239
 2339SOL    HW1 7916   3.880   3.848   5.211
 2339SOL    HW2 7917   3.727   3.813   5.164
 2340SOL     OW 7918   4.600   6.852   5.645
 2340SOL    HW1 7919   4.595   6.944   5.605
 2340SOL    HW2 7920   4.671   6.799   5.600
 2341SOL     OW 7921   4.880   3.838   1.146
 2341SOL    HW1 7922   4.883   3.924   1.095
 2341SOL    HW2 7923   4.962   3.829   1.201
 2342SOL     OW 7924   0.972   5.694   5.602
 2342SOL    HW1 7925   1.057   5.708   5.551
 2342SOL    HW2 7926   0.896   5.738   5.554
 2343SOL     OW 7927   2.021   6.416   1.196
 2343SOL    HW1 7928   2.009   6.426   1.295
 2343SOL    HW2 7929   2.116   6.394   1.176
 2344SOL     OW 7930   2.100   0.924   1.346
 2344SOL    HW1 7931   2.144   0.949   1.433
 2344SOL    HW2 7932   2.023   0.985   1.329
 2345SOL     OW 7933   2.080   6.221   5.538
 2345SOL    HW1 7934   2.035   6.218   5.628
 2345SOL    HW2 7935   2.142   6.143   5.529
 2346SOL     OW 7936   4.778   3.029   5.100
 2346SOL    HW1 7937   4.800   3.126   5.102
 2346SOL    HW2 7938   4.744   3.001   5.190
 2347SOL     OW 7939   2.339   4.103   1.932
 2347SOL    HW1 7940   2.374   4.196   1.938
 2347SOL    HW2 7941   2.252   4.096   1.981
 2348SOL     OW 7942   2.453   6.188   3.523
 2348SOL    HW1 7943   2.425   6.092   3.515
 2348SOL    HW2 7944   2.517   6.210   3.449
 2349SOL     OW 7945   0.734   6.619   0.314
 2349SOL    HW1 7946   0.799   6.584   0.247
 2349SOL    HW2 7947   0.730   6.558   0.393
 2350SOL     OW 7948   4.151   6.975   5.654
 2350SOL    HW1 7949   4.131   6.921   5.735
 2350SOL    HW2 7950   4.237   0.003   5.667
 2351SOL     OW 7951   3.205   5.449   3.586
 2351SOL    HW1 7952   3.195   5.395   3.670
 2351SOL    HW2 7953   3.284   5.417   3.535
 2352SOL     OW 7954   0.218   4.475   2.974
 2352SOL    HW1 7955   0.259   4.560   3.007
 2352SOL    HW2 7956   0.232   4.468   2.875
 2353SOL     OW 7957   2.596   4.621   4.538
 2353SOL    HW1 7958   2.541   4.637   4.620
 2353SOL    HW2 7959   2.693   4.625   4.562
 2354SOL     OW 7960   3.763   2.607   6.508
 2354SOL    HW1 7961   3.772   2.572   6.415
 2354SOL    HW2 7962   3.747   2.531   6.571
 2355SOL     OW 7963   0.686   5.344   0.636
 2355SOL    HW1 7964   0.662   5.326   0.731
 2355SOL    HW2 7965   0.603   5.367   0.585
 2356SOL     OW 7966   2.105   3.845   1.351
 2356SOL    HW1 7967   2.069   3.938   1.349
 2356SOL    HW2 7968   2.156   3.831   1.435
 2357SOL     OW 7969   4.487   4.935   3.769
 2357SOL    HW1 7970   4.393   4.903   3.775
 2357SOL    HW2 7971   4.528   4.937   3.860
 2358SOL     OW 7972   3.095   6.502   4.313
 2358SOL    HW1 7973   3.145   6.558   4.379
 2358SOL    HW2 7974   2.997   6.507   4.332
 2359SOL     OW 7975   2.014   0.604   6.463
 2359SOL    HW1 7976   1.971   0.659   6.391
 2359SOL    HW2 7977   1.943   0.568   6.524
 2360SOL     OW 7978   4.595   5.461   6.037
 2360SOL    HW1 7979   4.629   5.529   5.972
 2360SOL    HW2 7980   4.567   5.506   6.122
 2361SOL     OW 7981   2.668   0.313   4.076
 2361SOL    HW1 7982   2.692   0.225   4.118
 2361SOL    HW2 7983   2.752   0.361   4.049
 2362SOL     OW 7984   4.686   6.884   4.933
 2362SOL    HW1 7985   4.637   6.861   4.850
 2362SOL    HW2 7986   4.776   6.922   4.910
 2363SOL     OW 7987   4.596   2.577   4.995
 2363SOL    HW1 7988   4.506   2.581   5.038
 2363SOL    HW2 7989   4.665   2.613   5.057
 2364SOL     OW 7990   6.069   2.112   1.749
 2364SOL    HW1 7991   6.138   2.040   1.745
 2364SOL    HW2 7992   6.098   2.184   1.812
 2365SOL     OW 7993   5.869   3.932   5.819
 2365SOL    HW1 7994   5.945   3.927   5.754
 2365SOL    HW2 7995   5.822   3.843   5.822
 2366SOL     OW 7996   1.090   4.423   5.390
 2366SOL    HW1 7997   1.047   4.428   5.300
 2366SOL    HW2 7998   1.135   4.334   5.400
 2367SOL     OW 7999   1.206   3.356   6.470
 2367SOL    HW1 8000   1.211   3.393   6.377
 2367SOL    HW2 8001   1.128   3.397   6.518
 2368SOL     OW 8002   4.833   1.178   5.246
 2368SOL    HW1 8003   4.790   1.134   5.168
 2368SOL    HW2 8004   4.904   1.240   5.215
 2369SOL     OW 8005   2.271   2.083   3.954
 2369SOL    HW1 8006   2.300   2.018   4.023
 2369SOL    HW2 8007   2.258   2.173   3.996
 2370SOL     OW 8008   4.294   3.762   0.101
 2370SOL    HW1 8009   4.383   3.801   0.124
 2370SOL    HW2 8010   4.283   3.674   0.148
 2371SOL     OW 8011   1.876   5.770   1.941
 2371SOL    HW1 8012   1.882   5.807   1.848
 2371SOL    HW2 8013   1.867   5.845   2.006
 2372SOL     OW 8014   0.779   1.779   0.175
 2372SOL    HW1 8015   0.792   1.835   0.093
 2372SOL    HW2 8016   0.682   1.754   0.183
 2373SOL     OW 8017   6.234   1.131   6.892
 2373SOL    HW1 8018   6.253   1.192   6.969
 2373SOL    HW2 8019   6.159   1.168   6.837
 2374SOL     OW 8020   6.488   5.834   3.592
 2374SOL    HW1 8021   6.572   5.790   3.559
 2374SOL    HW2 8022   6.492   5.932   3.572
 2375SOL     OW 8023   0.774   0.318   4.716
 2375SOL    HW1 8024   0.702   0.274   4.770
 2375SOL    HW2 8025   0.844   0.355   4.777
 2376SOL     OW 8026   6.070   2.993   3.223
 2376SOL    HW1 8027   6.066   2.908   3.170
 2376SOL    HW2 8028   5.998   2.991   3.292
 2377SOL     OW 8029   3.530   3.522   4.545
 2377SOL    HW1 8030   3.539   3.558   4.452
 2377SOL    HW2 8031   3.591   3.444   4.557
 2378SOL     OW 8032   5.696   1.546   0.031
 2378SOL    HW1 8033   5.632   1.622   0.040
 2378SOL    HW2 8034   5.646   1.460   0.025
 2379SOL     OW 8035   6.757   3.230   6.929
 2379SOL    HW1 8036   6.672   3.180   6.944
 2379SOL    HW2 8037   6.741   3.328   6.941
 2380SOL     OW 8038   6.525   0.647   5.443
 2380SOL    HW1 8039   6.589   0.628   5.368
 2380SOL    HW2 8040   6.431   0.640   5.410
 2381SOL     OW 8041   1.302   4.388   5.052
 2381SOL    HW1 8042   1.322   4.463   4.989
 2381SOL    HW2 8043   1.373   4.383   5.122
 2382SOL     OW 8044   1.958   5.487   2.881
 2382SOL    HW1 8045   1.951   5.587   2.872
 2382SOL    HW2 8046   1.953   5.461   2.977
 2383SOL     OW 8047   5.508   6.536   6.175
 2383SOL    HW1 8048   5.568   6.559   6.100
 2383SOL    HW2 8049   5.421   6.584   6.165
 2384SOL     OW 8050   1.073   2.047   1.606
 2384SOL    HW1 8051   1.078   2.084   1.514
 2384SOL    HW2 8052   1.142   1.975   1.618
 2385SOL     OW 8053   0.546   0.282   0.937
 2385SOL    HW1 8054   0.630   0.316   0.895
 2385SOL    HW2 8055   0.544   0.309   1.033
 2386SOL     OW 8056   3.259   5.471   4.503
 2386SOL    HW1 8057   3.317   5.446   4.426
 2386SOL    HW2 8058   3.189   5.537   4.474
 2387SOL     OW 8059   6.635   2.941   4.090
 2387SOL    HW1 8060   6.597   2.977   4.004
 2387SOL    HW2 8061   6.578   2.867   4.123
 2388SOL     OW 8062   1.031   1.527   5.161
 2388SOL    HW1 8063   0.934   1.504   5.171
 2388SOL    HW2 8064   1.043   1.626   5.169
 2389SOL     OW 8065   4.578   4.628   3.834
 2389SOL    HW1 8066   4.623   4.712   3.865
 2389SOL    HW2 8067   4.561   4.568   3.913
 2390SOL     OW 8068   3.858   3.589   5.004
 2390SOL    HW1 8069   3.821   3.638   4.925
 2390SOL    HW2 8070   3.931   3.642   5.046
 2391SOL     OW 8071   3.657   4.347   6.084
 2391SOL    HW1 8072   3.668   4.316   6.178
 2391SOL    HW2 8073   3.560   4.352   6.061
 2392SOL     OW 8074   3.296   4.589   6.464
 2392SOL    HW1 8075   3.354   4.572   6.385
 2392SOL    HW2 8076   3.293   4.687   6.482
 2393SOL     OW 8077   4.029   5.434   1.379
 2393SOL    HW1 8078   4.041   5.533   1.390
 2393SOL    HW2 8079   3.931   5.413   1.376
 2394SOL     OW 8080   0.775   3.940   4.698
 2394SOL    HW1 8081   0.691   3.905   4.739
 2394SOL    HW2 8082   0.799   3.885   4.618
 2395SOL     OW 8083   6.779   2.682   6.648
 2395SOL    HW1 8084   6.798   2.767   6.599
 2395SOL    HW2 8085   6.861   2.626   6.650
 2396SOL     OW 8086   5.865   6.311   0.647
 2396SOL    HW1 8087   5.884   6.352   0.558
 2396SOL    HW2 8088   5.927   6.348   0.716
 2397SOL     OW 8089   6.921   5.131   0.171
 2397SOL    HW1 8090   6.925   5.039   0.210
 2397SOL    HW2 8091   6.991   5.139   0.099
 2398SOL     OW 8092   2.811   4.836   4.803
 2398SOL    HW1 8093   2.713   4.828   4.787
 2398SOL    HW2 8094   2.842   4.762   4.862
 2399SOL     OW 8095   4.327   1.445   3.533
 2399SOL    HW1 8096   4.360   1.363   3.486
 2399SOL    HW2 8097   4.357   1.527   3.484
 2400SOL     OW 8098   2.815   3.741   0.879
 2400SOL    HW1 8099   2.814   3.668   0.947
 2400SOL    HW2 8100   2.845   3.704   0.791
 2401SOL     OW 8101   3.476   0.500   4.631
 2401SOL    HW1 8102   3.490   0.591   4.592
 2401SOL    HW2 8103   3.522   0.496   4.720
 2402SOL     OW 8104   0.271   1.601   3.974
 2402SOL    HW1 8105   0.180   1.616   3.936
 2402SOL    HW2 8106   0.277   1.644   4.064
 2403SOL     OW 8107   3.488   3.072   0.914
 2403SOL    HW1 8108   3.511   2.975   0.909
 2403SOL    HW2 8109   3.571   3.126   0.910
 2404SOL     OW 8110   5.854   1.543   1.966
 2404SOL    HW1 8111   5.801   1.537   1.882
 2404SOL    HW2 8112   5.877   1.639   1.984
 2405SOL     OW 8113   3.751   4.037   5.454
 2405SOL    HW1 8114   3.797   3.958   5.493
 2405SOL    HW2 8115   3.721   4.017   5.361
 2406SOL     OW 8116   2.373   0.602   3.452
 2406SOL    HW1 8117   2.330   0.686   3.420
 2406SOL    HW2 8118   2.453   0.582   3.396
 2407SOL     OW 8119   4.489   2.470   2.745
 2407SOL    HW1 8120   4.508   2.524   2.827
 2407SOL    HW2 8121   4.559   2.488   2.676
 2408SOL     OW 8122   3.426   4.930   3.268
 2408SOL    HW1 8123   3.521   4.912   3.292
 2408SOL    HW2 8124   3.379   4.972   3.345
 2409SOL     OW 8125   1.924   2.555   1.261
 2409SOL    HW1 8126   1.975   2.473   1.236
 2409SOL    HW2 8127   1.847   2.567   1.198
 2410SOL     OW 8128   6.407   3.439   5.548
 2410SOL    HW1 8129   6.460   3.459   5.629
 2410SOL    HW2 8130   6.365   3.523   5.513
 2411SOL     OW 8131   3.139   4.045   5.759
 2411SOL    HW1 8132   3.043   4.045   5.730
 2411SOL    HW2 8133   3.196   4.081   5.685
 2412SOL     OW 8134   3.085   3.337   0.462
 2412SOL    HW1 8135   3.018   3.364   0.393
 2412SOL    HW2 8136   3.106   3.240   0.452
 2413SOL     OW 8137   5.911   3.850   6.681
 2413SOL    HW1 8138   5.928   3.894   6.769
 2413SOL    HW2 8139   5.991   3.797   6.654
 2414SOL     OW 8140   5.512   3.648   2.927
 2414SOL    HW1 8141   5.534   3.615   2.836
 2414SOL    HW2 8142   5.481   3.572   2.984
 2415SOL     OW 8143   2.168   0.420   1.649
 2415SOL    HW1 8144   2.087   0.459   1.694
 2415SOL    HW2 8145   2.140   0.343   1.592
 2416SOL     OW 8146   1.199   1.537   4.800
 2416SOL    HW1 8147   1.217   1.543   4.898
 2416SOL    HW2 8148   1.106   1.505   4.785
 2417SOL     OW 8149   5.612   1.895   0.785
 2417SOL    HW1 8150   5.541   1.949   0.740
 2417SOL    HW2 8151   5.650   1.829   0.721
 2418SOL     OW 8152   3.334   3.753   5.400
 2418SOL    HW1 8153   3.266   3.818   5.434
 2418SOL    HW2 8154   3.358   3.688   5.472
 2419SOL     OW 8155   1.132   6.867   5.369
 2419SOL    HW1 8156   1.136   6.818   5.455
 2419SOL    HW2 8157   1.177   6.956   5.378
 2420SOL     OW 8158   3.847   0.095   2.160
 2420SOL    HW1 8159   3.946   0.108   2.151
 2420SOL    HW2 8160   3.827   0.054   2.248
 2421SOL     OW 8161   2.909   0.397   4.623
 2421SOL    HW1 8162   2.865   0.389   4.713
 2421SOL    HW2 8163   3.007   0.411   4.635
 2422SOL     OW 8164   4.703   0.619   0.697
 2422SOL    HW1 8165   4.671   0.651   0.786
 2422SOL    HW2 8166   4.672   0.525   0.683
 2423SOL     OW 8167   2.164   5.725   2.275
 2423SOL    HW1 8168   2.099   5.666   2.322
 2423SOL    HW2 8169   2.132   5.820   2.280
 2424SOL     OW 8170   5.588   6.214   6.498
 2424SOL    HW1 8171   5.608   6.307   6.527
 2424SOL    HW2 8172   5.571   6.213   6.399
 2425SOL     OW 8173   5.629   6.580   5.398
 2425SOL    HW1 8174   5.613   6.677   5.381
 2425SOL    HW2 8175   5.578   6.526   5.331
 2426SOL     OW 8176   1.068   5.902   4.546
 2426SOL    HW1 8177   1.004   5.967   4.503
 2426SOL    HW2 8178   1.020   5.816   4.563
 2427SOL     OW 8179   5.599   5.665   6.766
 2427SOL    HW1 8180   5.568   5.579   6.725
 2427SOL    HW2 8181   5.696   5.657   6.791
 2428SOL     OW 8182   0.475   0.545   3.293
 2428SOL    HW1 8183   0.556   0.594   3.324
 2428SOL    HW2 8184   0.392   0.594   3.321
 2429SOL     OW 8185   6.263   4.950   2.883
 2429SOL    HW1 8186   6.317   4.869   2.861
 2429SOL    HW2 8187   6.213   4.934   2.969
 2430SOL     OW 8188   5.389   2.802   0.771
 2430SOL    HW1 8189   5.411   2.705   0.784
 2430SOL    HW2 8190   5.313   2.827   0.832
 2431SOL     OW 8191   4.653   1.003   1.193
 2431SOL    HW1 8192   4.699   1.002   1.105
 2431SOL    HW2 8193   4.627   0.910   1.219
 2432SOL     OW 8194   3.602   6.635   2.606
 2432SOL    HW1 8195   3.694   6.668   2.583
 2432SOL    HW2 8196   3.608   6.539   2.635
 2433SOL     OW 8197   2.443   6.713   6.977
 2433SOL    HW1 8198   2.512   6.674   0.015
 2433SOL    HW2 8199   2.481   6.722   6.885
 2434SOL     OW 8200   5.468   1.716   3.365
 2434SOL    HW1 8201   5.527   1.705   3.445
 2434SOL    HW2 8202   5.412   1.634   3.354
 2435SOL     OW 8203   5.113   4.818   0.317
 2435SOL    HW1 8204   5.020   4.782   0.315
 2435SOL    HW2 8205   5.132   4.867   0.232
 2436SOL     OW 8206   1.745   6.895   1.566
 2436SOL    HW1 8207   1.791   6.972   1.522
 2436SOL    HW2 8208   1.650   6.891   1.535
 2437SOL     OW 8209   5.283   6.121   1.438
 2437SOL    HW1 8210   5.185   6.126   1.458
 2437SOL    HW2 8211   5.332   6.090   1.520
 2438SOL     OW 8212   4.388   0.790   4.566
 2438SOL    HW1 8213   4.465   0.733   4.594
 2438SOL    HW2 8214   4.353   0.756   4.478
 2439SOL     OW 8215   1.141   4.215   0.241
 2439SOL    HW1 8216   1.163   4.311   0.223
 2439SOL    HW2 8217   1.065   4.210   0.305
 2440SOL     OW 8218   4.272   6.707   5.306
 2440SOL    HW1 8219   4.293   6.626   5.362
 2440SOL    HW2 8220   4.241   6.781   5.365
 2441SOL     OW 8221   5.557   0.387   6.893
 2441SOL    HW1 8222   5.593   0.293   6.896
 2441SOL    HW2 8223   5.469   0.387   6.846
 2442SOL     OW 8224   5.709   5.559   2.903
 2442SOL    HW1 8225   5.676   5.546   2.997
 2442SOL    HW2 8226   5.808   5.576   2.905
 2443SOL     OW 8227   2.947   0.312   6.176
 2443SOL    HW1 8228   2.888   0.318   6.096
 2443SOL    HW2 8229   3.041   0.294   6.148
 2444SOL     OW 8230   3.576   3.811   0.182
 2444SOL    HW1 8231   3.663   3.778   0.145
 2444SOL    HW2 8232   3.539   3.742   0.244
 2445SOL     OW 8233   6.564   1.412   2.105
 2445SOL    HW1 8234   6.633   1.348   2.138
 2445SOL    HW2 8235   6.474   1.384   2.139
 2446SOL     OW 8236   0.946   2.635   4.767
 2446SOL    HW1 8237   0.902   2.725   4.774
 2446SOL    HW2 8238   0.960   2.612   4.671
 2447SOL     OW 8239   2.384   1.361   1.233
 2447SOL    HW1 8240   2.400   1.263   1.246
 2447SOL    HW2 8241   2.447   1.413   1.291
 2448SOL     OW 8242   6.547   1.347   4.495
 2448SOL    HW1 8243   6.534   1.395   4.582
 2448SOL    HW2 8244   6.588   1.410   4.429
 2449SOL     OW 8245   0.493   3.648   2.716
 2449SOL    HW1 8246   0.558   3.724   2.723
 2449SOL    HW2 8247   0.539   3.562   2.736
 2450SOL     OW 8248   3.379   5.116   6.276
 2450SOL    HW1 8249   3.285   5.128   6.307
 2450SOL    HW2 8250   3.440   5.171   6.333
 2451SOL     OW 8251   1.294   0.196   3.660
 2451SOL    HW1 8252   1.296   0.237   3.569
 2451SOL    HW2 8253   1.211   0.141   3.671
 2452SOL     OW 8254   3.138   1.611   4.019
 2452SOL    HW1 8255   3.214   1.657   3.973
 2452SOL    HW2 8256   3.129   1.518   3.984
 2453SOL     OW 8257   6.904   3.444   0.177
 2453SOL    HW1 8258   7.002   3.429   0.193
 2453SOL    HW2 8259   6.893   3.499   0.094
 2454SOL     OW 8260   3.295   0.668   6.527
 2454SOL    HW1 8261   3.222   0.601   6.510
 2454SOL    HW2 8262   3.262   0.739   6.589
 2455SOL     OW 8263   4.222   0.444   0.553
 2455SOL    HW1 8264   4.148   0.474   0.493
 2455SOL    HW2 8265   4.308   0.488   0.526
 2456SOL     OW 8266   6.510   2.389   0.214
 2456SOL    HW1 8267   6.479   2.400   0.308
 2456SOL    HW2 8268   6.495   2.294   0.185
 2457SOL     OW 8269   6.107   0.868   6.385
 2457SOL    HW1 8270   6.163   0.947   6.408
 2457SOL    HW2 8271   6.011   0.896   6.380
 2458SOL     OW 8272   1.856   6.227   3.905
 2458SOL    HW1 8273   1.875   6.290   3.981
 2458SOL    HW2 8274   1.758   6.227   3.887
 2459SOL     OW 8275   2.741   5.948   5.836
 2459SOL    HW1 8276   2.718   6.038   5.872
 2459SOL    HW2 8277   2.684   5.930   5.755
 2460SOL     OW 8278   1.526   1.448   1.358
 2460SOL    HW1 8279   1.622   1.472   1.373
 2460SOL    HW2 8280   1.503   1.367   1.412
 2461SOL     OW 8281   4.924   0.753   3.037
 2461SOL    HW1 8282   4.907   0.852   3.041
 2461SOL    HW2 8283   4.993   0.734   2.967
 2462SOL     OW 8284   1.989   5.448   6.910
 2462SOL    HW1 8285   1.902   5.482   6.875
 2462SOL    HW2 8286   2.055   5.523   6.915
 2463SOL     OW 8287   5.852   1.953   6.564
 2463SOL    HW1 8288   5.907   2.022   6.611
 2463SOL    HW2 8289   5.912   1.893   6.510
 2464SOL     OW 8290   2.127   4.135   2.459
 2464SOL    HW1 8291   2.174   4.168   2.540
 2464SOL    HW2 8292   2.094   4.042   2.474
 2465SOL     OW 8293   1.231   0.257   0.131
 2465SOL    HW1 8294   1.208   0.162   0.112
 2465SOL    HW2 8295   1.175   0.317   0.074
 2466SOL     OW 8296   2.612   1.874   2.960
 2466SOL    HW1 8297   2.673   1.855   2.884
 2466SOL    HW2 8298   2.650   1.835   3.044
 2467SOL     OW 8299   5.130   1.606   5.071
 2467SOL    HW1 8300   5.063   1.633   5.140
 2467SOL    HW2 8301   5.180   1.686   5.038
 2468SOL     OW 8302   4.516   6.340   1.509
 2468SOL    HW1 8303   4.569   6.319   1.427
 2468SOL    HW2 8304   4.424   6.301   1.501
 2469SOL     OW 8305   4.506   4.039   5.375
 2469SOL    HW1 8306   4.548   4.120   5.334
 2469SOL    HW2 8307   4.423   4.016   5.325
 2470SOL     OW 8308   4.942   4.342   6.064
 2470SOL    HW1 8309   4.845   4.347   6.044
 2470SOL    HW2 8310   4.958   4.278   6.139
 2471SOL     OW 8311   2.671   6.163   0.769
 2471SOL    HW1 8312   2.649   6.150   0.672
 2471SOL    HW2 8313   2.620   6.242   0.804
 2472SOL     OW 8314   4.429   2.452   3.825
 2472SOL    HW1 8315   4.347   2.400   3.803
 2472SOL    HW2 8316   4.509   2.393   3.813
 2473SOL     OW 8317   2.010   3.590   4.898
 2473SOL    HW1 8318   1.980   3.565   4.990
 2473SOL    HW2 8319   2.068   3.671   4.902
 2474SOL     OW 8320   0.325   5.419   1.267
 2474SOL    HW1 8321   0.302   5.322   1.257
 2474SOL    HW2 8322   0.424   5.430   1.263
 2475SOL     OW 8323   4.029   0.919   3.241
 2475SOL    HW1 8324   4.078   0.912   3.155
 2475SOL    HW2 8325   4.089   0.892   3.316
 2476SOL     OW 8326   6.881   1.320   2.994
 2476SOL    HW1 8327   6.967   1.322   2.942
 2476SOL    HW2 8328   6.884   1.388   3.067
 2477SOL     OW 8329   4.263   1.042   2.249
 2477SOL    HW1 8330   4.171   1.079   2.237
 2477SOL    HW2 8331   4.329   1.117   2.249
 2478SOL     OW 8332   6.410   1.250   1.658
 2478SOL    HW1 8333   6.456   1.220   1.574
 2478SOL    HW2 8334   6.311   1.242   1.646
 2479SOL     OW 8335   1.221   3.716   1.509
 2479SOL    HW1 8336   1.201   3.648   1.439
 2479SOL    HW2 8337   1.311   3.756   1.493
 2480SOL     OW 8338   4.737   4.208   0.625
 2480SOL    HW1 8339   4.782   4.295   0.642
 2480SOL    HW2 8340   4.684   4.181   0.705
 2481SOL     OW 8341   2.528   0.051   0.570
 2481SOL    HW1 8342   2.512   7.002   0.503
 2481SOL    HW2 8343   2.605   0.026   0.629
 2482SOL     OW 8344   5.029   3.380   6.086
 2482SOL    HW1 8345   4.997   3.325   6.164
 2482SOL    HW2 8346   4.998   3.338   6.001
 2483SOL     OW 8347   1.915   1.465   0.527
 2483SOL    HW1 8348   1.825   1.450   0.568
 2483SOL    HW2 8349   1.932   1.394   0.458
 2484SOL     OW 8350   3.582   0.983   0.414
 2484SOL    HW1 8351   3.557   1.080   0.421
 2484SOL    HW2 8352   3.640   0.958   0.492
 2485SOL     OW 8353   6.653   3.916   1.376
 2485SOL    HW1 8354   6.686   4.001   1.418
 2485SOL    HW2 8355   6.622   3.854   1.448
 2486SOL     OW 8356   1.885   4.959   4.658
 2486SOL    HW1 8357   1.911   4.867   4.628
 2486SOL    HW2 8358   1.908   5.025   4.587
 2487SOL     OW 8359   4.261   6.011   0.468
 2487SOL    HW1 8360   4.190   5.981   0.404
 2487SOL    HW2 8361   4.303   5.931   0.510
 2488SOL     OW 8362   1.779   4.918   2.497
 2488SOL    HW1 8363   1.753   4.822   2.512
 2488SOL    HW2 8364   1.753   4.945   2.404
 2489SOL     OW 8365   1.314   5.355   2.605
 2489SOL    HW1 8366   1.341   5.451   2.613
 2489SOL    HW2 8367   1.286   5.335   2.511
 2490SOL     OW 8368   6.674   4.902   1.496
 2490SOL    HW1 8369   6.678   4.833   1.568
 2490SOL    HW2 8370   6.631   4.864   1.414
 2491SOL     OW 8371   2.329   5.242   1.031
 2491SOL    HW1 8372   2.243   5.204   1.064
 2491SOL    HW2 8373   2.338   5.337   1.060
 2492SOL     OW 8374   4.487   2.240   1.281
 2492SOL    HW1 8375   4.464   2.256   1.185
 2492SOL    HW2 8376   4.516   2.145   1.292
 2493SOL     OW 8377   5.858   0.726   2.147
 2493SOL    HW1 8378   5.786   0.794   2.164
 2493SOL    HW2 8379   5.891   0.736   2.054
 2494SOL     OW 8380   5.968   3.599   2.267
 2494SOL    HW1 8381   5.889   3.629   2.213
 2494SOL    HW2 8382   5.970   3.499   2.271
 2495SOL     OW 8383   5.600   0.550   4.353
 2495SOL    HW1 8384   5.609   0.504   4.265
 2495SOL    HW2 8385   5.509   0.591   4.360
 2496SOL     OW 8386   6.573   3.428   5.876
 2496SOL    HW1 8387   6.648   3.368   5.904
 2496SOL    HW2 8388   6.608   3.497   5.812
 2497SOL     OW 8389   0.761   0.393   0.775
 2497SOL    HW1 8390   0.750   0.352   0.684
 2497SOL    HW2 8391   0.850   0.367   0.812
 2498SOL     OW 8392   2.938   1.230   4.275
 2498SOL    HW1 8393   3.019   1.254   4.328
 2498SOL    HW2 8394   2.952   1.257   4.179
 2499SOL     OW 8395   6.245   2.294   2.774
 2499SOL    HW1 8396   6.261   2.269   2.679
 2499SOL    HW2 8397   6.308   2.366   2.802
 2500SOL     OW 8398   4.611   2.819   0.099
 2500SOL    HW1 8399   4.535   2.755   0.089
 2500SOL    HW2 8400   4.687   2.773   0.144
 2501SOL     OW 8401   5.602   5.588   0.092
 2501SOL    HW1 8402   5.607   5.657   0.020
 2501SOL    HW2 8403   5.524   5.608   0.152
 2502SOL     OW 8404   1.397   5.376   3.490
 2502SOL    HW1 8405   1.310   5.381   3.541
 2502SOL    HW2 8406   1.466   5.331   3.546
 2503SOL     OW 8407   3.088   5.536   4.094
 2503SOL    HW1 8408   3.129   5.609   4.148
 2503SOL    HW2 8409   3.012   5.496   4.145
 2504SOL     OW 8410   3.827   5.139   4.586
 2504SOL    HW1 8411   3.802   5.045   4.563
 2504SOL    HW2 8412   3.766   5.172   4.658
 2505SOL     OW 8413   1.357   6.096   3.480
 2505SOL    HW1 8414   1.446   6.094   3.435
 2505SOL    HW2 8415   1.327   6.002   3.499
 2506SOL     OW 8416   6.796   4.052   5.408
 2506SOL    HW1 8417   6.729   3.989   5.447
 2506SOL    HW2 8418   6.888   4.020   5.429
 2507SOL     OW 8419   0.692   4.115   1.136
 2507SOL    HW1 8420   0.634   4.196   1.133
 2507SOL    HW2 8421   0.720   4.091   1.043
 2508SOL     OW 8422   2.080   1.529   2.409
 2508SOL    HW1 8423   2.026   1.465   2.354
 2508SOL    HW2 8424   2.167   1.487   2.432
 2509SOL     OW 8425   0.090   2.718   1.541
 2509SOL    HW1 8426   0.071   2.623   1.517
 2509SOL    HW2 8427   0.186   2.739   1.524
 2510SOL     OW 8428   2.977   4.381   1.076
 2510SOL    HW1 8429   2.892   4.430   1.096
 2510SOL    HW2 8430   2.982   4.362   0.978
 2511SOL     OW 8431   2.763   2.122   3.622
 2511SOL    HW1 8432   2.679   2.173   3.644
 2511SOL    HW2 8433   2.742   2.025   3.616
 2512SOL     OW 8434   5.329   4.310   4.888
 2512SOL    HW1 8435   5.417   4.353   4.867
 2512SOL    HW2 8436   5.260   4.381   4.904
 2513SOL     OW 8437   1.123   4.197   4.931
 2513SOL    HW1 8438   1.031   4.188   4.968
 2513SOL    HW2 8439   1.174   4.265   4.984
 2514SOL     OW 8440   6.557   3.738   4.450
 2514SOL    HW1 8441   6.589   3.800   4.522
 2514SOL    HW2 8442   6.485   3.784   4.397
 2515SOL     OW 8443   1.686   6.421   0.733
 2515SOL    HW1 8444   1.664   6.419   0.635
 2515SOL    HW2 8445   1.710   6.514   0.760
 2516SOL     OW 8446   6.238   1.165   3.126
 2516SOL    HW1 8447   6.300   1.179   3.203
 2516SOL    HW2 8448   6.290   1.145   3.044
 2517SOL     OW 8449   1.343   5.439   6.088
 2517SOL    HW1 8450   1.377   5.377   6.159
 2517SOL    HW2 8451   1.338   5.391   6.000
 2518SOL     OW 8452   1.448   4.361   0.169
 2518SOL    HW1 8453   1.532   4.415   0.174
 2518SOL    HW2 8454   1.467   4.268   0.202
 2519SOL     OW 8455   5.200   6.511   3.378
 2519SOL    HW1 8456   5.232   6.418   3.395
 2519SOL    HW2 8457   5.243   6.547   3.295
 2520SOL     OW 8458   2.294   2.049   6.727
 2520SOL    HW1 8459   2.270   1.952   6.722
 2520SOL    HW2 8460   2.221   2.099   6.774
 2521SOL     OW 8461   0.776   0.189   5.087
 2521SOL    HW1 8462   0.746   0.099   5.118
 2521SOL    HW2 8463   0.872   0.186   5.059
 2522SOL     OW 8464   0.533   3.501   5.596
 2522SOL    HW1 8465   0.582   3.571   5.543
 2522SOL    HW2 8466   0.524   3.418   5.541
 2523SOL     OW 8467   0.662   2.748   2.043
 2523SOL    HW1 8468   0.693   2.659   2.010
 2523SOL    HW2 8469   0.667   2.815   1.969
 2524SOL     OW 8470   1.237   6.199   5.595
 2524SOL    HW1 8471   1.146   6.188   5.634
 2524SOL    HW2 8472   1.251   6.130   5.523
 2525SOL     OW 8473   1.236   2.448   4.710
 2525SOL    HW1 8474   1.250   2.446   4.611
 2525SOL    HW2 8475   1.241   2.542   4.742
 2526SOL     OW 8476   1.827   3.797   5.801
 2526SOL    HW1 8477   1.912   3.848   5.785
 2526SOL    HW2 8478   1.770   3.801   5.719
 2527SOL     OW 8479   5.678   5.629   4.735
 2527SOL    HW1 8480   5.761   5.684   4.739
 2527SOL    HW2 8481   5.626   5.643   4.820
 2528SOL     OW 8482   5.401   5.246   0.998
 2528SOL    HW1 8483   5.401   5.150   0.971
 2528SOL    HW2 8484   5.482   5.291   0.961
 2529SOL     OW 8485   0.000   6.767   6.580
 2529SOL    HW1 8486   0.007   6.848   6.521
 2529SOL    HW2 8487   0.041   6.787   6.669
 2530SOL     OW 8488   2.148   0.214   5.307
 2530SOL    HW1 8489   2.131   0.118   5.331
 2530SOL    HW2 8490   2.080   0.243   5.240
 2531SOL     OW 8491   5.005   6.003   4.487
 2531SOL    HW1 8492   4.989   5.916   4.441
 2531SOL    HW2 8493   5.103   6.023   4.488
 2532SOL     OW 8494   1.189   6.483   1.197
 2532SOL    HW1 8495   1.275   6.457   1.241
 2532SOL    HW2 8496   1.172   6.581   1.210
 2533SOL     OW 8497   3.159   0.218   2.984
 2533SOL    HW1 8498   3.221   0.279   2.935
 2533SOL    HW2 8499   3.079   0.198   2.928
 2534SOL     OW 8500   3.114   0.515   3.043
 2534SOL    HW1 8501   3.051   0.476   3.109
 2534SOL    HW2 8502   3.079   0.502   2.950
 2535SOL     OW 8503   3.458   2.158   5.749
 2535SOL    HW1 8504   3.403   2.106   5.684
 2535SOL    HW2 8505   3.426   2.138   5.842
 2536SOL     OW 8506   0.226   1.994   4.727
 2536SOL    HW1 8507   0.133   2.029   4.716
 2536SOL    HW2 8508   0.267   1.981   4.637
 2537SOL     OW 8509   3.637   0.129   6.039
 2537SOL    HW1 8510   3.581   0.082   5.971
 2537SOL    HW2 8511   3.730   0.141   6.003
 2538SOL     OW 8512   1.478   5.094   5.204
 2538SOL    HW1 8513   1.408   5.038   5.159
 2538SOL    HW2 8514   1.563   5.041   5.211
 2539SOL     OW 8515   4.735   0.829   5.588
 2539SOL    HW1 8516   4.825   0.870   5.575
 2539SOL    HW2 8517   4.667   0.881   5.536
 2540SOL     OW 8518   4.006   0.971   2.402
 2540SOL    HW1 8519   3.989   0.873   2.413
 2540SOL    HW2 8520   3.929   1.022   2.440
 2541SOL     OW 8521   1.791   6.523   5.308
 2541SOL    HW1 8522   1.767   6.432   5.343
 2541SOL    HW2 8523   1.753   6.592   5.369
 2542SOL     OW 8524   4.661   0.784   5.876
 2542SOL    HW1 8525   4.726   0.834   5.933
 2542SOL    HW2 8526   4.699   0.771   5.785
 2543SOL     OW 8527   1.715   1.572   2.901
 2543SOL    HW1 8528   1.637   1.547   2.958
 2543SOL    HW2 8529   1.690   1.562   2.804
 2544SOL     OW 8530   0.335   5.926   1.138
 2544SOL    HW1 8531   0.324   5.844   1.082
 2544SOL    HW2 8532   0.294   6.004   1.092
 2545SOL     OW 8533   2.019   0.854   1.755
 2545SOL    HW1 8534   1.997   0.927   1.820
 2545SOL    HW2 8535   2.114   0.825   1.769
 2546SOL     OW 8536   0.412   2.148   1.530
 2546SOL    HW1 8537   0.444   2.075   1.591
 2546SOL    HW2 8538   0.332   2.193   1.571
 2547SOL     OW 8539   6.227   3.558   0.251
 2547SOL    HW1 8540   6.248   3.550   0.348
 2547SOL    HW2 8541   6.248   3.471   0.205
 2548SOL     OW 8542   2.539   6.404   5.554
 2548SOL    HW1 8543   2.540   6.436   5.649
 2548SOL    HW2 8544   2.581   6.473   5.495
 2549SOL     OW 8545   1.752   0.534   1.180
 2549SOL    HW1 8546   1.810   0.490   1.249
 2549SOL    HW2 8547   1.749   0.632   1.198
 2550SOL     OW 8548   6.688   0.580   5.977
 2550SOL    HW1 8549   6.598   0.621   5.991
 2550SOL    HW2 8550   6.708   0.518   6.053
 2551SOL     OW 8551   3.903   4.964   0.354
 2551SOL    HW1 8552   3.881   4.985   0.449
 2551SOL    HW2 8553   3.834   4.901   0.317
 2552SOL     OW 8554   1.945   5.604   6.346
 2552SOL    HW1 8555   2.021   5.602   6.280
 2552SOL    HW2 8556   1.910   5.697   6.353
 2553SOL     OW 8557   4.252   3.131   6.492
 2553SOL    HW1 8558   4.338   3.104   6.534
 2553SOL    HW2 8559   4.267   3.152   6.395
 2554SOL     OW 8560   1.761   6.248   6.945
 2554SOL    HW1 8561   1.693   6.242   6.872
 2554SOL    HW2 8562   1.820   6.327   6.929
 2555SOL     OW 8563   5.906   0.051   6.760
 2555SOL    HW1 8564   5.876   6.994   6.812
 2555SOL    HW2 8565   5.874   0.044   6.665
 2556SOL     OW 8566   4.506   5.313   0.119
 2556SOL    HW1 8567   4.550   5.356   0.198
 2556SOL    HW2 8568   4.419   5.273   0.147
 2557SOL     OW 8569   2.853   3.071   6.614
 2557SOL    HW1 8570   2.848   3.114   6.524
 2557SOL    HW2 8571   2.762   3.071   6.656
 2558SOL     OW 8572   4.594   2.959   5.964
 2558SOL    HW1 8573   4.628   2.989   6.053
 2558SOL    HW2 8574   4.494   2.954   5.967
 2559SOL     OW 8575   6.030   3.873   3.766
 2559SOL    HW1 8576   6.119   3.877   3.813
 2559SOL    HW2 8577   6.039   3.915   3.676
 2560SOL     OW 8578   5.574   3.439   4.074
 2560SOL    HW1 8579   5.672   3.424   4.059
 2560SOL    HW2 8580   5.536   3.360   4.122
 2561SOL     OW 8581   2.760   0.131   4.262
 2561SOL    HW1 8582   2.780   0.045   4.215
 2561SOL    HW2 8583   2.690   0.116   4.332
 2562SOL     OW 8584   1.414   5.670   2.567
 2562SOL    HW1 8585   1.467   5.746   2.604
 2562SOL    HW2 8586   1.317   5.689   2.578
 2563SOL     OW 8587   3.849   2.137   0.129
 2563SOL    HW1 8588   3.857   2.092   0.218
 2563SOL    HW2 8589   3.918   2.209   0.121
 2564SOL     OW 8590   1.904   6.229   6.089
 2564SOL    HW1 8591   1.902   6.159   6.017
 2564SOL    HW2 8592   1.883   6.188   6.177
 2565SOL     OW 8593   6.847   0.234   0.263
 2565SOL    HW1 8594   6.792   0.152   0.276
 2565SOL    HW2 8595   6.928   0.213   0.209
 2566SOL     OW 8596   1.510   0.050   1.438
 2566SOL    HW1 8597   1.538   0.129   1.383
 2566SOL    HW2 8598   1.508   0.075   1.535
 2567SOL     OW 8599   0.937   1.180   1.583
 2567SOL    HW1 8600   0.979   1.104   1.634
 2567SOL    HW2 8601   0.840   1.159   1.567
 2568SOL     OW 8602   3.223   6.580   0.065
 2568SOL    HW1 8603   3.204   6.661   0.008
 2568SOL    HW2 8604   3.299   6.601   0.127
 2569SOL     OW 8605   2.699   1.127   1.587
 2569SOL    HW1 8606   2.792   1.104   1.559
 2569SOL    HW2 8607   2.652   1.045   1.618
 2570SOL     OW 8608   5.715   0.430   6.646
 2570SOL    HW1 8609   5.658   0.512   6.646
 2570SOL    HW2 8610   5.757   0.419   6.737
 2571SOL     OW 8611   2.079   4.413   5.031
 2571SOL    HW1 8612   2.079   4.317   5.002
 2571SOL    HW2 8613   2.096   4.418   5.129
 2572SOL     OW 8614   2.114   5.212   0.071
 2572SOL    HW1 8615   2.150   5.121   0.095
 2572SOL    HW2 8616   2.047   5.202   7.020
 2573SOL     OW 8617   6.883   1.875   2.129
 2573SOL    HW1 8618   6.786   1.896   2.123
 2573SOL    HW2 8619   6.896   1.790   2.179
 2574SOL     OW 8620   6.363   3.794   0.107
 2574SOL    HW1 8621   6.297   3.781   0.033
 2574SOL    HW2 8622   6.351   3.722   0.175
 2575SOL     OW 8623   5.191   5.331   6.777
 2575SOL    HW1 8624   5.224   5.363   6.688
 2575SOL    HW2 8625   5.268   5.295   6.830
 2576SOL     OW 8626   3.683   0.199   4.315
 2576SOL    HW1 8627   3.693   0.110   4.360
 2576SOL    HW2 8628   3.621   0.256   4.368
 2577SOL     OW 8629   3.462   6.724   1.660
 2577SOL    HW1 8630   3.493   6.630   1.673
 2577SOL    HW2 8631   3.460   6.771   1.748
 2578SOL     OW 8632   5.198   2.129   3.208
 2578SOL    HW1 8633   5.106   2.090   3.203
 2578SOL    HW2 8634   5.266   2.055   3.213
 2579SOL     OW 8635   1.525   6.321   2.765
 2579SOL    HW1 8636   1.512   6.347   2.860
 2579SOL    HW2 8637   1.594   6.381   2.723
 2580SOL     OW 8638   2.557   3.034   6.687
 2580SOL    HW1 8639   2.492   3.021   6.612
 2580SOL    HW2 8640   2.564   3.131   6.709
 2581SOL     OW 8641   0.529   3.911   1.114
 2581SOL    HW1 8642   0.588   3.991   1.128
 2581SOL    HW2 8643   0.537   3.849   1.193
 2582SOL     OW 8644   0.767   4.760   2.234
 2582SOL    HW1 8645   0.689   4.801   2.281
 2582SOL    HW2 8646   0.760   4.777   2.136
 2583SOL     OW 8647   0.725   1.696   0.570
 2583SOL    HW1 8648   0.670   1.763   0.522
 2583SOL    HW2 8649   0.770   1.636   0.504
 2584SOL     OW 8650   4.216   5.710   0.363
 2584SOL    HW1 8651   4.171   5.647   0.426
 2584SOL    HW2 8652   4.303   5.740   0.402
 2585SOL     OW 8653   5.376   2.301   0.724
 2585SOL    HW1 8654   5.330   2.259   0.802
 2585SOL    HW2 8655   5.317   2.296   0.644
 2586SOL     OW 8656   3.440   1.393   3.245
 2586SOL    HW1 8657   3.411   1.419   3.153
 2586SOL    HW2 8658   3.395   1.308   3.272
 2587SOL     OW 8659   0.438   0.950   3.286
 2587SOL    HW1 8660   0.405   0.934   3.193
 2587SOL    HW2 8661   0.401   1.037   3.320
 2588SOL     OW 8662   4.052   0.554   5.754
 2588SOL    HW1 8663   4.114   0.491   5.800
 2588SOL    HW2 8664   3.993   0.598   5.822
 2589SOL     OW 8665   0.878   5.986   6.462
 2589SOL    HW1 8666   0.806   5.921   6.438
 2589SOL    HW2 8667   0.838   6.075   6.482
 2590SOL     OW 8668   3.498   6.033   0.811
 2590SOL    HW1 8669   3.576   6.009   0.870
 2590SOL    HW2 8670   3.495   6.132   0.799
 2591SOL     OW 8671   0.100   5.717   2.424
 2591SOL    HW1 8672   0.182   5.743   2.475
 2591SOL    HW2 8673   0.041   5.661   2.481
 2592SOL     OW 8674   3.684   5.926   0.991
 2592SOL    HW1 8675   3.676   5.830   0.964
 2592SOL    HW2 8676   3.711   5.931   1.087
 2593SOL     OW 8677   3.210   5.665   0.884
 2593SOL    HW1 8678   3.282   5.595   0.881
 2593SOL    HW2 8679   3.120   5.621   0.879
 2594SOL     OW 8680   1.217   5.213   6.222
 2594SOL    HW1 8681   1.205   5.117   6.249
 2594SOL    HW2 8682   1.268   5.218   6.137
 2595SOL     OW 8683   6.505   1.776   4.271
 2595SOL    HW1 8684   6.525   1.719   4.351
 2595SOL    HW2 8685   6.589   1.797   4.223
 2596SOL     OW 8686   3.424   1.791   1.740
 2596SOL    HW1 8687   3.325   1.783   1.747
 2596SOL    HW2 8688   3.450   1.888   1.734
 2597SOL     OW 8689   1.803   4.422   6.008
 2597SOL    HW1 8690   1.774   4.331   5.977
 2597SOL    HW2 8691   1.881   4.453   5.954
 2598SOL     OW 8692   6.109   1.117   3.515
 2598SOL    HW1 8693   6.159   1.062   3.582
 2598SOL    HW2 8694   6.031   1.066   3.480
 2599SOL     OW 8695   2.052   6.705   1.315
 2599SOL    HW1 8696   1.969   6.756   1.294
 2599SOL    HW2 8697   2.029   6.613   1.346
 2600SOL     OW 8698   5.562   3.202   4.819
 2600SOL    HW1 8699   5.530   3.252   4.738
 2600SOL    HW2 8700   5.661   3.188   4.813
 2601SOL     OW 8701   2.228   1.593   0.739
 2601SOL    HW1 8702   2.135   1.580   0.774
 2601SOL    HW2 8703   2.293   1.549   0.800
 2602SOL     OW 8704   0.852   4.118   4.225
 2602SOL    HW1 8705   0.763   4.157   4.249
 2602SOL    HW2 8706   0.845   4.019   4.219
 2603SOL     OW 8707   2.522   1.270   3.407
 2603SOL    HW1 8708   2.462   1.289   3.485
 2603SOL    HW2 8709   2.574   1.187   3.425
 2604SOL     OW 8710   4.805   1.795   2.743
 2604SOL    HW1 8711   4.852   1.769   2.658
 2604SOL    HW2 8712   4.872   1.803   2.817
 2605SOL     OW 8713   2.085   3.922   2.804
 2605SOL    HW1 8714   2.098   3.927   2.705
 2605SOL    HW2 8715   2.158   3.974   2.849
 2606SOL     OW 8716   5.604   4.229   2.061
 2606SOL    HW1 8717   5.536   4.276   2.005
 2606SOL    HW2 8718   5.659   4.169   2.002
 2607SOL     OW 8719   1.503   1.491   1.091
 2607SOL    HW1 8720   1.506   1.448   1.182
 2607SOL    HW2 8721   1.585   1.465   1.040
 2608SOL     OW 8722   4.905   4.828   1.468
 2608SOL    HW1 8723   4.847   4.749   1.490
 2608SOL    HW2 8724   4.935   4.822   1.373
 2609SOL     OW 8725   6.550   1.381   0.892
 2609SOL    HW1 8726   6.538   1.282   0.885
 2609SOL    HW2 8727   6.522   1.423   0.806
 2610SOL     OW 8728   0.839   4.819   4.660
 2610SOL    HW1 8729   0.907   4.811   4.587
 2610SOL    HW2 8730   0.829   4.915   4.686
 2611SOL     OW 8731   4.591   6.824   1.073
 2611SOL    HW1 8732   4.524   6.800   1.144
 2611SOL    HW2 8733   4.658   6.751   1.065
 2612SOL     OW 8734   6.524   0.097   5.822
 2612SOL    HW1 8735   6.590   0.038   5.776
 2612SOL    HW2 8736   6.433   0.082   5.783
 2613SOL     OW 8737   2.570   6.219   6.284
 2613SOL    HW1 8738   2.517   6.164   6.349
 2613SOL    HW2 8739   2.653   6.170   6.259
 2614SOL     OW 8740   6.917   0.561   5.507
 2614SOL    HW1 8741   6.849   0.495   5.477
 2614SOL    HW2 8742   6.877   0.622   5.575
 2615SOL     OW 8743   6.971   2.740   3.050
 2615SOL    HW1 8744   6.980   2.645   3.021
 2615SOL    HW2 8745   7.006   2.801   2.979
 2616SOL     OW 8746   3.538   3.417   5.725
 2616SOL    HW1 8747   3.568   3.329   5.686
 2616SOL    HW2 8748   3.582   3.431   5.813
 2617SOL     OW 8749   3.554   6.496   0.432
 2617SOL    HW1 8750   3.506   6.427   0.486
 2617SOL    HW2 8751   3.613   6.451   0.366
 2618SOL     OW 8752   6.815   0.778   4.267
 2618SOL    HW1 8753   6.743   0.844   4.289
 2618SOL    HW2 8754   6.790   0.689   4.305
 2619SOL     OW 8755   4.122   1.813   3.507
 2619SOL    HW1 8756   4.054   1.871   3.462
 2619SOL    HW2 8757   4.148   1.738   3.445
 2620SOL     OW 8758   6.715   7.000   3.467
 2620SOL    HW1 8759   6.780   0.002   3.539
 2620SOL    HW2 8760   6.637   6.952   3.507
 2621SOL     OW 8761   0.998   5.564   2.697
 2621SOL    HW1 8762   1.062   5.638   2.677
 2621SOL    HW2 8763   0.937   5.550   2.619
 2622SOL     OW 8764   1.952   3.411   5.481
 2622SOL    HW1 8765   2.032   3.353   5.496
 2622SOL    HW2 8766   1.982   3.502   5.451
 2623SOL     OW 8767   1.517   0.730   5.840
 2623SOL    HW1 8768   1.481   0.788   5.767
 2623SOL    HW2 8769   1.448   0.662   5.865
 2624SOL     OW 8770   6.502   1.293   5.436
 2624SOL    HW1 8771   6.490   1.384   5.397
 2624SOL    HW2 8772   6.468   1.292   5.530
 2625SOL     OW 8773   1.956   3.185   5.077
 2625SOL    HW1 8774   2.005   3.119   5.021
 2625SOL    HW2 8775   1.916   3.139   5.156
 2626SOL     OW 8776   0.280   0.532   6.172
 2626SOL    HW1 8777   0.247   0.621   6.204
 2626SOL    HW2 8778   0.204   0.469   6.162
 2627SOL     OW 8779   1.150   1.209   5.659
 2627SOL    HW1 8780   1.178   1.304   5.671
 2627SOL    HW2 8781   1.197   1.170   5.579
 2628SOL     OW 8782   2.028   4.502   5.818
 2628SOL    HW1 8783   2.076   4.559   5.751
 2628SOL    HW2 8784   2.087   4.484   5.896
 2629SOL     OW 8785   3.374   3.263   2.054
 2629SOL    HW1 8786   3.364   3.256   1.955
 2629SOL    HW2 8787   3.284   3.276   2.096
 2630SOL     OW 8788   3.578   2.097   2.645
 2630SOL    HW1 8789   3.539   2.035   2.714
 2630SOL    HW2 8790   3.530   2.084   2.558
 2631SOL     OW 8791   5.502   1.087   5.573
 2631SOL    HW1 8792   5.466   1.116   5.484
 2631SOL    HW2 8793   5.597   1.058   5.562
 2632SOL     OW 8794   4.912   3.219   6.293
 2632SOL    HW1 8795   4.857   3.286   6.342
 2632SOL    HW2 8796   4.959   3.159   6.358
 2633SOL     OW 8797   0.592   2.233   4.773
 2633SOL    HW1 8798   0.662   2.200   4.709
 2633SOL    HW2 8799   0.542   2.308   4.731
 2634SOL     OW 8800   0.679   4.792   3.381
 2634SOL    HW1 8801   0.605   4.838   3.332
 2634SOL    HW2 8802   0.642   4.746   3.462
 2635SOL     OW 8803   6.919   5.503   5.674
 2635SOL    HW1 8804   6.911   5.462   5.583
 2635SOL    HW2 8805   6.841   5.475   5.730
 2636SOL     OW 8806   3.753   0.773   4.862
 2636SOL    HW1 8807   3.822   0.831   4.820
 2636SOL    HW2 8808   3.710   0.820   4.939
 2637SOL     OW 8809   5.075   1.446   3.395
 2637SOL    HW1 8810   5.055   1.486   3.305
 2637SOL    HW2 8811   5.004   1.474   3.460
 2638SOL     OW 8812   6.861   0.003   4.048
 2638SOL    HW1 8813   6.817   0.092   4.030
 2638SOL    HW2 8814   6.949   7.022   4.000
 2639SOL     OW 8815   0.253   5.685   1.012
 2639SOL    HW1 8816   0.271   5.643   0.923
 2639SOL    HW2 8817   0.155   5.686   1.030
 2640SOL     OW 8818   0.585   6.098   5.642
 2640SOL    HW1 8819   0.663   6.122   5.585
 2640SOL    HW2 8820   0.503   6.090   5.584
 2641SOL     OW 8821   5.570   3.168   2.304
 2641SOL    HW1 8822   5.549   3.100   2.233
 2641SOL    HW2 8823   5.507   3.156   2.381
 2642SOL     OW 8824   4.818   6.551   3.893
 2642SOL    HW1 8825   4.871   6.472   3.863
 2642SOL    HW2 8826   4.844   6.575   3.986
 2643SOL     OW 8827   0.564   3.688   3.702
 2643SOL    HW1 8828   0.618   3.758   3.750
 2643SOL    HW2 8829   0.533   3.723   3.615
 2644SOL     OW 8830   5.188   6.413   5.060
 2644SOL    HW1 8831   5.173   6.356   4.980
 2644SOL    HW2 8832   5.119   6.392   5.129
 2645SOL     OW 8833   4.061   5.700   3.768
 2645SOL    HW1 8834   4.030   5.793   3.749
 2645SOL    HW2 8835   4.020   5.668   3.853
 2646SOL     OW 8836   5.796   0.878   6.562
 2646SOL    HW1 8837   5.855   0.804   6.594
 2646SOL    HW2 8838   5.803   0.886   6.462
 2647SOL     OW 8839   6.755   6.940   1.854
 2647SOL    HW1 8840   6.843   6.898   1.874
 2647SOL    HW2 8841   6.723   6.909   1.764
 2648SOL     OW 8842   0.482   7.005   4.082
 2648SOL    HW1 8843   0.422   6.977   4.157
 2648SOL    HW2 8844   0.439   6.983   3.995
 2649SOL     OW 8845   5.867   3.306   6.981
 2649SOL    HW1 8846   5.774   3.273   7.002
 2649SOL    HW2 8847   5.934   3.248   0.004
 2650SOL     OW 8848   1.273   4.941   3.934
 2650SOL    HW1 8849   1.221   4.941   4.019
 2650SOL    HW2 8850   1.283   4.847   3.902
 2651SOL     OW 8851   1.924   1.292   1.228
 2651SOL    HW1 8852   1.979   1.345   1.293
 2651SOL    HW2 8853   1.889   1.211   1.273
 2652SOL     OW 8854   4.086   3.658   4.748
 2652SOL    HW1 8855   4.094   3.718   4.668
 2652SOL    HW2 8856   4.101   3.563   4.720
 2653SOL     OW 8857   4.897   6.518   4.904
 2653SOL    HW1 8858   4.847   6.446   4.953
 2653SOL    HW2 8859   4.973   6.477   4.853
 2654SOL     OW 8860   4.591   6.790   2.208
 2654SOL    HW1 8861   4.657   6.855   2.172
 2654SOL    HW2 8862   4.624   6.697   2.192
 2655SOL     OW 8863   4.570   6.129   4.410
 2655SOL    HW1 8864   4.511   6.156   4.334
 2655SOL    HW2 8865   4.550   6.034   4.435
 2656SOL     OW 8866   3.802   4.864   4.537
 2656SOL    HW1 8867   3.723   4.853   4.596
 2656SOL    HW2 8868   3.878   4.808   4.572
 2657SOL     OW 8869   1.100   4.451   6.911
 2657SOL    HW1 8870   1.036   4.394   6.859
 2657SOL    HW2 8871   1.194   4.419   6.894
 2658SOL     OW 8872   5.076   4.413   0.856
 2658SOL    HW1 8873   5.104   4.326   0.816
 2658SOL    HW2 8874   4.988   4.402   0.902
 2659SOL     OW 8875   5.352   3.165   4.412
 2659SOL    HW1 8876   5.293   3.245   4.397
 2659SOL    HW2 8877   5.432   3.193   4.465
 2660SOL     OW 8878   2.020   0.262   1.948
 2660SOL    HW1 8879   1.935   0.241   1.996
 2660SOL    HW2 8880   2.060   0.346   1.984
 2661SOL     OW 8881   2.280   0.470   1.402
 2661SOL    HW1 8882   2.261   0.474   1.500
 2661SOL    HW2 8883   2.297   0.375   1.375
 2662SOL     OW 8884   4.571   6.444   4.788
 2662SOL    HW1 8885   4.497   6.396   4.741
 2662SOL    HW2 8886   4.602   6.521   4.733
 2663SOL     OW 8887   3.326   4.296   6.844
 2663SOL    HW1 8888   3.384   4.338   6.914
 2663SOL    HW2 8889   3.230   4.316   6.864
 2664SOL     OW 8890   4.230   3.543   5.521
 2664SOL    HW1 8891   4.152   3.518   5.465
 2664SOL    HW2 8892   4.312   3.495   5.488
 2665SOL     OW 8893   2.723   3.146   5.307
 2665SOL    HW1 8894   2.637   3.117   5.265
 2665SOL    HW2 8895   2.799   3.092   5.269
 2666SOL     OW 8896   6.291   4.854   1.368
 2666SOL    HW1 8897   6.373   4.877   1.316
 2666SOL    HW2 8898   6.236   4.788   1.317
 2667SOL     OW 8899   0.522   5.855   4.372
 2667SOL    HW1 8900   0.515   5.914   4.452
 2667SOL    HW2 8901   0.435   5.809   4.356
 2668SOL     OW 8902   0.044   3.093   5.211
 2668SOL    HW1 8903   7.007   3.172   5.198
 2668SOL    HW2 8904   0.083   3.066   5.123
 2669SOL     OW 8905   3.070   4.459   5.645
 2669SOL    HW1 8906   2.983   4.434   5.602
 2669SOL    HW2 8907   3.073   4.421   5.738
 2670SOL     OW 8908   5.458   3.239   5.732
 2670SOL    HW1 8909   5.545   3.216   5.688
 2670SOL    HW2 8910   5.429   3.162   5.790
 2671SOL     OW 8911   4.571   5.207   6.418
 2671SOL    HW1 8912   4.613   5.297   6.407
 2671SOL    HW2 8913   4.643   5.138   6.425
 2672SOL     OW 8914   1.871   5.132   0.573
 2672SOL    HW1 8915   1.899   5.056   0.632
 2672SOL    HW2 8916   1.791   5.177   0.612
 2673SOL     OW 8917   6.311   1.415   2.448
 2673SOL    HW1 8918   6.247   1.361   2.503
 2673SOL    HW2 8919   6.316   1.375   2.356
 2674SOL     OW 8920   1.313   4.703   3.849
 2674SOL    HW1 8921   1.356   4.675   3.935
 2674SOL    HW2 8922   1.262   4.626   3.811
 2675SOL     OW 8923   6.382   5.234   4.148
 2675SOL    HW1 8924   6.365   5.136   4.157
 2675SOL    HW2 8925   6.328   5.283   4.216
 2676SOL     OW 8926   3.792   2.503   0.981
 2676SOL    HW1 8927   3.734   2.441   1.034
 2676SOL    HW2 8928   3.766   2.498   0.885
 2677SOL     OW 8929   2.567   3.684   0.371
 2677SOL    HW1 8930   2.629   3.647   0.301
 2677SOL    HW2 8931   2.508   3.753   0.329
 2678SOL     OW 8932   0.358   2.791   1.546
 2678SOL    HW1 8933   0.376   2.876   1.596
 2678SOL    HW2 8934   0.431   2.775   1.480
 2679SOL     OW 8935   1.995   4.098   1.675
 2679SOL    HW1 8936   1.916   4.152   1.646
 2679SOL    HW2 8937   2.038   4.055   1.596
 2680SOL     OW 8938   1.281   1.680   0.739
 2680SOL    HW1 8939   1.260   1.735   0.819
 2680SOL    HW2 8940   1.324   1.738   0.669
 2681SOL     OW 8941   1.783   2.306   4.759
 2681SOL    HW1 8942   1.688   2.335   4.772
 2681SOL    HW2 8943   1.784   2.219   4.709
 2682SOL     OW 8944   4.680   4.505   3.147
 2682SOL    HW1 8945   4.749   4.435   3.163
 2682SOL    HW2 8946   4.603   4.465   3.098
 2683SOL     OW 8947   2.791   5.408   1.539
 2683SOL    HW1 8948   2.783   5.341   1.465
 2683SOL    HW2 8949   2.699   5.438   1.567
 2684SOL     OW 8950   4.713   5.645   1.830
 2684SOL    HW1 8951   4.627   5.601   1.857
 2684SOL    HW2 8952   4.724   5.730   1.881
 2685SOL     OW 8953   5.853   6.322   5.712
 2685SOL    HW1 8954   5.927   6.292   5.772
 2685SOL    HW2 8955   5.769   6.331   5.765
 2686SOL     OW 8956   1.922   1.697   5.481
 2686SOL    HW1 8957   1.872   1.716   5.397
 2686SOL    HW2 8958   1.914   1.599   5.502
 2687SOL     OW 8959   5.108   5.081   1.243
 2687SOL    HW1 8960   5.168   5.161   1.242
 2687SOL    HW2 8961   5.148   5.011   1.302
 2688SOL     OW 8962   3.525   4.003   0.373
 2688SOL    HW1 8963   3.542   3.935   0.301
 2688SOL    HW2 8964   3.607   4.015   0.428
 2689SOL     OW 8965   1.355   4.496   3.427
 2689SOL    HW1 8966   1.318   4.581   3.464
 2689SOL    HW2 8967   1.303   4.470   3.346
 2690SOL     OW 8968   3.830   2.992   4.648
 2690SOL    HW1 8969   3.885   2.985   4.731
 2690SOL    HW2 8970   3.734   2.974   4.670
 2691SOL     OW 8971   1.893   5.397   3.357
 2691SOL    HW1 8972   1.830   5.321   3.341
 2691SOL    HW2 8973   1.841   5.481   3.373
 2692SOL     OW 8974   3.150   6.047   3.000
 2692SOL    HW1 8975   3.150   6.147   3.011
 2692SOL    HW2 8976   3.243   6.013   3.014
 2693SOL     OW 8977   2.416   5.320   3.713
 2693SOL    HW1 8978   2.336   5.336   3.770
 2693SOL    HW2 8979   2.495   5.368   3.751
 2694SOL     OW 8980   3.608   5.954   2.744
 2694SOL    HW1 8981   3.704   5.975   2.759
 2694SOL    HW2 8982   3.600   5.872   2.686
 2695SOL     OW 8983   5.770   0.589   1.870
 2695SOL    HW1 8984   5.815   0.501   1.856
 2695SOL    HW2 8985   5.742   0.597   1.966
 2696SOL     OW 8986   3.836   3.226   5.901
 2696SOL    HW1 8987   3.804   3.181   5.818
 2696SOL    HW2 8988   3.768   3.294   5.930
 2697SOL     OW 8989   3.275   1.345   2.708
 2697SOL    HW1 8990   3.322   1.360   2.621
 2697SOL    HW2 8991   3.184   1.307   2.690
 2698SOL     OW 8992   1.562   5.495   0.844
 2698SOL    HW1 8993   1.612   5.572   0.806
 2698SOL    HW2 8994   1.550   5.424   0.774
 2699SOL     OW 8995   2.047   5.842   0.456
 2699SOL    HW1 8996   1.966   5.842   0.515
 2699SOL    HW2 8997   2.127   5.869   0.510
 2700SOL     OW 8998   2.898   3.432   0.238
 2700SOL    HW1 8999   2.815   3.409   0.287
 2700SOL    HW2 9000   2.928   3.353   0.184
 2701SOL     OW 9001   5.257   1.673   5.887
 2701SOL    HW1 9002   5.175   1.723   5.859
 2701SOL    HW2 9003   5.323   1.738   5.926
 2702SOL     OW 9004   0.711   3.067   3.165
 2702SOL    HW1 9005   0.803   3.039   3.194
 2702SOL    HW2 9006   0.695   3.162   3.194
 2703SOL     OW 9007   1.381   0.246   0.871
 2703SOL    HW1 9008   1.423   0.296   0.947
 2703SOL    HW2 9009   1.346   0.312   0.804
 2704SOL     OW 9010   6.738   5.718   1.545
 2704SOL    HW1 9011   6.639   5.707   1.543
 2704SOL    HW2 9012   6.778   5.690   1.458
 2705SOL     OW 9013   0.356   5.256   4.568
 2705SOL    HW1 9014   0.354   5.325   4.495
 2705SOL    HW2 9015   0.442   5.264   4.618
 2706SOL     OW 9016   6.475   5.272   2.179
 2706SOL    HW1 9017   6.463   5.351   2.239
 2706SOL    HW2 9018   6.565   5.232   2.194
 2707SOL     OW 9019   4.050   6.911   3.712
 2707SOL    HW1 9020   4.062   7.001   3.752
 2707SOL    HW2 9021   4.132   6.856   3.729
 2708SOL     OW 9022   0.261   3.180   0.600
 2708SOL    HW1 9023   0.241   3.233   0.683
 2708SOL    HW2 9024   0.194   3.203   0.530
 2709SOL     OW 9025   5.060   6.991   6.859
 2709SOL    HW1 9026   5.152   7.021   6.833
 2709SOL    HW2 9027   5.054   6.892   6.853
 2710SOL     OW 9028   0.491   3.698   4.208
 2710SOL    HW1 9029   0.542   3.664   4.288
 2710SOL    HW2 9030   0.501   3.797   4.201
 2711SOL     OW 9031   2.209   0.461   4.080
 2711SOL    HW1 9032   2.268   0.385   4.106
 2711SOL    HW2 9033   2.260   0.524   4.021
 2712SOL     OW 9034   2.877   4.400   1.421
 2712SOL    HW1 9035   2.822   4.410   1.504
 2712SOL    HW2 9036   2.974   4.400   1.445
 2713SOL     OW 9037   2.475   2.586   4.957
 2713SOL    HW1 9038   2.469   2.491   4.988
 2713SOL    HW2 9039   2.525   2.591   4.871
 2714SOL     OW 9040   3.676   2.569   0.449
 2714SOL    HW1 9041   3.729   2.632   0.392
 2714SOL    HW2 9042   3.581   2.567   0.418
 2715SOL     OW 9043   5.105   1.603   1.232
 2715SOL    HW1 9044   5.006   1.616   1.232
 2715SOL    HW2 9045   5.126   1.505   1.236
 2716SOL     OW 9046   5.381   3.771   2.221
 2716SOL    HW1 9047   5.419   3.798   2.132
 2716SOL    HW2 9048   5.316   3.695   2.208
 2717SOL     OW 9049   0.890   0.276   3.060
 2717SOL    HW1 9050   0.894   0.201   3.126
 2717SOL    HW2 9051   0.801   0.275   3.015
 2718SOL     OW 9052   1.587   1.712   4.745
 2718SOL    HW1 9053   1.490   1.700   4.725
 2718SOL    HW2 9054   1.599   1.753   4.835
 2719SOL     OW 9055   0.490   4.944   2.072
 2719SOL    HW1 9056   0.502   4.901   1.983
 2719SOL    HW2 9057   0.395   4.938   2.100
 2720SOL     OW 9058   2.255   5.487   1.817
 2720SOL    HW1 9059   2.202   5.515   1.737
 2720SOL    HW2 9060   2.292   5.396   1.802
 2721SOL     OW 9061   2.769   6.970   3.657
 2721SOL    HW1 9062   2.849   6.923   3.620
 2721SOL    HW2 9063   2.733   0.011   3.589
 2722SOL     OW 9064   0.198   4.855   0.528
 2722SOL    HW1 9065   0.188   4.875   0.430
 2722SOL    HW2 9066   0.274   4.792   0.541
 2723SOL     OW 9067   0.282   6.970   6.544
 2723SOL    HW1 9068   0.300   7.017   6.630
 2723SOL    HW2 9069   0.333   7.014   6.470
 2724SOL     OW 9070   2.219   6.450   6.824
 2724SOL    HW1 9071   2.183   6.381   6.886
 2724SOL    HW2 9072   2.148   6.516   6.802
 2725SOL     OW 9073   5.097   4.196   4.525
 2725SOL    HW1 9074   5.023   4.178   4.459
 2725SOL    HW2 9075   5.153   4.114   4.535
 2726SOL     OW 9076   0.426   2.367   1.005
 2726SOL    HW1 9077   0.373   2.282   1.017
 2726SOL    HW2 9078   0.455   2.400   1.095
 2727SOL     OW 9079   0.628   5.090   3.618
 2727SOL    HW1 9080   0.580   5.004   3.631
 2727SOL    HW2 9081   0.563   5.162   3.593
 2728SOL     OW 9082   4.478   6.690   5.870
 2728SOL    HW1 9083   4.516   6.731   5.787
 2728SOL    HW2 9084   4.455   6.761   5.936
 2729SOL     OW 9085   6.919   6.337   0.721
 2729SOL    HW1 9086   6.925   6.343   0.622
 2729SOL    HW2 9087   7.010   6.352   0.761
 2730SOL     OW 9088   1.874   5.824   1.627
 2730SOL    HW1 9089   1.970   5.797   1.626
 2730SOL    HW2 9090   1.821   5.761   1.569
 2731SOL     OW 9091   3.307   4.036   3.078
 2731SOL    HW1 9092   3.369   3.958   3.087
 2731SOL    HW2 9093   3.309   4.090   3.161
 2732SOL     OW 9094   5.219   2.843   1.794
 2732SOL    HW1 9095   5.170   2.905   1.856
 2732SOL    HW2 9096   5.284   2.895   1.739
 2733SOL     OW 9097   6.555   1.993   4.504
 2733SOL    HW1 9098   6.559   1.901   4.542
 2733SOL    HW2 9099   6.496   1.992   4.423
 2734SOL     OW 9100   3.282   6.013   1.090
 2734SOL    HW1 9101   3.345   5.986   1.163
 2734SOL    HW2 9102   3.197   5.961   1.099
 2735SOL     OW 9103   1.346   3.396   1.587
 2735SOL    HW1 9104   1.388   3.484   1.566
 2735SOL    HW2 9105   1.304   3.400   1.677
 2736SOL     OW 9106   6.071   6.485   5.038
 2736SOL    HW1 9107   6.032   6.411   4.982
 2736SOL    HW2 9108   5.997   6.543   5.072
 2737SOL     OW 9109   2.666   3.993   5.714
 2737SOL    HW1 9110   2.569   3.974   5.700
 2737SOL    HW2 9111   2.677   4.062   5.785
 2738SOL     OW 9112   4.841   6.632   1.508
 2738SOL    HW1 9113   4.752   6.674   1.491
 2738SOL    HW2 9114   4.840   6.538   1.474
 2739SOL     OW 9115   0.872   4.425   1.560
 2739SOL    HW1 9116   0.936   4.362   1.516
 2739SOL    HW2 9117   0.888   4.518   1.525
 2740SOL     OW 9118   0.197   3.621   2.574
 2740SOL    HW1 9119   0.284   3.632   2.622
 2740SOL    HW2 9120   0.142   3.703   2.586
 2741SOL     OW 9121   6.097   0.609   5.173
 2741SOL    HW1 9122   6.018   0.600   5.234
 2741SOL    HW2 9123   6.085   0.689   5.114
 2742SOL     OW 9124   2.071   4.803   0.369
 2742SOL    HW1 9125   1.973   4.798   0.388
 2742SOL    HW2 9126   2.102   4.718   0.326
 2743SOL     OW 9127   5.996   4.807   2.172
 2743SOL    HW1 9128   6.041   4.801   2.083
 2743SOL    HW2 9129   5.898   4.790   2.161
 2744SOL     OW 9130   4.706   2.343   0.176
 2744SOL    HW1 9131   4.785   2.290   0.147
 2744SOL    HW2 9132   4.736   2.433   0.209
 2745SOL     OW 9133   6.694   0.130   5.517
 2745SOL    HW1 9134   6.663   0.084   5.433
 2745SOL    HW2 9135   6.711   0.061   5.588
 2746SOL     OW 9136   1.991   1.501   4.398
 2746SOL    HW1 9137   2.058   1.569   4.429
 2746SOL    HW2 9138   1.902   1.521   4.441
 2747SOL     OW 9139   5.588   3.932   6.818
 2747SOL    HW1 9140   5.549   4.024   6.822
 2747SOL    HW2 9141   5.646   3.923   6.737
 2748SOL     OW 9142   5.058   1.448   1.784
 2748SOL    HW1 9143   5.135   1.404   1.739
 2748SOL    HW2 9144   4.978   1.445   1.725
 2749SOL     OW 9145   0.145   4.295   2.182
 2749SOL    HW1 9146   0.102   4.216   2.226
 2749SOL    HW2 9147   0.222   4.263   2.126
 2750SOL     OW 9148   1.008   4.377   1.201
 2750SOL    HW1 9149   0.939   4.326   1.150
 2750SOL    HW2 9150   1.032   4.326   1.284
 2751SOL     OW 9151   1.090   4.273   1.444
 2751SOL    HW1 9152   1.088   4.237   1.538
 2751SOL    HW2 9153   1.181   4.262   1.406
 2752SOL     OW 9154   3.775   5.539   5.701
 2752SOL    HW1 9155   3.736   5.495   5.782
 2752SOL    HW2 9156   3.847   5.481   5.662
 2753SOL     OW 9157   0.508   6.762   5.503
 2753SOL    HW1 9158   0.467   6.850   5.523
 2753SOL    HW2 9159   0.507   6.705   5.585
 2754SOL     OW 9160   0.591   0.748   1.900
 2754SOL    HW1 9161   0.634   0.789   1.820
 2754SOL    HW2 9162   0.496   0.725   1.878
 2755SOL     OW 9163   2.458   6.988   2.966
 2755SOL    HW1 9164   2.469   6.991   3.065
 2755SOL    HW2 9165   2.428   6.896   2.938
 2756SOL     OW 9166   5.581   5.512   6.442
 2756SOL    HW1 9167   5.635   5.436   6.478
 2756SOL    HW2 9168   5.579   5.508   6.342
 2757SOL     OW 9169   2.415   0.519   0.011
 2757SOL    HW1 9170   2.384   0.424   0.003
 2757SOL    HW2 9171   2.514   0.522   0.017
 2758SOL     OW 9172   3.770   6.582   3.936
 2758SOL    HW1 9173   3.848   6.641   3.957
 2758SOL    HW2 9174   3.693   6.637   3.906
 2759SOL     OW 9175   5.410   6.834   5.679
 2759SOL    HW1 9176   5.411   6.736   5.700
 2759SOL    HW2 9177   5.396   6.887   5.762
 2760SOL     OW 9178   0.785   6.137   2.259
 2760SOL    HW1 9179   0.858   6.092   2.207
 2760SOL    HW2 9180   0.747   6.212   2.204
 2761SOL     OW 9181   2.060   5.424   5.202
 2761SOL    HW1 9182   2.128   5.353   5.188
 2761SOL    HW2 9183   2.097   5.512   5.171
 2762SOL     OW 9184   0.997   0.877   4.767
 2762SOL    HW1 9185   1.042   0.857   4.680
 2762SOL    HW2 9186   0.955   0.967   4.763
 2763SOL     OW 9187   4.820   1.662   3.489
 2763SOL    HW1 9188   4.800   1.570   3.454
 2763SOL    HW2 9189   4.753   1.727   3.452
 2764SOL     OW 9190   6.107   0.490   1.417
 2764SOL    HW1 9191   6.041   0.499   1.343
 2764SOL    HW2 9192   6.109   0.395   1.448
 2765SOL     OW 9193   6.077   0.085   0.736
 2765SOL    HW1 9194   5.982   0.106   0.755
 2765SOL    HW2 9195   6.111   0.018   0.802
 2766SOL     OW 9196   5.095   2.483   0.572
 2766SOL    HW1 9197   5.109   2.492   0.671
 2766SOL    HW2 9198   5.172   2.434   0.532
 2767SOL     OW 9199   0.092   5.492   6.848
 2767SOL    HW1 9200   0.100   5.551   6.768
 2767SOL    HW2 9201   0.178   5.494   6.899
 2768SOL     OW 9202   4.278   0.557   1.153
 2768SOL    HW1 9203   4.248   0.618   1.079
 2768SOL    HW2 9204   4.203   0.547   1.219
 2769SOL     OW 9205   2.334   4.770   4.452
 2769SOL    HW1 9206   2.346   4.784   4.353
 2769SOL    HW2 9207   2.383   4.841   4.502
 2770SOL     OW 9208   4.057   6.241   6.319
 2770SOL    HW1 9209   4.055   6.194   6.408
 2770SOL    HW2 9210   3.964   6.244   6.281
 2771SOL     OW 9211   6.618   0.980   3.679
 2771SOL    HW1 9212   6.709   1.015   3.657
 2771SOL    HW2 9213   6.626   0.887   3.715
 2772SOL     OW 9214   4.056   1.910   0.718
 2772SOL    HW1 9215   4.067   1.947   0.625
 2772SOL    HW2 9216   4.115   1.962   0.780
 2773SOL     OW 9217   6.160   1.990   4.919
 2773SOL    HW1 9218   6.060   1.983   4.916
 2773SOL    HW2 9219   6.198   1.904   4.953
 2774SOL     OW 9220   5.533   3.244   2.696
 2774SOL    HW1 9221   5.480   3.170   2.736
 2774SOL    HW2 9222   5.503   3.260   2.602
 2775SOL     OW 9223   6.398   4.963   5.689
 2775SOL    HW1 9224   6.411   4.865   5.674
 2775SOL    HW2 9225   6.336   5.000   5.620
 2776SOL     OW 9226   4.579   4.998   5.820
 2776SOL    HW1 9227   4.593   4.913   5.770
 2776SOL    HW2 9228   4.664   5.024   5.866
 2777SOL     OW 9229   3.044   1.794   1.903
 2777SOL    HW1 9230   3.087   1.792   1.812
 2777SOL    HW2 9231   3.016   1.887   1.925
 2778SOL     OW 9232   1.765   0.138   5.612
 2778SOL    HW1 9233   1.781   0.231   5.579
 2778SOL    HW2 9234   1.729   0.142   5.705
 2779SOL     OW 9235   4.661   6.348   1.258
 2779SOL    HW1 9236   4.598   6.334   1.182
 2779SOL    HW2 9237   4.710   6.434   1.246
 2780SOL     OW 9238   6.285   6.771   6.907
 2780SOL    HW1 9239   6.241   6.857   6.883
 2780SOL    HW2 9240   6.278   6.708   6.830
 2781SOL     OW 9241   5.403   6.619   1.544
 2781SOL    HW1 9242   5.368   6.646   1.454
 2781SOL    HW2 9243   5.353   6.670   1.615
 2782SOL     OW 9244   4.556   2.032   6.196
 2782SOL    HW1 9245   4.552   2.029   6.096
 2782SOL    HW2 9246   4.617   2.106   6.224
 2783SOL     OW 9247   5.242   4.380   2.978
 2783SOL    HW1 9248   5.206   4.456   2.923
 2783SOL    HW2 9249   5.237   4.295   2.926
 2784SOL     OW 9250   3.395   1.624   2.406
 2784SOL    HW1 9251   3.417   1.533   2.441
 2784SOL    HW2 9252   3.297   1.630   2.385
 2785SOL     OW 9253   5.223   2.234   0.521
 2785SOL    HW1 9254   5.255   2.273   0.434
 2785SOL    HW2 9255   5.189   2.141   0.505
 2786SOL     OW 9256   5.089   6.948   2.703
 2786SOL    HW1 9257   5.052   7.019   2.643
 2786SOL    HW2 9258   5.183   6.973   2.728
 2787SOL     OW 9259   4.885   0.943   5.909
 2787SOL    HW1 9260   4.974   0.940   5.863
 2787SOL    HW2 9261   4.895   0.989   5.997
 2788SOL     OW 9262   2.049   5.107   6.002
 2788SOL    HW1 9263   2.055   5.035   5.933
 2788SOL    HW2 9264   2.032   5.066   6.091
 2789SOL     OW 9265   1.462   2.623   3.653
 2789SOL    HW1 9266   1.372   2.579   3.650
 2789SOL    HW2 9267   1.462   2.702   3.591
 2790SOL     OW 9268   3.355   5.835   2.475
 2790SOL    HW1 9269   3.313   5.746   2.490
 2790SOL    HW2 9270   3.339   5.865   2.381
 2791SOL     OW 9271   0.354   2.988   3.485
 2791SOL    HW1 9272   0.414   2.985   3.405
 2791SOL    HW2 9273   0.263   3.020   3.457
 2792SOL     OW 9274   1.551   6.950   4.044
 2792SOL    HW1 9275   1.635   7.001   4.065
 2792SOL    HW2 9276   1.488   7.009   3.994
 2793SOL     OW 9277   5.745   4.076   1.355
 2793SOL    HW1 9278   5.806   4.155   1.353
 2793SOL    HW2 9279   5.770   4.013   1.282
 2794SOL     OW 9280   0.003   2.590   6.696
 2794SOL    HW1 9281   0.079   2.526   6.694
 2794SOL    HW2 9282   0.034   2.679   6.730
 2795SOL     OW 9283   0.919   3.045   0.317
 2795SOL    HW1 9284   1.001   3.096   0.339
 2795SOL    HW2 9285   0.844   3.073   0.377
 2796SOL     OW 9286   0.027   6.354   3.666
 2796SOL    HW1 9287   7.015   6.375   3.758
 2796SOL    HW2 9288   0.095   6.281   3.671
 2797SOL     OW 9289   5.418   5.455   4.844
 2797SOL    HW1 9290   5.379   5.396   4.915
 2797SOL    HW2 9291   5.346   5.483   4.780
 2798SOL     OW 9292   0.752   5.666   2.295
 2798SOL    HW1 9293   0.737   5.601   2.221
 2798SOL    HW2 9294   0.827   5.728   2.271
 2799SOL     OW 9295   5.776   5.301   6.566
 2799SOL    HW1 9296   5.862   5.301   6.617
 2799SOL    HW2 9297   5.796   5.306   6.468
 2800SOL     OW 9298   4.664   6.223   0.199
 2800SOL    HW1 9299   4.633   6.133   0.231
 2800SOL    HW2 9300   4.614   6.294   0.249
 2801SOL     OW 9301   6.972   5.641   6.314
 2801SOL    HW1 9302   6.984   5.544   6.332
 2801SOL    HW2 9303   6.932   5.685   6.394
 2802SOL     OW 9304   5.083   0.911   5.065
 2802SOL    HW1 9305   5.046   0.968   5.138
 2802SOL    HW2 9306   5.027   0.922   4.983
 2803SOL     OW 9307   4.082   5.698   6.339
 2803SOL    HW1 9308   4.063   5.622   6.401
 2803SOL    HW2 9309   4.151   5.671   6.273
 2804SOL     OW 9310   0.375   4.852   5.367
 2804SOL    HW1 9311   0.360   4.759   5.401
 2804SOL    HW2 9312   0.301   4.877   5.304
 2805SOL     OW 9313   6.158   2.905   1.966
 2805SOL    HW1 9314   6.152   2.950   1.877
 2805SOL    HW2 9315   6.106   2.958   2.034
 2806SOL     OW 9316   0.443   4.101   6.316
 2806SOL    HW1 9317   0.520   4.054   6.359
 2806SOL    HW2 9318   0.408   4.044   6.241
 2807SOL     OW 9319   3.756   6.483   4.201
 2807SOL    HW1 9320   3.665   6.444   4.186
 2807SOL    HW2 9321   3.792   6.517   4.114
 2808SOL     OW 9322   5.929   4.740   1.856
 2808SOL    HW1 9323   5.943   4.645   1.829
 2808SOL    HW2 9324   6.018   4.785   1.867
 2809SOL     OW 9325   5.639   2.763   1.279
 2809SOL    HW1 9326   5.674   2.792   1.368
 2809SOL    HW2 9327   5.544   2.733   1.289
 2810SOL     OW 9328   3.755   5.151   3.552
 2810SOL    HW1 9329   3.847   5.173   3.519
 2810SOL    HW2 9330   3.694   5.142   3.473
 2811SOL     OW 9331   0.992   2.193   3.382
 2811SOL    HW1 9332   1.066   2.206   3.316
 2811SOL    HW2 9333   1.029   2.155   3.467
 2812SOL     OW 9334   5.195   3.331   6.623
 2812SOL    HW1 9335   5.250   3.395   6.676
 2812SOL    HW2 9336   5.163   3.257   6.682
 2813SOL     OW 9337   0.788   0.401   6.803
 2813SOL    HW1 9338   0.843   0.349   6.868
 2813SOL    HW2 9339   0.731   0.467   6.852
 2814SOL     OW 9340   3.837   3.762   5.502
 2814SOL    HW1 9341   3.825   3.788   5.406
 2814SOL    HW2 9342   3.752   3.777   5.552
 2815SOL     OW 9343   6.646   6.800   6.073
 2815SOL    HW1 9344   6.615   6.811   6.167
 2815SOL    HW2 9345   6.567   6.793   6.013
 2816SOL     OW 9346   6.359   5.264   3.255
 2816SOL    HW1 9347   6.405   5.187   3.210
 2816SOL    HW2 9348   6.369   5.346   3.199
 2817SOL     OW 9349   3.454   6.836   1.902
 2817SOL    HW1 9350   3.385   6.834   1.975
 2817SOL    HW2 9351   3.528   6.898   1.928
 2818SOL     OW 9352   0.392   0.501   1.550
 2818SOL    HW1 9353   0.368   0.418   1.501
 2818SOL    HW2 9354   0.488   0.524   1.533
 2819SOL     OW 9355   0.679   0.910   1.697
 2819SOL    HW1 9356   0.627   0.993   1.682
 2819SOL    HW2 9357   0.689   0.860   1.610
 2820SOL     OW 9358   0.838   2.585   2.939
 2820SOL    HW1 9359   0.860   2.506   2.996
 2820SOL    HW2 9360   0.899   2.661   2.963
 2821SOL     OW 9361   4.090   4.161   6.242
 2821SOL    HW1 9362   4.133   4.090   6.186
 2821SOL    HW2 9363   4.096   4.249   6.196
 2822SOL     OW 9364   3.924   2.304   0.643
 2822SOL    HW1 9365   3.894   2.393   0.678
 2822SOL    HW2 9366   3.866   2.277   0.566
 2823SOL     OW 9367   4.497   0.870   0.597
 2823SOL    HW1 9368   4.473   0.862   0.693
 2823SOL    HW2 9369   4.478   0.783   0.550
 2824SOL     OW 9370   1.911   1.705   3.418
 2824SOL    HW1 9371   1.965   1.622   3.431
 2824SOL    HW2 9372   1.849   1.717   3.496
 2825SOL     OW 9373   5.555   6.838   6.534
 2825SOL    HW1 9374   5.487   6.767   6.518
 2825SOL    HW2 9375   5.602   6.821   6.620
 2826SOL     OW 9376   4.531   0.807   0.077
 2826SOL    HW1 9377   4.516   0.837   7.006
 2826SOL    HW2 9378   4.616   0.847   0.112
 2827SOL     OW 9379   0.702   1.442   5.818
 2827SOL    HW1 9380   0.660   1.477   5.902
 2827SOL    HW2 9381   0.796   1.476   5.812
 2828SOL     OW 9382   2.385   1.466   0.091
 2828SOL    HW1 9383   2.370   1.368   0.103
 2828SOL    HW2 9384   2.481   1.488   0.105
 2829SOL     OW 9385   2.936   3.484   5.069
 2829SOL    HW1 9386   2.930   3.414   4.998
 2829SOL    HW2 9387   3.031   3.493   5.099
 2830SOL     OW 9388   1.960   3.304   5.773
 2830SOL    HW1 9389   1.987   3.234   5.706
 2830SOL    HW2 9390   1.861   3.318   5.767
 2831SOL     OW 9391   0.792   4.628   3.729
 2831SOL    HW1 9392   0.808   4.533   3.703
 2831SOL    HW2 9393   0.833   4.646   3.819
 2832SOL     OW 9394   1.210   3.247   2.079
 2832SOL    HW1 9395   1.188   3.150   2.073
 2832SOL    HW2 9396   1.207   3.276   2.175
 2833SOL     OW 9397   2.782   1.964   2.358
 2833SOL    HW1 9398   2.685   1.956   2.381
 2833SOL    HW2 9399   2.798   1.921   2.269
 2834SOL     OW 9400   4.020   5.933   6.166
 2834SOL    HW1 9401   4.074   5.902   6.245
 2834SOL    HW2 9402   4.035   6.030   6.152
 2835SOL     OW 9403   0.656   6.301   2.051
 2835SOL    HW1 9404   0.572   6.288   1.999
 2835SOL    HW2 9405   0.726   6.237   2.017
 2836SOL     OW 9406   0.109   0.165   2.147
 2836SOL    HW1 9407   0.034   0.099   2.143
 2836SOL    HW2 9408   0.120   0.208   2.057
 2837SOL     OW 9409   4.416   5.103   2.631
 2837SOL    HW1 9410   4.380   5.046   2.556
 2837SOL    HW2 9411   4.345   5.116   2.700
 2838SOL     OW 9412   3.397   3.824   1.112
 2838SOL    HW1 9413   3.388   3.747   1.176
 2838SOL    HW2 9414   3.451   3.796   1.033
 2839SOL     OW 9415   6.521   2.587   3.047
 2839SOL    HW1 9416   6.611   2.562   3.084
 2839SOL    HW2 9417   6.508   2.685   3.056
 2840SOL     OW 9418   1.204   0.224   3.364
 2840SOL    HW1 9419   1.259   0.255   3.287
 2840SOL    HW2 9420   1.187   0.125   3.356
 2841SOL     OW 9421   0.243   1.044   6.137
 2841SOL    HW1 9422   0.213   0.961   6.184
 2841SOL    HW2 9423   0.328   1.026   6.088
 2842SOL     OW 9424   0.385   3.977   3.779
 2842SOL    HW1 9425   0.481   3.963   3.804
 2842SOL    HW2 9426   0.339   4.031   3.850
 2843SOL     OW 9427   2.535   2.517   2.477
 2843SOL    HW1 9428   2.517   2.615   2.466
 2843SOL    HW2 9429   2.630   2.498   2.451
 2844SOL     OW 9430   0.079   5.131   6.989
 2844SOL    HW1 9431   0.022   5.139   6.907
 2844SOL    HW2 9432   0.175   5.146   6.965
 2845SOL     OW 9433   5.829   3.224   1.694
 2845SOL    HW1 9434   5.829   3.136   1.645
 2845SOL    HW2 9435   5.906   3.227   1.757
 2846SOL     OW 9436   4.113   1.281   0.222
 2846SOL    HW1 9437   4.098   1.345   0.297
 2846SOL    HW2 9438   4.046   1.298   0.149
 2847SOL     OW 9439   5.173   3.886   3.300
 2847SOL    HW1 9440   5.261   3.883   3.347
 2847SOL    HW2 9441   5.156   3.979   3.268
 2848SOL     OW 9442   1.900   2.763   5.384
 2848SOL    HW1 9443   1.944   2.683   5.425
 2848SOL    HW2 9444   1.963   2.840   5.384
 2849SOL     OW 9445   4.175   0.012   0.767
 2849SOL    HW1 9446   4.179   6.945   0.722
 2849SOL    HW2 9447   4.082   0.049   0.758
 2850SOL     OW 9448   1.808   0.215   2.723
 2850SOL    HW1 9449   1.797   0.303   2.676
 2850SOL    HW2 9450   1.847   0.149   2.659
 2851SOL     OW 9451   5.870   1.669   6.192
 2851SOL    HW1 9452   5.836   1.575   6.192
 2851SOL    HW2 9453   5.886   1.699   6.098
 2852SOL     OW 9454   6.166   3.757   6.936
 2852SOL    HW1 9455   6.124   3.844   6.907
 2852SOL    HW2 9456   6.096   3.687   6.942
 2853SOL     OW 9457   1.648   1.067   6.673
 2853SOL    HW1 9458   1.557   1.037   6.702
 2853SOL    HW2 9459   1.659   1.164   6.693
 2854SOL     OW 9460   4.745   0.853   5.195
 2854SOL    HW1 9461   4.722   0.881   5.288
 2854SOL    HW2 9462   4.673   0.882   5.132
 2855SOL     OW 9463   2.096   1.867   6.045
 2855SOL    HW1 9464   2.111   1.894   6.140
 2855SOL    HW2 9465   2.096   1.767   6.039
 2856SOL     OW 9466   0.653   3.017   5.535
 2856SOL    HW1 9467   0.751   3.021   5.556
 2856SOL    HW2 9468   0.602   2.993   5.618
 2857SOL     OW 9469   2.332   2.754   2.211
 2857SOL    HW1 9470   2.384   2.700   2.145
 2857SOL    HW2 9471   2.389   2.777   2.289
 2858SOL     OW 9472   4.834   3.966   1.956
 2858SOL    HW1 9473   4.772   3.959   1.879
 2858SOL    HW2 9474   4.823   4.055   2.000
 2859SOL     OW 9475   5.508   0.592   6.694
 2859SOL    HW1 9476   5.459   0.513   6.658
 2859SOL    HW2 9477   5.540   0.572   6.786
 2860SOL     OW 9478   2.748   1.826   1.792
 2860SOL    HW1 9479   2.745   1.920   1.828
 2860SOL    HW2 9480   2.841   1.806   1.760
 2861SOL     OW 9481   3.910   5.122   5.582
 2861SOL    HW1 9482   3.851   5.114   5.502
 2861SOL    HW2 9483   3.871   5.069   5.657
 2862SOL     OW 9484   5.481   1.602   2.359
 2862SOL    HW1 9485   5.542   1.618   2.281
 2862SOL    HW2 9486   5.394   1.565   2.326
 2863SOL     OW 9487   4.701   1.228   6.690
 2863SOL    HW1 9488   4.619   1.279   6.665
 2863SOL    HW2 9489   4.689   1.132   6.665
 2864SOL     OW 9490   4.064   1.534   2.081
 2864SOL    HW1 9491   3.980   1.525   2.028
 2864SOL    HW2 9492   4.043   1.578   2.169
 2865SOL     OW 9493   3.804   5.700   6.225
 2865SOL    HW1 9494   3.884   5.749   6.259
 2865SOL    HW2 9495   3.803   5.608   6.264
 2866SOL     OW 9496   6.791   5.610   6.724
 2866SOL    HW1 9497   6.839   5.662   6.653
 2866SOL    HW2 9498   6.770   5.670   6.801
 2867SOL     OW 9499   6.897   6.062   3.331
 2867SOL    HW1 9500   6.870   6.047   3.236
 2867SOL    HW2 9501   6.909   5.973   3.377
 2868SOL     OW 9502   1.410   0.931   5.635
 2868SOL    HW1 9503   1.347   0.868   5.589
 2868SOL    HW2 9504   1.406   1.021   5.590
 2869SOL     OW 9505   6.871   1.330   3.539
 2869SOL    HW1 9506   6.956   1.370   3.505
 2869SOL    HW2 9507   6.873   1.329   3.639
 2870SOL     OW 9508   0.353   1.425   4.997
 2870SOL    HW1 9509   0.425   1.370   5.038
 2870SOL    HW2 9510   0.360   1.422   4.898
 2871SOL     OW 9511   0.285   1.626   6.300
 2871SOL    HW1 9512   0.352   1.657   6.368
 2871SOL    HW2 9513   0.222   1.701   6.280
 2872SOL     OW 9514   2.487   2.202   1.859
 2872SOL    HW1 9515   2.503   2.142   1.937
 2872SOL    HW2 9516   2.533   2.289   1.875
 2873SOL     OW 9517   6.678   5.707   2.559
 2873SOL    HW1 9518   6.736   5.706   2.478
 2873SOL    HW2 9519   6.718   5.649   2.630
 2874SOL     OW 9520   4.994   6.824   3.431
 2874SOL    HW1 9521   4.899   6.855   3.434
 2874SOL    HW2 9522   5.002   6.736   3.479
 2875SOL     OW 9523   5.140   0.502   1.009
 2875SOL    HW1 9524   5.118   0.503   1.107
 2875SOL    HW2 9525   5.177   0.413   0.985
 2876SOL     OW 9526   1.546   7.018   2.664
 2876SOL    HW1 9527   1.519   0.091   2.648
 2876SOL    HW2 9528   1.472   6.958   2.637
 2877SOL     OW 9529   2.648   1.903   5.682
 2877SOL    HW1 9530   2.638   1.913   5.781
 2877SOL    HW2 9531   2.601   1.978   5.636
 2878SOL     OW 9532   3.506   4.726   5.338
 2878SOL    HW1 9533   3.574   4.798   5.323
 2878SOL    HW2 9534   3.550   4.637   5.328
 2879SOL     OW 9535   5.104   5.156   0.110
 2879SOL    HW1 9536   5.201   5.179   0.122
 2879SOL    HW2 9537   5.096   5.073   0.055
 2880SOL     OW 9538   6.942   0.885   1.881
 2880SOL    HW1 9539   6.905   0.896   1.789
 2880SOL    HW2 9540   6.875   0.915   1.949
 2881SOL     OW 9541   5.080   5.949   6.211
 2881SOL    HW1 9542   5.070   5.884   6.135
 2881SOL    HW2 9543   5.056   5.903   6.296
 2882SOL     OW 9544   0.026   5.447   2.568
 2882SOL    HW1 9545   6.991   5.419   2.491
 2882SOL    HW2 9546   0.104   5.384   2.575
 2883SOL     OW 9547   6.182   0.024   3.250
 2883SOL    HW1 9548   6.279   0.002   3.259
 2883SOL    HW2 9549   6.152   0.005   3.156
 2884SOL     OW 9550   1.119   0.154   2.166
 2884SOL    HW1 9551   1.198   0.108   2.207
 2884SOL    HW2 9552   1.097   0.236   2.220
 2885SOL     OW 9553   1.147   3.959   3.666
 2885SOL    HW1 9554   1.132   4.019   3.588
 2885SOL    HW2 9555   1.101   3.997   3.746
 2886SOL     OW 9556   1.239   4.014   5.949
 2886SOL    HW1 9557   1.187   3.966   6.020
 2886SOL    HW2 9558   1.337   4.000   5.964
 2887SOL     OW 9559   0.463   0.717   5.522
 2887SOL    HW1 9560   0.537   0.775   5.557
 2887SOL    HW2 9561   0.440   0.744   5.429
 2888SOL     OW 9562   0.089   4.239   6.848
 2888SOL    HW1 9563   0.166   4.178   6.867
 2888SOL    HW2 9564   0.123   4.329   6.823
 2889SOL     OW 9565   3.004   6.125   2.733
 2889SOL    HW1 9566   3.091   6.111   2.686
 2889SOL    HW2 9567   3.014   6.105   2.830
 2890SOL     OW 9568   1.620   6.141   0.496
 2890SOL    HW1 9569   1.600   6.238   0.504
 2890SOL    HW2 9570   1.556   6.089   0.553
 2891SOL     OW 9571   0.919   4.768   3.509
 2891SOL    HW1 9572   0.877   4.734   3.593
 2891SOL    HW2 9573   0.849   4.776   3.438
 2892SOL     OW 9574   5.625   3.402   0.519
 2892SOL    HW1 9575   5.654   3.309   0.542
 2892SOL    HW2 9576   5.705   3.455   0.492
 2893SOL     OW 9577   0.131   5.395   4.668
 2893SOL    HW1 9578   0.087   5.430   4.585
 2893SOL    HW2 9579   0.200   5.327   4.642
 2894SOL     OW 9580   1.301   3.742   2.358
 2894SOL    HW1 9581   1.220   3.785   2.399
 2894SOL    HW2 9582   1.351   3.811   2.305
 2895SOL     OW 9583   5.134   2.677   5.361
 2895SOL    HW1 9584   5.212   2.646   5.416
 2895SOL    HW2 9585   5.160   2.758   5.309
 2896SOL     OW 9586   4.912   5.621   5.414
 2896SOL    HW1 9587   4.821   5.621   5.454
 2896SOL    HW2 9588   4.911   5.570   5.328
 2897SOL     OW 9589   4.243   5.023   3.333
 2897SOL    HW1 9590   4.304   4.981   3.267
 2897SOL    HW2 9591   4.186   4.953   3.376
 2898SOL     OW 9592   4.381   4.647   4.441
 2898SOL    HW1 9593   4.311   4.692   4.385
 2898SOL    HW2 9594   4.368   4.670   4.537
 2899SOL     OW 9595   1.104   1.723   6.866
 2899SOL    HW1 9596   1.052   1.765   6.941
 2899SOL    HW2 9597   1.151   1.642   6.900
 2900SOL     OW 9598   1.737   3.410   6.140
 2900SOL    HW1 9599   1.684   3.391   6.057
 2900SOL    HW2 9600   1.755   3.508   6.146
 2901SOL     OW 9601   3.290   5.266   3.239
 2901SOL    HW1 9602   3.302   5.359   3.204
 2901SOL    HW2 9603   3.212   5.224   3.193
 2902SOL     OW 9604   5.537   5.991   3.049
 2902SOL    HW1 9605   5.550   6.090   3.039
 2902SOL    HW2 9606   5.510   5.952   2.962
 2903SOL     OW 9607   3.051   0.327   0.531
 2903SOL    HW1 9608   3.077   0.274   0.611
 2903SOL    HW2 9609   2.957   0.304   0.506
 2904SOL     OW 9610   2.465   4.433   4.321
 2904SOL    HW1 9611   2.500   4.477   4.404
 2904SOL    HW2 9612   2.418   4.349   4.345
 2905SOL     OW 9613   1.517   2.395   4.724
 2905SOL    HW1 9614   1.420   2.397   4.750
 2905SOL    HW2 9615   1.540   2.477   4.672
 2906SOL     OW 9616   3.892   5.658   1.892
 2906SOL    HW1 9617   3.887   5.600   1.811
 2906SOL    HW2 9618   3.893   5.754   1.865
 2907SOL     OW 9619   1.040   1.113   3.256
 2907SOL    HW1 9620   1.017   1.088   3.162
 2907SOL    HW2 9621   0.957   1.140   3.305
 2908SOL     OW 9622   4.935   6.521   3.159
 2908SOL    HW1 9623   4.999   6.568   3.221
 2908SOL    HW2 9624   4.984   6.451   3.108
 2909SOL     OW 9625   1.436   5.476   4.058
 2909SOL    HW1 9626   1.392   5.533   4.127
 2909SOL    HW2 9627   1.393   5.386   4.057
 2910SOL     OW 9628   4.742   0.717   4.396
 2910SOL    HW1 9629   4.726   0.679   4.305
 2910SOL    HW2 9630   4.696   0.661   4.464
 2911SOL     OW 9631   0.898   5.733   3.533
 2911SOL    HW1 9632   0.846   5.728   3.619
 2911SOL    HW2 9633   0.844   5.692   3.459
 2912SOL     OW 9634   4.987   0.284   6.416
 2912SOL    HW1 9635   4.891   0.257   6.407
 2912SOL    HW2 9636   5.045   0.204   6.400
 2913SOL     OW 9637   3.138   5.036   2.692
 2913SOL    HW1 9638   3.077   4.960   2.710
 2913SOL    HW2 9639   3.092   5.102   2.631
 2914SOL     OW 9640   6.467   6.347   6.502
 2914SOL    HW1 9641   6.553   6.381   6.465
 2914SOL    HW2 9642   6.407   6.320   6.427
 2915SOL     OW 9643   4.730   1.884   3.661
 2915SOL    HW1 9644   4.810   1.826   3.644
 2915SOL    HW2 9645   4.653   1.827   3.689
 2916SOL     OW 9646   1.221   6.778   0.747
 2916SOL    HW1 9647   1.200   6.701   0.687
 2916SOL    HW2 9648   1.307   6.760   0.796
 2917SOL     OW 9649   2.874   0.218   3.357
 2917SOL    HW1 9650   2.866   0.143   3.291
 2917SOL    HW2 9651   2.908   0.299   3.310
 2918SOL     OW 9652   6.014   4.663   4.914
 2918SOL    HW1 9653   5.933   4.654   4.971
 2918SOL    HW2 9654   6.093   4.624   4.962
 2919SOL     OW 9655   6.398   1.072   2.639
 2919SOL    HW1 9656   6.413   1.090   2.736
 2919SOL    HW2 9657   6.397   0.973   2.623
 2920SOL     OW 9658   2.975   1.523   1.352
 2920SOL    HW1 9659   3.051   1.584   1.330
 2920SOL    HW2 9660   3.007   1.449   1.411
 2921SOL     OW 9661   0.622   0.162   4.274
 2921SOL    HW1 9662   0.588   0.113   4.194
 2921SOL    HW2 9663   0.547   0.176   4.339
 2922SOL     OW 9664   4.690   1.157   0.736
 2922SOL    HW1 9665   4.636   1.123   0.659
 2922SOL    HW2 9666   4.761   1.218   0.702
 2923SOL     OW 9667   6.373   5.077   2.345
 2923SOL    HW1 9668   6.375   5.156   2.284
 2923SOL    HW2 9669   6.387   5.107   2.440
 2924SOL     OW 9670   6.784   2.350   5.894
 2924SOL    HW1 9671   6.766   2.307   5.982
 2924SOL    HW2 9672   6.700   2.391   5.858
 2925SOL     OW 9673   4.971   1.138   2.292
 2925SOL    HW1 9674   5.019   1.216   2.332
 2925SOL    HW2 9675   5.019   1.108   2.209
 2926SOL     OW 9676   0.179   1.976   4.200
 2926SOL    HW1 9677   0.200   1.995   4.104
 2926SOL    HW2 9678   0.164   1.878   4.213
 2927SOL     OW 9679   1.266   3.657   1.215
 2927SOL    HW1 9680   1.342   3.687   1.157
 2927SOL    HW2 9681   1.279   3.561   1.240
 2928SOL     OW 9682   0.088   1.454   6.442
 2928SOL    HW1 9683   0.149   1.514   6.391
 2928SOL    HW2 9684   0.127   1.363   6.448
 2929SOL     OW 9685   0.239   2.435   0.155
 2929SOL    HW1 9686   0.218   2.513   0.095
 2929SOL    HW2 9687   0.192   2.447   0.242
 2930SOL     OW 9688   4.728   0.654   4.919
 2930SOL    HW1 9689   4.633   0.685   4.929
 2930SOL    HW2 9690   4.789   0.733   4.915
 2931SOL     OW 9691   5.475   5.052   6.994
 2931SOL    HW1 9692   5.493   5.026   0.067
 2931SOL    HW2 9693   5.434   5.143   6.992
 2932SOL     OW 9694   1.105   5.631   2.042
 2932SOL    HW1 9695   1.158   5.690   1.982
 2932SOL    HW2 9696   1.007   5.642   2.023
 2933SOL     OW 9697   7.012   5.453   3.381
 2933SOL    HW1 9698   0.026   5.382   3.442
 2933SOL    HW2 9699   0.059   5.478   3.314
 2934SOL     OW 9700   4.451   1.396   0.332
 2934SOL    HW1 9701   4.401   1.468   0.380
 2934SOL    HW2 9702   4.406   1.308   0.349
 2935SOL     OW 9703   6.167   3.411   6.724
 2935SOL    HW1 9704   6.191   3.341   6.790
 2935SOL    HW2 9705   6.071   3.400   6.696
 2936SOL     OW 9706   3.930   6.696   0.734
 2936SOL    HW1 9707   3.877   6.758   0.677
 2936SOL    HW2 9708   3.951   6.613   0.683
 2937SOL     OW 9709   5.169   4.563   0.664
 2937SOL    HW1 9710   5.093   4.574   0.600
 2937SOL    HW2 9711   5.143   4.496   0.734
 2938SOL     OW 9712   4.847   4.620   6.377
 2938SOL    HW1 9713   4.760   4.573   6.362
 2938SOL    HW2 9714   4.922   4.554   6.367
 2939SOL     OW 9715   1.657   0.992   2.836
 2939SOL    HW1 9716   1.593   0.916   2.840
 2939SOL    HW2 9717   1.635   1.050   2.758
 2940SOL     OW 9718   5.286   5.287   5.883
 2940SOL    HW1 9719   5.343   5.226   5.939
 2940SOL    HW2 9720   5.238   5.352   5.943
 2941SOL     OW 9721   1.863   1.816   4.244
 2941SOL    HW1 9722   1.800   1.833   4.169
 2941SOL    HW2 9723   1.941   1.879   4.237
 2942SOL     OW 9724   2.735   2.711   0.490
 2942SOL    HW1 9725   2.815   2.745   0.539
 2942SOL    HW2 9726   2.657   2.703   0.553
 2943SOL     OW 9727   4.633   4.338   3.533
 2943SOL    HW1 9728   4.704   4.392   3.489
 2943SOL    HW2 9729   4.554   4.396   3.554
 2944SOL     OW 9730   3.037   6.015   4.564
 2944SOL    HW1 9731   3.101   6.087   4.591
 2944SOL    HW2 9732   2.956   6.055   4.523
 2945SOL     OW 9733   3.305   4.113   3.638
 2945SOL    HW1 9734   3.246   4.194   3.628
 2945SOL    HW2 9735   3.329   4.101   3.734
 2946SOL     OW 9736   1.055   4.928   5.933
 2946SOL    HW1 9737   1.064   4.858   6.004
 2946SOL    HW2 9738   0.997   5.003   5.967
 2947SOL     OW 9739   0.236   3.626   0.655
 2947SOL    HW1 9740   0.213   3.711   0.702
 2947SOL    HW2 9741   0.209   3.632   0.559
 2948SOL     OW 9742   0.784   4.382   5.495
 2948SOL    HW1 9743   0.874   4.406   5.459
 2948SOL    HW2 9744   0.791   4.366   5.594
 2949SOL     OW 9745   2.471   5.462   0.903
 2949SOL    HW1 9746   2.413   5.396   0.854
 2949SOL    HW2 9747   2.417   5.544   0.924
 2950SOL     OW 9748   5.576   4.498   4.329
 2950SOL    HW1 9749   5.489   4.448   4.335
 2950SOL    HW2 9750   5.591   4.528   4.235
 2951SOL     OW 9751   5.998   0.705   0.544
 2951SOL    HW1 9752   6.064   0.775   0.572
 2951SOL    HW2 9753   5.948   0.673   0.624
 2952SOL     OW 9754   0.023   4.274   5.360
 2952SOL    HW1 9755   0.114   4.297   5.327
 2952SOL    HW2 9756   7.008   4.198   5.306
 2953SOL     OW 9757   4.878   3.049   2.253
 2953SOL    HW1 9758   4.822   3.024   2.174
 2953SOL    HW2 9759   4.912   3.143   2.241
 2954SOL     OW 9760   0.813   5.637   1.976
 2954SOL    HW1 9761   0.814   5.737   1.966
 2954SOL    HW2 9762   0.766   5.597   1.897
 2955SOL     OW 9763   0.742   3.986   2.025
 2955SOL    HW1 9764   0.836   3.985   1.992
 2955SOL    HW2 9765   0.723   4.073   2.071
 2956SOL     OW 9766   5.361   5.968   3.291
 2956SOL    HW1 9767   5.418   5.993   3.370
 2956SOL    HW2 9768   5.418   5.963   3.210
 2957SOL     OW 9769   6.106   3.322   1.710
 2957SOL    HW1 9770   6.125   3.404   1.763
 2957SOL    HW2 9771   6.107   3.344   1.612
 2958SOL     OW 9772   2.648   4.626   4.034
 2958SOL    HW1 9773   2.650   4.664   4.126
 2958SOL    HW2 9774   2.580   4.554   4.028
 2959SOL     OW 9775   4.683   4.174   0.339
 2959SOL    HW1 9776   4.603   4.230   0.318
 2959SOL    HW2 9777   4.689   4.161   0.438
 2960SOL     OW 9778   3.184   0.943   6.564
 2960SOL    HW1 9779   3.124   1.008   6.518
 2960SOL    HW2 9780   3.265   0.991   6.597
 2961SOL     OW 9781   5.305   3.660   2.647
 2961SOL    HW1 9782   5.210   3.631   2.654
 2961SOL    HW2 9783   5.363   3.599   2.700
 2962SOL     OW 9784   5.133   6.813   3.199
 2962SOL    HW1 9785   5.080   6.838   3.118
 2962SOL    HW2 9786   5.074   6.819   3.280
 2963SOL     OW 9787   2.042   0.537   6.101
 2963SOL    HW1 9788   2.112   0.608   6.103
 2963SOL    HW2 9789   1.967   0.562   6.163
 2964SOL     OW 9790   0.483   0.109   3.196
 2964SOL    HW1 9791   0.522   0.188   3.244
 2964SOL    HW2 9792   0.538   0.089   3.115
 2965SOL     OW 9793   6.951   1.521   4.143
 2965SOL    HW1 9794   7.000   1.484   4.065
 2965SOL    HW2 9795   6.936   1.449   4.211
 2966SOL     OW 9796   5.076   5.869   3.730
 2966SOL    HW1 9797   5.163   5.839   3.767
 2966SOL    HW2 9798   5.074   5.969   3.726
 2967SOL     OW 9799   6.622   0.751   5.091
 2967SOL    HW1 9800   6.654   0.749   4.996
 2967SOL    HW2 9801   6.649   0.666   5.136
 2968SOL     OW 9802   1.344   2.891   6.499
 2968SOL    HW1 9803   1.399   2.849   6.571
 2968SOL    HW2 9804   1.287   2.822   6.455
 2969SOL     OW 9805   4.751   1.479   4.174
 2969SOL    HW1 9806   4.825   1.492   4.240
 2969SOL    HW2 9807   4.698   1.398   4.198
 2970SOL     OW 9808   2.035   4.433   6.208
 2970SOL    HW1 9809   2.065   4.380   6.128
 2970SOL    HW2 9810   1.963   4.383   6.256
 2971SOL     OW 9811   5.076   4.339   0.261
 2971SOL    HW1 9812   5.012   4.381   0.197
 2971SOL    HW2 9813   5.164   4.326   0.216
 2972SOL     OW 9814   6.303   4.787   6.377
 2972SOL    HW1 9815   6.328   4.744   6.464
 2972SOL    HW2 9816   6.207   4.814   6.380
 2973SOL     OW 9817   5.602   6.536   2.584
 2973SOL    HW1 9818   5.681   6.509   2.529
 2973SOL    HW2 9819   5.534   6.579   2.524
 2974SOL     OW 9820   1.060   4.410   2.759
 2974SOL    HW1 9821   1.138   4.396   2.820
 2974SOL    HW2 9822   1.092   4.449   2.672
 2975SOL     OW 9823   5.387   3.612   4.256
 2975SOL    HW1 9824   5.458   3.554   4.217
 2975SOL    HW2 9825   5.334   3.654   4.183
 2976SOL     OW 9826   4.483   2.040   3.145
 2976SOL    HW1 9827   4.493   2.138   3.127
 2976SOL    HW2 9828   4.536   1.988   3.078
 2977SOL     OW 9829   2.587   6.812   2.629
 2977SOL    HW1 9830   2.575   6.813   2.529
 2977SOL    HW2 9831   2.684   6.800   2.650
 2978SOL     OW 9832   5.310   4.254   0.197
 2978SOL    HW1 9833   5.347   4.164   0.222
 2978SOL    HW2 9834   5.297   4.258   0.098
 2979SOL     OW 9835   3.830   0.883   4.040
 2979SOL    HW1 9836   3.861   0.912   4.131
 2979SOL    HW2 9837   3.783   0.795   4.047
 2980SOL     OW 9838   1.088   5.882   4.925
 2980SOL    HW1 9839   1.173   5.846   4.886
 2980SOL    HW2 9840   1.037   5.808   4.969
 2981SOL     OW 9841   2.275   1.288   5.798
 2981SOL    HW1 9842   2.314   1.366   5.847
 2981SOL    HW2 9843   2.309   1.289   5.703
 2982SOL     OW 9844   3.518   4.945   2.647
 2982SOL    HW1 9845   3.440   4.921   2.705
 2982SOL    HW2 9846   3.496   4.923   2.552
 2983SOL     OW 9847   0.559   1.680   2.683
 2983SOL    HW1 9848   0.633   1.747   2.680
 2983SOL    HW2 9849   0.579   1.606   2.618
 2984SOL     OW 9850   5.230   5.350   1.229
 2984SOL    HW1 9851   5.234   5.448   1.248
 2984SOL    HW2 9852   5.279   5.330   1.144
 2985SOL     OW 9853   1.662   2.533   5.557
 2985SOL    HW1 9854   1.636   2.473   5.482
 2985SOL    HW2 9855   1.585   2.541   5.621
 2986SOL     OW 9856   3.393   4.101   4.177
 2986SOL    HW1 9857   3.391   4.002   4.187
 2986SOL    HW2 9858   3.470   4.139   4.228
 2987SOL     OW 9859   6.257   1.633   4.598
 2987SOL    HW1 9860   6.188   1.646   4.668
 2987SOL    HW2 9861   6.224   1.568   4.529
 2988SOL     OW 9862   1.300   5.733   2.904
 2988SOL    HW1 9863   1.326   5.640   2.931
 2988SOL    HW2 9864   1.380   5.780   2.867
 2989SOL     OW 9865   6.301   5.830   6.164
 2989SOL    HW1 9866   6.399   5.816   6.153
 2989SOL    HW2 9867   6.273   5.797   6.255
 2990SOL     OW 9868   3.721   1.989   4.738
 2990SOL    HW1 9869   3.667   2.052   4.794
 2990SOL    HW2 9870   3.749   1.911   4.794
 2991SOL     OW 9871   6.526   4.443   5.145
 2991SOL    HW1 9872   6.486   4.351   5.143
 2991SOL    HW2 9873   6.560   4.463   5.236
 2992SOL     OW 9874   2.802   6.211   5.022
 2992SOL    HW1 9875   2.767   6.244   5.110
 2992SOL    HW2 9876   2.808   6.288   4.958
 2993SOL     OW 9877   0.525   4.944   1.713
 2993SOL    HW1 9878   0.616   4.977   1.686
 2993SOL    HW2 9879   0.534   4.853   1.754
 2994SOL     OW 9880   4.386   6.234   0.081
 2994SOL    HW1 9881   4.300   6.230   0.131
 2994SOL    HW2 9882   4.424   6.142   0.073
 2995SOL     OW 9883   3.012   2.079   5.994
 2995SOL    HW1 9884   3.000   2.018   6.073
 2995SOL    HW2 9885   3.050   2.026   5.918
 2996SOL     OW 9886   1.347   1.346   3.445
 2996SOL    HW1 9887   1.339   1.446   3.447
 2996SOL    HW2 9888   1.404   1.319   3.368
 2997SOL     OW 9889   6.136   0.250   2.691
 2997SOL    HW1 9890   6.097   0.158   2.697
 2997SOL    HW2 9891   6.182   0.272   2.777
 2998SOL     OW 9892   4.589   0.063   4.247
 2998SOL    HW1 9893   4.626   0.073   4.155
 2998SOL    HW2 9894   4.503   0.011   4.242
 2999SOL     OW 9895   2.652   5.039   4.983
 2999SOL    HW1 9896   2.601   4.963   5.021
 2999SOL    HW2 9897   2.730   5.004   4.931
 3000SOL     OW 9898   2.659   3.833   6.739
 3000SOL    HW1 9899   2.682   3.919   6.695
 3000SOL    HW2 9900   2.742   3.780   6.756
 3001SOL     OW 9901   5.168   0.053   6.350
 3001SOL    HW1 9902   5.197   0.142   6.316
 3001SOL    HW2 9903   5.111   0.008   6.282
 3002SOL     OW 9904   3.472   1.392   6.698
 3002SOL    HW1 9905   3.511   1.425   6.612
 3002SOL    HW2 9906   3.516   1.306   6.724
 3003SOL     OW 9907   1.823   6.706   0.298
 3003SOL    HW1 9908   1.779   6.690   0.210
 3003SOL    HW2 9909   1.868   6.796   0.297
 3004SOL     OW 9910   1.201   4.788   2.828
 3004SOL    HW1 9911   1.152   4.701   2.823
 3004SOL    HW2 9912   1.182   4.832   2.915
 3005SOL     OW 9913   2.849   2.058   0.437
 3005SOL    HW1 9914   2.828   1.983   0.374
 3005SOL    HW2 9915   2.935   2.101   0.411
 3006SOL     OW 9916   5.468   1.857   5.397
 3006SOL    HW1 9917   5.431   1.774   5.354
 3006SOL    HW2 9918   5.437   1.861   5.492
 3007SOL     OW 9919   5.491   4.872   0.901
 3007SOL    HW1 9920   5.466   4.944   0.836
 3007SOL    HW2 9921   5.424   4.869   0.975
 3008SOL     OW 9922   3.849   2.235   5.855
 3008SOL    HW1 9923   3.809   2.326   5.858
 3008SOL    HW2 9924   3.787   2.170   5.900
 3009SOL     OW 9925   0.223   1.827   2.583
 3009SOL    HW1 9926   0.248   1.919   2.614
 3009SOL    HW2 9927   0.289   1.761   2.617
 3010SOL     OW 9928   3.568   5.704   3.566
 3010SOL    HW1 9929   3.470   5.724   3.568
 3010SOL    HW2 9930   3.585   5.614   3.607
 3011SOL     OW 9931   6.294   1.325   2.192
 3011SOL    HW1 9932   6.236   1.246   2.172
 3011SOL    HW2 9933   6.256   1.407   2.150
 3012SOL     OW 9934   1.908   3.647   6.097
 3012SOL    HW1 9935   1.906   3.708   6.018
 3012SOL    HW2 9936   1.983   3.581   6.086
 3013SOL     OW 9937   5.952   5.813   4.509
 3013SOL    HW1 9938   6.046   5.791   4.532
 3013SOL    HW2 9939   5.931   5.781   4.417
 3014SOL     OW 9940   4.450   2.343   4.507
 3014SOL    HW1 9941   4.509   2.289   4.568
 3014SOL    HW2 9942   4.446   2.438   4.541
 3015SOL     OW 9943   3.554   1.692   0.526
 3015SOL    HW1 9944   3.624   1.656   0.465
 3015SOL    HW2 9945   3.477   1.726   0.473
 3016SOL     OW 9946   2.421   6.173   3.977
 3016SOL    HW1 9947   2.378   6.083   3.963
 3016SOL    HW2 9948   2.398   6.206   4.069
 3017SOL     OW 9949   6.402   4.844   2.125
 3017SOL    HW1 9950   6.359   4.764   2.167
 3017SOL    HW2 9951   6.408   4.917   2.193
 3018SOL     OW 9952   2.977   6.527   6.289
 3018SOL    HW1 9953   2.981   6.627   6.290
 3018SOL    HW2 9954   2.895   6.497   6.240
 3019SOL     OW 9955   0.708   0.247   6.558
 3019SOL    HW1 9956   0.740   0.265   6.651
 3019SOL    HW2 9957   0.636   0.179   6.560
 3020SOL     OW 9958   3.815   2.801   1.807
 3020SOL    HW1 9959   3.749   2.833   1.739
 3020SOL    HW2 9960   3.876   2.734   1.764
 3021SOL     OW 9961   3.062   0.105   6.595
 3021SOL    HW1 9962   3.117   0.034   6.638
 3021SOL    HW2 9963   2.975   0.114   6.644
 3022SOL     OW 9964   3.636   5.972   4.408
 3022SOL    HW1 9965   3.597   5.883   4.382
 3022SOL    HW2 9966   3.562   6.037   4.426
 3023SOL     OW 9967   3.737   0.354   2.490
 3023SOL    HW1 9968   3.697   0.397   2.571
 3023SOL    HW2 9969   3.824   0.311   2.516
 3024SOL     OW 9970   4.488   0.217   4.705
 3024SOL    HW1 9971   4.389   0.212   4.689
 3024SOL    HW2 9972   4.534   0.241   4.620
 3025SOL     OW 9973   3.163   0.542   0.242
 3025SOL    HW1 9974   3.207   0.561   0.154
 3025SOL    HW2 9975   3.197   0.606   0.311
 3026SOL     OW 9976   1.655   0.472   6.934
 3026SOL    HW1 9977   1.646   0.376   6.958
 3026SOL    HW2 9978   1.751   0.493   6.915
 3027SOL     OW 9979   3.934   0.678   2.958
 3027SOL    HW1 9980   4.016   0.692   3.014
 3027SOL    HW2 9981   3.952   0.705   2.864
 3028SOL     OW 9982   1.128   4.117   5.712
 3028SOL    HW1 9983   1.179   4.084   5.633
 3028SOL    HW2 9984   1.167   4.079   5.796
 3029SOL     OW 9985   6.931   2.593   5.390
 3029SOL    HW1 9986   6.998   2.574   5.319
 3029SOL    HW2 9987   6.973   2.579   5.480
 3030SOL     OW 9988   0.031   3.423   6.921
 3030SOL    HW1 9989   6.978   3.487   6.912
 3030SOL    HW2 9990   0.082   3.419   6.835
 3031SOL     OW 9991   0.429   4.122   0.282
 3031SOL    HW1 9992   0.457   4.194   0.218
 3031SOL    HW2 9993   0.503   4.054   0.290
 3032SOL     OW 9994   2.952   0.193   0.817
 3032SOL    HW1 9995   3.029   0.258   0.816
 3032SOL    HW2 9996   2.906   0.197   0.906
 3033SOL     OW 9997   6.434   2.123   1.698
 3033SOL    HW1 9998   6.433   2.054   1.625
 3033SOL    HW2 9999   6.524   2.167   1.701
 3034SOL     OW10000   1.890   5.846   3.009
 3034SOL    HW110001   1.824   5.850   3.084
 3034SOL    HW210002   1.850   5.798   2.931
 3035SOL     OW10003   0.168   3.121   6.897
 3035SOL    HW110004   0.087   3.094   6.949
 3035SOL    HW210005   0.145   3.200   6.840
 3036SOL     OW10006   2.023   1.353   6.584
 3036SOL    HW110007   1.986   1.314   6.500
 3036SOL    HW210008   2.027   1.283   6.655
 3037SOL     OW10009   6.424   6.043   5.564
 3037SOL    HW110010   6.355   5.979   5.597
 3037SOL    HW210011   6.489   5.996   5.505
 3038SOL     OW10012   5.365   6.160   6.009
 3038SOL    HW110013   5.376   6.171   6.108
 3038SOL    HW210014   5.413   6.077   5.980
 3039SOL     OW10015   6.601   3.529   0.196
 3039SOL    HW110016   6.583   3.574   0.284
 3039SOL    HW210017   6.601   3.430   0.209
 3040SOL     OW10018   3.742   4.067   6.035
 3040SOL    HW110019   3.672   4.131   6.067
 3040SOL    HW210020   3.807   4.115   5.976
 3041SOL     OW10021   2.221   2.664   4.254
 3041SOL    HW110022   2.302   2.679   4.196
 3041SOL    HW210023   2.151   2.618   4.201
 3042SOL     OW10024   4.714   5.832   2.032
 3042SOL    HW110025   4.636   5.890   2.055
 3042SOL    HW210026   4.781   5.835   2.105
 3043SOL     OW10027   2.438   4.611   1.794
 3043SOL    HW110028   2.352   4.637   1.749
 3043SOL    HW210029   2.455   4.672   1.871
 3044SOL     OW10030   3.520   4.165   5.849
 3044SOL    HW110031   3.496   4.262   5.855
 3044SOL    HW210032   3.551   4.143   5.756
 3045SOL     OW10033   4.515   0.425   2.894
 3045SOL    HW110034   4.430   0.413   2.842
 3045SOL    HW210035   4.524   0.351   2.960
 3046SOL     OW10036   2.614   0.747   6.299
 3046SOL    HW110037   2.549   0.686   6.344
 3046SOL    HW210038   2.672   0.790   6.368
 3047SOL     OW10039   6.638   0.516   2.088
 3047SOL    HW110040   6.652   0.547   1.993
 3047SOL    HW210041   6.681   0.581   2.150
 3048SOL     OW10042   3.881   2.228   1.699
 3048SOL    HW110043   3.819   2.297   1.736
 3048SOL    HW210044   3.974   2.265   1.696
 3049SOL     OW10045   1.702   6.478   2.626
 3049SOL    HW110046   1.777   6.543   2.638
 3049SOL    HW210047   1.643   6.509   2.552
 3050SOL     OW10048   2.976   1.291   1.759
 3050SOL    HW110049   2.879   1.316   1.759
 3050SOL    HW210050   2.987   1.201   1.719
 3051SOL     OW10051   2.144   4.335   0.114
 3051SOL    HW110052   2.143   4.424   0.159
 3051SOL    HW210053   2.062   4.325   0.058
 3052SOL     OW10054   4.946   6.400   1.756
 3052SOL    HW110055   4.847   6.387   1.746
 3052SOL    HW210056   4.969   6.496   1.737
 3053SOL     OW10057   6.993   1.748   6.945
 3053SOL    HW110058   6.921   1.794   6.997
 3053SOL    HW210059   0.059   1.763   6.989
 3054SOL     OW10060   6.857   1.791   0.620
 3054SOL    HW110061   6.766   1.819   0.589
 3054SOL    HW210062   6.925   1.827   0.556
 3055SOL     OW10063   5.149   0.557   4.177
 3055SOL    HW110064   5.119   0.630   4.116
 3055SOL    HW210065   5.110   0.470   4.147
 3056SOL     OW10066   6.398   0.329   4.498
 3056SOL    HW110067   6.446   0.289   4.420
 3056SOL    HW210068   6.306   0.355   4.470
 3057SOL     OW10069   3.928   6.054   2.431
 3057SOL    HW110070   3.850   6.000   2.398
 3057SOL    HW210071   4.009   5.996   2.436
 3058SOL     OW10072   0.081   4.674   1.837
 3058SOL    HW110073   0.049   4.683   1.743
 3058SOL    HW210074   0.039   4.594   1.879
 3059SOL     OW10075   2.840   2.242   4.190
 3059SOL    HW110076   2.768   2.232   4.258
 3059SOL    HW210077   2.828   2.173   4.118
 3060SOL     OW10078   0.978   5.374   0.379
 3060SOL    HW110079   0.954   5.370   0.476
 3060SOL    HW210080   1.065   5.423   0.370
 3061SOL     OW10081   0.009   6.898   4.879
 3061SOL    HW110082   0.044   6.880   4.787
 3061SOL    HW210083   6.932   6.906   4.875
 3062SOL     OW10084   1.913   0.279   0.874
 3062SOL    HW110085   1.837   0.249   0.931
 3062SOL    HW210086   1.943   0.203   0.815
 3063SOL     OW10087   2.502   4.942   1.819
 3063SOL    HW110088   2.583   4.884   1.823
 3063SOL    HW210089   2.428   4.901   1.872
 3064SOL     OW10090   5.398   4.157   2.489
 3064SOL    HW110091   5.413   4.058   2.488
 3064SOL    HW210092   5.457   4.199   2.558
 3065SOL     OW10093   2.116   0.909   0.368
 3065SOL    HW110094   2.056   0.835   0.400
 3065SOL    HW210095   2.114   0.984   0.435
 3066SOL     OW10096   4.764   5.565   1.122
 3066SOL    HW110097   4.715   5.509   1.055
 3066SOL    HW210098   4.705   5.637   1.156
 3067SOL     OW10099   3.178   2.057   5.351
 3067SOL    HW110100   3.112   1.994   5.311
 3067SOL    HW210101   3.182   2.141   5.296
 3068SOL     OW10102   6.790   0.022   0.693
 3068SOL    HW110103   6.745   0.087   0.632
 3068SOL    HW210104   6.848   6.983   0.640
 3069SOL     OW10105   6.762   6.237   1.923
 3069SOL    HW110106   6.819   6.311   1.960
 3069SOL    HW210107   6.710   6.195   1.997
 3070SOL     OW10108   2.993   1.420   0.021
 3070SOL    HW110109   2.913   1.369   7.010
 3070SOL    HW210110   3.051   1.358   0.075
 3071SOL     OW10111   6.198   5.962   3.537
 3071SOL    HW110112   6.207   5.914   3.624
 3071SOL    HW210113   6.117   5.929   3.488
 3072SOL     OW10114   2.051   6.164   6.786
 3072SOL    HW110115   1.964   6.117   6.773
 3072SOL    HW210116   2.092   6.133   6.872
 3073SOL     OW10117   5.797   3.185   4.215
 3073SOL    HW110118   5.849   3.116   4.164
 3073SOL    HW210119   5.806   3.274   4.170
 3074SOL     OW10120   5.806   4.378   0.729
 3074SOL    HW110121   5.827   4.370   0.632
 3074SOL    HW210122   5.712   4.351   0.746
 3075SOL     OW10123   2.614   6.334   1.508
 3075SOL    HW110124   2.543   6.393   1.546
 3075SOL    HW210125   2.582   6.239   1.510
 3076SOL     OW10126   6.667   0.528   4.349
 3076SOL    HW110127   6.586   0.571   4.308
 3076SOL    HW210128   6.653   0.520   4.448
 3077SOL     OW10129   5.351   5.585   1.767
 3077SOL    HW110130   5.319   5.680   1.761
 3077SOL    HW210131   5.350   5.544   1.675
 3078SOL     OW10132   6.812   2.519   2.512
 3078SOL    HW110133   6.904   2.557   2.519
 3078SOL    HW210134   6.792   2.463   2.592
 3079SOL     OW10135   2.389   2.716   2.881
 3079SOL    HW110136   2.485   2.731   2.861
 3079SOL    HW210137   2.380   2.642   2.948
 3080SOL     OW10138   4.873   4.236   2.777
 3080SOL    HW110139   4.864   4.237   2.678
 3080SOL    HW210140   4.837   4.151   2.814
 3081SOL     OW10141   0.996   2.576   5.050
 3081SOL    HW110142   0.971   2.579   4.953
 3081SOL    HW210143   0.980   2.665   5.092
 3082SOL     OW10144   3.136   6.647   4.060
 3082SOL    HW110145   3.043   6.668   4.030
 3082SOL    HW210146   3.132   6.605   4.151
 3083SOL     OW10147   3.339   5.982   4.150
 3083SOL    HW110148   3.330   6.050   4.077
 3083SOL    HW210149   3.427   5.993   4.196
 3084SOL     OW10150   6.803   3.960   4.834
 3084SOL    HW110151   6.714   3.961   4.789
 3084SOL    HW210152   6.790   3.953   4.933
 3085SOL     OW10153   6.310   4.688   0.669
 3085SOL    HW110154   6.219   4.686   0.629
 3085SOL    HW210155   6.351   4.778   0.655
 3086SOL     OW10156   4.777   1.390   1.079
 3086SOL    HW110157   4.783   1.472   1.136
 3086SOL    HW210158   4.862   1.379   1.027
 3087SOL     OW10159   0.697   5.193   4.366
 3087SOL    HW110160   0.788   5.200   4.327
 3087SOL    HW210161   0.697   5.229   4.460
 3088SOL     OW10162   2.059   5.228   4.960
 3088SOL    HW110163   2.054   5.327   4.943
 3088SOL    HW210164   2.094   5.212   5.053
 3089SOL     OW10165   1.534   3.053   6.363
 3089SOL    HW110166   1.447   3.036   6.409
 3089SOL    HW210167   1.594   2.974   6.375
 3090SOL     OW10168   2.389   2.317   1.547
 3090SOL    HW110169   2.488   2.324   1.564
 3090SOL    HW210170   2.341   2.387   1.600
 3091SOL     OW10171   1.408   0.502   1.308
 3091SOL    HW110172   1.428   0.599   1.306
 3091SOL    HW210173   1.377   0.475   1.399
 3092SOL     OW10174   4.890   1.081   0.463
 3092SOL    HW110175   4.968   1.070   0.402
 3092SOL    HW210176   4.922   1.092   0.557
 3093SOL     OW10177   5.619   6.319   5.869
 3093SOL    HW110178   5.543   6.264   5.834
 3093SOL    HW210179   5.585   6.408   5.898
 3094SOL     OW10180   1.908   6.730   4.583
 3094SOL    HW110181   1.825   6.783   4.599
 3094SOL    HW210182   1.978   6.789   4.542
 3095SOL     OW10183   2.299   5.081   5.451
 3095SOL    HW110184   2.364   5.027   5.398
 3095SOL    HW210185   2.343   5.165   5.483
 3096SOL     OW10186   1.702   5.928   5.260
 3096SOL    HW110187   1.621   5.888   5.216
 3096SOL    HW210188   1.718   6.020   5.224
 3097SOL     OW10189   6.032   2.141   0.242
 3097SOL    HW110190   6.051   2.164   0.147
 3097SOL    HW210191   6.119   2.133   0.292
 3098SOL     OW10192   2.467   2.867   1.294
 3098SOL    HW110193   2.395   2.856   1.363
 3098SOL    HW210194   2.426   2.872   1.203
 3099SOL     OW10195   0.849   6.906   3.644
 3099SOL    HW110196   0.907   6.875   3.569
 3099SOL    HW210197   0.880   6.865   3.730
 3100SOL     OW10198   6.806   5.809   4.196
 3100SOL    HW110199   6.766   5.872   4.130
 3100SOL    HW210200   6.733   5.755   4.239
 3101SOL     OW10201   5.628   6.892   6.816
 3101SOL    HW110202   5.709   6.842   6.847
 3101SOL    HW210203   5.630   6.985   6.851
 3102SOL     OW10204   6.533   4.809   1.873
 3102SOL    HW110205   6.481   4.865   1.809
 3102SOL    HW210206   6.496   4.821   1.965
 3103SOL     OW10207   4.370   0.698   2.459
 3103SOL    HW110208   4.324   0.755   2.391
 3103SOL    HW210209   4.360   0.740   2.550
 3104SOL     OW10210   5.027   0.821   4.794
 3104SOL    HW110211   4.953   0.865   4.744
 3104SOL    HW210212   5.115   0.849   4.754
 3105SOL     OW10213   6.199   4.597   1.284
 3105SOL    HW110214   6.230   4.506   1.312
 3105SOL    HW210215   6.216   4.610   1.187
 3106SOL     OW10216   5.829   1.003   3.435
 3106SOL    HW110217   5.813   0.982   3.531
 3106SOL    HW210218   5.802   1.097   3.416
 3107SOL     OW10219   4.410   1.343   4.861
 3107SOL    HW110220   4.471   1.300   4.794
 3107SOL    HW210221   4.464   1.404   4.920
 3108SOL     OW10222   1.589   6.169   4.004
 3108SOL    HW110223   1.555   6.087   3.957
 3108SOL    HW210224   1.559   6.168   4.099
 3109SOL     OW10225   5.858   6.099   2.991
 3109SOL    HW110226   5.775   6.153   3.005
 3109SOL    HW210227   5.872   6.085   2.893
 3110SOL     OW10228   1.180   2.582   2.421
 3110SOL    HW110229   1.245   2.578   2.345
 3110SOL    HW210230   1.113   2.655   2.403
 3111SOL     OW10231   6.688   5.676   3.815
 3111SOL    HW110232   6.712   5.674   3.718
 3111SOL    HW210233   6.657   5.768   3.840
 3112SOL     OW10234   4.370   2.681   6.822
 3112SOL    HW110235   4.357   2.780   6.819
 3112SOL    HW210236   4.302   2.637   6.762
 3113SOL     OW10237   2.737   5.663   3.752
 3113SOL    HW110238   2.721   5.756   3.721
 3113SOL    HW210239   2.836   5.645   3.753
 3114SOL     OW10240   4.385   1.717   1.183
 3114SOL    HW110241   4.392   1.770   1.267
 3114SOL    HW210242   4.314   1.647   1.194
 3115SOL     OW10243   3.987   3.561   6.694
 3115SOL    HW110244   4.087   3.560   6.704
 3115SOL    HW210245   3.954   3.467   6.686
 3116SOL     OW10246   0.452   2.838   6.722
 3116SOL    HW110247   0.529   2.834   6.786
 3116SOL    HW210248   0.465   2.769   6.651
 3117SOL     OW10249   4.503   3.519   5.361
 3117SOL    HW110250   4.534   3.555   5.449
 3117SOL    HW210251   4.567   3.547   5.289
 3118SOL     OW10252   1.088   5.406   2.415
 3118SOL    HW110253   1.039   5.493   2.425
 3118SOL    HW210254   1.029   5.331   2.445
 3119SOL     OW10255   2.131   3.486   6.153
 3119SOL    HW110256   2.098   3.403   6.107
 3119SOL    HW210257   2.230   3.491   6.146
 3120SOL     OW10258   3.149   0.260   4.858
 3120SOL    HW110259   3.077   0.326   4.881
 3120SOL    HW210260   3.187   0.221   4.941
 3121SOL     OW10261   0.332   0.687   3.619
 3121SOL    HW110262   0.284   0.706   3.534
 3121SOL    HW210263   0.351   0.772   3.667
 3122SOL     OW10264   4.101   6.515   6.292
 3122SOL    HW110265   4.115   6.420   6.321
 3122SOL    HW210266   4.047   6.563   6.361
 3123SOL     OW10267   2.682   1.733   3.623
 3123SOL    HW110268   2.757   1.752   3.686
 3123SOL    HW210269   2.716   1.736   3.529
 3124SOL     OW10270   4.334   6.855   4.451
 3124SOL    HW110271   4.391   6.905   4.516
 3124SOL    HW210272   4.245   6.836   4.493
 3125SOL     OW10273   0.095   2.463   5.225
 3125SOL    HW110274   0.050   2.377   5.249
 3125SOL    HW210275   0.095   2.474   5.126
 3126SOL     OW10276   5.698   4.531   5.336
 3126SOL    HW110277   5.720   4.518   5.432
 3126SOL    HW210278   5.607   4.496   5.317
 3127SOL     OW10279   1.428   3.660   5.185
 3127SOL    HW110280   1.504   3.618   5.135
 3127SOL    HW210281   1.464   3.728   5.249
 3128SOL     OW10282   2.486   0.677   6.025
 3128SOL    HW110283   2.530   0.620   6.094
 3128SOL    HW210284   2.529   0.767   6.022
 3129SOL     OW10285   6.120   3.926   6.401
 3129SOL    HW110286   6.137   3.993   6.473
 3129SOL    HW210287   6.133   3.833   6.438
 3130SOL     OW10288   1.492   4.021   1.184
 3130SOL    HW110289   1.521   3.936   1.141
 3130SOL    HW210290   1.571   4.083   1.192
 3131SOL     OW10291   0.603   2.716   1.360
 3131SOL    HW110292   0.556   2.639   1.402
 3131SOL    HW210293   0.632   2.692   1.267
 3132SOL     OW10294   3.665   5.927   5.927
 3132SOL    HW110295   3.630   5.870   5.853
 3132SOL    HW210296   3.593   5.942   5.995
 3133SOL     OW10297   3.722   1.707   3.645
 3133SOL    HW110298   3.643   1.762   3.673
 3133SOL    HW210299   3.763   1.664   3.726
 3134SOL     OW10300   4.651   4.067   1.751
 3134SOL    HW110301   4.581   4.136   1.765
 3134SOL    HW210302   4.623   4.004   1.679
 3135SOL     OW10303   4.497   1.134   5.717
 3135SOL    HW110304   4.430   1.197   5.757
 3135SOL    HW210305   4.587   1.153   5.755
 3136SOL     OW10306   5.411   0.815   1.298
 3136SOL    HW110307   5.470   0.821   1.379
 3136SOL    HW210308   5.398   0.906   1.260
 3137SOL     OW10309   6.754   0.490   2.728
 3137SOL    HW110310   6.816   0.567   2.740
 3137SOL    HW210311   6.794   0.424   2.665
 3138SOL     OW10312   5.860   4.188   3.711
 3138SOL    HW110313   5.832   4.095   3.685
 3138SOL    HW210314   5.956   4.202   3.685
 3139SOL     OW10315   5.233   6.547   0.533
 3139SOL    HW110316   5.193   6.457   0.512
 3139SOL    HW210317   5.173   6.619   0.498
 3140SOL     OW10318   6.954   0.173   6.903
 3140SOL    HW110319   6.925   0.213   6.816
 3140SOL    HW210320   6.906   0.087   6.917
 3141SOL     OW10321   0.498   5.999   6.293
 3141SOL    HW110322   0.420   6.014   6.354
 3141SOL    HW210323   0.568   6.068   6.312
 3142SOL     OW10324   3.870   6.456   2.077
 3142SOL    HW110325   3.895   6.511   1.997
 3142SOL    HW210326   3.865   6.516   2.158
 3143SOL     OW10327   6.576   1.442   6.823
 3143SOL    HW110328   6.600   1.532   6.859
 3143SOL    HW210329   6.536   1.452   6.732
 3144SOL     OW10330   4.095   4.115   1.696
 3144SOL    HW110331   4.180   4.152   1.659
 3144SOL    HW210332   4.017   4.168   1.663
 3145SOL     OW10333   2.008   5.881   0.919
 3145SOL    HW110334   1.988   5.787   0.891
 3145SOL    HW210335   2.085   5.881   0.982
 3146SOL     OW10336   1.596   0.315   3.643
 3146SOL    HW110337   1.517   0.327   3.583
 3146SOL    HW210338   1.570   0.334   3.737
 3147SOL     OW10339   3.294   5.466   1.203
 3147SOL    HW110340   3.211   5.434   1.157
 3147SOL    HW210341   3.317   5.558   1.172
 3148SOL     OW10342   6.010   6.095   4.752
 3148SOL    HW110343   6.009   6.194   4.765
 3148SOL    HW210344   6.092   6.069   4.701
 3149SOL     OW10345   2.188   1.008   5.554
 3149SOL    HW110346   2.239   0.935   5.508
 3149SOL    HW210347   2.092   0.982   5.559
 3150SOL     OW10348   6.090   5.438   4.273
 3150SOL    HW110349   5.995   5.463   4.293
 3150SOL    HW210350   6.112   5.462   4.178
 3151SOL     OW10351   5.787   1.919   5.444
 3151SOL    HW110352   5.704   1.912   5.389
 3151SOL    HW210353   5.843   1.994   5.410
 3152SOL     OW10354   1.283   5.403   0.638
 3152SOL    HW110355   1.296   5.328   0.703
 3152SOL    HW210356   1.223   5.373   0.564
 3153SOL     OW10357   5.686   4.781   1.257
 3153SOL    HW110358   5.651   4.791   1.350
 3153SOL    HW210359   5.783   4.758   1.260
 3154SOL     OW10360   5.774   1.447   6.453
 3154SOL    HW110361   5.808   1.509   6.524
 3154SOL    HW210362   5.777   1.353   6.487
 3155SOL     OW10363   6.310   4.983   0.383
 3155SOL    HW110364   6.241   5.051   0.404
 3155SOL    HW210365   6.359   5.009   0.300
 3156SOL     OW10366   2.892   3.379   3.258
 3156SOL    HW110367   2.973   3.364   3.315
 3156SOL    HW210368   2.883   3.476   3.237
 3157SOL     OW10369   2.541   1.930   4.686
 3157SOL    HW110370   2.625   1.981   4.700
 3157SOL    HW210371   2.528   1.911   4.589
 3158SOL     OW10372   4.674   0.713   3.455
 3158SOL    HW110373   4.673   0.758   3.366
 3158SOL    HW210374   4.636   0.774   3.524
 3159SOL     OW10375   5.482   1.396   6.655
 3159SOL    HW110376   5.434   1.318   6.697
 3159SOL    HW210377   5.472   1.476   6.713
 3160SOL     OW10378   0.237   6.428   5.751
 3160SOL    HW110379   0.275   6.339   5.778
 3160SOL    HW210380   0.187   6.419   5.665
 3161SOL     OW10381   1.947   1.887   3.217
 3161SOL    HW110382   1.944   1.822   3.142
 3161SOL    HW210383   1.931   1.839   3.304
 3162SOL     OW10384   1.321   6.589   2.162
 3162SOL    HW110385   1.323   6.549   2.254
 3162SOL    HW210386   1.374   6.530   2.100
 3163SOL     OW10387   4.315   2.903   5.978
 3163SOL    HW110388   4.259   2.859   6.049
 3163SOL    HW210389   4.256   2.940   5.907
 3164SOL     OW10390   4.617   4.810   1.022
 3164SOL    HW110391   4.573   4.725   0.995
 3164SOL    HW210392   4.589   4.883   0.960
 3165SOL     OW10393   0.571   6.273   1.070
 3165SOL    HW110394   0.656   6.271   1.122
 3165SOL    HW210395   0.495   6.292   1.132
 3166SOL     OW10396   4.332   1.727   4.560
 3166SOL    HW110397   4.382   1.656   4.510
 3166SOL    HW210398   4.315   1.695   4.654
 3167SOL     OW10399   6.411   4.165   0.747
 3167SOL    HW110400   6.388   4.071   0.721
 3167SOL    HW210401   6.484   4.164   0.815
 3168SOL     OW10402   4.355   2.361   6.777
 3168SOL    HW110403   4.301   2.438   6.742
 3168SOL    HW210404   4.304   2.276   6.765
 3169SOL     OW10405   2.163   3.997   4.689
 3169SOL    HW110406   2.080   3.959   4.730
 3169SOL    HW210407   2.226   4.023   4.762
 3170SOL     OW10408   4.071   0.238   1.360
 3170SOL    HW110409   4.089   0.177   1.283
 3170SOL    HW210410   4.151   0.243   1.419
 3171SOL     OW10411   0.340   0.287   1.407
 3171SOL    HW110412   0.273   0.316   1.338
 3171SOL    HW210413   0.322   0.192   1.434
 3172SOL     OW10414   0.242   4.934   0.256
 3172SOL    HW110415   0.170   4.927   0.187
 3172SOL    HW210416   0.327   4.895   0.220
 3173SOL     OW10417   2.963   2.264   0.272
 3173SOL    HW110418   2.885   2.236   0.216
 3173SOL    HW210419   2.938   2.345   0.325
 3174SOL     OW10420   3.194   2.747   6.660
 3174SOL    HW110421   3.189   2.846   6.645
 3174SOL    HW210422   3.277   2.726   6.711
 3175SOL     OW10423   0.056   0.765   0.689
 3175SOL    HW110424   0.103   0.685   0.654
 3175SOL    HW210425   0.060   0.765   0.789
 3176SOL     OW10426   1.397   4.892   4.857
 3176SOL    HW110427   1.338   4.857   4.784
 3176SOL    HW210428   1.478   4.934   4.816
 3177SOL     OW10429   4.898   4.082   4.082
 3177SOL    HW110430   4.997   4.080   4.076
 3177SOL    HW210431   4.861   3.990   4.069
 3178SOL     OW10432   6.026   2.129   0.532
 3178SOL    HW110433   5.986   2.044   0.496
 3178SOL    HW210434   5.953   2.192   0.558
 3179SOL     OW10435   1.497   3.256   2.031
 3179SOL    HW110436   1.402   3.284   2.037
 3179SOL    HW210437   1.505   3.159   2.054
 3180SOL     OW10438   4.555   1.249   6.960
 3180SOL    HW110439   4.643   1.258   6.913
 3180SOL    HW210440   4.568   1.261   0.035
 3181SOL     OW10441   6.765   1.532   3.127
 3181SOL    HW110442   6.678   1.558   3.084
 3181SOL    HW210443   6.833   1.604   3.110
 3182SOL     OW10444   2.792   1.183   5.385
 3182SOL    HW110445   2.753   1.246   5.452
 3182SOL    HW210446   2.888   1.205   5.370
 3183SOL     OW10447   4.482   4.484   1.814
 3183SOL    HW110448   4.485   4.384   1.811
 3183SOL    HW210449   4.534   4.517   1.893
 3184SOL     OW10450   0.846   2.590   2.361
 3184SOL    HW110451   0.869   2.674   2.410
 3184SOL    HW210452   0.792   2.613   2.280
 3185SOL     OW10453   6.427   5.742   0.019
 3185SOL    HW110454   6.372   5.785   6.970
 3185SOL    HW210455   6.478   5.665   7.002
 3186SOL     OW10456   3.848   1.468   1.907
 3186SOL    HW110457   3.773   1.532   1.915
 3186SOL    HW210458   3.812   1.374   1.905
 3187SOL     OW10459   4.197   4.227   0.252
 3187SOL    HW110460   4.235   4.160   0.187
 3187SOL    HW210461   4.188   4.185   0.342
 3188SOL     OW10462   2.475   0.587   4.597
 3188SOL    HW110463   2.520   0.564   4.683
 3188SOL    HW210464   2.415   0.512   4.570
 3189SOL     OW10465   1.306   1.838   1.634
 3189SOL    HW110466   1.325   1.756   1.581
 3189SOL    HW210467   1.387   1.896   1.637
 3190SOL     OW10468   6.795   6.528   0.454
 3190SOL    HW110469   6.839   6.439   0.463
 3190SOL    HW210470   6.820   6.585   0.532
 3191SOL     OW10471   4.797   0.266   0.987
 3191SOL    HW110472   4.723   0.202   1.006
 3191SOL    HW210473   4.823   0.261   0.891
 3192SOL     OW10474   0.334   2.739   1.175
 3192SOL    HW110475   0.337   2.676   1.253
 3192SOL    HW210476   0.286   2.823   1.201
 3193SOL     OW10477   3.995   1.604   6.664
 3193SOL    HW110478   4.010   1.521   6.610
 3193SOL    HW210479   3.914   1.651   6.631
 3194SOL     OW10480   1.597   3.042   6.069
 3194SOL    HW110481   1.664   2.969   6.058
 3194SOL    HW210482   1.592   3.068   6.165
 3195SOL     OW10483   2.570   2.403   3.264
 3195SOL    HW110484   2.644   2.376   3.325
 3195SOL    HW210485   2.589   2.370   3.172
 3196SOL     OW10486   0.609   1.196   5.505
 3196SOL    HW110487   0.628   1.220   5.410
 3196SOL    HW210488   0.582   1.277   5.556
 3197SOL     OW10489   1.875   6.243   3.464
 3197SOL    HW110490   1.830   6.301   3.532
 3197SOL    HW210491   1.974   6.252   3.472
 3198SOL     OW10492   5.849   2.231   5.605
 3198SOL    HW110493   5.905   2.308   5.575
 3198SOL    HW210494   5.763   2.230   5.553
 3199SOL     OW10495   4.768   2.711   2.091
 3199SOL    HW110496   4.694   2.646   2.074
 3199SOL    HW210497   4.740   2.802   2.057
 3200SOL     OW10498   0.217   3.007   1.827
 3200SOL    HW110499   0.147   3.072   1.799
 3200SOL    HW210500   0.289   3.003   1.757
 3201SOL     OW10501   5.150   4.592   4.420
 3201SOL    HW110502   5.208   4.672   4.406
 3201SOL    HW210503   5.096   4.604   4.503
 3202SOL     OW10504   0.985   4.634   1.784
 3202SOL    HW110505   0.954   4.545   1.816
 3202SOL    HW210506   0.905   4.691   1.762
 3203SOL     OW10507   6.379   2.452   6.561
 3203SOL    HW110508   6.432   2.537   6.562
 3203SOL    HW210509   6.283   2.474   6.543
 3204SOL     OW10510   4.673   6.059   1.483
 3204SOL    HW110511   4.622   6.139   1.516
 3204SOL    HW210512   4.645   6.039   1.389
 3205SOL     OW10513   6.874   3.159   6.704
 3205SOL    HW110514   6.861   3.214   6.621
 3205SOL    HW210515   6.818   3.195   6.778
 3206SOL     OW10516   0.320   6.428   6.067
 3206SOL    HW110517   0.274   6.508   6.028
 3206SOL    HW210518   0.351   6.369   5.992
 3207SOL     OW10519   0.984   0.654   5.790
 3207SOL    HW110520   1.055   0.687   5.853
 3207SOL    HW210521   0.917   0.726   5.774
 3208SOL     OW10522   4.816   6.726   5.495
 3208SOL    HW110523   4.820   6.741   5.397
 3208SOL    HW210524   4.905   6.745   5.536
 3209SOL     OW10525   4.202   5.179   2.783
 3209SOL    HW110526   4.221   5.260   2.728
 3209SOL    HW210527   4.218   5.200   2.880
 3210SOL     OW10528   0.813   3.922   1.329
 3210SOL    HW110529   0.902   3.913   1.284
 3210SOL    HW210530   0.761   3.997   1.286
 3211SOL     OW10531   1.864   3.335   1.266
 3211SOL    HW110532   1.895   3.419   1.222
 3211SOL    HW210533   1.765   3.326   1.253
 3212SOL     OW10534   2.965   0.890   0.508
 3212SOL    HW110535   3.019   0.811   0.478
 3212SOL    HW210536   3.027   0.966   0.529
 3213SOL     OW10537   0.105   5.996   2.346
 3213SOL    HW110538   0.098   5.898   2.363
 3213SOL    HW210539   0.022   6.028   2.301
 3214SOL     OW10540   5.107   5.673   0.871
 3214SOL    HW110541   5.132   5.700   0.778
 3214SOL    HW210542   5.174   5.606   0.906
 3215SOL     OW10543   0.677   3.142   0.605
 3215SOL    HW110544   0.601   3.106   0.659
 3215SOL    HW210545   0.663   3.239   0.586
 3216SOL     OW10546   5.581   5.171   1.239
 3216SOL    HW110547   5.523   5.091   1.222
 3216SOL    HW210548   5.524   5.251   1.256
 3217SOL     OW10549   6.972   5.609   2.775
 3217SOL    HW110550   6.873   5.596   2.773
 3217SOL    HW210551   7.014   5.556   2.701
 3218SOL     OW10552   4.349   0.182   3.708
 3218SOL    HW110553   4.350   0.115   3.634
 3218SOL    HW210554   4.266   0.239   3.700
 3219SOL     OW10555   0.325   2.259   3.039
 3219SOL    HW110556   0.367   2.282   2.951
 3219SOL    HW210557   0.330   2.160   3.053
 3220SOL     OW10558   6.872   5.864   5.938
 3220SOL    HW110559   6.828   5.777   5.964
 3220SOL    HW210560   6.902   5.911   6.021
 3221SOL     OW10561   3.226   0.089   1.810
 3221SOL    HW110562   3.278   0.121   1.732
 3221SOL    HW210563   3.141   0.141   1.818
 3222SOL     OW10564   4.366   1.693   2.599
 3222SOL    HW110565   4.355   1.753   2.520
 3222SOL    HW210566   4.311   1.726   2.675
 3223SOL     OW10567   2.114   5.743   6.641
 3223SOL    HW110568   2.141   5.663   6.586
 3223SOL    HW210569   2.103   5.716   6.736
 3224SOL     OW10570   4.479   3.400   0.087
 3224SOL    HW110571   4.407   3.442   0.141
 3224SOL    HW210572   4.446   3.382   7.017
 3225SOL     OW10573   4.440   3.592   6.079
 3225SOL    HW110574   4.433   3.685   6.043
 3225SOL    HW210575   4.351   3.547   6.070
 3226SOL     OW10576   1.731   1.643   4.429
 3226SOL    HW110577   1.782   1.672   4.510
 3226SOL    HW210578   1.778   1.675   4.347
 3227SOL     OW10579   3.445   1.599   6.894
 3227SOL    HW110580   3.406   1.687   6.865
 3227SOL    HW210581   3.436   1.533   6.820
 3228SOL     OW10582   5.932   4.492   2.877
 3228SOL    HW110583   5.922   4.580   2.922
 3228SOL    HW210584   5.859   4.479   2.811
 3229SOL     OW10585   3.369   1.662   5.626
 3229SOL    HW110586   3.467   1.652   5.609
 3229SOL    HW210587   3.324   1.695   5.543
 3230SOL     OW10588   1.708   3.645   3.846
 3230SOL    HW110589   1.768   3.649   3.766
 3230SOL    HW210590   1.728   3.562   3.898
 3231SOL     OW10591   2.835   0.596   1.836
 3231SOL    HW110592   2.770   0.615   1.762
 3231SOL    HW210593   2.795   0.530   1.899
 3232SOL     OW10594   3.929   4.951   5.084
 3232SOL    HW110595   3.916   4.954   4.984
 3232SOL    HW210596   3.945   5.044   5.118
 3233SOL     OW10597   1.025   2.587   1.743
 3233SOL    HW110598   1.120   2.564   1.720
 3233SOL    HW210599   1.021   2.680   1.779
 3234SOL     OW10600   0.187   1.748   0.086
 3234SOL    HW110601   0.226   1.820   0.143
 3234SOL    HW210602   0.259   1.686   0.055
 3235SOL     OW10603   4.985   0.764   1.480
 3235SOL    HW110604   4.922   0.804   1.414
 3235SOL    HW210605   5.070   0.739   1.435
 3236SOL     OW10606   1.340   3.127   0.490
 3236SOL    HW110607   1.374   3.112   0.583
 3236SOL    HW210608   1.362   3.220   0.462
 3237SOL     OW10609   5.254   1.585   3.707
 3237SOL    HW110610   5.270   1.549   3.798
 3237SOL    HW210611   5.275   1.514   3.639
 3238SOL     OW10612   0.062   4.876   1.002
 3238SOL    HW110613   0.034   4.845   0.911
 3238SOL    HW210614   0.100   4.969   0.996
 3239SOL     OW10615   6.791   1.812   1.209
 3239SOL    HW110616   6.810   1.817   1.111
 3239SOL    HW210617   6.766   1.903   1.243
 3240SOL     OW10618   1.469   6.561   6.033
 3240SOL    HW110619   1.542   6.627   6.050
 3240SOL    HW210620   1.509   6.471   6.016
 3241SOL     OW10621   4.569   1.476   5.039
 3241SOL    HW110622   4.558   1.574   5.059
 3241SOL    HW210623   4.531   1.422   5.114
 3242SOL     OW10624   3.095   4.359   0.744
 3242SOL    HW110625   3.147   4.444   0.755
 3242SOL    HW210626   3.155   4.281   0.761
 3243SOL     OW10627   5.438   4.595   0.574
 3243SOL    HW110628   5.466   4.510   0.529
 3243SOL    HW210629   5.359   4.578   0.632
 3244SOL     OW10630   4.862   6.279   0.507
 3244SOL    HW110631   4.901   6.188   0.521
 3244SOL    HW210632   4.900   6.319   0.424
 3245SOL     OW10633   4.848   2.701   5.149
 3245SOL    HW110634   4.904   2.725   5.228
 3245SOL    HW210635   4.892   2.736   5.066
 3246SOL     OW10636   5.312   1.050   2.999
 3246SOL    HW110637   5.410   1.033   2.997
 3246SOL    HW210638   5.265   0.980   2.944
 3247SOL     OW10639   6.052   4.871   3.090
 3247SOL    HW110640   6.111   4.890   3.168
 3247SOL    HW210641   6.079   4.784   3.048
 3248SOL     OW10642   6.702   3.467   1.982
 3248SOL    HW110643   6.726   3.544   2.041
 3248SOL    HW210644   6.624   3.419   2.021
 3249SOL     OW10645   3.505   3.947   4.855
 3249SOL    HW110646   3.435   3.912   4.793
 3249SOL    HW210647   3.470   3.949   4.948
 3250SOL     OW10648   5.723   0.168   2.383
 3250SOL    HW110649   5.722   0.263   2.351
 3250SOL    HW210650   5.710   0.167   2.483
 3251SOL     OW10651   3.621   0.771   1.939
 3251SOL    HW110652   3.527   0.750   1.911
 3251SOL    HW210653   3.674   0.687   1.943
 3252SOL     OW10654   2.505   2.184   2.320
 3252SOL    HW110655   2.438   2.258   2.315
 3252SOL    HW210656   2.534   2.173   2.415
 3253SOL     OW10657   5.934   3.282   2.304
 3253SOL    HW110658   5.952   3.213   2.374
 3253SOL    HW210659   5.842   3.319   2.317
 3254SOL     OW10660   5.341   5.465   5.693
 3254SOL    HW110661   5.313   5.433   5.783
 3254SOL    HW210662   5.265   5.453   5.628
 3255SOL     OW10663   5.374   6.104   1.694
 3255SOL    HW110664   5.341   6.198   1.701
 3255SOL    HW210665   5.465   6.097   1.734
 3256SOL     OW10666   4.303   0.717   0.168
 3256SOL    HW110667   4.231   0.776   0.133
 3256SOL    HW210668   4.392   0.752   0.141
 3257SOL     OW10669   1.199   2.127   1.368
 3257SOL    HW110670   1.290   2.101   1.334
 3257SOL    HW210671   1.190   2.226   1.367
 3258SOL     OW10672   4.048   4.825   1.834
 3258SOL    HW110673   4.104   4.743   1.836
 3258SOL    HW210674   4.027   4.854   1.928
 3259SOL     OW10675   4.615   5.335   3.915
 3259SOL    HW110676   4.595   5.403   3.845
 3259SOL    HW210677   4.531   5.285   3.938
 3260SOL     OW10678   1.191   1.767   0.973
 3260SOL    HW110679   1.189   1.805   1.066
 3260SOL    HW210680   1.140   1.681   0.971
 3261SOL     OW10681   4.786   6.538   0.493
 3261SOL    HW110682   4.757   6.571   0.582
 3261SOL    HW210683   4.799   6.439   0.496
 3262SOL     OW10684   3.789   2.129   2.480
 3262SOL    HW110685   3.727   2.096   2.551
 3262SOL    HW210686   3.832   2.214   2.510
 3263SOL     OW10687   3.338   1.544   3.624
 3263SOL    HW110688   3.429   1.523   3.590
 3263SOL    HW210689   3.320   1.642   3.614
 3264SOL     OW10690   1.324   4.297   1.335
 3264SOL    HW110691   1.355   4.373   1.277
 3264SOL    HW210692   1.382   4.291   1.416
 3265SOL     OW10693   4.690   1.604   5.400
 3265SOL    HW110694   4.723   1.511   5.412
 3265SOL    HW210695   4.768   1.663   5.376
 3266SOL     OW10696   0.642   2.589   6.833
 3266SOL    HW110697   0.553   2.600   6.878
 3266SOL    HW210698   0.702   2.665   6.858
 3267SOL     OW10699   3.953   1.293   0.006
 3267SOL    HW110700   3.857   1.296   0.030
 3267SOL    HW210701   3.984   1.383   6.998
 3268SOL     OW10702   1.268   4.805   0.257
 3268SOL    HW110703   1.199   4.859   0.208
 3268SOL    HW210704   1.230   4.776   0.345
 3269SOL     OW10705   4.548   4.649   2.030
 3269SOL    HW110706   4.462   4.699   2.038
 3269SOL    HW210707   4.556   4.583   2.104
 3270SOL     OW10708   1.124   4.445   4.789
 3270SOL    HW110709   1.076   4.520   4.834
 3270SOL    HW210710   1.086   4.358   4.819
 3271SOL     OW10711   5.711   3.820   2.650
 3271SOL    HW110712   5.628   3.834   2.703
 3271SOL    HW210713   5.773   3.759   2.699
 3272SOL     OW10714   3.728   3.694   6.820
 3272SOL    HW110715   3.803   3.646   6.775
 3272SOL    HW210716   3.676   3.745   6.751
 3273SOL     OW10717   0.563   6.476   1.774
 3273SOL    HW110718   0.633   6.497   1.842
 3273SOL    HW210719   0.494   6.548   1.774
 3274SOL     OW10720   4.357   1.157   1.455
 3274SOL    HW110721   4.288   1.205   1.510
 3274SOL    HW210722   4.435   1.218   1.441
 3275SOL     OW10723   0.408   0.450   6.641
 3275SOL    HW110724   0.342   0.396   6.692
 3275SOL    HW210725   0.480   0.482   6.703
 3276SOL     OW10726   3.452   5.997   0.467
 3276SOL    HW110727   3.359   5.963   0.475
 3276SOL    HW210728   3.463   6.045   0.380
 3277SOL     OW10729   5.171   0.183   0.430
 3277SOL    HW110730   5.221   0.106   0.471
 3277SOL    HW210731   5.158   0.165   0.333
 3278SOL     OW10732   0.006   1.077   5.628
 3278SOL    HW110733   0.015   1.071   5.727
 3278SOL    HW210734   0.069   1.012   5.585
 3279SOL     OW10735   6.492   1.477   0.643
 3279SOL    HW110736   6.432   1.413   0.596
 3279SOL    HW210737   6.515   1.552   0.582
 3280SOL     OW10738   3.415   5.004   5.425
 3280SOL    HW110739   3.506   5.008   5.384
 3280SOL    HW210740   3.358   5.077   5.388
 3281SOL     OW10741   2.206   5.111   0.799
 3281SOL    HW110742   2.248   5.061   0.723
 3281SOL    HW210743   2.210   5.209   0.780
 3282SOL     OW10744   1.285   5.701   4.553
 3282SOL    HW110745   1.258   5.791   4.589
 3282SOL    HW210746   1.229   5.630   4.595
 3283SOL     OW10747   3.955   1.292   0.950
 3283SOL    HW110748   3.931   1.311   1.045
 3283SOL    HW210749   3.874   1.301   0.892
 3284SOL     OW10750   6.403   5.914   6.599
 3284SOL    HW110751   6.324   5.948   6.547
 3284SOL    HW210752   6.374   5.886   6.690
 3285SOL     OW10753   5.240   2.865   3.735
 3285SOL    HW110754   5.255   2.827   3.644
 3285SOL    HW210755   5.318   2.923   3.760
 3286SOL     OW10756   4.033   3.312   2.527
 3286SOL    HW110757   4.044   3.305   2.626
 3286SOL    HW210758   3.950   3.263   2.500
 3287SOL     OW10759   1.597   6.310   6.739
 3287SOL    HW110760   1.508   6.355   6.746
 3287SOL    HW210761   1.645   6.343   6.658
 3288SOL     OW10762   0.558   5.579   6.859
 3288SOL    HW110763   0.583   5.644   6.931
 3288SOL    HW210764   0.474   5.532   6.885
 3289SOL     OW10765   2.360   6.759   5.095
 3289SOL    HW110766   2.394   6.802   5.179
 3289SOL    HW210767   2.433   6.759   5.026
 3290SOL     OW10768   0.399   6.928   1.675
 3290SOL    HW110769   0.368   6.978   1.594
 3290SOL    HW210770   0.378   6.981   1.757
 3291SOL     OW10771   1.338   6.568   0.307
 3291SOL    HW110772   1.360   6.520   0.222
 3291SOL    HW210773   1.420   6.614   0.341
 3292SOL     OW10774   0.694   0.793   0.609
 3292SOL    HW110775   0.622   0.858   0.633
 3292SOL    HW210776   0.705   0.727   0.683
 3293SOL     OW10777   6.959   3.380   3.426
 3293SOL    HW110778   6.958   3.345   3.520
 3293SOL    HW210779   6.894   3.328   3.370
 3294SOL     OW10780   0.481   0.967   6.043
 3294SOL    HW110781   0.539   0.898   6.000
 3294SOL    HW210782   0.538   1.030   6.096
 3295SOL     OW10783   1.597   2.900   1.697
 3295SOL    HW110784   1.661   2.928   1.625
 3295SOL    HW210785   1.643   2.899   1.785
 3296SOL     OW10786   2.022   6.148   2.041
 3296SOL    HW110787   1.969   6.079   2.090
 3296SOL    HW210788   1.961   6.199   1.980
 3297SOL     OW10789   2.993   0.636   4.358
 3297SOL    HW110790   3.026   0.548   4.325
 3297SOL    HW210791   2.919   0.622   4.424
 3298SOL     OW10792   5.570   2.140   4.024
 3298SOL    HW110793   5.564   2.239   4.010
 3298SOL    HW210794   5.483   2.097   4.000
 3299SOL     OW10795   2.064   6.207   4.248
 3299SOL    HW110796   2.031   6.190   4.341
 3299SOL    HW210797   1.999   6.267   4.200
 3300SOL     OW10798   0.343   0.768   5.759
 3300SOL    HW110799   0.405   0.762   5.681
 3300SOL    HW210800   0.293   0.682   5.768
 3301SOL     OW10801   1.923   3.254   2.765
 3301SOL    HW110802   1.849   3.219   2.707
 3301SOL    HW210803   1.884   3.303   2.843
 3302SOL     OW10804   1.787   5.839   5.720
 3302SOL    HW110805   1.752   5.788   5.798
 3302SOL    HW210806   1.711   5.872   5.665
 3303SOL     OW10807   3.715   2.971   2.049
 3303SOL    HW110808   3.766   2.901   2.000
 3303SOL    HW210809   3.754   2.984   2.140
 3304SOL     OW10810   1.632   5.582   4.420
 3304SOL    HW110811   1.572   5.600   4.342
 3304SOL    HW210812   1.625   5.657   4.485
 3305SOL     OW10813   2.106   1.335   3.232
 3305SOL    HW110814   2.020   1.330   3.182
 3305SOL    HW210815   2.163   1.257   3.206
 3306SOL     OW10816   2.356   5.624   4.169
 3306SOL    HW110817   2.399   5.714   4.167
 3306SOL    HW210818   2.260   5.633   4.197
 3307SOL     OW10819   6.779   6.060   6.413
 3307SOL    HW110820   6.711   6.041   6.484
 3307SOL    HW210821   6.854   6.113   6.451
 3308SOL     OW10822   4.308   5.630   6.664
 3308SOL    HW110823   4.321   5.727   6.643
 3308SOL    HW210824   4.365   5.604   6.741
 3309SOL     OW10825   0.489   5.117   2.541
 3309SOL    HW110826   0.413   5.068   2.498
 3309SOL    HW210827   0.472   5.125   2.639
 3310SOL     OW10828   6.771   3.945   5.096
 3310SOL    HW110829   6.694   3.903   5.143
 3310SOL    HW210830   6.853   3.938   5.153
 3311SOL     OW10831   2.303   3.853   1.833
 3311SOL    HW110832   2.381   3.792   1.817
 3311SOL    HW210833   2.335   3.937   1.878
 3312SOL     OW10834   3.828   4.964   5.804
 3312SOL    HW110835   3.774   5.015   5.871
 3312SOL    HW210836   3.769   4.904   5.750
 3313SOL     OW10837   6.717   5.511   2.756
 3313SOL    HW110838   6.728   5.412   2.763
 3313SOL    HW210839   6.653   5.543   2.826
 3314SOL     OW10840   2.188   1.835   3.817
 3314SOL    HW110841   2.246   1.809   3.740
 3314SOL    HW210842   2.200   1.932   3.837
 3315SOL     OW10843   6.088   3.250   4.145
 3315SOL    HW110844   6.149   3.324   4.172
 3315SOL    HW210845   6.130   3.162   4.168
 3316SOL     OW10846   4.314   1.617   6.254
 3316SOL    HW110847   4.224   1.604   6.215
 3316SOL    HW210848   4.328   1.714   6.275
 3317SOL     OW10849   4.627   3.420   1.706
 3317SOL    HW110850   4.697   3.350   1.698
 3317SOL    HW210851   4.665   3.509   1.679
 3318SOL     OW10852   3.633   0.467   0.513
 3318SOL    HW110853   3.646   0.418   0.427
 3318SOL    HW210854   3.536   0.487   0.527
 3319SOL     OW10855   6.011   0.475   4.625
 3319SOL    HW110856   6.100   0.441   4.596
 3319SOL    HW210857   6.001   0.461   4.724
 3320SOL     OW10858   5.539   0.705   5.450
 3320SOL    HW110859   5.623   0.750   5.480
 3320SOL    HW210860   5.537   0.611   5.485
 3321SOL     OW10861   4.117   2.349   1.376
 3321SOL    HW110862   4.169   2.410   1.317
 3321SOL    HW210863   4.054   2.293   1.321
 3322SOL     OW10864   5.272   3.465   1.327
 3322SOL    HW110865   5.192   3.459   1.386
 3322SOL    HW210866   5.247   3.438   1.234
 3323SOL     OW10867   2.721   4.042   6.536
 3323SOL    HW110868   2.726   4.070   6.440
 3323SOL    HW210869   2.636   4.078   6.576
 3324SOL     OW10870   0.970   3.299   6.090
 3324SOL    HW110871   1.058   3.296   6.138
 3324SOL    HW210872   0.911   3.367   6.132
 3325SOL     OW10873   2.063   2.547   6.174
 3325SOL    HW110874   2.134   2.478   6.185
 3325SOL    HW210875   2.099   2.625   6.123
 3326SOL     OW10876   5.931   1.786   2.083
 3326SOL    HW110877   5.972   1.808   1.994
 3326SOL    HW210878   5.945   1.862   2.146
 3327SOL     OW10879   3.169   6.347   1.302
 3327SOL    HW110880   3.265   6.338   1.329
 3327SOL    HW210881   3.119   6.266   1.332
 3328SOL     OW10882   4.527   1.457   1.943
 3328SOL    HW110883   4.439   1.475   1.987
 3328SOL    HW210884   4.601   1.490   2.002
 3329SOL     OW10885   5.402   0.882   4.388
 3329SOL    HW110886   5.403   0.867   4.289
 3329SOL    HW210887   5.311   0.911   4.417
 3330SOL     OW10888   5.971   6.237   1.298
 3330SOL    HW110889   5.958   6.192   1.209
 3330SOL    HW210890   5.951   6.171   1.371
 3331SOL     OW10891   0.730   3.507   2.334
 3331SOL    HW110892   0.640   3.549   2.351
 3331SOL    HW210893   0.717   3.419   2.290
 3332SOL     OW10894   6.552   4.450   0.336
 3332SOL    HW110895   6.577   4.376   0.398
 3332SOL    HW210896   6.507   4.523   0.387
 3333SOL     OW10897   3.198   4.125   6.678
 3333SOL    HW110898   3.240   4.182   6.749
 3333SOL    HW210899   3.173   4.182   6.600
 3334SOL     OW10900   2.127   4.123   2.102
 3334SOL    HW110901   2.157   4.179   2.180
 3334SOL    HW210902   2.105   4.031   2.133
 3335SOL     OW10903   4.685   6.941   6.272
 3335SOL    HW110904   4.659   6.865   6.331
 3335SOL    HW210905   4.629   6.939   6.189
 3336SOL     OW10906   1.713   6.651   4.901
 3336SOL    HW110907   1.743   6.671   4.808
 3336SOL    HW210908   1.712   6.735   4.955
 3337SOL     OW10909   2.733   4.018   1.165
 3337SOL    HW110910   2.832   4.021   1.178
 3337SOL    HW210911   2.688   4.071   1.237
 3338SOL     OW10912   0.475   3.051   0.741
 3338SOL    HW110913   0.430   3.066   0.829
 3338SOL    HW210914   0.412   3.074   0.667
 3339SOL     OW10915   1.127   6.439   6.467
 3339SOL    HW110916   1.113   6.341   6.449
 3339SOL    HW210917   1.073   6.466   6.546
 3340SOL     OW10918   3.406   1.466   2.938
 3340SOL    HW110919   3.351   1.548   2.955
 3340SOL    HW210920   3.365   1.412   2.865
 3341SOL     OW10921   1.621   4.667   3.997
 3341SOL    HW110922   1.674   4.691   4.078
 3341SOL    HW210923   1.620   4.744   3.933
 3342SOL     OW10924   1.373   0.117   3.929
 3342SOL    HW110925   1.300   0.060   3.969
 3342SOL    HW210926   1.356   0.129   3.831
 3343SOL     OW10927   5.629   4.432   6.686
 3343SOL    HW110928   5.637   4.475   6.776
 3343SOL    HW210929   5.696   4.473   6.623
 3344SOL     OW10930   5.635   3.685   3.668
 3344SOL    HW110931   5.711   3.629   3.635
 3344SOL    HW210932   5.655   3.782   3.653
 3345SOL     OW10933   1.479   3.857   6.502
 3345SOL    HW110934   1.496   3.921   6.427
 3345SOL    HW210935   1.555   3.793   6.509
 3346SOL     OW10936   1.075   0.915   0.062
 3346SOL    HW110937   1.174   0.928   0.062
 3346SOL    HW210938   1.052   0.830   0.109
 3347SOL     OW10939   1.333   2.345   5.372
 3347SOL    HW110940   1.279   2.318   5.292
 3347SOL    HW210941   1.370   2.436   5.358
 3348SOL     OW10942   4.110   3.400   4.665
 3348SOL    HW110943   4.064   3.324   4.619
 3348SOL    HW210944   4.158   3.366   4.746
 3349SOL     OW10945   2.237   5.283   3.513
 3349SOL    HW110946   2.322   5.289   3.565
 3349SOL    HW210947   2.179   5.361   3.535
 3350SOL     OW10948   0.310   2.493   5.906
 3350SOL    HW110949   0.270   2.518   5.818
 3350SOL    HW210950   0.408   2.478   5.895
 3351SOL     OW10951   4.825   0.884   2.377
 3351SOL    HW110952   4.875   0.967   2.354
 3351SOL    HW210953   4.736   0.908   2.415
 3352SOL     OW10954   6.550   3.036   0.948
 3352SOL    HW110955   6.504   3.023   1.036
 3352SOL    HW210956   6.571   3.133   0.935
 3353SOL     OW10957   3.002   6.144   1.426
 3353SOL    HW110958   3.091   6.106   1.452
 3353SOL    HW210959   2.938   6.069   1.407
 3354SOL     OW10960   3.985   2.216   5.213
 3354SOL    HW110961   3.964   2.185   5.306
 3354SOL    HW210962   3.899   2.227   5.162
 3355SOL     OW10963   1.542   1.706   6.009
 3355SOL    HW110964   1.557   1.607   6.010
 3355SOL    HW210965   1.629   1.753   5.999
 3356SOL     OW10966   0.827   5.674   6.116
 3356SOL    HW110967   0.919   5.649   6.146
 3356SOL    HW210968   0.803   5.622   6.035
 3357SOL     OW10969   2.462   3.678   1.695
 3357SOL    HW110970   2.414   3.597   1.730
 3357SOL    HW210971   2.419   3.707   1.609
 3358SOL     OW10972   4.533   1.651   2.243
 3358SOL    HW110973   4.439   1.618   2.235
 3358SOL    HW210974   4.597   1.578   2.222
 3359SOL     OW10975   0.404   6.070   3.204
 3359SOL    HW110976   0.382   6.106   3.295
 3359SOL    HW210977   0.422   6.146   3.141
 3360SOL     OW10978   1.285   1.256   6.666
 3360SOL    HW110979   1.211   1.228   6.606
 3360SOL    HW210980   1.283   1.356   6.676
 3361SOL     OW10981   6.908   5.302   4.791
 3361SOL    HW110982   6.988   5.340   4.744
 3361SOL    HW210983   6.871   5.227   4.737
 3362SOL     OW10984   3.583   1.266   2.874
 3362SOL    HW110985   3.548   1.351   2.914
 3362SOL    HW210986   3.644   1.221   2.939
 3363SOL     OW10987   6.785   2.373   1.562
 3363SOL    HW110988   6.725   2.445   1.599
 3363SOL    HW210989   6.835   2.330   1.638
 3364SOL     OW10990   2.098   4.634   4.065
 3364SOL    HW110991   2.101   4.576   4.146
 3364SOL    HW210992   2.186   4.629   4.017
 3365SOL     OW10993   0.243   2.426   4.737
 3365SOL    HW110994   0.222   2.497   4.669
 3365SOL    HW210995   0.170   2.359   4.739
 3366SOL     OW10996   5.340   4.790   4.380
 3366SOL    HW110997   5.426   4.782   4.330
 3366SOL    HW210998   5.354   4.844   4.462
 3367SOL     OW10999   4.048   3.221   2.805
 3367SOL    HW111000   3.961   3.268   2.820
 3367SOL    HW211001   4.105   3.231   2.886
 3368SOL     OW11002   0.747   5.777   6.361
 3368SOL    HW111003   0.794   5.759   6.275
 3368SOL    HW211004   0.650   5.752   6.352
 3369SOL     OW11005   3.721   1.911   0.549
 3369SOL    HW111006   3.642   1.852   0.566
 3369SOL    HW211007   3.771   1.925   0.634
 3370SOL     OW11008   6.558   6.347   1.598
 3370SOL    HW111009   6.657   6.356   1.590
 3370SOL    HW211010   6.514   6.381   1.515
 3371SOL     OW11011   2.410   3.304   1.396
 3371SOL    HW111012   2.347   3.271   1.466
 3371SOL    HW211013   2.503   3.277   1.419
 3372SOL     OW11014   6.915   1.851   6.684
 3372SOL    HW111015   6.940   1.815   6.773
 3372SOL    HW211016   6.844   1.920   6.695
 3373SOL     OW11017   0.457   2.367   4.133
 3373SOL    HW111018   0.447   2.410   4.223
 3373SOL    HW211019   0.529   2.298   4.137
 3374SOL     OW11020   1.272   6.780   3.668
 3374SOL    HW111021   1.271   6.701   3.729
 3374SOL    HW211022   1.208   6.849   3.701
 3375SOL     OW11023   0.186   4.581   0.231
 3375SOL    HW111024   0.277   4.613   0.254
 3375SOL    HW211025   0.171   4.591   0.132
 3376SOL     OW11026   3.598   2.843   4.844
 3376SOL    HW111027   3.556   2.856   4.754
 3376SOL    HW211028   3.651   2.759   4.845
 3377SOL     OW11029   6.584   5.168   5.855
 3377SOL    HW111030   6.517   5.168   5.929
 3377SOL    HW211031   6.557   5.102   5.786
 3378SOL     OW11032   1.695   6.956   0.375
 3378SOL    HW111033   1.631   0.009   0.369
 3378SOL    HW211034   1.719   6.925   0.283
 3379SOL     OW11035   0.996   1.841   4.811
 3379SOL    HW111036   0.973   1.930   4.848
 3379SOL    HW211037   1.096   1.832   4.804
 3380SOL     OW11038   4.973   6.995   4.942
 3380SOL    HW111039   4.957   0.071   4.949
 3380SOL    HW211040   5.014   6.962   5.027
 3381SOL     OW11041   0.256   3.189   1.475
 3381SOL    HW111042   0.326   3.251   1.440
 3381SOL    HW211043   0.173   3.241   1.495
 3382SOL     OW11044   0.655   2.803   6.412
 3382SOL    HW111045   0.675   2.739   6.486
 3382SOL    HW211046   0.738   2.853   6.388
 3383SOL     OW11047   3.783   5.539   1.069
 3383SOL    HW111048   3.710   5.578   1.012
 3383SOL    HW211049   3.865   5.594   1.061
 3384SOL     OW11050   1.969   2.917   0.635
 3384SOL    HW111051   2.016   3.000   0.663
 3384SOL    HW211052   2.036   2.844   0.621
 3385SOL     OW11053   6.891   3.672   4.847
 3385SOL    HW111054   6.969   3.650   4.787
 3385SOL    HW211055   6.843   3.751   4.810
 3386SOL     OW11056   5.656   4.431   0.277
 3386SOL    HW111057   5.588   4.430   0.351
 3386SOL    HW211058   5.611   4.452   0.190
 3387SOL     OW11059   4.232   0.027   2.884
 3387SOL    HW111060   4.325   0.063   2.885
 3387SOL    HW211061   4.226   6.972   2.821
 3388SOL     OW11062   5.392   3.010   2.457
 3388SOL    HW111063   5.380   2.970   2.548
 3388SOL    HW211064   5.326   2.968   2.394
 3389SOL     OW11065   6.507   5.627   6.073
 3389SOL    HW111066   6.482   5.562   6.002
 3389SOL    HW211067   6.606   5.624   6.088
 3390SOL     OW11068   4.986   6.931   6.186
 3390SOL    HW111069   4.893   6.931   6.224
 3390SOL    HW211070   4.984   6.970   6.094
 3391SOL     OW11071   4.736   2.617   4.068
 3391SOL    HW111072   4.672   2.665   4.008
 3391SOL    HW211073   4.709   2.521   4.076
 3392SOL     OW11074   3.425   6.620   4.113
 3392SOL    HW111075   3.337   6.622   4.066
 3392SOL    HW211076   3.457   6.525   4.119
 3393SOL     OW11077   6.256   6.210   0.584
 3393SOL    HW111078   6.314   6.130   0.601
 3393SOL    HW211079   6.186   6.186   0.517
 3394SOL     OW11080   5.163   3.586   1.031
 3394SOL    HW111081   5.078   3.617   0.990
 3394SOL    HW211082   5.222   3.664   1.049
 3395SOL     OW11083   5.179   2.786   3.421
 3395SOL    HW111084   5.155   2.689   3.415
 3395SOL    HW211085   5.184   2.824   3.329
 3396SOL     OW11086   5.348   1.466   3.351
 3396SOL    HW111087   5.371   1.380   3.304
 3396SOL    HW211088   5.253   1.463   3.382
 3397SOL     OW11089   3.191   5.369   6.798
 3397SOL    HW111090   3.161   5.295   6.738
 3397SOL    HW211091   3.180   5.342   6.893
 3398SOL     OW11092   0.876   0.265   4.336
 3398SOL    HW111093   0.853   0.362   4.336
 3398SOL    HW211094   0.793   0.211   4.318
 3399SOL     OW11095   5.505   5.334   3.294
 3399SOL    HW111096   5.449   5.259   3.330
 3399SOL    HW211097   5.448   5.395   3.239
 3400SOL     OW11098   5.875   3.442   6.676
 3400SOL    HW111099   5.845   3.472   6.767
 3400SOL    HW211100   5.872   3.519   6.612
 3401SOL     OW11101   6.687   3.601   6.276
 3401SOL    HW111102   6.620   3.575   6.345
 3401SOL    HW211103   6.644   3.662   6.209
 3402SOL     OW11104   4.995   5.793   6.463
 3402SOL    HW111105   5.045   5.735   6.527
 3402SOL    HW211106   4.913   5.829   6.506
 3403SOL     OW11107   4.154   5.231   6.467
 3403SOL    HW111108   4.206   5.147   6.482
 3403SOL    HW211109   4.123   5.234   6.372
 3404SOL     OW11110   5.512   2.557   0.765
 3404SOL    HW111111   5.468   2.468   0.775
 3404SOL    HW211112   5.521   2.578   0.667
 3405SOL     OW11113   6.058   4.105   6.613
 3405SOL    HW111114   5.970   4.081   6.655
 3405SOL    HW211115   6.132   4.061   6.663
 3406SOL     OW11116   1.500   3.503   2.351
 3406SOL    HW111117   1.403   3.490   2.331
 3406SOL    HW211118   1.536   3.579   2.296
 3407SOL     OW11119   1.400   4.418   6.821
 3407SOL    HW111120   1.499   4.406   6.823
 3407SOL    HW211121   1.359   4.354   6.756
 3408SOL     OW11122   5.183   2.887   4.690
 3408SOL    HW111123   5.212   2.878   4.595
 3408SOL    HW211124   5.213   2.975   4.726
 3409SOL     OW11125   4.042   5.969   0.284
 3409SOL    HW111126   3.970   6.025   0.243
 3409SOL    HW211127   4.070   5.898   0.219
 3410SOL     OW11128   7.011   6.512   1.646
 3410SOL    HW111129   7.002   6.518   1.746
 3410SOL    HW211130   6.973   6.426   1.614
 3411SOL     OW11131   0.390   2.347   0.546
 3411SOL    HW111132   0.419   2.251   0.545
 3411SOL    HW211133   0.290   2.351   0.552
 3412SOL     OW11134   4.955   3.088   1.404
 3412SOL    HW111135   4.992   3.060   1.316
 3412SOL    HW211136   4.887   3.021   1.435
 3413SOL     OW11137   6.236   1.518   1.016
 3413SOL    HW111138   6.326   1.474   1.016
 3413SOL    HW211139   6.187   1.492   0.933
 3414SOL     OW11140   3.622   1.952   5.726
 3414SOL    HW111141   3.581   2.042   5.730
 3414SOL    HW211142   3.653   1.925   5.817
 3415SOL     OW11143   2.075   2.900   3.804
 3415SOL    HW111144   2.137   2.911   3.727
 3415SOL    HW211145   1.981   2.889   3.771
 3416SOL     OW11146   5.586   6.364   0.523
 3416SOL    HW111147   5.539   6.449   0.501
 3416SOL    HW211148   5.666   6.354   0.464
 3417SOL     OW11149   0.926   6.322   4.164
 3417SOL    HW111150   1.014   6.311   4.210
 3417SOL    HW211151   0.863   6.370   4.224
 3418SOL     OW11152   3.920   5.552   3.577
 3418SOL    HW111153   3.830   5.527   3.613
 3418SOL    HW211154   3.957   5.627   3.632
 3419SOL     OW11155   3.071   5.518   6.155
 3419SOL    HW111156   3.031   5.572   6.081
 3419SOL    HW211157   3.145   5.570   6.197
 3420SOL     OW11158   5.800   3.336   3.426
 3420SOL    HW111159   5.781   3.241   3.450
 3420SOL    HW211160   5.728   3.371   3.365
 3421SOL     OW11161   4.992   1.658   3.731
 3421SOL    HW111162   5.083   1.620   3.713
 3421SOL    HW211163   4.928   1.625   3.662
 3422SOL     OW11164   3.122   0.305   6.984
 3422SOL    HW111165   3.083   0.293   0.053
 3422SOL    HW211166   3.069   0.372   6.933
 3423SOL     OW11167   6.807   4.795   5.901
 3423SOL    HW111168   6.793   4.750   5.989
 3423SOL    HW211169   6.799   4.894   5.913
 3424SOL     OW11170   2.283   6.372   1.155
 3424SOL    HW111171   2.315   6.419   1.236
 3424SOL    HW211172   2.317   6.418   1.073
 3425SOL     OW11173   4.581   4.861   2.355
 3425SOL    HW111174   4.483   4.880   2.359
 3425SOL    HW211175   4.604   4.790   2.421
 3426SOL     OW11176   4.645   2.550   1.354
 3426SOL    HW111177   4.575   2.479   1.349
 3426SOL    HW211178   4.642   2.604   1.270
 3427SOL     OW11179   0.918   1.612   1.012
 3427SOL    HW111180   0.960   1.523   0.997
 3427SOL    HW211181   0.882   1.648   0.925
 3428SOL     OW11182   3.366   5.143   0.447
 3428SOL    HW111183   3.339   5.076   0.516
 3428SOL    HW211184   3.342   5.235   0.478
 3429SOL     OW11185   0.512   2.269   1.296
 3429SOL    HW111186   0.511   2.210   1.377
 3429SOL    HW211187   0.573   2.230   1.227
 3430SOL     OW11188   2.142   5.439   5.525
 3430SOL    HW111189   2.082   5.437   5.605
 3430SOL    HW211190   2.087   5.439   5.442
 3431SOL     OW11191   1.486   5.831   1.682
 3431SOL    HW111192   1.535   5.871   1.605
 3431SOL    HW211193   1.531   5.747   1.711
 3432SOL     OW11194   2.089   4.395   5.308
 3432SOL    HW111195   1.995   4.373   5.333
 3432SOL    HW211196   2.151   4.327   5.346
 3433SOL     OW11197   1.048   0.241   5.125
 3433SOL    HW111198   1.120   0.178   5.096
 3433SOL    HW211199   1.088   0.312   5.184
 3434SOL     OW11200   3.836   1.218   2.290
 3434SOL    HW111201   3.792   1.160   2.222
 3434SOL    HW211202   3.818   1.314   2.269
 3435SOL     OW11203   2.154   1.447   1.362
 3435SOL    HW111204   2.240   1.431   1.314
 3435SOL    HW211205   2.172   1.453   1.461
 3436SOL     OW11206   3.791   6.016   0.068
 3436SOL    HW111207   3.786   6.100   0.015
 3436SOL    HW211208   3.706   6.004   0.120
 3437SOL     OW11209   2.636   6.615   5.389
 3437SOL    HW111210   2.726   6.596   5.349
 3437SOL    HW211211   2.614   6.712   5.376
 3438SOL     OW11212   0.763   3.413   0.753
 3438SOL    HW111213   0.720   3.359   0.825
 3438SOL    HW211214   0.709   3.496   0.737
 3439SOL     OW11215   3.414   6.167   4.433
 3439SOL    HW111216   3.348   6.143   4.504
 3439SOL    HW211217   3.366   6.188   4.348
 3440SOL     OW11218   3.239   3.034   2.263
 3440SOL    HW111219   3.227   2.947   2.214
 3440SOL    HW211220   3.207   3.109   2.205
 3441SOL     OW11221   6.556   6.184   6.128
 3441SOL    HW111222   6.543   6.148   6.036
 3441SOL    HW211223   6.628   6.254   6.127
 3442SOL     OW11224   1.924   3.899   1.867
 3442SOL    HW111225   1.980   3.957   1.808
 3442SOL    HW211226   1.978   3.822   1.900
 3443SOL     OW11227   4.060   6.251   2.208
 3443SOL    HW111228   4.027   6.198   2.285
 3443SOL    HW211229   3.990   6.318   2.181
 3444SOL     OW11230   4.452   5.257   6.889
 3444SOL    HW111231   4.482   5.273   6.983
 3444SOL    HW211232   4.492   5.172   6.855
 3445SOL     OW11233   5.430   5.228   2.329
 3445SOL    HW111234   5.418   5.232   2.230
 3445SOL    HW211235   5.393   5.143   2.364
 3446SOL     OW11236   6.380   0.530   1.338
 3446SOL    HW111237   6.288   0.506   1.368
 3446SOL    HW211238   6.412   0.463   1.270
 3447SOL     OW11239   4.675   6.655   0.713
 3447SOL    HW111240   4.748   6.642   0.780
 3447SOL    HW211241   4.644   6.750   0.715
 3448SOL     OW11242   3.548   6.872   6.239
 3448SOL    HW111243   3.485   6.945   6.213
 3448SOL    HW211244   3.627   6.911   6.286
 3449SOL     OW11245   6.006   5.099   4.754
 3449SOL    HW111246   5.971   5.021   4.805
 3449SOL    HW211247   5.952   5.113   4.671
 3450SOL     OW11248   1.034   1.316   6.525
 3450SOL    HW111249   0.953   1.262   6.503
 3450SOL    HW211250   1.023   1.357   6.616
 3451SOL     OW11251   2.723   6.501   6.957
 3451SOL    HW111252   2.777   6.524   0.016
 3451SOL    HW211253   2.635   6.464   6.986
 3452SOL     OW11254   5.335   0.399   6.634
 3452SOL    HW111255   5.288   0.479   6.597
 3452SOL    HW211256   5.321   0.321   6.574
 3453SOL     OW11257   6.147   5.243   6.218
 3453SOL    HW111258   6.227   5.303   6.214
 3453SOL    HW211259   6.063   5.297   6.212
 3454SOL     OW11260   1.114   3.941   5.386
 3454SOL    HW111261   1.108   3.930   5.287
 3454SOL    HW211262   1.151   3.858   5.428
 3455SOL     OW11263   2.811   1.794   4.271
 3455SOL    HW111264   2.782   1.714   4.217
 3455SOL    HW211265   2.887   1.839   4.225
 3456SOL     OW11266   5.594   4.623   1.784
 3456SOL    HW111267   5.661   4.600   1.713
 3456SOL    HW211268   5.530   4.547   1.795
 3457SOL     OW11269   4.090   5.336   4.252
 3457SOL    HW111270   4.046   5.355   4.339
 3457SOL    HW211271   4.180   5.381   4.248
 3458SOL     OW11272   4.280   0.777   2.223
 3458SOL    HW111273   4.273   0.748   2.128
 3458SOL    HW211274   4.313   0.871   2.228
 3459SOL     OW11275   5.012   2.338   2.374
 3459SOL    HW111276   4.943   2.337   2.447
 3459SOL    HW211277   4.997   2.418   2.316
 3460SOL     OW11278   3.297   1.905   0.097
 3460SOL    HW111279   3.276   1.846   0.019
 3460SOL    HW211280   3.393   1.934   0.093
 3461SOL     OW11281   4.577   3.851   0.108
 3461SOL    HW111282   4.606   3.899   0.026
 3461SOL    HW211283   4.623   3.763   0.114
 3462SOL     OW11284   0.825   3.990   5.412
 3462SOL    HW111285   0.795   4.071   5.361
 3462SOL    HW211286   0.923   3.975   5.397
 3463SOL     OW11287   0.666   4.247   1.893
 3463SOL    HW111288   0.612   4.164   1.878
 3463SOL    HW211289   0.658   4.274   1.989
 3464SOL     OW11290   0.110   4.706   5.851
 3464SOL    HW111291   0.023   4.672   5.887
 3464SOL    HW211292   0.176   4.630   5.847
 3465SOL     OW11293   1.643   2.643   2.170
 3465SOL    HW111294   1.703   2.607   2.241
 3465SOL    HW211295   1.669   2.604   2.081
 3466SOL     OW11296   6.808   5.316   6.078
 3466SOL    HW111297   6.757   5.315   6.164
 3466SOL    HW211298   6.757   5.369   6.010
 3467SOL     OW11299   1.673   2.818   6.408
 3467SOL    HW111300   1.621   2.735   6.426
 3467SOL    HW211301   1.726   2.842   6.490
 3468SOL     OW11302   4.467   6.254   2.308
 3468SOL    HW111303   4.559   6.222   2.283
 3468SOL    HW211304   4.413   6.268   2.225
 3469SOL     OW11305   5.825   0.601   3.119
 3469SOL    HW111306   5.843   0.567   3.026
 3469SOL    HW211307   5.911   0.634   3.159
 3470SOL     OW11308   6.742   3.640   0.545
 3470SOL    HW111309   6.652   3.622   0.506
 3470SOL    HW211310   6.800   3.684   0.477
 3471SOL     OW11311   3.909   4.993   4.274
 3471SOL    HW111312   3.984   4.953   4.327
 3471SOL    HW211313   3.836   5.021   4.336
 3472SOL     OW11314   1.942   0.692   2.849
 3472SOL    HW111315   1.862   0.688   2.790
 3472SOL    HW211316   1.970   0.600   2.875
 3473SOL     OW11317   6.689   1.221   6.579
 3473SOL    HW111318   6.643   1.284   6.516
 3473SOL    HW211319   6.781   1.256   6.600
 3474SOL     OW11320   2.851   4.975   1.719
 3474SOL    HW111321   2.854   4.876   1.733
 3474SOL    HW211322   2.784   5.016   1.780
 3475SOL     OW11323   0.895   6.053   4.841
 3475SOL    HW111324   0.980   6.021   4.881
 3475SOL    HW211325   0.848   5.976   4.797
 3476SOL     OW11326   3.514   1.787   3.005
 3476SOL    HW111327   3.611   1.793   2.981
 3476SOL    HW211328   3.495   1.847   3.083
 3477SOL     OW11329   3.002   5.303   1.239
 3477SOL    HW111330   3.033   5.264   1.326
 3477SOL    HW211331   3.005   5.232   1.168
 3478SOL     OW11332   2.307   5.459   4.809
 3478SOL    HW111333   2.353   5.374   4.836
 3478SOL    HW211334   2.373   5.534   4.811
 3479SOL     OW11335   1.167   1.094   2.786
 3479SOL    HW111336   1.096   1.133   2.727
 3479SOL    HW211337   1.175   1.149   2.869
 3480SOL     OW11338   6.737   6.951   4.955
 3480SOL    HW111339   6.713   6.910   4.867
 3480SOL    HW211340   6.734   0.028   4.947
 3481SOL     OW11341   4.660   0.102   6.911
 3481SOL    HW111342   4.661   0.003   6.925
 3481SOL    HW211343   4.753   0.138   6.922
 3482SOL     OW11344   5.564   1.560   0.837
 3482SOL    HW111345   5.630   1.579   0.910
 3482SOL    HW211346   5.475   1.598   0.861
 3483SOL     OW11347   4.041   1.128   1.348
 3483SOL    HW111348   4.116   1.089   1.295
 3483SOL    HW211349   4.064   1.127   1.445
 3484SOL     OW11350   2.770   3.810   1.494
 3484SOL    HW111351   2.771   3.755   1.577
 3484SOL    HW211352   2.751   3.751   1.415
 3485SOL     OW11353   1.298   0.147   4.237
 3485SOL    HW111354   1.336   0.205   4.165
 3485SOL    HW211355   1.373   0.111   4.293
 3486SOL     OW11356   2.853   1.610   2.826
 3486SOL    HW111357   2.851   1.678   2.753
 3486SOL    HW211358   2.761   1.574   2.841
 3487SOL     OW11359   5.560   2.055   5.984
 3487SOL    HW111360   5.609   2.055   6.071
 3487SOL    HW211361   5.518   1.966   5.969
 3488SOL     OW11362   5.347   2.657   4.191
 3488SOL    HW111363   5.260   2.706   4.182
 3488SOL    HW211364   5.418   2.706   4.139
 3489SOL     OW11365   2.819   6.613   0.404
 3489SOL    HW111366   2.809   6.558   0.487
 3489SOL    HW211367   2.903   6.666   0.409
 3490SOL     OW11368   4.678   4.728   6.678
 3490SOL    HW111369   4.667   4.732   6.578
 3490SOL    HW211370   4.718   4.640   6.703
 3491SOL     OW11371   5.561   2.921   4.328
 3491SOL    HW111372   5.520   2.912   4.419
 3491SOL    HW211373   5.492   2.902   4.258
 3492SOL     OW11374   0.668   5.611   1.368
 3492SOL    HW111375   0.614   5.585   1.448
 3492SOL    HW211376   0.654   5.708   1.348
 3493SOL     OW11377   6.405   5.296   6.604
 3493SOL    HW111378   6.396   5.270   6.700
 3493SOL    HW211379   6.423   5.215   6.548
 3494SOL     OW11380   3.780   0.437   1.589
 3494SOL    HW111381   3.775   0.350   1.541
 3494SOL    HW211382   3.869   0.480   1.573
 3495SOL     OW11383   4.428   5.019   2.008
 3495SOL    HW111384   4.528   5.010   2.013
 3495SOL    HW211385   4.387   4.929   1.997
 3496SOL     OW11386   0.273   3.869   0.801
 3496SOL    HW111387   0.336   3.946   0.811
 3496SOL    HW211388   0.320   3.784   0.824
 3497SOL     OW11389   4.167   6.854   3.273
 3497SOL    HW111390   4.152   6.931   3.212
 3497SOL    HW211391   4.240   6.796   3.236
 3498SOL     OW11392   2.151   2.395   0.147
 3498SOL    HW111393   2.189   2.339   0.220
 3498SOL    HW211394   2.208   2.386   0.065
 3499SOL     OW11395   4.819   2.838   4.275
 3499SOL    HW111396   4.790   2.783   4.353
 3499SOL    HW211397   4.820   2.781   4.192
 3500SOL     OW11398   0.589   3.884   5.122
 3500SOL    HW111399   0.595   3.984   5.123
 3500SOL    HW211400   0.533   3.853   5.199
 3501SOL     OW11401   1.143   5.327   3.636
 3501SOL    HW111402   1.160   5.394   3.707
 3501SOL    HW211403   1.052   5.341   3.597
 3502SOL     OW11404   6.563   2.296   2.032
 3502SOL    HW111405   6.523   2.294   2.123
 3502SOL    HW211406   6.528   2.375   1.981
 3503SOL     OW11407   5.789   6.138   5.505
 3503SOL    HW111408   5.868   6.100   5.457
 3503SOL    HW211409   5.819   6.186   5.587
 3504SOL     OW11410   2.186   2.156   1.057
 3504SOL    HW111411   2.239   2.119   0.981
 3504SOL    HW211412   2.228   2.129   1.143
 3505SOL     OW11413   5.327   4.925   4.976
 3505SOL    HW111414   5.358   4.859   4.907
 3505SOL    HW211415   5.264   4.990   4.935
 3506SOL     OW11416   4.746   6.232   5.192
 3506SOL    HW111417   4.712   6.165   5.126
 3506SOL    HW211418   4.715   6.206   5.284
 3507SOL     OW11419   2.667   0.501   0.372
 3507SOL    HW111420   2.647   0.537   0.281
 3507SOL    HW211421   2.741   0.434   0.366
 3508SOL     OW11422   3.819   2.787   6.089
 3508SOL    HW111423   3.855   2.706   6.135
 3508SOL    HW211424   3.737   2.819   6.137
 3509SOL     OW11425   4.996   6.770   6.425
 3509SOL    HW111426   4.919   6.707   6.415
 3509SOL    HW211427   5.007   6.822   6.340
 3510SOL     OW11428   2.062   2.111   1.481
 3510SOL    HW111429   2.008   2.075   1.404
 3510SOL    HW211430   2.064   2.043   1.554
 3511SOL     OW11431   1.653   4.820   6.987
 3511SOL    HW111432   1.732   4.760   6.975
 3511SOL    HW211433   1.585   4.773   0.022
 3512SOL     OW11434   6.594   4.065   0.941
 3512SOL    HW111435   6.642   3.983   0.971
 3512SOL    HW211436   6.514   4.081   0.998
 3513SOL     OW11437   5.929   4.133   0.773
 3513SOL    HW111438   5.910   4.231   0.771
 3513SOL    HW211439   5.930   4.097   0.679
 3514SOL     OW11440   0.086   0.880   2.144
 3514SOL    HW111441   0.025   0.888   2.223
 3514SOL    HW211442   0.032   0.858   2.063
 3515SOL     OW11443   4.271   6.547   2.473
 3515SOL    HW111444   4.263   6.448   2.470
 3515SOL    HW211445   4.365   6.575   2.451
 3516SOL     OW11446   4.578   0.652   0.989
 3516SOL    HW111447   4.552   0.690   1.078
 3516SOL    HW211448   4.673   0.621   0.992
 3517SOL     OW11449   0.525   2.420   6.656
 3517SOL    HW111450   0.564   2.493   6.712
 3517SOL    HW211451   0.595   2.351   6.637
 3518SOL     OW11452   5.620   4.025   4.818
 3518SOL    HW111453   5.615   4.080   4.734
 3518SOL    HW211454   5.608   3.929   4.795
 3519SOL     OW11455   2.462   0.564   6.469
 3519SOL    HW111456   2.406   0.487   6.437
 3519SOL    HW211457   2.500   0.543   6.559
 3520SOL     OW11458   3.180   4.954   1.177
 3520SOL    HW111459   3.188   4.874   1.236
 3520SOL    HW211460   3.083   4.971   1.158
 3521SOL     OW11461   5.796   3.507   1.318
 3521SOL    HW111462   5.834   3.496   1.227
 3521SOL    HW211463   5.696   3.506   1.314
 3522SOL     OW11464   4.336   5.191   2.198
 3522SOL    HW111465   4.248   5.216   2.158
 3522SOL    HW211466   4.383   5.126   2.138
 3523SOL     OW11467   2.776   4.385   5.663
 3523SOL    HW111468   2.714   4.359   5.588
 3523SOL    HW211469   2.779   4.485   5.669
 3524SOL     OW11470   2.462   1.097   1.261
 3524SOL    HW111471   2.459   1.022   1.194
 3524SOL    HW211472   2.536   1.159   1.239
 3525SOL     OW11473   0.874   3.747   2.288
 3525SOL    HW111474   0.803   3.817   2.283
 3525SOL    HW211475   0.832   3.657   2.296
 3526SOL     OW11476   1.913   5.955   3.951
 3526SOL    HW111477   1.988   5.939   4.015
 3526SOL    HW211478   1.918   6.049   3.916
 3527SOL     OW11479   5.985   3.399   5.898
 3527SOL    HW111480   5.923   3.388   5.820
 3527SOL    HW211481   6.070   3.442   5.868
 3528SOL     OW11482   0.930   5.310   3.978
 3528SOL    HW111483   0.837   5.322   4.010
 3528SOL    HW211484   0.930   5.258   3.893
 3529SOL     OW11485   4.512   6.969   5.221
 3529SOL    HW111486   4.422   6.981   5.264
 3529SOL    HW211487   4.516   6.879   5.179
 3530SOL     OW11488   3.091   4.841   3.486
 3530SOL    HW111489   3.129   4.925   3.448
 3530SOL    HW211490   3.128   4.826   3.578
 3531SOL     OW11491   4.934   4.686   1.186
 3531SOL    HW111492   4.997   4.639   1.248
 3531SOL    HW211493   4.849   4.635   1.179
 3532SOL     OW11494   2.845   0.057   0.612
 3532SOL    HW111495   2.885   0.110   0.687
 3532SOL    HW211496   2.804   0.119   0.546
 3533SOL     OW11497   1.116   2.606   3.158
 3533SOL    HW111498   1.051   2.532   3.174
 3533SOL    HW211499   1.103   2.644   3.066
 3534SOL     OW11500   6.039   1.030   5.339
 3534SOL    HW111501   6.086   0.988   5.416
 3534SOL    HW211502   5.979   1.103   5.372
 3535SOL     OW11503   6.489   5.667   0.438
 3535SOL    HW111504   6.403   5.715   0.456
 3535SOL    HW211505   6.471   5.586   0.382
 3536SOL     OW11506   2.287   2.931   3.599
 3536SOL    HW111507   2.318   2.850   3.649
 3536SOL    HW211508   2.282   2.910   3.502
 3537SOL     OW11509   2.513   4.838   0.210
 3537SOL    HW111510   2.595   4.863   0.260
 3537SOL    HW211511   2.508   4.890   0.124
 3538SOL     OW11512   2.638   1.141   4.061
 3538SOL    HW111513   2.570   1.163   4.130
 3538SOL    HW211514   2.663   1.045   4.067
 3539SOL     OW11515   5.542   3.617   6.537
 3539SOL    HW111516   5.637   3.617   6.505
 3539SOL    HW211517   5.498   3.702   6.510
 3540SOL     OW11518   2.127   1.456   5.430
 3540SOL    HW111519   2.182   1.526   5.474
 3540SOL    HW211520   2.153   1.450   5.333
 3541SOL     OW11521   2.322   2.655   6.589
 3541SOL    HW111522   2.259   2.700   6.652
 3541SOL    HW211523   2.325   2.705   6.503
 3542SOL     OW11524   6.866   3.156   1.026
 3542SOL    HW111525   6.792   3.216   0.997
 3542SOL    HW211526   6.877   3.082   0.960
 3543SOL     OW11527   1.657   3.265   4.363
 3543SOL    HW111528   1.568   3.289   4.325
 3543SOL    HW211529   1.667   3.306   4.453
 3544SOL     OW11530   1.974   4.691   6.306
 3544SOL    HW111531   1.890   4.713   6.355
 3544SOL    HW211532   1.975   4.593   6.284
 3545SOL     OW11533   3.728   4.997   6.757
 3545SOL    HW111534   3.758   5.009   6.851
 3545SOL    HW211535   3.661   5.067   6.734
 3546SOL     OW11536   6.734   4.910   3.068
 3546SOL    HW111537   6.676   4.979   3.111
 3546SOL    HW211538   6.773   4.850   3.137
 3547SOL     OW11539   0.028   4.178   5.107
 3547SOL    HW111540   0.038   4.147   5.012
 3547SOL    HW211541   6.969   4.236   5.114
 3548SOL     OW11542   5.516   0.421   5.805
 3548SOL    HW111543   5.587   0.440   5.873
 3548SOL    HW211544   5.430   0.461   5.835
 3549SOL     OW11545   2.105   4.227   5.676
 3549SOL    HW111546   2.055   4.302   5.632
 3549SOL    HW211547   2.203   4.246   5.671
 3550SOL     OW11548   5.906   2.237   4.640
 3550SOL    HW111549   5.893   2.324   4.686
 3550SOL    HW211550   6.004   2.218   4.631
 3551SOL     OW11551   3.848   1.628   3.880
 3551SOL    HW111552   3.936   1.580   3.883
 3551SOL    HW211553   3.829   1.670   3.968
 3552SOL     OW11554   6.457   6.305   1.880
 3552SOL    HW111555   6.536   6.312   1.819
 3552SOL    HW211556   6.441   6.208   1.901
 3553SOL     OW11557   3.492   5.418   7.000
 3553SOL    HW111558   3.411   5.395   6.947
 3553SOL    HW211559   3.472   5.411   0.075
 3554SOL     OW11560   4.643   2.815   0.730
 3554SOL    HW111561   4.722   2.824   0.669
 3554SOL    HW211562   4.587   2.738   0.701
 3555SOL     OW11563   1.378   2.960   4.083
 3555SOL    HW111564   1.341   3.039   4.034
 3555SOL    HW211565   1.332   2.877   4.053
 3556SOL     OW11566   3.935   1.064   3.854
 3556SOL    HW111567   3.892   0.996   3.913
 3556SOL    HW211568   3.997   1.121   3.909
 3557SOL     OW11569   1.277   6.534   3.796
 3557SOL    HW111570   1.294   6.444   3.757
 3557SOL    HW211571   1.181   6.542   3.822
 3558SOL     OW11572   2.273   4.711   1.441
 3558SOL    HW111573   2.288   4.801   1.481
 3558SOL    HW211574   2.231   4.651   1.509
 3559SOL     OW11575   0.748   6.029   5.059
 3559SOL    HW111576   0.811   6.059   4.988
 3559SOL    HW211577   0.795   5.968   5.122
 3560SOL     OW11578   2.138   4.827   3.058
 3560SOL    HW111579   2.232   4.856   3.044
 3560SOL    HW211580   2.100   4.873   3.139
 3561SOL     OW11581   5.014   3.918   5.913
 3561SOL    HW111582   4.983   3.909   6.008
 3561SOL    HW211583   5.026   3.827   5.874
 3562SOL     OW11584   3.172   1.991   3.667
 3562SOL    HW111585   3.104   1.926   3.701
 3562SOL    HW211586   3.126   2.071   3.629
 3563SOL     OW11587   6.486   1.541   6.601
 3563SOL    HW111588   6.392   1.521   6.573
 3563SOL    HW211589   6.496   1.639   6.616
 3564SOL     OW11590   0.386   4.695   3.031
 3564SOL    HW111591   0.419   4.779   3.074
 3564SOL    HW211592   0.379   4.707   2.933
 3565SOL     OW11593   3.543   5.905   3.767
 3565SOL    HW111594   3.565   5.844   3.691
 3565SOL    HW211595   3.581   5.869   3.852
 3566SOL     OW11596   6.189   1.472   6.620
 3566SOL    HW111597   6.116   1.489   6.555
 3566SOL    HW211598   6.159   1.498   6.712
 3567SOL     OW11599   0.285   2.701   6.513
 3567SOL    HW111600   0.258   2.666   6.603
 3567SOL    HW211601   0.276   2.800   6.511
 3568SOL     OW11602   5.416   4.206   5.294
 3568SOL    HW111603   5.474   4.205   5.212
 3568SOL    HW211604   5.335   4.149   5.278
 3569SOL     OW11605   3.034   2.375   6.360
 3569SOL    HW111606   2.949   2.344   6.402
 3569SOL    HW211607   3.041   2.475   6.370
 3570SOL     OW11608   4.800   0.274   6.087
 3570SOL    HW111609   4.741   0.334   6.032
 3570SOL    HW211610   4.754   0.250   6.172
 3571SOL     OW11611   0.720   5.114   0.358
 3571SOL    HW111612   0.791   5.059   0.316
 3571SOL    HW211613   0.685   5.179   0.291
 3572SOL     OW11614   5.162   4.102   3.153
 3572SOL    HW111615   5.178   4.183   3.209
 3572SOL    HW211616   5.175   4.125   3.056
 3573SOL     OW11617   0.572   4.620   3.560
 3573SOL    HW111618   0.550   4.531   3.521
 3573SOL    HW211619   0.641   4.610   3.631
 3574SOL     OW11620   0.289   4.334   0.403
 3574SOL    HW111621   0.358   4.400   0.433
 3574SOL    HW211622   0.334   4.252   0.368
 3575SOL     OW11623   5.141   4.581   2.534
 3575SOL    HW111624   5.125   4.575   2.633
 3575SOL    HW211625   5.185   4.497   2.502
 3576SOL     OW11626   2.205   1.705   5.229
 3576SOL    HW111627   2.196   1.725   5.132
 3576SOL    HW211628   2.156   1.775   5.282
 3577SOL     OW11629   1.435   2.629   5.917
 3577SOL    HW111630   1.458   2.706   5.976
 3577SOL    HW211631   1.457   2.543   5.965
 3578SOL     OW11632   3.226   2.304   0.926
 3578SOL    HW111633   3.142   2.287   0.977
 3578SOL    HW211634   3.227   2.249   0.843
 3579SOL     OW11635   6.266   3.959   4.604
 3579SOL    HW111636   6.224   3.921   4.521
 3579SOL    HW211637   6.212   4.037   4.636
 3580SOL     OW11638   6.253   2.510   1.106
 3580SOL    HW111639   6.222   2.427   1.059
 3580SOL    HW211640   6.338   2.542   1.066
 3581SOL     OW11641   0.288   6.098   4.042
 3581SOL    HW111642   0.239   6.182   4.064
 3581SOL    HW211643   0.381   6.103   4.080
 3582SOL     OW11644   0.847   1.959   5.521
 3582SOL    HW111645   0.942   1.947   5.491
 3582SOL    HW211646   0.785   1.923   5.450
 3583SOL     OW11647   1.230   3.439   6.205
 3583SOL    HW111648   1.217   3.520   6.147
 3583SOL    HW211649   1.324   3.406   6.194
 3584SOL     OW11650   6.109   5.593   6.842
 3584SOL    HW111651   6.065   5.583   6.753
 3584SOL    HW211652   6.171   5.516   6.858
 3585SOL     OW11653   4.678   5.965   5.137
 3585SOL    HW111654   4.747   5.945   5.207
 3585SOL    HW211655   4.680   5.894   5.067
 3586SOL     OW11656   0.397   2.352   5.619
 3586SOL    HW111657   0.337   2.283   5.580
 3586SOL    HW211658   0.386   2.438   5.570
 3587SOL     OW11659   3.104   5.138   6.307
 3587SOL    HW111660   3.099   5.180   6.216
 3587SOL    HW211661   3.063   5.047   6.304
 3588SOL     OW11662   1.376   3.181   4.906
 3588SOL    HW111663   1.433   3.101   4.890
 3588SOL    HW211664   1.354   3.189   5.003
 3589SOL     OW11665   4.127   2.239   4.856
 3589SOL    HW111666   4.149   2.267   4.763
 3589SOL    HW211667   4.156   2.310   4.920
 3590SOL     OW11668   1.494   2.741   6.227
 3590SOL    HW111669   1.529   2.647   6.221
 3590SOL    HW211670   1.553   2.794   6.288
 3591SOL     OW11671   4.726   3.267   6.637
 3591SOL    HW111672   4.810   3.222   6.668
 3591SOL    HW211673   4.743   3.317   6.553
 3592SOL     OW11674   6.479   4.297   2.013
 3592SOL    HW111675   6.433   4.386   2.009
 3592SOL    HW211676   6.498   4.273   2.108
 3593SOL     OW11677   1.912   5.937   4.626
 3593SOL    HW111678   1.921   5.965   4.721
 3593SOL    HW211679   1.935   6.015   4.567
 3594SOL     OW11680   4.390   0.701   2.945
 3594SOL    HW111681   4.415   0.772   3.012
 3594SOL    HW211682   4.465   0.636   2.936
 3595SOL     OW11683   2.370   5.599   6.997
 3595SOL    HW111684   2.353   5.682   0.029
 3595SOL    HW211685   2.329   5.520   0.020
 3596SOL     OW11686   6.612   2.392   3.458
 3596SOL    HW111687   6.605   2.293   3.451
 3596SOL    HW211688   6.699   2.423   3.419
 3597SOL     OW11689   2.391   0.992   5.304
 3597SOL    HW111690   2.409   1.090   5.307
 3597SOL    HW211691   2.372   0.964   5.210
 3598SOL     OW11692   1.276   5.740   6.455
 3598SOL    HW111693   1.207   5.676   6.489
 3598SOL    HW211694   1.323   5.783   6.532
 3599SOL     OW11695   0.543   1.856   5.452
 3599SOL    HW111696   0.542   1.935   5.391
 3599SOL    HW211697   0.515   1.885   5.544
 3600SOL     OW11698   1.079   3.589   0.115
 3600SOL    HW111699   1.035   3.512   0.162
 3600SOL    HW211700   1.010   3.643   0.068
 3601SOL     OW11701   5.828   5.186   6.860
 3601SOL    HW111702   5.770   5.105   6.858
 3601SOL    HW211703   5.803   5.242   6.939
 3602SOL     OW11704   1.529   2.389   0.488
 3602SOL    HW111705   1.509   2.322   0.560
 3602SOL    HW211706   1.624   2.418   0.496
 3603SOL     OW11707   3.339   0.082   3.630
 3603SOL    HW111708   3.327   0.078   3.729
 3603SOL    HW211709   3.250   0.094   3.586
 3604SOL     OW11710   0.154   5.107   3.146
 3604SOL    HW111711   0.143   5.131   3.243
 3604SOL    HW211712   0.080   5.150   3.094
 3605SOL     OW11713   5.690   3.834   5.012
 3605SOL    HW111714   5.628   3.898   4.965
 3605SOL    HW211715   5.637   3.756   5.046
 3606SOL     OW11716   0.137   6.328   5.513
 3606SOL    HW111717   0.126   6.386   5.432
 3606SOL    HW211718   0.048   6.294   5.542
 3607SOL     OW11719   5.029   6.125   0.986
 3607SOL    HW111720   5.125   6.144   1.008
 3607SOL    HW211721   4.990   6.063   1.054
 3608SOL     OW11722   6.160   2.067   3.415
 3608SOL    HW111723   6.211   2.045   3.331
 3608SOL    HW211724   6.094   1.995   3.433
 3609SOL     OW11725   0.794   0.520   4.193
 3609SOL    HW111726   0.799   0.476   4.103
 3609SOL    HW211727   0.754   0.611   4.184
 3610SOL     OW11728   1.407   6.935   6.158
 3610SOL    HW111729   1.320   6.911   6.116
 3610SOL    HW211730   1.480   6.927   6.091
 3611SOL     OW11731   4.591   6.283   5.951
 3611SOL    HW111732   4.560   6.207   5.894
 3611SOL    HW211733   4.639   6.247   6.031
 3612SOL     OW11734   5.785   0.216   6.257
 3612SOL    HW111735   5.807   0.241   6.352
 3612SOL    HW211736   5.735   0.130   6.256
 3613SOL     OW11737   4.924   5.342   1.883
 3613SOL    HW111738   4.964   5.405   1.817
 3613SOL    HW211739   4.850   5.387   1.932
 3614SOL     OW11740   4.095   3.648   2.276
 3614SOL    HW111741   4.141   3.560   2.266
 3614SOL    HW211742   4.079   3.688   2.185
 3615SOL     OW11743   5.603   5.894   6.896
 3615SOL    HW111744   5.592   5.814   6.836
 3615SOL    HW211745   5.656   5.964   6.848
 3616SOL     OW11746   0.583   3.132   5.896
 3616SOL    HW111747   0.627   3.209   5.850
 3616SOL    HW211748   0.562   3.158   5.990
 3617SOL     OW11749   4.040   1.398   6.452
 3617SOL    HW111750   4.139   1.406   6.443
 3617SOL    HW211751   4.013   1.302   6.442
 3618SOL     OW11752   2.479   1.925   5.422
 3618SOL    HW111753   2.546   1.860   5.386
 3618SOL    HW211754   2.396   1.877   5.448
 3619SOL     OW11755   5.484   3.061   3.747
 3619SOL    HW111756   5.551   3.077   3.820
 3619SOL    HW211757   5.526   3.003   3.676
 3620SOL     OW11758   6.452   6.101   5.904
 3620SOL    HW111759   6.498   6.012   5.895
 3620SOL    HW211760   6.362   6.087   5.945
 3621SOL     OW11761   3.844   2.855   5.786
 3621SOL    HW111762   3.907   2.786   5.749
 3621SOL    HW211763   3.769   2.809   5.833
 3622SOL     OW11764   1.831   1.773   4.648
 3622SOL    HW111765   1.828   1.873   4.646
 3622SOL    HW211766   1.743   1.737   4.678
 3623SOL     OW11767   6.595   5.856   4.547
 3623SOL    HW111768   6.675   5.911   4.524
 3623SOL    HW211769   6.581   5.785   4.477
 3624SOL     OW11770   2.311   6.131   1.991
 3624SOL    HW111771   2.213   6.141   2.009
 3624SOL    HW211772   2.343   6.207   1.935
 3625SOL     OW11773   5.555   3.264   6.927
 3625SOL    HW111774   5.467   3.266   6.974
 3625SOL    HW211775   5.592   3.171   6.929
 3626SOL     OW11776   1.106   3.112   6.372
 3626SOL    HW111777   1.149   3.122   6.282
 3626SOL    HW211778   1.152   3.173   6.437
 3627SOL     OW11779   3.253   2.922   3.525
 3627SOL    HW111780   3.191   2.908   3.602
 3627SOL    HW211781   3.336   2.967   3.558
 3628SOL     OW11782   1.330   1.130   1.886
 3628SOL    HW111783   1.325   1.031   1.897
 3628SOL    HW211784   1.406   1.167   1.940
 3629SOL     OW11785   6.746   2.476   4.975
 3629SOL    HW111786   6.815   2.413   5.011
 3629SOL    HW211787   6.791   2.557   4.937
 3630SOL     OW11788   4.796   2.753   3.749
 3630SOL    HW111789   4.800   2.830   3.813
 3630SOL    HW211790   4.841   2.778   3.664
 3631SOL     OW11791   1.928   6.883   3.771
 3631SOL    HW111792   1.884   6.961   3.725
 3631SOL    HW211793   2.010   6.914   3.818
 3632SOL     OW11794   4.936   6.300   1.310
 3632SOL    HW111795   4.837   6.300   1.299
 3632SOL    HW211796   4.961   6.245   1.390
 3633SOL     OW11797   3.785   1.694   5.390
 3633SOL    HW111798   3.799   1.700   5.291
 3633SOL    HW211799   3.737   1.776   5.422
 3634SOL     OW11800   0.426   4.905   4.689
 3634SOL    HW111801   0.429   4.806   4.677
 3634SOL    HW211802   0.461   4.949   4.606
 3635SOL     OW11803   2.782   6.837   6.053
 3635SOL    HW111804   2.701   6.819   5.996
 3635SOL    HW211805   2.752   6.858   6.147
 3636SOL     OW11806   0.593   5.698   0.085
 3636SOL    HW111807   0.542   5.647   0.153
 3636SOL    HW211808   0.646   5.770   0.129
 3637SOL     OW11809   6.755   2.073   1.591
 3637SOL    HW111810   6.725   1.988   1.633
 3637SOL    HW211811   6.744   2.149   1.655
 3638SOL     OW11812   0.656   4.471   4.481
 3638SOL    HW111813   0.743   4.490   4.434
 3638SOL    HW211814   0.615   4.389   4.442
 3639SOL     OW11815   3.606   4.002   1.206
 3639SOL    HW111816   3.538   3.966   1.142
 3639SOL    HW211817   3.560   4.056   1.277
 3640SOL     OW11818   3.730   0.864   0.605
 3640SOL    HW111819   3.756   0.775   0.642
 3640SOL    HW211820   3.761   0.936   0.666
 3641SOL     OW11821   5.245   3.324   3.403
 3641SOL    HW111822   5.276   3.248   3.345
 3641SOL    HW211823   5.269   3.304   3.498
 3642SOL     OW11824   4.980   0.577   0.481
 3642SOL    HW111825   4.993   0.545   0.575
 3642SOL    HW211826   5.046   0.649   0.460
 3643SOL     OW11827   2.808   5.706   5.321
 3643SOL    HW111828   2.895   5.747   5.297
 3643SOL    HW211829   2.785   5.635   5.255
 3644SOL     OW11830   0.068   1.378   1.892
 3644SOL    HW111831   0.040   1.288   1.858
 3644SOL    HW211832   0.161   1.397   1.863
 3645SOL     OW11833   0.105   3.112   3.713
 3645SOL    HW111834   0.150   3.068   3.790
 3645SOL    HW211835   0.173   3.155   3.654
 3646SOL     OW11836   6.892   4.374   6.435
 3646SOL    HW111837   6.931   4.442   6.497
 3646SOL    HW211838   6.926   4.283   6.460
 3647SOL     OW11839   2.449   4.124   6.606
 3647SOL    HW111840   2.380   4.163   6.546
 3647SOL    HW211841   2.424   4.142   6.701
 3648SOL     OW11842   3.665   5.253   2.397
 3648SOL    HW111843   3.680   5.298   2.309
 3648SOL    HW211844   3.612   5.169   2.383
 3649SOL     OW11845   4.666   2.755   1.728
 3649SOL    HW111846   4.619   2.837   1.761
 3649SOL    HW211847   4.750   2.742   1.780
 3650SOL     OW11848   0.280   5.108   1.234
 3650SOL    HW111849   0.352   5.040   1.217
 3650SOL    HW211850   0.269   5.121   1.332
 3651SOL     OW11851   0.268   6.869   4.386
 3651SOL    HW111852   0.222   6.936   4.329
 3651SOL    HW211853   0.318   6.915   4.459
 3652SOL     OW11854   5.768   6.506   3.466
 3652SOL    HW111855   5.833   6.528   3.539
 3652SOL    HW211856   5.818   6.487   3.382
 3653SOL     OW11857   6.994   1.369   4.390
 3653SOL    HW111858   6.955   1.372   4.482
 3653SOL    HW211859   0.071   1.374   4.395
 3654SOL     OW11860   2.266   4.499   0.812
 3654SOL    HW111861   2.327   4.553   0.870
 3654SOL    HW211862   2.226   4.558   0.742
 3655SOL     OW11863   1.437   6.647   3.436
 3655SOL    HW111864   1.527   6.641   3.479
 3655SOL    HW211865   1.381   6.714   3.485
 3656SOL     OW11866   1.092   3.745   2.111
 3656SOL    HW111867   1.011   3.714   2.161
 3656SOL    HW211868   1.174   3.720   2.163
 3657SOL     OW11869   4.887   5.340   6.153
 3657SOL    HW111870   4.886   5.242   6.173
 3657SOL    HW211871   4.797   5.370   6.122
 3658SOL     OW11872   1.870   5.529   5.357
 3658SOL    HW111873   1.907   5.495   5.271
 3658SOL    HW211874   1.869   5.455   5.425
 3659SOL     OW11875   1.072   3.171   4.428
 3659SOL    HW111876   1.128   3.179   4.511
 3659SOL    HW211877   1.108   3.096   4.371
 3660SOL     OW11878   5.767   6.935   3.432
 3660SOL    HW111879   5.847   6.995   3.443
 3660SOL    HW211880   5.785   6.870   3.358
 3661SOL     OW11881   5.314   1.862   5.650
 3661SOL    HW111882   5.226   1.879   5.605
 3661SOL    HW211883   5.310   1.775   5.698
 3662SOL     OW11884   4.262   6.753   3.774
 3662SOL    HW111885   4.311   6.744   3.688
 3662SOL    HW211886   4.251   6.663   3.816
 3663SOL     OW11887   1.877   1.772   0.712
 3663SOL    HW111888   1.898   1.760   0.615
 3663SOL    HW211889   1.914   1.859   0.743
 3664SOL     OW11890   5.362   1.991   1.592
 3664SOL    HW111891   5.285   1.934   1.621
 3664SOL    HW211892   5.436   1.983   1.658
 3665SOL     OW11893   2.272   5.991   5.237
 3665SOL    HW111894   2.361   5.947   5.240
 3665SOL    HW211895   2.223   5.973   5.323
 3666SOL     OW11896   1.135   4.354   3.299
 3666SOL    HW111897   1.040   4.324   3.311
 3666SOL    HW211898   1.169   4.321   3.211
 3667SOL     OW11899   0.587   0.731   2.574
 3667SOL    HW111900   0.595   0.772   2.483
 3667SOL    HW211901   0.651   0.655   2.582
 3668SOL     OW11902   1.672   0.995   2.218
 3668SOL    HW111903   1.644   1.091   2.217
 3668SOL    HW211904   1.709   0.972   2.308
 3669SOL     OW11905   5.038   0.912   3.642
 3669SOL    HW111906   5.085   0.918   3.554
 3669SOL    HW211907   5.090   0.855   3.704
 3670SOL     OW11908   2.762   5.149   0.403
 3670SOL    HW111909   2.759   5.049   0.404
 3670SOL    HW211910   2.850   5.180   0.437
 3671SOL     OW11911   6.024   1.081   4.033
 3671SOL    HW111912   6.005   1.031   4.117
 3671SOL    HW211913   6.098   1.035   3.983
 3672SOL     OW11914   5.679   1.558   1.186
 3672SOL    HW111915   5.670   1.636   1.125
 3672SOL    HW211916   5.775   1.546   1.211
 3673SOL     OW11917   3.956   6.280   6.618
 3673SOL    HW111918   3.967   6.197   6.671
 3673SOL    HW211919   3.870   6.277   6.567
 3674SOL     OW11920   0.799   6.951   5.188
 3674SOL    HW111921   0.888   6.921   5.155
 3674SOL    HW211922   0.790   6.928   5.285
 3675SOL     OW11923   1.903   3.246   4.245
 3675SOL    HW111924   1.813   3.243   4.287
 3675SOL    HW211925   1.963   3.178   4.289
 3676SOL     OW11926   5.160   4.374   3.237
 3676SOL    HW111927   5.169   4.459   3.288
 3676SOL    HW211928   5.193   4.388   3.143
 3677SOL     OW11929   2.014   6.088   3.087
 3677SOL    HW111930   1.979   6.001   3.053
 3677SOL    HW211931   2.109   6.100   3.058
 3678SOL     OW11932   0.766   2.251   5.394
 3678SOL    HW111933   0.736   2.326   5.336
 3678SOL    HW211934   0.863   2.233   5.378
 3679SOL     OW11935   0.958   0.251   3.483
 3679SOL    HW111936   1.031   0.224   3.421
 3679SOL    HW211937   0.979   0.221   3.576
 3680SOL     OW11938   5.725   2.631   3.507
 3680SOL    HW111939   5.681   2.547   3.476
 3680SOL    HW211940   5.776   2.613   3.591
 3681SOL     OW11941   0.399   0.129   6.356
 3681SOL    HW111942   0.405   0.228   6.363
 3681SOL    HW211943   0.437   0.098   6.269
 3682SOL     OW11944   5.762   2.373   0.054
 3682SOL    HW111945   5.801   2.465   0.049
 3682SOL    HW211946   5.780   2.334   0.144
 3683SOL     OW11947   0.030   0.556   2.900
 3683SOL    HW111948   7.015   0.619   2.832
 3683SOL    HW211949   0.068   0.476   2.854
 3684SOL     OW11950   1.882   4.690   0.016
 3684SOL    HW111951   1.892   4.786   0.042
 3684SOL    HW211952   1.954   4.636   0.059
 3685SOL     OW11953   6.691   6.431   6.364
 3685SOL    HW111954   6.716   6.387   6.278
 3685SOL    HW211955   6.759   6.501   6.387
 3686SOL     OW11956   5.938   5.636   3.985
 3686SOL    HW111957   5.972   5.666   3.896
 3686SOL    HW211958   5.880   5.554   3.973
 3687SOL     OW11959   3.427   5.763   5.167
 3687SOL    HW111960   3.418   5.749   5.265
 3687SOL    HW211961   3.380   5.689   5.118
 3688SOL     OW11962   6.335   3.514   5.969
 3688SOL    HW111963   6.423   3.477   5.937
 3688SOL    HW211964   6.301   3.457   6.044
 3689SOL     OW11965   2.405   0.195   6.080
 3689SOL    HW111966   2.488   0.138   6.081
 3689SOL    HW211967   2.362   0.188   5.990
 3690SOL     OW11968   5.139   5.583   0.117
 3690SOL    HW111969   5.092   5.511   0.066
 3690SOL    HW211970   5.094   5.671   0.102
 3691SOL     OW11971   2.905   2.804   6.922
 3691SOL    HW111972   2.808   2.824   6.908
 3691SOL    HW211973   2.925   2.713   6.887
 3692SOL     OW11974   0.464   5.448   5.485
 3692SOL    HW111975   0.446   5.537   5.444
 3692SOL    HW211976   0.562   5.428   5.481
 3693SOL     OW11977   2.121   3.653   2.880
 3693SOL    HW111978   2.121   3.751   2.862
 3693SOL    HW211979   2.087   3.604   2.799
 3694SOL     OW11980   1.305   6.135   2.729
 3694SOL    HW111981   1.259   6.139   2.818
 3694SOL    HW211982   1.381   6.201   2.729
 3695SOL     OW11983   6.751   3.104   1.403
 3695SOL    HW111984   6.688   3.052   1.345
 3695SOL    HW211985   6.788   3.045   1.474
 3696SOL     OW11986   3.450   5.731   5.435
 3696SOL    HW111987   3.520   5.803   5.442
 3696SOL    HW211988   3.478   5.653   5.490
 3697SOL     OW11989   7.020   6.729   2.910
 3697SOL    HW111990   0.053   6.649   2.929
 3697SOL    HW211991   6.928   6.716   2.948
 3698SOL     OW11992   1.950   1.123   4.531
 3698SOL    HW111993   1.916   1.054   4.595
 3698SOL    HW211994   1.880   1.143   4.463
 3699SOL     OW11995   0.974   2.110   3.676
 3699SOL    HW111996   0.890   2.163   3.675
 3699SOL    HW211997   1.053   2.171   3.682
 3700SOL     OW11998   0.357   6.726   5.042
 3700SOL    HW111999   0.314   6.666   4.975
 3700SOL    HW212000   0.288   6.789   5.079
 3701SOL     OW12001   1.331   0.588   3.950
 3701SOL    HW112002   1.374   0.501   3.975
 3701SOL    HW212003   1.274   0.620   4.026
 3702SOL     OW12004   5.970   0.022   2.664
 3702SOL    HW112005   6.054   7.000   2.697
 3702SOL    HW212006   5.922   6.983   2.602
 3703SOL     OW12007   5.745   1.068   5.423
 3703SOL    HW112008   5.748   0.992   5.488
 3703SOL    HW212009   5.774   1.037   5.333
 3704SOL     OW12010   3.441   2.064   1.881
 3704SOL    HW112011   3.441   1.974   1.925
 3704SOL    HW212012   3.509   2.123   1.923
 3705SOL     OW12013   4.371   5.377   3.713
 3705SOL    HW112014   4.302   5.437   3.673
 3705SOL    HW212015   4.377   5.292   3.660
 3706SOL     OW12016   1.687   3.023   6.673
 3706SOL    HW112017   1.746   3.069   6.739
 3706SOL    HW212018   1.629   3.090   6.627
 3707SOL     OW12019   5.694   4.563   4.574
 3707SOL    HW112020   5.734   4.655   4.566
 3707SOL    HW212021   5.642   4.542   4.491
 3708SOL     OW12022   0.329   0.709   6.553
 3708SOL    HW112023   0.409   0.765   6.574
 3708SOL    HW212024   0.355   0.612   6.554
 3709SOL     OW12025   3.062   0.598   0.640
 3709SOL    HW112026   2.962   0.599   0.643
 3709SOL    HW212027   3.093   0.529   0.574
 3710SOL     OW12028   6.426   5.184   6.103
 3710SOL    HW112029   6.516   5.202   6.141
 3710SOL    HW212030   6.366   5.150   6.175
 3711SOL     OW12031   0.404   0.429   4.264
 3711SOL    HW112032   0.425   0.370   4.186
 3711SOL    HW212033   0.384   0.373   4.344
 3712SOL     OW12034   0.111   5.812   6.740
 3712SOL    HW112035   0.074   5.861   6.661
 3712SOL    HW212036   0.206   5.839   6.754
 3713SOL     OW12037   1.001   6.176   5.236
 3713SOL    HW112038   0.938   6.254   5.227
 3713SOL    HW212039   1.084   6.194   5.182
 3714SOL     OW12040   5.096   6.047   5.484
 3714SOL    HW112041   5.169   5.984   5.457
 3714SOL    HW212042   5.063   6.096   5.404
 3715SOL     OW12043   0.066   3.864   2.628
 3715SOL    HW112044   0.053   3.962   2.639
 3715SOL    HW212045   7.003   3.823   2.594
 3716SOL     OW12046   6.491   0.088   5.102
 3716SOL    HW112047   6.476   0.009   5.043
 3716SOL    HW212048   6.415   0.096   5.167
 3717SOL     OW12049   6.119   6.774   6.479
 3717SOL    HW112050   6.090   6.864   6.512
 3717SOL    HW212051   6.157   6.782   6.387
 3718SOL     OW12052   1.492   0.695   6.954
 3718SOL    HW112053   1.554   0.617   6.954
 3718SOL    HW212054   1.533   0.770   6.903
 3719SOL     OW12055   5.554   4.591   0.930
 3719SOL    HW112056   5.523   4.679   0.894
 3719SOL    HW212057   5.642   4.603   0.976
 3720SOL     OW12058   5.890   2.669   6.676
 3720SOL    HW112059   5.960   2.691   6.609
 3720SOL    HW212060   5.799   2.681   6.635
 3721SOL     OW12061   5.928   4.574   1.337
 3721SOL    HW112062   6.024   4.594   1.316
 3721SOL    HW212063   5.874   4.581   1.253
 3722SOL     OW12064   6.547   5.759   0.793
 3722SOL    HW112065   6.607   5.726   0.866
 3722SOL    HW212066   6.588   5.741   0.704
 3723SOL     OW12067   6.451   5.681   1.661
 3723SOL    HW112068   6.462   5.688   1.562
 3723SOL    HW212069   6.404   5.762   1.695
 3724SOL     OW12070   1.901   3.986   4.820
 3724SOL    HW112071   1.853   4.004   4.734
 3724SOL    HW212072   1.846   3.926   4.877
 3725SOL     OW12073   5.924   5.471   0.606
 3725SOL    HW112074   5.886   5.468   0.513
 3725SOL    HW212075   5.857   5.434   0.670
 3726SOL     OW12076   5.491   3.842   0.403
 3726SOL    HW112077   5.398   3.814   0.378
 3726SOL    HW212078   5.486   3.918   0.468
 3727SOL     OW12079   6.847   2.229   5.100
 3727SOL    HW112080   6.925   2.181   5.139
 3727SOL    HW212081   6.798   2.278   5.172
 3728SOL     OW12082   1.627   3.488   6.631
 3728SOL    HW112083   1.698   3.439   6.581
 3728SOL    HW212084   1.560   3.422   6.666
 3729SOL     OW12085   1.089   2.591   3.807
 3729SOL    HW112086   1.002   2.640   3.795
 3729SOL    HW212087   1.077   2.519   3.876
 3730SOL     OW12088   2.712   5.053   5.924
 3730SOL    HW112089   2.760   5.123   5.977
 3730SOL    HW212090   2.619   5.085   5.904
 3731SOL     OW12091   6.824   1.184   0.270
 3731SOL    HW112092   6.787   1.112   0.211
 3731SOL    HW212093   6.890   1.144   0.334
 3732SOL     OW12094   2.930   1.388   6.703
 3732SOL    HW112095   2.977   1.475   6.719
 3732SOL    HW212096   2.890   1.356   6.788
 3733SOL     OW12097   1.660   3.997   2.571
 3733SOL    HW112098   1.654   4.047   2.485
 3733SOL    HW212099   1.634   4.057   2.646
 3734SOL     OW12100   5.526   1.510   2.080
 3734SOL    HW112101   5.613   1.552   2.054
 3734SOL    HW212102   5.456   1.533   2.013
 3735SOL     OW12103   1.925   1.005   3.535
 3735SOL    HW112104   1.958   0.912   3.520
 3735SOL    HW212105   1.851   1.025   3.471
 3736SOL     OW12106   0.595   2.343   0.767
 3736SOL    HW112107   0.522   2.362   0.701
 3736SOL    HW212108   0.558   2.344   0.859
 3737SOL     OW12109   5.323   0.252   3.434
 3737SOL    HW112110   5.261   0.272   3.510
 3737SOL    HW212111   5.310   0.157   3.406
 3738SOL     OW12112   6.868   6.449   2.062
 3738SOL    HW112113   6.802   6.514   2.026
 3738SOL    HW212114   6.861   6.446   2.162
 3739SOL     OW12115   2.692   4.422   1.677
 3739SOL    HW112116   2.620   4.446   1.742
 3739SOL    HW212117   2.779   4.462   1.707
 3740SOL     OW12118   5.749   0.381   0.544
 3740SOL    HW112119   5.837   0.391   0.497
 3740SOL    HW212120   5.706   0.471   0.551
 3741SOL     OW12121   5.003   3.043   0.522
 3741SOL    HW112122   5.014   3.126   0.468
 3741SOL    HW212123   5.092   3.015   0.558
 3742SOL     OW12124   3.175   1.533   6.758
 3742SOL    HW112125   3.193   1.437   6.735
 3742SOL    HW212126   3.187   1.590   6.677
 3743SOL     OW12127   5.239   3.087   1.120
 3743SOL    HW112128   5.194   3.175   1.133
 3743SOL    HW212129   5.324   3.100   1.070
 3744SOL     OW12130   1.175   5.768   2.672
 3744SOL    HW112131   1.182   5.849   2.614
 3744SOL    HW212132   1.212   5.787   2.762
 3745SOL     OW12133   3.801   4.900   1.505
 3745SOL    HW112134   3.775   4.936   1.415
 3745SOL    HW212135   3.739   4.826   1.531
 3746SOL     OW12136   5.494   1.298   2.941
 3746SOL    HW112137   5.418   1.234   2.952
 3746SOL    HW212138   5.461   1.392   2.949
 3747SOL     OW12139   2.619   6.541   5.094
 3747SOL    HW112140   2.652   6.594   5.171
 3747SOL    HW212141   2.578   6.456   5.127
 3748SOL     OW12142   6.006   0.979   0.857
 3748SOL    HW112143   6.067   0.952   0.783
 3748SOL    HW212144   6.017   1.076   0.878
 3749SOL     OW12145   1.579   5.676   3.728
 3749SOL    HW112146   1.630   5.760   3.745
 3749SOL    HW212147   1.489   5.699   3.691
 3750SOL     OW12148   1.229   3.921   0.746
 3750SOL    HW112149   1.206   3.869   0.665
 3750SOL    HW212150   1.318   3.892   0.781
 3751SOL     OW12151   0.403   3.577   1.795
 3751SOL    HW112152   0.466   3.554   1.869
 3751SOL    HW212153   0.427   3.525   1.713
 3752SOL     OW12154   5.043   0.276   6.716
 3752SOL    HW112155   4.974   0.205   6.728
 3752SOL    HW212156   5.028   0.323   6.629
 3753SOL     OW12157   6.120   6.814   4.753
 3753SOL    HW112158   6.175   6.742   4.796
 3753SOL    HW212159   6.121   6.895   4.811
 3754SOL     OW12160   2.430   0.904   1.066
 3754SOL    HW112161   2.460   0.852   0.986
 3754SOL    HW212162   2.390   0.842   1.133
 3755SOL     OW12163   4.918   4.382   4.692
 3755SOL    HW112164   4.980   4.364   4.616
 3755SOL    HW212165   4.849   4.310   4.697
 3756SOL     OW12166   3.060   5.267   6.043
 3756SOL    HW112167   3.055   5.358   6.085
 3756SOL    HW212168   2.969   5.227   6.038
 3757SOL     OW12169   6.202   5.321   0.915
 3757SOL    HW112170   6.161   5.408   0.887
 3757SOL    HW212171   6.270   5.337   0.986
 3758SOL     OW12172   2.768   1.511   4.762
 3758SOL    HW112173   2.690   1.572   4.750
 3758SOL    HW212174   2.846   1.547   4.709
 3759SOL     OW12175   4.468   6.741   6.441
 3759SOL    HW112176   4.389   6.800   6.452
 3759SOL    HW212177   4.446   6.667   6.377
 3760SOL     OW12178   1.187   1.582   4.320
 3760SOL    HW112179   1.088   1.579   4.305
 3760SOL    HW212180   1.234   1.539   4.243
 3761SOL     OW12181   0.278   0.954   5.082
 3761SOL    HW112182   0.320   0.970   4.993
 3761SOL    HW212183   0.324   0.877   5.127
 3762SOL     OW12184   1.436   4.696   0.873
 3762SOL    HW112185   1.503   4.754   0.920
 3762SOL    HW212186   1.481   4.614   0.837
 3763SOL     OW12187   0.272   3.638   0.155
 3763SOL    HW112188   0.262   3.539   0.165
 3763SOL    HW212189   0.216   3.670   0.079
 3764SOL     OW12190   1.421   0.244   2.570
 3764SOL    HW112191   1.482   0.269   2.494
 3764SOL    HW212192   1.398   0.325   2.622
 3765SOL     OW12193   5.286   1.366   1.045
 3765SOL    HW112194   5.303   1.380   1.143
 3765SOL    HW212195   5.333   1.436   0.993
 3766SOL     OW12196   2.026   1.682   3.994
 3766SOL    HW112197   2.095   1.713   3.929
 3766SOL    HW212198   2.010   1.753   4.062
 3767SOL     OW12199   2.426   4.320   0.118
 3767SOL    HW112200   2.334   4.350   0.096
 3767SOL    HW212201   2.422   4.240   0.178
 3768SOL     OW12202   0.586   6.696   4.287
 3768SOL    HW112203   0.586   6.744   4.375
 3768SOL    HW212204   0.492   6.678   4.259
 3769SOL     OW12205   6.119   5.689   5.030
 3769SOL    HW112206   6.058   5.723   5.101
 3769SOL    HW212207   6.073   5.616   4.978
 3770SOL     OW12208   1.159   0.524   6.158
 3770SOL    HW112209   1.200   0.462   6.225
 3770SOL    HW212210   1.174   0.619   6.188
 3771SOL     OW12211   5.124   3.099   0.247
 3771SOL    HW112212   5.132   3.014   0.195
 3771SOL    HW212213   5.203   3.110   0.307
 3772SOL     OW12214   0.452   0.853   0.228
 3772SOL    HW112215   0.494   0.931   0.273
 3772SOL    HW212216   0.402   0.884   0.147
 3773SOL     OW12217   5.899   3.581   5.645
 3773SOL    HW112218   5.929   3.565   5.739
 3773SOL    HW212219   5.926   3.502   5.589
 3774SOL     OW12220   5.905   5.386   1.182
 3774SOL    HW112221   5.875   5.475   1.148
 3774SOL    HW212222   5.857   5.313   1.132
 3775SOL     OW12223   4.608   5.153   2.973
 3775SOL    HW112224   4.540   5.087   2.940
 3775SOL    HW212225   4.650   5.200   2.895
 3776SOL     OW12226   4.175   1.801   6.546
 3776SOL    HW112227   4.132   1.732   6.604
 3776SOL    HW212228   4.126   1.807   6.459
 3777SOL     OW12229   3.622   5.197   3.302
 3777SOL    HW112230   3.689   5.213   3.230
 3777SOL    HW212231   3.580   5.107   3.290
 3778SOL     OW12232   2.953   5.233   2.553
 3778SOL    HW112233   2.965   5.330   2.574
 3778SOL    HW212234   2.860   5.217   2.520
 3779SOL     OW12235   0.683   4.868   0.459
 3779SOL    HW112236   0.772   4.872   0.504
 3779SOL    HW212237   0.661   4.958   0.422
 3780SOL     OW12238   5.848   4.874   4.811
 3780SOL    HW112239   5.908   4.821   4.872
 3780SOL    HW212240   5.776   4.917   4.864
 3781SOL     OW12241   0.716   6.836   4.082
 3781SOL    HW112242   0.637   6.896   4.084
 3781SOL    HW212243   0.711   6.771   4.159
 3782SOL     OW12244   2.169   0.233   2.979
 3782SOL    HW112245   2.088   0.179   3.000
 3782SOL    HW212246   2.224   0.243   3.062
 3783SOL     OW12247   6.035   5.188   3.990
 3783SOL    HW112248   6.094   5.269   3.995
 3783SOL    HW212249   5.954   5.210   3.934
 3784SOL     OW12250   5.148   2.814   2.785
 3784SOL    HW112251   5.162   2.780   2.878
 3784SOL    HW212252   5.232   2.805   2.732
 3785SOL     OW12253   1.604   3.410   5.907
 3785SOL    HW112254   1.592   3.509   5.897
 3785SOL    HW212255   1.643   3.373   5.822
 3786SOL     OW12256   2.614   4.843   3.219
 3786SOL    HW112257   2.574   4.867   3.308
 3786SOL    HW212258   2.709   4.873   3.216
 3787SOL     OW12259   6.304   1.601   2.710
 3787SOL    HW112260   6.217   1.573   2.669
 3787SOL    HW212261   6.374   1.531   2.692
 3788SOL     OW12262   0.350   4.707   5.010
 3788SOL    HW112263   0.387   4.799   5.024
 3788SOL    HW212264   0.250   4.713   4.999
 3789SOL     OW12265   0.456   3.914   4.587
 3789SOL    HW112266   0.380   3.966   4.547
 3789SOL    HW212267   0.445   3.817   4.567
 3790SOL     OW12268   1.378   4.414   5.830
 3790SOL    HW112269   1.317   4.408   5.751
 3790SOL    HW212270   1.343   4.355   5.904
 3791SOL     OW12271   5.176   1.129   6.176
 3791SOL    HW112272   5.105   1.110   6.108
 3791SOL    HW212273   5.181   1.052   6.240
 3792SOL     OW12274   1.235   2.226   3.255
 3792SOL    HW112275   1.209   2.264   3.166
 3792SOL    HW212276   1.282   2.297   3.309
 3793SOL     OW12277   4.529   6.436   1.951
 3793SOL    HW112278   4.536   6.473   2.043
 3793SOL    HW212279   4.439   6.396   1.937
 3794SOL     OW12280   2.003   2.302   1.195
 3794SOL    HW112281   2.041   2.234   1.133
 3794SOL    HW212282   1.935   2.260   1.254
 3795SOL     OW12283   4.862   5.944   1.103
 3795SOL    HW112284   4.872   5.894   1.189
 3795SOL    HW212285   4.782   6.004   1.109
 3796SOL     OW12286   3.783   1.914   2.313
 3796SOL    HW112287   3.778   2.013   2.328
 3796SOL    HW212288   3.730   1.867   2.383
 3797SOL     OW12289   1.218   3.506   2.326
 3797SOL    HW112290   1.230   3.605   2.338
 3797SOL    HW212291   1.124   3.481   2.348
 3798SOL     OW12292   2.715   5.440   4.051
 3798SOL    HW112293   2.706   5.392   3.964
 3798SOL    HW212294   2.652   5.518   4.052
 3799SOL     OW12295   6.323   2.537   3.889
 3799SOL    HW112296   6.258   2.462   3.874
 3799SOL    HW212297   6.400   2.527   3.825
 3800SOL     OW12298   5.289   2.456   3.886
 3800SOL    HW112299   5.237   2.540   3.897
 3800SOL    HW212300   5.245   2.382   3.938
 3801SOL     OW12301   6.019   6.561   1.532
 3801SOL    HW112302   6.045   6.506   1.611
 3801SOL    HW212303   6.093   6.559   1.464
 3802SOL     OW12304   1.463   2.100   1.599
 3802SOL    HW112305   1.456   2.110   1.500
 3802SOL    HW212306   1.560   2.101   1.625
 3803SOL     OW12307   4.165   3.384   2.277
 3803SOL    HW112308   4.254   3.395   2.322
 3803SOL    HW212309   4.098   3.348   2.341
 3804SOL     OW12310   4.778   1.095   3.589
 3804SOL    HW112311   4.858   1.034   3.589
 3804SOL    HW212312   4.715   1.066   3.662
 3805SOL     OW12313   1.686   2.604   1.141
 3805SOL    HW112314   1.650   2.693   1.168
 3805SOL    HW212315   1.611   2.545   1.112
 3806SOL     OW12316   3.881   3.630   5.877
 3806SOL    HW112317   3.967   3.584   5.856
 3806SOL    HW212318   3.886   3.726   5.850
 3807SOL     OW12319   1.663   5.691   2.818
 3807SOL    HW112320   1.591   5.759   2.805
 3807SOL    HW212321   1.642   5.635   2.899
 3808SOL     OW12322   4.299   1.192   0.382
 3808SOL    HW112323   4.252   1.112   0.419
 3808SOL    HW212324   4.249   1.227   0.303
 3809SOL     OW12325   5.350   2.203   1.435
 3809SOL    HW112326   5.360   2.114   1.478
 3809SOL    HW212327   5.318   2.269   1.503
 3810SOL     OW12328   4.581   2.617   3.648
 3810SOL    HW112329   4.657   2.671   3.685
 3810SOL    HW212330   4.530   2.575   3.723
 3811SOL     OW12331   0.176   5.667   4.675
 3811SOL    HW112332   0.274   5.652   4.668
 3811SOL    HW212333   0.129   5.579   4.678
 3812SOL     OW12334   4.648   4.959   5.388
 3812SOL    HW112335   4.652   5.010   5.474
 3812SOL    HW212336   4.740   4.925   5.366
 3813SOL     OW12337   4.391   3.060   0.524
 3813SOL    HW112338   4.327   3.136   0.512
 3813SOL    HW212339   4.428   3.062   0.617
 3814SOL     OW12340   5.980   0.263   6.090
 3814SOL    HW112341   5.914   0.244   6.163
 3814SOL    HW212342   6.011   0.358   6.097
 3815SOL     OW12343   3.343   2.069   1.105
 3815SOL    HW112344   3.368   1.988   1.159
 3815SOL    HW212345   3.357   2.049   1.008
 3816SOL     OW12346   1.081   5.560   6.602
 3816SOL    HW112347   0.985   5.575   6.622
 3816SOL    HW212348   1.091   5.493   6.529
 3817SOL     OW12349   5.081   3.621   2.438
 3817SOL    HW112350   5.119   3.642   2.348
 3817SOL    HW212351   5.044   3.528   2.438
 3818SOL     OW12352   6.308   1.022   6.616
 3818SOL    HW112353   6.325   1.070   6.701
 3818SOL    HW212354   6.395   0.998   6.573
 3819SOL     OW12355   5.335   5.194   2.061
 3819SOL    HW112356   5.318   5.276   2.007
 3819SOL    HW212357   5.248   5.153   2.088
 3820SOL     OW12358   5.285   0.118   3.682
 3820SOL    HW112359   5.291   0.019   3.673
 3820SOL    HW212360   5.377   0.156   3.691
 3821SOL     OW12361   2.118   1.464   2.044
 3821SOL    HW112362   2.192   1.519   2.006
 3821SOL    HW212363   2.153   1.374   2.069
 3822SOL     OW12364   2.401   0.244   1.031
 3822SOL    HW112365   2.313   0.207   1.000
 3822SOL    HW212366   2.405   0.240   1.131
 3823SOL     OW12367   3.001   3.643   6.694
 3823SOL    HW112368   3.081   3.604   6.647
 3823SOL    HW212369   2.967   3.722   6.642
 3824SOL     OW12370   0.399   3.197   0.249
 3824SOL    HW112371   0.339   3.272   0.274
 3824SOL    HW212372   0.419   3.201   0.151
 3825SOL     OW12373   0.282   5.602   0.749
 3825SOL    HW112374   0.322   5.692   0.727
 3825SOL    HW212375   0.183   5.609   0.751
 3826SOL     OW12376   1.215   3.917   7.014
 3826SOL    HW112377   1.125   3.948   0.022
 3826SOL    HW212378   1.205   3.845   6.946
 3827SOL     OW12379   1.930   1.501   1.849
 3827SOL    HW112380   1.976   1.477   1.763
 3827SOL    HW212381   1.994   1.491   1.925
 3828SOL     OW12382   3.479   3.428   3.274
 3828SOL    HW112383   3.411   3.438   3.346
 3828SOL    HW212384   3.554   3.492   3.289
 3829SOL     OW12385   1.407   5.012   2.294
 3829SOL    HW112386   1.417   5.099   2.342
 3829SOL    HW212387   1.330   4.961   2.332
 3830SOL     OW12388   0.673   0.818   5.173
 3830SOL    HW112389   0.749   0.770   5.130
 3830SOL    HW212390   0.655   0.903   5.124
 3831SOL     OW12391   4.801   2.311   2.569
 3831SOL    HW112392   4.757   2.252   2.636
 3831SOL    HW212393   4.730   2.354   2.512
 3832SOL     OW12394   6.188   0.639   2.911
 3832SOL    HW112395   6.267   0.585   2.881
 3832SOL    HW212396   6.211   0.736   2.907
 3833SOL     OW12397   0.218   6.282   6.835
 3833SOL    HW112398   0.225   6.293   6.736
 3833SOL    HW212399   0.135   6.328   6.867
 3834SOL     OW12400   4.041   4.506   1.192
 3834SOL    HW112401   3.949   4.481   1.161
 3834SOL    HW212402   4.041   4.600   1.226
 3835SOL     OW12403   3.829   5.605   4.835
 3835SOL    HW112404   3.927   5.627   4.831
 3835SOL    HW212405   3.789   5.611   4.744
 3836SOL     OW12406   1.105   4.485   5.991
 3836SOL    HW112407   1.040   4.442   5.929
 3836SOL    HW212408   1.160   4.415   6.036
 3837SOL     OW12409   4.623   4.497   5.957
 3837SOL    HW112410   4.664   4.527   5.871
 3837SOL    HW212411   4.550   4.561   5.982
 3838SOL     OW12412   0.865   3.741   4.462
 3838SOL    HW112413   0.905   3.661   4.508
 3838SOL    HW212414   0.937   3.790   4.412
 3839SOL     OW12415   5.580   0.937   3.007
 3839SOL    HW112416   5.649   0.999   3.044
 3839SOL    HW212417   5.580   0.852   3.060
 3840SOL     OW12418   2.574   1.047   6.401
 3840SOL    HW112419   2.476   1.059   6.413
 3840SOL    HW212420   2.622   1.120   6.450
 3841SOL     OW12421   0.042   3.351   4.602
 3841SOL    HW112422   0.109   3.331   4.675
 3841SOL    HW212423   6.982   3.391   4.642
 3842SOL     OW12424   2.318   2.718   1.481
 3842SOL    HW112425   2.405   2.708   1.529
 3842SOL    HW212426   2.307   2.643   1.416
 3843SOL     OW12427   5.800   5.119   2.139
 3843SOL    HW112428   5.757   5.144   2.226
 3843SOL    HW212429   5.899   5.113   2.152
 3844SOL     OW12430   0.930   3.020   5.560
 3844SOL    HW112431   0.960   2.964   5.637
 3844SOL    HW212432   0.932   3.117   5.587
 3845SOL     OW12433   2.839   3.717   5.693
 3845SOL    HW112434   2.819   3.671   5.607
 3845SOL    HW212435   2.768   3.785   5.712
 3846SOL     OW12436   6.947   5.361   3.657
 3846SOL    HW112437   6.980   5.454   3.671
 3846SOL    HW212438   6.857   5.350   3.698
 3847SOL     OW12439   5.087   1.749   4.176
 3847SOL    HW112440   5.123   1.842   4.188
 3847SOL    HW212441   5.164   1.685   4.174
 3848SOL     OW12442   4.658   5.574   2.621
 3848SOL    HW112443   4.591   5.635   2.663
 3848SOL    HW212444   4.612   5.513   2.556
 3849SOL     OW12445   1.513   1.071   6.243
 3849SOL    HW112446   1.470   1.038   6.328
 3849SOL    HW212447   1.565   1.154   6.262
 3850SOL     OW12448   2.371   3.553   1.351
 3850SOL    HW112449   2.348   3.460   1.378
 3850SOL    HW212450   2.292   3.595   1.305
 3851SOL     OW12451   0.869   4.724   2.485
 3851SOL    HW112452   0.832   4.734   2.392
 3851SOL    HW212453   0.950   4.666   2.482
 3852SOL     OW12454   3.945   6.566   3.640
 3852SOL    HW112455   3.899   6.642   3.593
 3852SOL    HW212456   3.932   6.576   3.739
 3853SOL     OW12457   1.320   4.245   3.112
 3853SOL    HW112458   1.311   4.148   3.087
 3853SOL    HW212459   1.363   4.295   3.038
 3854SOL     OW12460   1.574   2.971   2.759
 3854SOL    HW112461   1.644   3.031   2.723
 3854SOL    HW212462   1.588   2.878   2.724
 3855SOL     OW12463   5.451   6.257   6.271
 3855SOL    HW112464   5.367   6.238   6.324
 3855SOL    HW212465   5.450   6.352   6.239
 3856SOL     OW12466   6.890   0.318   5.730
 3856SOL    HW112467   6.959   0.368   5.677
 3856SOL    HW212468   6.807   0.373   5.734
 3857SOL     OW12469   7.004   6.186   0.126
 3857SOL    HW112470   6.913   6.170   0.088
 3857SOL    HW212471   0.035   6.102   0.121
 3858SOL     OW12472   1.711   0.966   5.652
 3858SOL    HW112473   1.737   0.925   5.739
 3858SOL    HW212474   1.612   0.975   5.647
 3859SOL     OW12475   6.156   1.241   2.585
 3859SOL    HW112476   6.073   1.186   2.577
 3859SOL    HW212477   6.235   1.180   2.593
 3860SOL     OW12478   2.910   0.403   5.469
 3860SOL    HW112479   2.901   0.450   5.557
 3860SOL    HW212480   2.947   0.311   5.484
 3861SOL     OW12481   4.372   4.693   3.317
 3861SOL    HW112482   4.350   4.640   3.235
 3861SOL    HW212483   4.427   4.772   3.290
 3862SOL     OW12484   0.759   0.552   5.008
 3862SOL    HW112485   0.659   0.553   5.009
 3862SOL    HW212486   0.793   0.522   5.098
 3863SOL     OW12487   5.017   2.578   6.992
 3863SOL    HW112488   4.943   2.515   6.968
 3863SOL    HW212489   5.105   2.538   6.965
 3864SOL     OW12490   2.730   0.365   5.124
 3864SOL    HW112491   2.668   0.315   5.185
 3864SOL    HW212492   2.771   0.441   5.173
 3865SOL     OW12493   3.355   0.126   6.936
 3865SOL    HW112494   3.398   0.109   0.002
 3865SOL    HW212495   3.271   0.178   6.949
 3866SOL     OW12496   3.846   0.810   0.904
 3866SOL    HW112497   3.768   0.806   0.966
 3866SOL    HW212498   3.882   0.718   0.889
 3867SOL     OW12499   1.185   4.528   3.682
 3867SOL    HW112500   1.218   4.442   3.644
 3867SOL    HW212501   1.141   4.582   3.610
 3868SOL     OW12502   3.289   6.943   0.343
 3868SOL    HW112503   3.350   6.907   0.272
 3868SOL    HW212504   3.310   6.901   0.430
 3869SOL     OW12505   5.787   3.756   4.647
 3869SOL    HW112506   5.720   3.739   4.719
 3869SOL    HW212507   5.743   3.803   4.570
 3870SOL     OW12508   5.031   6.099   6.561
 3870SOL    HW112509   4.992   6.189   6.578
 3870SOL    HW212510   4.959   6.030   6.564
 3871SOL     OW12511   3.653   0.356   2.994
 3871SOL    HW112512   3.721   0.388   3.059
 3871SOL    HW212513   3.629   0.261   3.014
 3872SOL     OW12514   3.851   2.963   3.715
 3872SOL    HW112515   3.859   2.969   3.815
 3872SOL    HW212516   3.941   2.943   3.677
 3873SOL     OW12517   6.100   3.112   1.343
 3873SOL    HW112518   6.033   3.181   1.371
 3873SOL    HW212519   6.093   3.033   1.403
 3874SOL     OW12520   4.174   5.780   0.110
 3874SOL    HW112521   4.168   5.710   0.039
 3874SOL    HW212522   4.186   5.736   0.199
 3875SOL     OW12523   1.706   2.877   1.937
 3875SOL    HW112524   1.756   2.792   1.952
 3875SOL    HW212525   1.753   2.952   1.983
 3876SOL     OW12526   4.562   5.285   0.693
 3876SOL    HW112527   4.606   5.262   0.606
 3876SOL    HW212528   4.483   5.225   0.706
 3877SOL     OW12529   6.457   3.039   0.254
 3877SOL    HW112530   6.394   2.965   0.229
 3877SOL    HW212531   6.504   3.015   0.338
 3878SOL     OW12532   3.507   6.967   4.682
 3878SOL    HW112533   3.538   6.961   4.587
 3878SOL    HW212534   3.409   6.946   4.687
 3879SOL     OW12535   4.880   5.831   2.241
 3879SOL    HW112536   4.974   5.864   2.255
 3879SOL    HW212537   4.830   5.836   2.328
 3880SOL     OW12538   5.953   4.872   3.496
 3880SOL    HW112539   5.886   4.810   3.456
 3880SOL    HW212540   6.039   4.823   3.510
 3881SOL     OW12541   1.082   3.876   1.213
 3881SOL    HW112542   1.146   3.802   1.233
 3881SOL    HW212543   1.129   3.949   1.163
 3882SOL     OW12544   0.704   1.636   5.496
 3882SOL    HW112545   0.653   1.558   5.533
 3882SOL    HW212546   0.640   1.711   5.477
 3883SOL     OW12547   4.311   0.968   3.774
 3883SOL    HW112548   4.256   1.045   3.743
 3883SOL    HW212549   4.280   0.938   3.864
 3884SOL     OW12550   0.470   5.309   3.553
 3884SOL    HW112551   0.463   5.340   3.459
 3884SOL    HW212552   0.381   5.319   3.599
 3885SOL     OW12553   6.314   0.454   2.613
 3885SOL    HW112554   6.245   0.388   2.641
 3885SOL    HW212555   6.385   0.408   2.560
 3886SOL     OW12556   6.342   6.105   4.714
 3886SOL    HW112557   6.441   6.119   4.717
 3886SOL    HW212558   6.312   6.059   4.798
 3887SOL     OW12559   0.475   0.404   6.366
 3887SOL    HW112560   0.436   0.385   6.457
 3887SOL    HW212561   0.420   0.473   6.320
 3888SOL     OW12562   6.969   6.924   5.560
 3888SOL    HW112563   6.929   6.894   5.474
 3888SOL    HW212564   7.022   7.007   5.546
 3889SOL     OW12565   6.679   3.022   6.070
 3889SOL    HW112566   6.600   3.057   6.121
 3889SOL    HW212567   6.661   2.928   6.042
 3890SOL     OW12568   5.494   5.646   3.069
 3890SOL    HW112569   5.396   5.663   3.062
 3890SOL    HW212570   5.542   5.703   3.002
 3891SOL     OW12571   5.928   4.387   4.611
 3891SOL    HW112572   5.854   4.440   4.570
 3891SOL    HW212573   5.906   4.367   4.706
 3892SOL     OW12574   0.304   2.126   0.992
 3892SOL    HW112575   0.377   2.059   1.005
 3892SOL    HW212576   0.229   2.106   1.054
 3893SOL     OW12577   4.012   4.565   0.902
 3893SOL    HW112578   3.946   4.490   0.908
 3893SOL    HW212579   4.056   4.578   0.990
 3894SOL     OW12580   2.745   2.335   1.149
 3894SOL    HW112581   2.673   2.283   1.195
 3894SOL    HW212582   2.719   2.352   1.054
 3895SOL     OW12583   1.524   0.561   5.516
 3895SOL    HW112584   1.575   0.509   5.584
 3895SOL    HW212585   1.574   0.644   5.492
 3896SOL     OW12586   6.999   1.462   5.871
 3896SOL    HW112587   0.073   1.435   5.864
 3896SOL    HW212588   6.961   1.426   5.956
 3897SOL     OW12589   3.743   5.912   2.291
 3897SOL    HW112590   3.701   5.967   2.218
 3897SOL    HW212591   3.794   5.836   2.251
 3898SOL     OW12592   3.701   3.482   4.246
 3898SOL    HW112593   3.733   3.566   4.290
 3898SOL    HW212594   3.718   3.486   4.148
 3899SOL     OW12595   5.337   0.273   3.980
 3899SOL    HW112596   5.412   0.221   3.940
 3899SOL    HW212597   5.365   0.311   4.068
 3900SOL     OW12598   5.058   3.046   3.870
 3900SOL    HW112599   5.122   2.977   3.836
 3900SOL    HW212600   5.108   3.120   3.914
 3901SOL     OW12601   2.972   6.641   5.107
 3901SOL    HW112602   2.934   6.584   5.180
 3901SOL    HW212603   2.899   6.670   5.045
 3902SOL     OW12604   6.406   3.835   1.968
 3902SOL    HW112605   6.370   3.924   1.939
 3902SOL    HW212606   6.368   3.811   2.057
 3903SOL     OW12607   4.660   5.212   0.462
 3903SOL    HW112608   4.750   5.240   0.428
 3903SOL    HW212609   4.644   5.116   0.438
 3904SOL     OW12610   1.678   6.755   5.475
 3904SOL    HW112611   1.647   6.671   5.520
 3904SOL    HW212612   1.598   6.810   5.449
 3905SOL     OW12613   5.732   6.987   5.800
 3905SOL    HW112614   5.673   0.029   5.751
 3905SOL    HW212615   5.784   6.933   5.734
 3906SOL     OW12616   3.253   5.158   5.259
 3906SOL    HW112617   3.222   5.247   5.294
 3906SOL    HW212618   3.174   5.103   5.233
 3907SOL     OW12619   6.596   6.711   5.630
 3907SOL    HW112620   6.527   6.649   5.590
 3907SOL    HW212621   6.687   6.679   5.606
 3908SOL     OW12622   1.640   0.758   0.201
 3908SOL    HW112623   1.690   0.798   0.124
 3908SOL    HW212624   1.631   0.826   0.273
 3909SOL     OW12625   0.640   5.201   5.941
 3909SOL    HW112626   0.670   5.295   5.956
 3909SOL    HW212627   0.664   5.174   5.847
 3910SOL     OW12628   3.549   4.194   1.957
 3910SOL    HW112629   3.587   4.173   1.866
 3910SOL    HW212630   3.610   4.258   2.004
 3911SOL     OW12631   4.325   1.561   6.951
 3911SOL    HW112632   4.324   1.651   6.910
 3911SOL    HW212633   4.359   1.568   0.023
 3912SOL     OW12634   3.685   1.064   6.403
 3912SOL    HW112635   3.723   1.110   6.484
 3912SOL    HW212636   3.735   1.094   6.322
 3913SOL     OW12637   2.767   5.762   6.552
 3913SOL    HW112638   2.704   5.694   6.515
 3913SOL    HW212639   2.838   5.717   6.606
 3914SOL     OW12640   4.254   1.183   1.000
 3914SOL    HW112641   4.170   1.164   0.950
 3914SOL    HW212642   4.302   1.097   1.018
 3915SOL     OW12643   4.324   6.127   1.490
 3915SOL    HW112644   4.279   6.097   1.574
 3915SOL    HW212645   4.317   6.055   1.422
 3916SOL     OW12646   1.907   6.293   2.722
 3916SOL    HW112647   1.823   6.336   2.689
 3916SOL    HW212648   1.971   6.363   2.752
 3917SOL     OW12649   1.151   5.111   0.343
 3917SOL    HW112650   1.079   5.179   0.359
 3917SOL    HW212651   1.141   5.074   0.250
 3918SOL     OW12652   4.678   6.183   1.927
 3918SOL    HW112653   4.647   6.277   1.944
 3918SOL    HW212654   4.774   6.184   1.900
 3919SOL     OW12655   3.165   6.692   6.521
 3919SOL    HW112656   3.250   6.703   6.468
 3919SOL    HW212657   3.088   6.726   6.467
 3920SOL     OW12658   2.883   1.988   6.382
 3920SOL    HW112659   2.913   2.067   6.437
 3920SOL    HW212660   2.786   1.998   6.360
 3921SOL     OW12661   0.544   3.010   0.377
 3921SOL    HW112662   0.594   3.056   0.450
 3921SOL    HW212663   0.467   3.066   0.349
 3922SOL     OW12664   5.500   5.001   0.246
 3922SOL    HW112665   5.435   4.931   0.274
 3922SOL    HW212666   5.589   4.984   0.287
 3923SOL     OW12667   6.238   1.888   6.941
 3923SOL    HW112668   6.249   1.988   6.936
 3923SOL    HW212669   6.187   1.856   6.862
 3924SOL     OW12670   0.438   5.175   3.084
 3924SOL    HW112671   0.497   5.219   3.151
 3924SOL    HW212672   0.342   5.188   3.110
 3925SOL     OW12673   4.473   4.588   0.851
 3925SOL    HW112674   4.414   4.514   0.821
 3925SOL    HW212675   4.435   4.630   0.934
 3926SOL     OW12676   6.913   6.478   3.310
 3926SOL    HW112677   6.965   6.396   3.334
 3926SOL    HW212678   6.903   6.483   3.211
 3927SOL     OW12679   0.110   3.650   4.713
 3927SOL    HW112680   0.153   3.739   4.729
 3927SOL    HW212681   0.177   3.577   4.730
 3928SOL     OW12682   3.489   5.253   4.646
 3928SOL    HW112683   3.416   5.322   4.641
 3928SOL    HW212684   3.449   5.165   4.671
 3929SOL     OW12685   0.240   1.979   6.818
 3929SOL    HW112686   0.283   2.062   6.784
 3929SOL    HW212687   0.186   1.937   6.745
 3930SOL     OW12688   1.730   2.092   3.528
 3930SOL    HW112689   1.656   2.039   3.486
 3930SOL    HW212690   1.804   2.105   3.461
 3931SOL     OW12691   2.208   2.069   2.794
 3931SOL    HW112692   2.251   2.046   2.707
 3931SOL    HW212693   2.140   1.999   2.817
 3932SOL     OW12694   1.715   4.263   3.702
 3932SOL    HW112695   1.716   4.322   3.783
 3932SOL    HW212696   1.668   4.310   3.627
 3933SOL     OW12697   2.124   6.756   6.920
 3933SOL    HW112698   2.194   6.804   6.867
 3933SOL    HW212699   2.167   6.709   6.998
 3934SOL     OW12700   0.417   1.491   1.420
 3934SOL    HW112701   0.442   1.430   1.494
 3934SOL    HW212702   0.318   1.507   1.421
 3935SOL     OW12703   1.579   0.843   5.192
 3935SOL    HW112704   1.660   0.845   5.133
 3935SOL    HW212705   1.597   0.784   5.271
 3936SOL     OW12706   0.104   5.923   5.128
 3936SOL    HW112707   0.081   5.878   5.042
 3936SOL    HW212708   0.053   5.880   5.203
 3937SOL     OW12709   0.641   6.831   2.616
 3937SOL    HW112710   0.700   6.750   2.616
 3937SOL    HW212711   0.546   6.804   2.632
 3938SOL     OW12712   6.037   3.105   3.895
 3938SOL    HW112713   6.077   3.016   3.917
 3938SOL    HW212714   6.049   3.167   3.973
 3939SOL     OW12715   3.024   1.542   3.227
 3939SOL    HW112716   3.067   1.510   3.143
 3939SOL    HW212717   3.056   1.635   3.248
 3940SOL     OW12718   3.725   4.900   2.163
 3940SOL    HW112719   3.667   4.865   2.089
 3940SOL    HW212720   3.702   4.854   2.249
 3941SOL     OW12721   6.391   0.871   5.234
 3941SOL    HW112722   6.466   0.851   5.171
 3941SOL    HW212723   6.369   0.790   5.288
 3942SOL     OW12724   0.741   6.442   5.580
 3942SOL    HW112725   0.809   6.509   5.549
 3942SOL    HW212726   0.756   6.356   5.533
 3943SOL     OW12727   0.796   3.220   2.843
 3943SOL    HW112728   0.752   3.136   2.876
 3943SOL    HW212729   0.892   3.201   2.821
 3944SOL     OW12730   5.620   3.798   5.444
 3944SOL    HW112731   5.533   3.840   5.417
 3944SOL    HW212732   5.640   3.820   5.539
 3945SOL     OW12733   0.998   2.231   2.668
 3945SOL    HW112734   0.921   2.284   2.632
 3945SOL    HW212735   1.008   2.249   2.766
 3946SOL     OW12736   6.332   4.232   6.304
 3946SOL    HW112737   6.238   4.228   6.269
 3946SOL    HW212738   6.365   4.326   6.301
 3947SOL     OW12739   6.152   5.422   1.453
 3947SOL    HW112740   6.185   5.505   1.408
 3947SOL    HW212741   6.150   5.437   1.552
 3948SOL     OW12742   0.335   4.746   0.756
 3948SOL    HW112743   0.237   4.764   0.762
 3948SOL    HW212744   0.383   4.798   0.826
 3949SOL     OW12745   5.704   6.838   2.800
 3949SOL    HW112746   5.659   6.887   2.725
 3949SOL    HW212747   5.638   6.821   2.873
 3950SOL     OW12748   2.976   4.120   1.250
 3950SOL    HW112749   3.027   4.054   1.195
 3950SOL    HW212750   2.980   4.210   1.206
 3951SOL     OW12751   0.567   0.520   6.948
 3951SOL    HW112752   0.530   0.491   0.013
 3951SOL    HW212753   0.553   0.619   6.937
 3952SOL     OW12754   6.034   3.303   4.615
 3952SOL    HW112755   6.099   3.246   4.565
 3952SOL    HW212756   5.969   3.344   4.551
 3953SOL     OW12757   3.375   4.443   0.492
 3953SOL    HW112758   3.423   4.485   0.414
 3953SOL    HW212759   3.435   4.445   0.572
 3954SOL     OW12760   6.036   5.113   5.130
 3954SOL    HW112761   5.952   5.158   5.161
 3954SOL    HW212762   6.080   5.168   5.059
 3955SOL     OW12763   4.450   6.629   0.113
 3955SOL    HW112764   4.511   6.656   0.187
 3955SOL    HW212765   4.358   6.612   0.150
 3956SOL     OW12766   1.558   1.831   3.987
 3956SOL    HW112767   1.617   1.870   3.917
 3956SOL    HW212768   1.471   1.880   3.989
 3957SOL     OW12769   4.440   0.113   3.260
 3957SOL    HW112770   4.492   0.160   3.189
 3957SOL    HW212771   4.402   0.180   3.324
 3958SOL     OW12772   5.211   0.269   6.175
 3958SOL    HW112773   5.297   0.319   6.179
 3958SOL    HW212774   5.140   0.329   6.138
 3959SOL     OW12775   3.642   6.736   0.589
 3959SOL    HW112776   3.635   6.661   0.523
 3959SOL    HW212777   3.684   6.816   0.546
 3960SOL     OW12778   5.396   1.847   6.053
 3960SOL    HW112779   5.322   1.904   6.089
 3960SOL    HW212780   5.441   1.799   6.128
 3961SOL     OW12781   5.532   2.990   2.079
 3961SOL    HW112782   5.444   2.946   2.095
 3961SOL    HW212783   5.545   3.005   1.981
 3962SOL     OW12784   1.836   5.416   6.541
 3962SOL    HW112785   1.861   5.491   6.481
 3962SOL    HW212786   1.780   5.350   6.491
 3963SOL     OW12787   4.816   4.627   3.678
 3963SOL    HW112788   4.830   4.596   3.585
 3963SOL    HW212789   4.728   4.594   3.712
 3964SOL     OW12790   4.381   4.943   4.955
 3964SOL    HW112791   4.477   4.966   4.971
 3964SOL    HW212792   4.326   5.027   4.955
 3965SOL     OW12793   4.250   3.679   6.437
 3965SOL    HW112794   4.210   3.762   6.398
 3965SOL    HW212795   4.277   3.698   6.532
 3966SOL     OW12796   6.773   4.939   6.852
 3966SOL    HW112797   6.753   4.907   6.760
 3966SOL    HW212798   6.810   5.032   6.848
 3967SOL     OW12799   1.554   4.892   2.895
 3967SOL    HW112800   1.641   4.933   2.922
 3967SOL    HW212801   1.485   4.964   2.885
 3968SOL     OW12802   0.076   0.459   0.682
 3968SOL    HW112803   0.148   0.399   0.647
 3968SOL    HW212804   7.013   0.408   0.689
 3969SOL     OW12805   1.125   3.674   3.013
 3969SOL    HW112806   1.025   3.677   3.018
 3969SOL    HW212807   1.162   3.762   3.043
 3970SOL     OW12808   4.955   4.924   3.541
 3970SOL    HW112809   4.935   5.009   3.492
 3970SOL    HW212810   5.006   4.945   3.625
 3971SOL     OW12811   2.693   4.970   2.560
 3971SOL    HW112812   2.744   4.887   2.583
 3971SOL    HW212813   2.612   4.976   2.619
 3972SOL     OW12814   1.221   4.995   1.829
 3972SOL    HW112815   1.289   5.006   1.901
 3972SOL    HW212816   1.179   5.084   1.809
 3973SOL     OW12817   2.123   4.237   5.993
 3973SOL    HW112818   2.115   4.245   5.894
 3973SOL    HW212819   2.212   4.198   6.017
 3974SOL     OW12820   1.652   0.449   5.741
 3974SOL    HW112821   1.734   0.479   5.790
 3974SOL    HW212822   1.611   0.371   5.789
 3975SOL     OW12823   5.472   0.511   6.312
 3975SOL    HW112824   5.541   0.562   6.364
 3975SOL    HW212825   5.503   0.417   6.301
 3976SOL     OW12826   1.507   4.812   1.419
 3976SOL    HW112827   1.460   4.835   1.504
 3976SOL    HW212828   1.528   4.715   1.418
 3977SOL     OW12829   3.329   4.210   5.230
 3977SOL    HW112830   3.281   4.294   5.257
 3977SOL    HW212831   3.286   4.173   5.148
 3978SOL     OW12832   5.531   0.815   4.620
 3978SOL    HW112833   5.483   0.846   4.538
 3978SOL    HW212834   5.474   0.747   4.668
 3979SOL     OW12835   2.142   5.828   1.616
 3979SOL    HW112836   2.211   5.775   1.568
 3979SOL    HW212837   2.187   5.889   1.682
 3980SOL     OW12838   6.963   4.116   6.501
 3980SOL    HW112839   0.040   4.110   6.488
 3980SOL    HW212840   6.920   4.031   6.470
 3981SOL     OW12841   1.611   1.994   6.422
 3981SOL    HW112842   1.598   2.039   6.333
 3981SOL    HW212843   1.673   1.916   6.411
 3982SOL     OW12844   1.719   0.748   4.472
 3982SOL    HW112845   1.703   0.796   4.386
 3982SOL    HW212846   1.751   0.655   4.453
 3983SOL     OW12847   4.158   5.653   4.092
 3983SOL    HW112848   4.212   5.730   4.128
 3983SOL    HW212849   4.212   5.569   4.100
 3984SOL     OW12850   1.688   0.682   2.716
 3984SOL    HW112851   1.602   0.723   2.745
 3984SOL    HW212852   1.671   0.593   2.674
 3985SOL     OW12853   3.042   4.689   6.892
 3985SOL    HW112854   3.098   4.618   6.849
 3985SOL    HW212855   3.042   4.677   6.991
 3986SOL     OW12856   7.001   2.259   3.020
 3986SOL    HW112857   6.937   2.202   2.969
 3986SOL    HW212858   0.070   2.218   3.017
 3987SOL     OW12859   2.426   6.351   4.453
 3987SOL    HW112860   2.455   6.439   4.416
 3987SOL    HW212861   2.404   6.361   4.550
 3988SOL     OW12862   3.405   2.717   5.894
 3988SOL    HW112863   3.306   2.726   5.906
 3988SOL    HW212864   3.426   2.629   5.851
 3989SOL     OW12865   6.215   1.882   0.336
 3989SOL    HW112866   6.265   1.958   0.375
 3989SOL    HW212867   6.274   1.831   0.273
 3990SOL     OW12868   5.691   1.426   3.758
 3990SOL    HW112869   5.635   1.380   3.689
 3990SOL    HW212870   5.708   1.364   3.835
 3991SOL     OW12871   6.023   1.797   1.830
 3991SOL    HW112872   6.107   1.846   1.809
 3991SOL    HW212873   6.004   1.730   1.757
 3992SOL     OW12874   3.946   2.352   6.518
 3992SOL    HW112875   3.976   2.416   6.447
 3992SOL    HW212876   3.948   2.259   6.481
 3993SOL     OW12877   0.497   2.500   3.243
 3993SOL    HW112878   0.416   2.551   3.215
 3993SOL    HW212879   0.525   2.438   3.169
 3994SOL     OW12880   0.767   2.853   5.876
 3994SOL    HW112881   0.792   2.770   5.926
 3994SOL    HW212882   0.671   2.848   5.850
 3995SOL     OW12883   2.091   3.445   4.239
 3995SOL    HW112884   2.015   3.380   4.245
 3995SOL    HW212885   2.121   3.469   4.331
 3996SOL     OW12886   1.197   0.792   4.590
 3996SOL    HW112887   1.293   0.783   4.562
 3996SOL    HW212888   1.138   0.758   4.518
 3997SOL     OW12889   4.792   2.916   2.482
 3997SOL    HW112890   4.807   2.985   2.552
 3997SOL    HW212891   4.802   2.958   2.392
 3998SOL     OW12892   4.769   1.296   2.593
 3998SOL    HW112893   4.761   1.395   2.589
 3998SOL    HW212894   4.849   1.271   2.646
 3999SOL     OW12895   5.369   3.550   3.263
 3999SOL    HW112896   5.335   3.476   3.322
 3999SOL    HW212897   5.293   3.588   3.210
 4000SOL     OW12898   3.088   5.298   2.860
 4000SOL    HW112899   3.158   5.254   2.803
 4000SOL    HW212900   3.088   5.256   2.951
 4001SOL     OW12901   1.762   2.110   4.130
 4001SOL    HW112902   1.825   2.084   4.057
 4001SOL    HW212903   1.752   2.210   4.131
 4002SOL     OW12904   2.837   3.043   0.453
 4002SOL    HW112905   2.841   2.997   0.542
 4002SOL    HW212906   2.816   3.140   0.467
 4003SOL     OW12907   2.982   6.834   5.425
 4003SOL    HW112908   2.954   6.917   5.472
 4003SOL    HW212909   3.010   6.856   5.332
 4004SOL     OW12910   6.486   2.275   4.051
 4004SOL    HW112911   6.452   2.260   3.958
 4004SOL    HW212912   6.416   2.321   4.104
 4005SOL     OW12913   5.021   5.298   0.941
 4005SOL    HW112914   5.090   5.369   0.925
 4005SOL    HW212915   5.023   5.233   0.865
 4006SOL     OW12916   4.558   4.754   1.755
 4006SOL    HW112917   4.605   4.818   1.815
 4006SOL    HW212918   4.521   4.679   1.809
 4007SOL     OW12919   0.933   3.206   1.788
 4007SOL    HW112920   0.884   3.243   1.867
 4007SOL    HW212921   0.973   3.118   1.812
 4008SOL     OW12922   3.347   1.702   4.491
 4008SOL    HW112923   3.285   1.744   4.557
 4008SOL    HW212924   3.433   1.752   4.490
 4009SOL     OW12925   4.788   2.915   0.431
 4009SOL    HW112926   4.865   2.973   0.458
 4009SOL    HW212927   4.820   2.821   0.422
 4010SOL     OW12928   1.940   3.654   0.923
 4010SOL    HW112929   1.984   3.695   0.843
 4010SOL    HW212930   1.997   3.668   1.004
 4011SOL     OW12931   1.094   0.608   1.415
 4011SOL    HW112932   1.096   0.637   1.320
 4011SOL    HW212933   1.051   0.518   1.422
 4012SOL     OW12934   4.724   4.654   1.548
 4012SOL    HW112935   4.658   4.659   1.623
 4012SOL    HW212936   4.775   4.568   1.554
 4013SOL     OW12937   2.864   0.239   1.071
 4013SOL    HW112938   2.891   0.224   1.166
 4013SOL    HW212939   2.882   0.335   1.047
 4014SOL     OW12940   4.560   5.806   3.725
 4014SOL    HW112941   4.582   5.713   3.754
 4014SOL    HW212942   4.461   5.816   3.718
 4015SOL     OW12943   4.393   5.518   6.442
 4015SOL    HW112944   4.457   5.448   6.472
 4015SOL    HW212945   4.351   5.563   6.521
 4016SOL     OW12946   1.237   5.673   6.773
 4016SOL    HW112947   1.172   5.621   6.717
 4016SOL    HW212948   1.293   5.610   6.826
 4017SOL     OW12949   0.058   6.840   6.846
 4017SOL    HW112950   6.997   6.884   6.880
 4017SOL    HW212951   0.067   6.749   6.888
 4018SOL     OW12952   5.881   6.502   1.937
 4018SOL    HW112953   5.818   6.424   1.944
 4018SOL    HW212954   5.830   6.584   1.911
 4019SOL     OW12955   5.753   3.701   2.122
 4019SOL    HW112956   5.752   3.788   2.171
 4019SOL    HW212957   5.663   3.658   2.127
 4020SOL     OW12958   5.981   2.093   6.160
 4020SOL    HW112959   5.887   2.058   6.169
 4020SOL    HW212960   5.978   2.189   6.132
 4021SOL     OW12961   3.074   3.648   5.760
 4021SOL    HW112962   3.140   3.723   5.755
 4021SOL    HW212963   2.982   3.683   5.745
 4022SOL     OW12964   4.146   0.188   0.118
 4022SOL    HW112965   4.245   0.175   0.128
 4022SOL    HW212966   4.120   0.276   0.158
 4023SOL     OW12967   6.716   0.844   4.020
 4023SOL    HW112968   6.719   0.786   3.939
 4023SOL    HW212969   6.744   0.791   4.100
 4024SOL     OW12970   2.679   5.172   4.669
 4024SOL    HW112971   2.647   5.200   4.578
 4024SOL    HW212972   2.718   5.080   4.663
 4025SOL     OW12973   0.511   5.896   5.056
 4025SOL    HW112974   0.595   5.947   5.040
 4025SOL    HW212975   0.457   5.942   5.127
 4026SOL     OW12976   6.534   6.643   4.027
 4026SOL    HW112977   6.483   6.569   3.983
 4026SOL    HW212978   6.508   6.730   3.987
 4027SOL     OW12979   2.974   3.664   1.787
 4027SOL    HW112980   2.880   3.642   1.761
 4027SOL    HW212981   3.021   3.580   1.815
 4028SOL     OW12982   2.313   2.804   3.193
 4028SOL    HW112983   2.317   2.732   3.124
 4028SOL    HW212984   2.267   2.884   3.155
 4029SOL     OW12985   2.845   4.351   6.526
 4029SOL    HW112986   2.929   4.310   6.491
 4029SOL    HW212987   2.846   4.350   6.626
 4030SOL     OW12988   1.145   1.982   0.176
 4030SOL    HW112989   1.221   2.047   0.183
 4030SOL    HW212990   1.148   1.919   0.253
 4031SOL     OW12991   4.653   6.427   3.292
 4031SOL    HW112992   4.734   6.467   3.249
 4031SOL    HW212993   4.681   6.368   3.368
 4032SOL     OW12994   6.480   0.060   2.886
 4032SOL    HW112995   6.424   0.142   2.895
 4032SOL    HW212996   6.565   0.071   2.939
 4033SOL     OW12997   2.983   3.328   2.394
 4033SOL    HW112998   2.933   3.338   2.307
 4033SOL    HW212999   2.962   3.405   2.453
 4034SOL     OW13000   6.719   2.040   5.468
 4034SOL    HW113001   6.786   1.973   5.436
 4034SOL    HW213002   6.657   1.996   5.533
 4035SOL     OW13003   6.961   2.554   0.664
 4035SOL    HW113004   0.010   2.617   0.694
 4035SOL    HW213005   6.894   2.603   0.609
 4036SOL     OW13006   4.640   6.580   2.578
 4036SOL    HW113007   4.705   6.625   2.639
 4036SOL    HW213008   4.690   6.529   2.508
 4037SOL     OW13009   2.097   1.318   0.674
 4037SOL    HW113010   2.021   1.355   0.621
 4037SOL    HW213011   2.084   1.340   0.771
 4038SOL     OW13012   4.797   4.312   1.766
 4038SOL    HW113013   4.718   4.267   1.724
 4038SOL    HW213014   4.792   4.300   1.865
 4039SOL     OW13015   5.132   4.624   1.374
 4039SOL    HW113016   5.160   4.568   1.452
 4039SOL    HW213017   5.176   4.590   1.291
 4040SOL     OW13018   3.071   0.054   5.829
 4040SOL    HW113019   3.035   0.005   5.908
 4040SOL    HW213020   3.110   0.142   5.858
 4041SOL     OW13021   2.326   5.616   1.475
 4041SOL    HW113022   2.390   5.677   1.428
 4041SOL    HW213023   2.273   5.564   1.408
 4042SOL     OW13024   6.159   5.247   2.420
 4042SOL    HW113025   6.245   5.227   2.466
 4042SOL    HW213026   6.085   5.197   2.464
 4043SOL     OW13027   4.805   2.125   4.046
 4043SOL    HW113028   4.787   2.094   4.139
 4043SOL    HW213029   4.742   2.079   3.983
 4044SOL     OW13030   5.082   0.152   3.938
 4044SOL    HW113031   5.156   0.219   3.933
 4044SOL    HW213032   5.097   0.080   3.870
 4045SOL     OW13033   2.694   4.811   6.292
 4045SOL    HW113034   2.716   4.801   6.195
 4045SOL    HW213035   2.738   4.736   6.343
 4046SOL     OW13036   0.588   1.363   4.095
 4046SOL    HW113037   0.506   1.339   4.043
 4046SOL    HW213038   0.566   1.370   4.192
 4047SOL     OW13039   2.722   2.476   0.870
 4047SOL    HW113040   2.681   2.502   0.782
 4047SOL    HW213041   2.784   2.548   0.900
 4048SOL     OW13042   5.569   1.396   2.520
 4048SOL    HW113043   5.523   1.382   2.607
 4048SOL    HW213044   5.539   1.482   2.479
 4049SOL     OW13045   6.187   6.108   6.877
 4049SOL    HW113046   6.174   6.149   6.967
 4049SOL    HW213047   6.264   6.151   6.830
 4050SOL     OW13048   2.063   6.478   0.692
 4050SOL    HW113049   2.028   6.401   0.639
 4050SOL    HW213050   2.032   6.470   0.787
 4051SOL     OW13051   3.736   2.776   0.248
 4051SOL    HW113052   3.745   2.748   0.152
 4051SOL    HW213053   3.680   2.859   0.253
 4052SOL     OW13054   0.010   0.468   2.073
 4052SOL    HW113055   0.041   0.382   2.032
 4052SOL    HW213056   6.990   0.524   2.002
 4053SOL     OW13057   3.306   5.429   3.943
 4053SOL    HW113058   3.232   5.489   3.974
 4053SOL    HW213059   3.297   5.340   3.988
 4054SOL     OW13060   0.710   2.922   1.833
 4054SOL    HW113061   0.788   2.954   1.887
 4054SOL    HW213062   0.744   2.879   1.749
 4055SOL     OW13063   3.845   3.697   6.147
 4055SOL    HW113064   3.913   3.767   6.170
 4055SOL    HW213065   3.846   3.682   6.048
 4056SOL     OW13066   3.874   3.338   0.564
 4056SOL    HW113067   3.795   3.390   0.596
 4056SOL    HW213068   3.919   3.294   0.641
 4057SOL     OW13069   5.530   1.993   1.202
 4057SOL    HW113070   5.528   2.018   1.299
 4057SOL    HW213071   5.437   1.979   1.168
 4058SOL     OW13072   1.456   0.648   4.525
 4058SOL    HW113073   1.487   0.553   4.529
 4058SOL    HW213074   1.535   0.709   4.526
 4059SOL     OW13075   1.172   2.771   3.366
 4059SOL    HW113076   1.132   2.718   3.291
 4059SOL    HW213077   1.251   2.821   3.332
 4060SOL     OW13078   4.642   5.502   4.615
 4060SOL    HW113079   4.737   5.502   4.583
 4060SOL    HW213080   4.631   5.433   4.686
 4061SOL     OW13081   3.383   4.899   1.842
 4061SOL    HW113082   3.400   4.997   1.845
 4061SOL    HW213083   3.445   4.851   1.904
 4062SOL     OW13084   3.148   1.885   2.717
 4062SOL    HW113085   3.143   1.979   2.749
 4062SOL    HW213086   3.071   1.866   2.657
 4063SOL     OW13087   5.360   6.858   5.254
 4063SOL    HW113088   5.397   6.943   5.216
 4063SOL    HW213089   5.329   6.798   5.180
 4064SOL     OW13090   1.700   6.667   3.504
 4064SOL    HW113091   1.785   6.710   3.474
 4064SOL    HW213092   1.721   6.581   3.550
 4065SOL     OW13093   0.720   6.509   0.564
 4065SOL    HW113094   0.656   6.556   0.625
 4065SOL    HW213095   0.796   6.472   0.617
 4066SOL     OW13096   5.342   5.398   2.833
 4066SOL    HW113097   5.299   5.472   2.883
 4066SOL    HW213098   5.434   5.425   2.805
 4067SOL     OW13099   5.980   2.839   2.249
 4067SOL    HW113100   6.022   2.772   2.188
 4067SOL    HW213101   5.954   2.795   2.335
 4068SOL     OW13102   3.122   0.917   4.010
 4068SOL    HW113103   3.066   0.974   3.950
 4068SOL    HW213104   3.146   0.968   4.092
 4069SOL     OW13105   3.900   4.741   6.115
 4069SOL    HW113106   3.921   4.648   6.086
 4069SOL    HW213107   3.805   4.762   6.092
 4070SOL     OW13108   0.907   3.384   2.521
 4070SOL    HW113109   0.888   3.419   2.613
 4070SOL    HW213110   0.834   3.413   2.459
 4071SOL     OW13111   1.241   0.426   5.220
 4071SOL    HW113112   1.292   0.457   5.140
 4071SOL    HW213113   1.199   0.505   5.265
 4072SOL     OW13114   1.204   6.140   4.223
 4072SOL    HW113115   1.136   6.126   4.296
 4072SOL    HW213116   1.215   6.238   4.207
 4073SOL     OW13117   2.431   5.502   6.247
 4073SOL    HW113118   2.344   5.528   6.204
 4073SOL    HW213119   2.476   5.433   6.191
 4074SOL     OW13120   0.875   2.860   2.184
 4074SOL    HW113121   0.786   2.821   2.162
 4074SOL    HW213122   0.862   2.947   2.232
 4075SOL     OW13123   4.076   2.188   2.511
 4075SOL    HW113124   4.161   2.240   2.527
 4075SOL    HW213125   4.015   2.241   2.453
 4076SOL     OW13126   2.361   3.440   5.721
 4076SOL    HW113127   2.267   3.409   5.736
 4076SOL    HW213128   2.391   3.414   5.630
 4077SOL     OW13129   3.214   6.879   7.010
 4077SOL    HW113130   3.210   6.899   6.913
 4077SOL    HW213131   3.309   6.882   0.019
 4078SOL     OW13132   6.719   5.179   1.437
 4078SOL    HW113133   6.628   5.213   1.460
 4078SOL    HW213134   6.722   5.080   1.453
 4079SOL     OW13135   0.297   1.989   3.234
 4079SOL    HW113136   0.354   1.986   3.152
 4079SOL    HW213137   0.320   2.069   3.289
 4080SOL     OW13138   2.659   3.423   0.660
 4080SOL    HW113139   2.587   3.472   0.710
 4080SOL    HW213140   2.740   3.482   0.653
 4081SOL     OW13141   1.778   1.747   3.651
 4081SOL    HW113142   1.776   1.847   3.647
 4081SOL    HW213143   1.817   1.718   3.738
 4082SOL     OW13144   1.149   2.137   1.003
 4082SOL    HW113145   1.101   2.218   1.039
 4082SOL    HW213146   1.163   2.071   1.077
 4083SOL     OW13147   5.819   4.094   2.837
 4083SOL    HW113148   5.877   4.025   2.881
 4083SOL    HW213149   5.815   4.176   2.894
 4084SOL     OW13150   4.773   2.205   2.994
 4084SOL    HW113151   4.716   2.286   3.003
 4084SOL    HW213152   4.730   2.141   2.930
 4085SOL     OW13153   2.632   5.786   0.473
 4085SOL    HW113154   2.558   5.815   0.535
 4085SOL    HW213155   2.596   5.777   0.380
 4086SOL     OW13156   6.870   5.039   1.100
 4086SOL    HW113157   6.944   4.973   1.094
 4086SOL    HW213158   6.893   5.109   1.167
 4087SOL     OW13159   2.378   1.352   2.843
 4087SOL    HW113160   2.329   1.382   2.925
 4087SOL    HW213161   2.348   1.259   2.819
 4088SOL     OW13162   6.641   1.216   6.208
 4088SOL    HW113163   6.704   1.175   6.274
 4088SOL    HW213164   6.667   1.312   6.192
 4089SOL     OW13165   6.671   5.087   4.719
 4089SOL    HW113166   6.662   5.178   4.678
 4089SOL    HW213167   6.655   5.094   4.818
 4090SOL     OW13168   2.061   5.705   5.167
 4090SOL    HW113169   2.013   5.721   5.081
 4090SOL    HW213170   2.023   5.764   5.238
 4091SOL     OW13171   0.565   6.131   0.037
 4091SOL    HW113172   0.486   6.090   7.014
 4091SOL    HW213173   0.544   6.144   0.134
 4092SOL     OW13174   5.877   2.560   3.731
 4092SOL    HW113175   5.970   2.529   3.753
 4092SOL    HW213176   5.814   2.483   3.737
 4093SOL     OW13177   5.225   6.772   1.023
 4093SOL    HW113178   5.182   6.722   0.947
 4093SOL    HW213179   5.311   6.727   1.048
 4094SOL     OW13180   1.221   4.589   6.504
 4094SOL    HW113181   1.198   4.686   6.512
 4094SOL    HW213182   1.320   4.578   6.509
 4095SOL     OW13183   0.752   3.661   0.289
 4095SOL    HW113184   0.732   3.565   0.310
 4095SOL    HW213185   0.841   3.686   0.329
 4096SOL     OW13186   3.552   0.748   6.101
 4096SOL    HW113187   3.490   0.771   6.176
 4096SOL    HW213188   3.626   0.815   6.096
 4097SOL     OW13189   5.116   4.498   4.913
 4097SOL    HW113190   5.050   4.468   4.843
 4097SOL    HW213191   5.097   4.451   4.999
 4098SOL     OW13192   0.960   2.716   1.361
 4098SOL    HW113193   1.052   2.712   1.398
 4098SOL    HW213194   0.921   2.624   1.355
 4099SOL     OW13195   3.538   5.268   0.944
 4099SOL    HW113196   3.495   5.196   0.998
 4099SOL    HW213197   3.565   5.231   0.855
 4100SOL     OW13198   0.878   6.832   4.391
 4100SOL    HW113199   0.958   6.892   4.398
 4100SOL    HW213200   0.860   6.811   4.295
 4101SOL     OW13201   0.990   1.053   6.851
 4101SOL    HW113202   1.035   1.007   6.928
 4101SOL    HW213203   0.957   0.984   6.787
 4102SOL     OW13204   1.713   0.258   0.640
 4102SOL    HW113205   1.778   0.181   0.639
 4102SOL    HW213206   1.722   0.308   0.726
 4103SOL     OW13207   0.949   0.614   2.063
 4103SOL    HW113208   0.937   0.525   2.107
 4103SOL    HW213209   0.867   0.669   2.077
 4104SOL     OW13210   0.310   4.909   3.450
 4104SOL    HW113211   0.248   4.834   3.428
 4104SOL    HW213212   0.367   4.884   3.528
 4105SOL     OW13213   6.491   0.342   3.154
 4105SOL    HW113214   6.533   0.433   3.162
 4105SOL    HW213215   6.558   0.272   3.181
 4106SOL     OW13216   0.247   3.047   3.923
 4106SOL    HW113217   0.246   2.951   3.951
 4106SOL    HW213218   0.209   3.104   3.996
 4107SOL     OW13219   1.050   5.858   0.875
 4107SOL    HW113220   1.128   5.834   0.933
 4107SOL    HW213221   0.994   5.777   0.860
 4108SOL     OW13222   6.383   5.006   4.748
 4108SOL    HW113223   6.384   4.932   4.816
 4108SOL    HW213224   6.474   5.046   4.742
 4109SOL     OW13225   6.102   6.834   5.060
 4109SOL    HW113226   6.025   6.770   5.050
 4109SOL    HW213227   6.068   6.922   5.093
 4110SOL     OW13228   4.122   3.818   6.214
 4110SOL    HW113229   4.149   3.843   6.121
 4110SOL    HW213230   4.143   3.721   6.230
 4111SOL     OW13231   5.316   5.298   6.334
 4111SOL    HW113232   5.379   5.340   6.270
 4111SOL    HW213233   5.287   5.209   6.299
 4112SOL     OW13234   4.860   6.208   4.405
 4112SOL    HW113235   4.762   6.187   4.411
 4112SOL    HW213236   4.913   6.126   4.429
 4113SOL     OW13237   5.512   5.878   4.514
 4113SOL    HW113238   5.519   5.922   4.604
 4113SOL    HW213239   5.604   5.865   4.476
 4114SOL     OW13240   5.141   1.996   3.592
 4114SOL    HW113241   5.234   2.019   3.562
 4114SOL    HW213242   5.075   2.050   3.540
 4115SOL     OW13243   3.014   4.789   2.792
 4115SOL    HW113244   3.068   4.706   2.793
 4115SOL    HW213245   2.960   4.795   2.877
 4116SOL     OW13246   4.118   1.616   3.316
 4116SOL    HW113247   4.167   1.532   3.339
 4116SOL    HW213248   4.133   1.638   3.220
 4117SOL     OW13249   1.085   3.205   2.861
 4117SOL    HW113250   1.135   3.125   2.894
 4117SOL    HW213251   1.134   3.245   2.783
 4118SOL     OW13252   5.225   6.823   0.054
 4118SOL    HW113253   5.141   6.871   0.076
 4118SOL    HW213254   5.277   6.875   7.009
 4119SOL     OW13255   2.967   1.764   3.709
 4119SOL    HW113256   2.963   1.705   3.789
 4119SOL    HW213257   2.988   1.710   3.628
 4120SOL     OW13258   2.803   1.383   5.856
 4120SOL    HW113259   2.824   1.323   5.779
 4120SOL    HW213260   2.705   1.404   5.856
 4121SOL     OW13261   6.461   6.896   3.931
 4121SOL    HW113262   6.482   6.994   3.938
 4121SOL    HW213263   6.363   6.881   3.944
 4122SOL     OW13264   1.365   6.620   4.601
 4122SOL    HW113265   1.277   6.595   4.641
 4122SOL    HW213266   1.395   6.547   4.539
 4123SOL     OW13267   4.146   4.795   5.157
 4123SOL    HW113268   4.141   4.735   5.237
 4123SOL    HW213269   4.060   4.844   5.146
 4124SOL     OW13270   6.625   6.883   0.946
 4124SOL    HW113271   6.709   6.937   0.941
 4124SOL    HW213272   6.586   6.872   0.855
 4125SOL     OW13273   4.390   2.319   3.159
 4125SOL    HW113274   4.312   2.293   3.216
 4125SOL    HW213275   4.369   2.299   3.063
 4126SOL     OW13276   1.665   3.449   3.293
 4126SOL    HW113277   1.755   3.411   3.311
 4126SOL    HW213278   1.595   3.378   3.305
 4127SOL     OW13279   5.756   3.474   5.018
 4127SOL    HW113280   5.831   3.450   4.956
 4127SOL    HW213281   5.793   3.492   5.109
 4128SOL     OW13282   0.620   3.552   1.046
 4128SOL    HW113283   0.657   3.583   1.133
 4128SOL    HW213284   0.647   3.457   1.031
 4129SOL     OW13285   3.163   1.166   0.124
 4129SOL    HW113286   3.227   1.239   0.147
 4129SOL    HW213287   3.178   1.137   0.029
 4130SOL     OW13288   6.273   2.614   0.425
 4130SOL    HW113289   6.200   2.549   0.445
 4130SOL    HW213290   6.362   2.567   0.432
 4131SOL     OW13291   0.326   1.603   3.134
 4131SOL    HW113292   0.421   1.607   3.166
 4131SOL    HW213293   0.295   1.508   3.131
 4132SOL     OW13294   4.841   3.975   3.470
 4132SOL    HW113295   4.849   3.876   3.459
 4132SOL    HW213296   4.891   4.021   3.397
 4133SOL     OW13297   3.427   5.972   1.316
 4133SOL    HW113298   3.433   5.878   1.351
 4133SOL    HW213299   3.355   6.021   1.364
 4134SOL     OW13300   1.722   3.840   1.048
 4134SOL    HW113301   1.819   3.829   1.073
 4134SOL    HW213302   1.716   3.877   0.955
 4135SOL     OW13303   0.353   2.636   2.014
 4135SOL    HW113304   0.260   2.672   2.005
 4135SOL    HW213305   0.408   2.667   1.937
 4136SOL     OW13306   1.286   3.699   3.483
 4136SOL    HW113307   1.356   3.677   3.551
 4136SOL    HW213308   1.205   3.642   3.500
 4137SOL     OW13309   1.757   3.001   1.169
 4137SOL    HW113310   1.853   3.007   1.144
 4137SOL    HW213311   1.745   3.026   1.265
 4138SOL     OW13312   3.939   5.451   2.737
 4138SOL    HW113313   3.878   5.405   2.802
 4138SOL    HW213314   3.946   5.394   2.654
 4139SOL     OW13315   1.158   1.022   4.956
 4139SOL    HW113316   1.092   1.011   4.881
 4139SOL    HW213317   1.163   1.118   4.981
 4140SOL     OW13318   3.369   0.989   5.060
 4140SOL    HW113319   3.399   1.060   4.997
 4140SOL    HW213320   3.277   1.009   5.092
 4141SOL     OW13321   5.309   6.643   1.296
 4141SOL    HW113322   5.355   6.634   1.208
 4141SOL    HW213323   5.227   6.586   1.297
 4142SOL     OW13324   6.581   4.668   0.594
 4142SOL    HW113325   6.501   4.644   0.648
 4142SOL    HW213326   6.583   4.766   0.578
 4143SOL     OW13327   5.679   3.186   1.216
 4143SOL    HW113328   5.612   3.159   1.286
 4143SOL    HW213329   5.673   3.285   1.201
 4144SOL     OW13330   5.161   1.479   0.076
 4144SOL    HW113331   5.062   1.477   0.085
 4144SOL    HW213332   5.203   1.443   0.159
 4145SOL     OW13333   0.556   6.143   1.518
 4145SOL    HW113334   0.654   6.140   1.497
 4145SOL    HW213335   0.540   6.106   1.609
 4146SOL     OW13336   6.553   0.305   3.632
 4146SOL    HW113337   6.489   0.251   3.578
 4146SOL    HW213338   6.558   0.398   3.595
 4147SOL     OW13339   4.331   4.760   5.828
 4147SOL    HW113340   4.237   4.766   5.794
 4147SOL    HW213341   4.393   4.805   5.764
 4148SOL     OW13342   2.739   0.619   4.525
 4148SOL    HW113343   2.641   0.616   4.547
 4148SOL    HW213344   2.784   0.538   4.563
 4149SOL     OW13345   0.331   4.438   1.485
 4149SOL    HW113346   0.404   4.441   1.553
 4149SOL    HW213347   0.270   4.361   1.505
 4150SOL     OW13348   0.641   0.906   5.605
 4150SOL    HW113349   0.628   1.003   5.583
 4150SOL    HW213350   0.710   0.897   5.676
 4151SOL     OW13351   2.665   6.215   5.907
 4151SOL    HW113352   2.566   6.223   5.899
 4151SOL    HW213353   2.706   6.306   5.907
 4152SOL     OW13354   3.975   5.714   1.390
 4152SOL    HW113355   4.033   5.794   1.371
 4152SOL    HW213356   3.896   5.715   1.329
 4153SOL     OW13357   5.787   5.166   1.034
 4153SOL    HW113358   5.770   5.089   0.972
 4153SOL    HW213359   5.712   5.174   1.099
 4154SOL     OW13360   6.756   5.066   4.303
 4154SOL    HW113361   6.759   5.073   4.203
 4154SOL    HW213362   6.673   5.019   4.331
 4155SOL     OW13363   0.127   0.755   1.000
 4155SOL    HW113364   0.216   0.776   0.960
 4155SOL    HW213365   0.126   0.785   1.096
 4156SOL     OW13366   6.251   5.450   5.387
 4156SOL    HW113367   6.285   5.479   5.298
 4156SOL    HW213368   6.168   5.502   5.409
 4157SOL     OW13369   5.520   5.572   4.177
 4157SOL    HW113370   5.473   5.494   4.135
 4157SOL    HW213371   5.471   5.656   4.154
 4158SOL     OW13372   0.802   3.069   2.344
 4158SOL    HW113373   0.863   3.106   2.414
 4158SOL    HW213374   0.734   3.010   2.387
 4159SOL     OW13375   1.438   3.282   3.249
 4159SOL    HW113376   1.441   3.209   3.181
 4159SOL    HW213377   1.358   3.340   3.233
 4160SOL     OW13378   5.120   0.323   0.071
 4160SOL    HW113379   5.184   0.298   7.021
 4160SOL    HW213380   5.140   0.416   0.102
 4161SOL     OW13381   0.995   2.047   0.766
 4161SOL    HW113382   1.060   2.021   0.694
 4161SOL    HW213383   1.045   2.087   0.843
 4162SOL     OW13384   6.056   6.144   0.407
 4162SOL    HW113385   5.978   6.205   0.390
 4162SOL    HW213386   6.023   6.052   0.427
 4163SOL     OW13387   5.358   0.474   3.797
 4163SOL    HW113388   5.345   0.403   3.866
 4163SOL    HW213389   5.442   0.455   3.746
 4164SOL     OW13390   1.987   6.729   5.167
 4164SOL    HW113391   2.031   6.691   5.086
 4164SOL    HW213392   1.930   6.660   5.211
 4165SOL     OW13393   4.071   0.264   5.730
 4165SOL    HW113394   4.062   0.279   5.632
 4165SOL    HW213395   4.121   0.178   5.746
 4166SOL     OW13396   5.487   1.121   0.622
 4166SOL    HW113397   5.563   1.056   0.625
 4166SOL    HW213398   5.403   1.073   0.596
 4167SOL     OW13399   3.277   4.011   0.045
 4167SOL    HW113400   3.273   4.072   0.123
 4167SOL    HW213401   3.361   4.028   7.016
 4168SOL     OW13402   0.346   4.089   1.295
 4168SOL    HW113403   0.381   3.996   1.281
 4168SOL    HW213404   0.253   4.095   1.261
 4169SOL     OW13405   6.240   5.001   4.497
 4169SOL    HW113406   6.218   5.092   4.463
 4169SOL    HW213407   6.267   5.007   4.594
 4170SOL     OW13408   4.506   3.384   6.245
 4170SOL    HW113409   4.448   3.308   6.218
 4170SOL    HW213410   4.496   3.459   6.180
 4171SOL     OW13411   6.100   5.602   0.906
 4171SOL    HW113412   6.082   5.635   0.814
 4171SOL    HW213413   6.016   5.608   0.960
 4172SOL     OW13414   1.914   1.795   6.435
 4172SOL    HW113415   1.897   1.744   6.519
 4172SOL    HW213416   1.858   1.758   6.361
 4173SOL     OW13417   5.351   3.703   4.556
 4173SOL    HW113418   5.344   3.698   4.456
 4173SOL    HW213419   5.354   3.610   4.594
 4174SOL     OW13420   4.543   1.232   2.728
 4174SOL    HW113421   4.474   1.269   2.665
 4174SOL    HW213422   4.634   1.248   2.690
 4175SOL     OW13423   1.860   4.961   4.251
 4175SOL    HW113424   1.860   5.021   4.331
 4175SOL    HW213425   1.807   5.003   4.177
 4176SOL     OW13426   4.215   6.404   1.433
 4176SOL    HW113427   4.137   6.425   1.373
 4176SOL    HW213428   4.216   6.305   1.452
 4177SOL     OW13429   6.033   5.026   5.757
 4177SOL    HW113430   6.041   4.975   5.843
 4177SOL    HW213431   6.081   4.978   5.684
 4178SOL     OW13432   4.143   6.581   4.100
 4178SOL    HW113433   4.085   6.646   4.050
 4178SOL    HW213434   4.235   6.619   4.109
 4179SOL     OW13435   5.406   3.384   2.934
 4179SOL    HW113436   5.443   3.295   2.904
 4179SOL    HW213437   5.331   3.368   2.999
 4180SOL     OW13438   3.960   3.606   0.835
 4180SOL    HW113439   4.032   3.621   0.766
 4180SOL    HW213440   3.871   3.623   0.793
 4181SOL     OW13441   3.932   0.834   6.783
 4181SOL    HW113442   3.891   0.775   6.853
 4181SOL    HW213443   3.914   0.930   6.806
 4182SOL     OW13444   0.659   5.944   3.685
 4182SOL    HW113445   0.742   5.920   3.736
 4182SOL    HW213446   0.638   6.041   3.701
 4183SOL     OW13447   3.146   1.652   7.001
 4183SOL    HW113448   3.183   1.630   6.911
 4183SOL    HW213449   3.084   1.579   0.008
 4184SOL     OW13450   3.293   6.909   2.937
 4184SOL    HW113451   3.242   6.995   2.942
 4184SOL    HW213452   3.366   6.918   2.869
 4185SOL     OW13453   1.247   4.886   3.155
 4185SOL    HW113454   1.196   4.960   3.112
 4185SOL    HW213455   1.241   4.895   3.254
 4186SOL     OW13456   2.817   4.775   6.775
 4186SOL    HW113457   2.783   4.839   6.845
 4186SOL    HW213458   2.895   4.724   6.812
 4187SOL     OW13459   3.599   3.758   5.617
 4187SOL    HW113460   3.603   3.811   5.702
 4187SOL    HW213461   3.512   3.710   5.611
 4188SOL     OW13462   5.436   0.889   5.277
 4188SOL    HW113463   5.425   0.855   5.184
 4188SOL    HW213464   5.479   0.819   5.334
 4189SOL     OW13465   3.140   5.189   4.757
 4189SOL    HW113466   3.080   5.196   4.678
 4189SOL    HW213467   3.102   5.243   4.833
 4190SOL     OW13468   0.982   0.715   0.718
 4190SOL    HW113469   1.021   0.792   0.668
 4190SOL    HW213470   0.884   0.729   0.732
 4191SOL     OW13471   4.999   4.268   3.422
 4191SOL    HW113472   4.937   4.346   3.419
 4191SOL    HW213473   5.075   4.283   3.358
 4192SOL     OW13474   0.766   1.191   3.680
 4192SOL    HW113475   0.738   1.161   3.771
 4192SOL    HW213476   0.793   1.287   3.683
 4193SOL     OW13477   6.579   0.678   1.059
 4193SOL    HW113478   6.637   0.617   1.114
 4193SOL    HW213479   6.607   0.673   0.963
 4194SOL     OW13480   5.356   0.227   4.691
 4194SOL    HW113481   5.450   0.260   4.705
 4194SOL    HW213482   5.303   0.244   4.774
 4195SOL     OW13483   4.033   6.505   1.244
 4195SOL    HW113484   3.970   6.442   1.199
 4195SOL    HW213485   4.030   6.594   1.199
 4196SOL     OW13486   5.876   2.349   2.272
 4196SOL    HW113487   5.799   2.305   2.317
 4196SOL    HW213488   5.951   2.284   2.260
 4197SOL     OW13489   4.645   5.125   5.593
 4197SOL    HW113490   4.600   5.081   5.672
 4197SOL    HW213491   4.702   5.200   5.625
 4198SOL     OW13492   6.293   2.110   0.503
 4198SOL    HW113493   6.205   2.093   0.548
 4198SOL    HW213494   6.366   2.101   0.570
 4199SOL     OW13495   1.769   1.866   6.044
 4199SOL    HW113496   1.760   1.917   6.129
 4199SOL    HW213497   1.863   1.870   6.012
 4200SOL     OW13498   3.158   0.626   5.937
 4200SOL    HW113499   3.253   0.634   5.908
 4200SOL    HW213500   3.150   0.648   6.034
 4201SOL     OW13501   5.877   6.662   3.704
 4201SOL    HW113502   5.790   6.655   3.753
 4201SOL    HW213503   5.912   6.755   3.713
 4202SOL     OW13504   3.514   5.852   5.706
 4202SOL    HW113505   3.591   5.890   5.655
 4202SOL    HW213506   3.516   5.753   5.700
 4203SOL     OW13507   3.683   4.729   6.823
 4203SOL    HW113508   3.583   4.724   6.823
 4203SOL    HW213509   3.713   4.795   6.754
 4204SOL     OW13510   4.053   3.695   3.501
 4204SOL    HW113511   3.954   3.699   3.490
 4204SOL    HW213512   4.097   3.734   3.421
 4205SOL     OW13513   4.293   5.819   3.523
 4205SOL    HW113514   4.213   5.864   3.483
 4205SOL    HW213515   4.268   5.727   3.554
 4206SOL     OW13516   6.658   0.397   5.464
 4206SOL    HW113517   6.666   0.298   5.479
 4206SOL    HW213518   6.584   0.433   5.521
 4207SOL     OW13519   1.958   1.762   1.527
 4207SOL    HW113520   2.031   1.815   1.569
 4207SOL    HW213521   1.985   1.735   1.435
 4208SOL     OW13522   0.010   3.003   5.467
 4208SOL    HW113523   0.090   2.955   5.503
 4208SOL    HW213524   0.035   3.048   5.381
 4209SOL     OW13525   6.636   0.727   3.762
 4209SOL    HW113526   6.674   0.682   3.681
 4209SOL    HW213527   6.575   0.665   3.810
 4210SOL     OW13528   3.845   2.946   2.300
 4210SOL    HW113529   3.842   3.036   2.343
 4210SOL    HW213530   3.885   2.880   2.364
 4211SOL     OW13531   4.358   6.589   6.249
 4211SOL    HW113532   4.268   6.558   6.281
 4211SOL    HW213533   4.371   6.561   6.154
 4212SOL     OW13534   6.163   1.906   2.643
 4212SOL    HW113535   6.169   1.816   2.686
 4212SOL    HW213536   6.070   1.941   2.653
 4213SOL     OW13537   1.898   0.400   1.399
 4213SOL    HW113538   1.947   0.487   1.405
 4213SOL    HW213539   1.960   0.325   1.420
 4214SOL     OW13540   1.139   5.217   5.467
 4214SOL    HW113541   1.098   5.159   5.397
 4214SOL    HW213542   1.236   5.230   5.447
 4215SOL     OW13543   5.044   0.148   5.728
 4215SOL    HW113544   4.974   0.089   5.769
 4215SOL    HW213545   5.004   0.236   5.703
 4216SOL     OW13546   1.960   1.505   2.681
 4216SOL    HW113547   1.931   1.592   2.720
 4216SOL    HW213548   1.987   1.518   2.585
 4217SOL     OW13549   1.228   0.422   2.402
 4217SOL    HW113550   1.132   0.395   2.402
 4217SOL    HW213551   1.285   0.340   2.417
 4218SOL     OW13552   4.123   1.108   1.855
 4218SOL    HW113553   4.124   1.168   1.936
 4218SOL    HW213554   4.059   1.033   1.870
 4219SOL     OW13555   3.933   6.136   3.901
 4219SOL    HW113556   3.914   6.219   3.850
 4219SOL    HW213557   3.935   6.058   3.838
 4220SOL     OW13558   6.045   2.907   3.640
 4220SOL    HW113559   6.113   2.836   3.657
 4220SOL    HW213560   6.082   2.974   3.576
 4221SOL     OW13561   5.748   5.415   5.959
 4221SOL    HW113562   5.722   5.466   5.877
 4221SOL    HW213563   5.782   5.325   5.933
 4222SOL     OW13564   0.147   2.430   2.612
 4222SOL    HW113565   0.221   2.460   2.551
 4222SOL    HW213566   0.092   2.360   2.566
 4223SOL     OW13567   3.437   3.176   6.763
 4223SOL    HW113568   3.392   3.099   6.718
 4223SOL    HW213569   3.467   3.149   6.855
 4224SOL     OW13570   4.814   4.515   4.365
 4224SOL    HW113571   4.896   4.558   4.401
 4224SOL    HW213572   4.818   4.514   4.265
 4225SOL     OW13573   3.699   1.539   5.990
 4225SOL    HW113574   3.713   1.442   6.010
 4225SOL    HW213575   3.733   1.560   5.898
 4226SOL     OW13576   1.111   0.826   2.199
 4226SOL    HW113577   1.157   0.900   2.248
 4226SOL    HW213578   1.090   0.752   2.262
 4227SOL     OW13579   4.236   4.792   1.006
 4227SOL    HW113580   4.161   4.788   1.071
 4227SOL    HW213581   4.212   4.855   0.931
 4228SOL     OW13582   0.645   4.702   5.197
 4228SOL    HW113583   0.616   4.656   5.113
 4228SOL    HW213584   0.678   4.794   5.175
 4229SOL     OW13585   4.990   5.504   5.757
 4229SOL    HW113586   5.051   5.464   5.825
 4229SOL    HW213587   5.026   5.592   5.727
 4230SOL     OW13588   0.942   6.243   2.805
 4230SOL    HW113589   0.994   6.312   2.856
 4230SOL    HW213590   0.851   6.279   2.783
 4231SOL     OW13591   5.641   0.262   5.346
 4231SOL    HW113592   5.550   0.226   5.367
 4231SOL    HW213593   5.700   0.186   5.318
 4232SOL     OW13594   0.507   5.095   2.838
 4232SOL    HW113595   0.572   5.018   2.843
 4232SOL    HW213596   0.485   5.125   2.931
 4233SOL     OW13597   6.984   0.792   6.273
 4233SOL    HW113598   6.916   0.857   6.307
 4233SOL    HW213599   6.953   0.752   6.186
 4234SOL     OW13600   2.356   6.442   4.755
 4234SOL    HW113601   2.302   6.508   4.704
 4234SOL    HW213602   2.355   6.465   4.853
 4235SOL     OW13603   5.457   3.549   5.792
 4235SOL    HW113604   5.482   3.470   5.847
 4235SOL    HW213605   5.381   3.526   5.732
 4236SOL     OW13606   6.525   3.584   2.698
 4236SOL    HW113607   6.451   3.583   2.765
 4236SOL    HW213608   6.585   3.506   2.713
 4237SOL     OW13609   5.508   6.303   2.718
 4237SOL    HW113610   5.509   6.225   2.656
 4237SOL    HW213611   5.537   6.385   2.669
 4238SOL     OW13612   2.853   5.998   3.026
 4238SOL    HW113613   2.831   5.903   3.001
 4238SOL    HW213614   2.945   6.000   3.066
 4239SOL     OW13615   5.965   2.145   2.560
 4239SOL    HW113616   5.924   2.228   2.599
 4239SOL    HW213617   5.918   2.122   2.475
 4240SOL     OW13618   2.222   6.152   0.073
 4240SOL    HW113619   2.175   6.240   0.074
 4240SOL    HW213620   2.238   6.121   0.166
 4241SOL     OW13621   6.431   0.579   0.669
 4241SOL    HW113622   6.520   0.547   0.702
 4241SOL    HW213623   6.403   0.525   0.590
 4242SOL     OW13624   2.945   1.392   3.695
 4242SOL    HW113625   2.888   1.336   3.636
 4242SOL    HW213626   3.012   1.442   3.639
 4243SOL     OW13627   6.466   3.054   3.476
 4243SOL    HW113628   6.505   2.994   3.545
 4243SOL    HW213629   6.383   3.013   3.438
 4244SOL     OW13630   4.549   4.189   1.375
 4244SOL    HW113631   4.529   4.101   1.332
 4244SOL    HW213632   4.479   4.209   1.444
 4245SOL     OW13633   0.230   1.220   6.357
 4245SOL    HW113634   0.315   1.215   6.409
 4245SOL    HW213635   0.237   1.160   6.277
 4246SOL     OW13636   6.813   4.096   3.511
 4246SOL    HW113637   6.852   4.130   3.597
 4246SOL    HW213638   6.841   4.001   3.497
 4247SOL     OW13639   3.047   5.858   3.575
 4247SOL    HW113640   3.067   5.789   3.506
 4247SOL    HW213641   3.119   5.859   3.645
 4248SOL     OW13642   2.924   2.080   3.220
 4248SOL    HW113643   2.850   2.103   3.282
 4248SOL    HW213644   2.889   2.074   3.127
 4249SOL     OW13645   5.594   2.390   3.486
 4249SOL    HW113646   5.504   2.410   3.446
 4249SOL    HW213647   5.644   2.328   3.426
 4250SOL     OW13648   6.147   4.557   2.541
 4250SOL    HW113649   6.203   4.567   2.623
 4250SOL    HW213650   6.130   4.647   2.502
 4251SOL     OW13651   5.438   4.410   1.922
 4251SOL    HW113652   5.359   4.468   1.905
 4251SOL    HW213653   5.441   4.337   1.854
 4252SOL     OW13654   5.209   6.800   6.616
 4252SOL    HW113655   5.144   6.819   6.542
 4252SOL    HW213656   5.266   6.722   6.591
 4253SOL     OW13657   3.190   0.329   0.804
 4253SOL    HW113658   3.232   0.238   0.809
 4253SOL    HW213659   3.242   0.393   0.860
 4254SOL     OW13660   1.098   3.643   1.822
 4254SOL    HW113661   1.071   3.661   1.917
 4254SOL    HW213662   1.131   3.727   1.781
 4255SOL     OW13663   6.805   3.932   3.830
 4255SOL    HW113664   6.899   3.962   3.844
 4255SOL    HW213665   6.743   3.994   3.879
 4256SOL     OW13666   1.928   6.289   0.523
 4256SOL    HW113667   1.837   6.275   0.484
 4256SOL    HW213668   1.944   6.223   0.596
 4257SOL     OW13669   2.293   0.704   4.218
 4257SOL    HW113670   2.218   0.639   4.234
 4257SOL    HW213671   2.332   0.731   4.306
 4258SOL     OW13672   4.318   6.097   0.820
 4258SOL    HW113673   4.312   6.011   0.769
 4258SOL    HW213674   4.296   6.173   0.760
 4259SOL     OW13675   2.952   0.507   0.910
 4259SOL    HW113676   2.869   0.474   0.866
 4259SOL    HW213677   3.009   0.555   0.843
 4260SOL     OW13678   5.912   0.228   1.665
 4260SOL    HW113679   5.877   0.213   1.758
 4260SOL    HW213680   5.851   0.290   1.616
 4261SOL     OW13681   2.019   0.021   2.619
 4261SOL    HW113682   2.040   6.957   2.573
 4261SOL    HW213683   2.100   0.054   2.667
 4262SOL     OW13684   0.863   4.791   6.491
 4262SOL    HW113685   0.790   4.845   6.533
 4262SOL    HW213686   0.950   4.812   6.535
 4263SOL     OW13687   3.231   0.111   3.226
 4263SOL    HW113688   3.197   0.151   3.141
 4263SOL    HW213689   3.308   0.165   3.260
 4264SOL     OW13690   6.589   2.186   2.439
 4264SOL    HW113691   6.579   2.092   2.470
 4264SOL    HW213692   6.570   2.248   2.515
 4265SOL     OW13693   4.894   1.676   1.542
 4265SOL    HW113694   4.845   1.629   1.615
 4265SOL    HW213695   4.992   1.675   1.561
 4266SOL     OW13696   1.798   5.185   0.253
 4266SOL    HW113697   1.812   5.166   0.350
 4266SOL    HW213698   1.712   5.235   0.241
 4267SOL     OW13699   1.845   3.111   3.758
 4267SOL    HW113700   1.808   3.030   3.802
 4267SOL    HW213701   1.886   3.171   3.826
 4268SOL     OW13702   1.312   6.234   6.896
 4268SOL    HW113703   1.231   6.183   6.923
 4268SOL    HW213704   1.390   6.172   6.888
 4269SOL     OW13705   2.909   0.596   2.406
 4269SOL    HW113706   3.005   0.623   2.401
 4269SOL    HW213707   2.902   0.508   2.453
 4270SOL     OW13708   4.127   3.274   3.325
 4270SOL    HW113709   4.086   3.216   3.395
 4270SOL    HW213710   4.205   3.322   3.363
 4271SOL     OW13711   6.790   0.883   6.667
 4271SOL    HW113712   6.810   0.962   6.725
 4271SOL    HW213713   6.875   0.846   6.631
 4272SOL     OW13714   6.779   2.403   4.672
 4272SOL    HW113715   6.730   2.316   4.667
 4272SOL    HW213716   6.715   2.477   4.692
 4273SOL     OW13717   4.879   6.792   4.366
 4273SOL    HW113718   4.906   6.885   4.342
 4273SOL    HW213719   4.825   6.794   4.450
 4274SOL     OW13720   1.025   6.060   2.113
 4274SOL    HW113721   1.056   6.144   2.069
 4274SOL    HW213722   1.061   6.056   2.206
 4275SOL     OW13723   6.687   1.822   4.718
 4275SOL    HW113724   6.726   1.731   4.729
 4275SOL    HW213725   6.749   1.890   4.757
 4276SOL     OW13726   1.360   4.814   3.581
 4276SOL    HW113727   1.373   4.913   3.581
 4276SOL    HW213728   1.360   4.781   3.676
 4277SOL     OW13729   6.402   4.766   3.379
 4277SOL    HW113730   6.434   4.672   3.385
 4277SOL    HW213731   6.462   4.825   3.434
 4278SOL     OW13732   6.515   0.278   4.732
 4278SOL    HW113733   6.443   0.315   4.674
 4278SOL    HW213734   6.540   0.186   4.700
 4279SOL     OW13735   3.154   0.631   4.015
 4279SOL    HW113736   3.152   0.731   4.016
 4279SOL    HW213737   3.226   0.600   3.953
 4280SOL     OW13738   4.585   0.463   5.551
 4280SOL    HW113739   4.681   0.479   5.527
 4280SOL    HW213740   4.528   0.483   5.471
 4281SOL     OW13741   0.187   4.657   3.334
 4281SOL    HW113742   0.137   4.702   3.259
 4281SOL    HW213743   0.280   4.635   3.304
 4282SOL     OW13744   3.362   4.130   6.069
 4282SOL    HW113745   3.417   4.125   5.986
 4282SOL    HW213746   3.418   4.165   6.144
 4283SOL     OW13747   1.029   0.720   3.541
 4283SOL    HW113748   1.017   0.820   3.547
 4283SOL    HW213749   0.971   0.676   3.608
 4284SOL     OW13750   3.807   4.985   1.235
 4284SOL    HW113751   3.710   5.004   1.249
 4284SOL    HW213752   3.855   5.071   1.220
 4285SOL     OW13753   1.287   0.666   5.608
 4285SOL    HW113754   1.374   0.623   5.581
 4285SOL    HW213755   1.227   0.598   5.649
 4286SOL     OW13756   4.377   6.469   6.009
 4286SOL    HW113757   4.404   6.555   5.966
 4286SOL    HW213758   4.443   6.398   5.986
 4287SOL     OW13759   5.598   1.776   6.241
 4287SOL    HW113760   5.639   1.819   6.322
 4287SOL    HW213761   5.670   1.749   6.177
 4288SOL     OW13762   0.104   5.887   4.122
 4288SOL    HW113763   0.146   5.978   4.122
 4288SOL    HW213764   0.006   5.896   4.103
 4289SOL     OW13765   6.660   3.065   6.405
 4289SOL    HW113766   6.740   3.114   6.371
 4289SOL    HW213767   6.584   3.077   6.342
 4290SOL     OW13768   1.301   6.483   3.101
 4290SOL    HW113769   1.296   6.479   3.201
 4290SOL    HW213770   1.209   6.485   3.062
 4291SOL     OW13771   4.338   3.465   0.671
 4291SOL    HW113772   4.398   3.472   0.590
 4291SOL    HW213773   4.393   3.477   0.754
 4292SOL     OW13774   5.687   2.961   0.385
 4292SOL    HW113775   5.692   2.961   0.485
 4292SOL    HW213776   5.622   3.032   0.355
 4293SOL     OW13777   2.692   3.288   0.432
 4293SOL    HW113778   2.618   3.307   0.367
 4293SOL    HW213779   2.660   3.306   0.525
 4294SOL     OW13780   2.126   2.390   6.781
 4294SOL    HW113781   2.149   2.441   6.698
 4294SOL    HW213782   2.194   2.409   6.851
 4295SOL     OW13783   3.711   5.591   4.591
 4295SOL    HW113784   3.679   5.516   4.535
 4295SOL    HW213785   3.706   5.677   4.540
 4296SOL     OW13786   3.033   6.890   0.666
 4296SOL    HW113787   2.985   6.975   0.644
 4296SOL    HW213788   3.001   6.817   0.606
 4297SOL     OW13789   4.658   0.659   6.446
 4297SOL    HW113790   4.709   0.697   6.369
 4297SOL    HW213791   4.564   0.640   6.418
 4298SOL     OW13792   3.805   5.276   0.353
 4298SOL    HW113793   3.774   5.214   0.282
 4298SOL    HW213794   3.810   5.227   0.440
 4299SOL     OW13795   0.891   2.934   6.374
 4299SOL    HW113796   0.967   2.990   6.407
 4299SOL    HW213797   0.875   2.954   6.277
 4300SOL     OW13798   3.217   6.625   0.580
 4300SOL    HW113799   3.266   6.621   0.667
 4300SOL    HW213800   3.237   6.542   0.527
 4301SOL     OW13801   3.773   1.543   1.599
 4301SOL    HW113802   3.767   1.615   1.669
 4301SOL    HW213803   3.777   1.585   1.508
 4302SOL     OW13804   1.263   6.909   6.519
 4302SOL    HW113805   1.246   6.819   6.479
 4302SOL    HW213806   1.186   6.970   6.499
 4303SOL     OW13807   0.249   4.318   3.837
 4303SOL    HW113808   0.250   4.293   3.741
 4303SOL    HW213809   0.196   4.402   3.849
 4304SOL     OW13810   3.056   3.965   2.952
 4304SOL    HW113811   3.023   3.916   3.033
 4304SOL    HW213812   3.126   4.030   2.979
 4305SOL     OW13813   0.082   0.297   5.223
 4305SOL    HW113814   0.071   0.233   5.147
 4305SOL    HW213815   0.024   0.268   5.299
 4306SOL     OW13816   5.580   4.462   5.926
 4306SOL    HW113817   5.486   4.481   5.953
 4306SOL    HW213818   5.614   4.382   5.976
 4307SOL     OW13819   4.837   4.054   5.463
 4307SOL    HW113820   4.786   4.099   5.536
 4307SOL    HW213821   4.774   4.000   5.407
 4308SOL     OW13822   6.609   4.855   0.223
 4308SOL    HW113823   6.647   4.890   0.309
 4308SOL    HW213824   6.553   4.926   0.180
 4309SOL     OW13825   1.319   1.412   0.337
 4309SOL    HW113826   1.313   1.344   0.264
 4309SOL    HW213827   1.354   1.369   0.420
 4310SOL     OW13828   1.325   2.686   2.184
 4310SOL    HW113829   1.329   2.598   2.135
 4310SOL    HW213830   1.417   2.715   2.208
 4311SOL     OW13831   1.865   6.021   2.736
 4311SOL    HW113832   1.802   6.022   2.813
 4311SOL    HW213833   1.895   6.115   2.716
 4312SOL     OW13834   2.100   5.119   1.170
 4312SOL    HW113835   2.102   5.031   1.122
 4312SOL    HW213836   2.037   5.181   1.123
 4313SOL     OW13837   4.547   1.301   1.688
 4313SOL    HW113838   4.558   1.328   1.783
 4313SOL    HW213839   4.551   1.382   1.630
 4314SOL     OW13840   6.278   1.410   4.401
 4314SOL    HW113841   6.354   1.366   4.450
 4314SOL    HW213842   6.198   1.350   4.404
 4315SOL     OW13843   2.353   6.349   2.235
 4315SOL    HW113844   2.400   6.262   2.216
 4315SOL    HW213845   2.396   6.392   2.314
 4316SOL     OW13846   5.742   0.435   2.195
 4316SOL    HW113847   5.647   0.456   2.175
 4316SOL    HW213848   5.795   0.520   2.200
 4317SOL     OW13849   5.048   2.312   4.878
 4317SOL    HW113850   4.953   2.285   4.861
 4317SOL    HW213851   5.080   2.371   4.804
 4318SOL     OW13852   0.853   3.263   4.960
 4318SOL    HW113853   0.882   3.279   5.055
 4318SOL    HW213854   0.784   3.191   4.958
 4319SOL     OW13855   2.057   1.692   1.286
 4319SOL    HW113856   2.096   1.726   1.201
 4319SOL    HW213857   2.091   1.600   1.304
 4320SOL     OW13858   5.415   5.284   0.195
 4320SOL    HW113859   5.455   5.198   0.225
 4320SOL    HW213860   5.388   5.338   0.276
 4321SOL     OW13861   0.088   6.612   4.999
 4321SOL    HW113862   0.093   6.567   4.910
 4321SOL    HW213863   0.041   6.700   4.990
 4322SOL     OW13864   6.180   2.542   0.013
 4322SOL    HW113865   6.265   2.561   0.063
 4322SOL    HW213866   6.198   2.478   6.962
 4323SOL     OW13867   4.665   3.782   1.310
 4323SOL    HW113868   4.634   3.702   1.260
 4323SOL    HW213869   4.749   3.817   1.268
 4324SOL     OW13870   5.356   4.162   6.514
 4324SOL    HW113871   5.264   4.153   6.551
 4324SOL    HW213872   5.352   4.205   6.423
 4325SOL     OW13873   2.525   0.886   1.613
 4325SOL    HW113874   2.570   0.830   1.544
 4325SOL    HW213875   2.453   0.941   1.570
 4326SOL     OW13876   5.019   4.778   4.224
 4326SOL    HW113877   4.959   4.810   4.297
 4326SOL    HW213878   5.013   4.678   4.218
 4327SOL     OW13879   5.672   5.950   1.603
 4327SOL    HW113880   5.658   6.010   1.682
 4327SOL    HW213881   5.665   5.854   1.632
 4328SOL     OW13882   4.723   3.880   5.250
 4328SOL    HW113883   4.644   3.902   5.308
 4328SOL    HW213884   4.738   3.781   5.251
 4329SOL     OW13885   4.464   1.359   5.287
 4329SOL    HW113886   4.375   1.313   5.279
 4329SOL    HW213887   4.453   1.444   5.339
 4330SOL     OW13888   2.152   6.545   4.468
 4330SOL    HW113889   2.069   6.490   4.463
 4330SOL    HW213890   2.187   6.561   4.376
 4331SOL     OW13891   5.645   1.112   1.874
 4331SOL    HW113892   5.677   1.140   1.965
 4331SOL    HW213893   5.589   1.030   1.883
 4332SOL     OW13894   5.506   3.616   1.902
 4332SOL    HW113895   5.430   3.678   1.885
 4332SOL    HW213896   5.480   3.551   1.973
 4333SOL     OW13897   3.348   0.992   5.460
 4333SOL    HW113898   3.417   1.049   5.504
 4333SOL    HW213899   3.392   0.930   5.396
 4334SOL     OW13900   1.647   2.879   2.319
 4334SOL    HW113901   1.640   2.804   2.254
 4334SOL    HW213902   1.573   2.945   2.303
 4335SOL     OW13903   3.240   3.515   2.619
 4335SOL    HW113904   3.141   3.509   2.636
 4335SOL    HW213905   3.281   3.425   2.630
 4336SOL     OW13906   3.075   6.460   6.705
 4336SOL    HW113907   3.120   6.530   6.649
 4336SOL    HW213908   2.991   6.430   6.659
 4337SOL     OW13909   0.557   4.527   0.980
 4337SOL    HW113910   0.626   4.590   0.945
 4337SOL    HW213911   0.587   4.491   1.069
 4338SOL     OW13912   6.103   0.087   5.491
 4338SOL    HW113913   6.135   0.180   5.475
 4338SOL    HW213914   6.144   0.026   5.423
 4339SOL     OW13915   5.636   3.045   5.485
 4339SOL    HW113916   5.662   3.117   5.421
 4339SOL    HW213917   5.718   2.995   5.514
 4340SOL     OW13918   6.586   2.960   1.945
 4340SOL    HW113919   6.504   2.905   1.963
 4340SOL    HW213920   6.652   2.946   2.019
 4341SOL     OW13921   0.434   6.113   2.504
 4341SOL    HW113922   0.399   6.205   2.488
 4341SOL    HW213923   0.529   6.107   2.473
 4342SOL     OW13924   5.746   3.936   3.613
 4342SOL    HW113925   5.671   3.998   3.635
 4342SOL    HW213926   5.770   3.947   3.516
 4343SOL     OW13927   2.448   6.264   5.195
 4343SOL    HW113928   2.374   6.331   5.203
 4343SOL    HW213929   2.436   6.211   5.112
 4344SOL     OW13930   0.320   4.570   1.889
 4344SOL    HW113931   0.329   4.487   1.834
 4344SOL    HW213932   0.229   4.610   1.874
 4345SOL     OW13933   3.465   3.491   5.262
 4345SOL    HW113934   3.490   3.556   5.334
 4345SOL    HW213935   3.549   3.458   5.217
 4346SOL     OW13936   2.082   3.277   2.379
 4346SOL    HW113937   2.102   3.184   2.348
 4346SOL    HW213938   2.070   3.336   2.300
 4347SOL     OW13939   6.708   6.739   2.675
 4347SOL    HW113940   6.686   6.793   2.757
 4347SOL    HW213941   6.637   6.752   2.606
 4348SOL     OW13942   6.974   4.448   3.667
 4348SOL    HW113943   0.021   4.488   3.727
 4348SOL    HW213944   6.956   4.353   3.695
 4349SOL     OW13945   6.265   2.190   2.521
 4349SOL    HW113946   6.330   2.126   2.562
 4349SOL    HW213947   6.173   2.170   2.555
 4350SOL     OW13948   3.675   1.165   3.993
 4350SOL    HW113949   3.714   1.218   3.917
 4350SOL    HW213950   3.748   1.124   4.046
 4351SOL     OW13951   1.645   4.803   1.010
 4351SOL    HW113952   1.673   4.892   1.047
 4351SOL    HW213953   1.708   4.777   0.937
 4352SOL     OW13954   6.624   3.583   2.444
 4352SOL    HW113955   6.547   3.599   2.382
 4352SOL    HW213956   6.593   3.594   2.539
 4353SOL     OW13957   4.216   2.806   6.430
 4353SOL    HW113958   4.206   2.733   6.497
 4353SOL    HW213959   4.188   2.893   6.471
 4354SOL     OW13960   2.308   6.868   5.421
 4354SOL    HW113961   2.303   6.848   5.519
 4354SOL    HW213962   2.220   6.900   5.388
 4355SOL     OW13963   1.754   6.922   2.352
 4355SOL    HW113964   1.790   6.963   2.436
 4355SOL    HW213965   1.657   6.900   2.365
 4356SOL     OW13966   5.028   3.874   0.572
 4356SOL    HW113967   4.959   3.804   0.555
 4356SOL    HW213968   5.010   3.954   0.514
 4357SOL     OW13969   6.739   1.237   1.154
 4357SOL    HW113970   6.801   1.159   1.156
 4357SOL    HW213971   6.758   1.294   1.074
 4358SOL     OW13972   0.498   6.938   0.761
 4358SOL    HW113973   0.556   6.860   0.786
 4358SOL    HW213974   0.554   7.007   0.715
 4359SOL     OW13975   2.083   1.571   6.035
 4359SOL    HW113976   2.071   1.519   6.120
 4359SOL    HW213977   2.172   1.550   5.996
 4360SOL     OW13978   1.233   3.212   3.533
 4360SOL    HW113979   1.165   3.139   3.524
 4360SOL    HW213980   1.325   3.174   3.518
 4361SOL     OW13981   2.209   3.308   1.214
 4361SOL    HW113982   2.289   3.300   1.274
 4361SOL    HW213983   2.136   3.247   1.247
 4362SOL     OW13984   5.971   5.812   3.461
 4362SOL    HW113985   5.937   5.763   3.541
 4362SOL    HW213986   5.894   5.846   3.407
 4363SOL     OW13987   5.630   2.237   1.110
 4363SOL    HW113988   5.568   2.159   1.105
 4363SOL    HW213989   5.679   2.246   1.024
 4364SOL     OW13990   2.958   3.668   4.718
 4364SOL    HW113991   3.052   3.640   4.701
 4364SOL    HW213992   2.896   3.593   4.695
 4365SOL     OW13993   2.436   1.167   2.271
 4365SOL    HW113994   2.348   1.134   2.235
 4365SOL    HW213995   2.488   1.210   2.197
 4366SOL     OW13996   5.729   0.149   0.004
 4366SOL    HW113997   5.794   0.181   6.958
 4366SOL    HW213998   5.769   0.158   0.095
 4367SOL     OW13999   2.225   4.369   4.629
 4367SOL    HW114000   2.131   4.378   4.660
 4367SOL    HW214001   2.286   4.362   4.708
 4368SOL     OW14002   3.616   4.762   0.536
 4368SOL    HW114003   3.613   4.704   0.617
 4368SOL    HW214004   3.698   4.819   0.537
 4369SOL     OW14005   4.256   5.496   2.670
 4369SOL    HW114006   4.252   5.486   2.570
 4369SOL    HW214007   4.203   5.576   2.698
 4370SOL     OW14008   3.883   5.386   2.019
 4370SOL    HW114009   3.903   5.481   1.996
 4370SOL    HW214010   3.936   5.325   1.961
 4371SOL     OW14011   0.980   1.799   2.182
 4371SOL    HW114012   0.917   1.722   2.172
 4371SOL    HW214013   0.987   1.848   2.095
 4372SOL     OW14014   2.734   1.910   2.694
 4372SOL    HW114015   2.653   1.903   2.636
 4372SOL    HW214016   2.814   1.928   2.637
 4373SOL     OW14017   6.073   2.197   6.989
 4373SOL    HW114018   6.011   2.179   6.913
 4373SOL    HW214019   6.154   2.244   6.955
 4374SOL     OW14020   1.031   1.600   0.669
 4374SOL    HW114021   1.112   1.656   0.687
 4374SOL    HW214022   0.952   1.641   0.715
 4375SOL     OW14023   4.550   6.909   2.882
 4375SOL    HW114024   4.502   6.848   2.819
 4375SOL    HW214025   4.531   6.883   2.976
 4376SOL     OW14026   0.360   6.674   1.806
 4376SOL    HW114027   0.302   6.696   1.884
 4376SOL    HW214028   0.414   6.755   1.780
 4377SOL     OW14029   5.621   4.546   6.944
 4377SOL    HW114030   5.551   4.582   7.006
 4377SOL    HW214031   5.709   4.544   6.991
 4378SOL     OW14032   2.121   2.747   2.780
 4378SOL    HW114033   2.216   2.749   2.811
 4378SOL    HW214034   2.076   2.833   2.805
 4379SOL     OW14035   1.494   2.540   2.471
 4379SOL    HW114036   1.587   2.520   2.440
 4379SOL    HW214037   1.430   2.477   2.427
 4380SOL     OW14038   1.086   6.739   2.797
 4380SOL    HW114039   1.020   6.788   2.739
 4380SOL    HW214040   1.154   6.804   2.832
 4381SOL     OW14041   1.541   4.767   5.159
 4381SOL    HW114042   1.571   4.734   5.070
 4381SOL    HW214043   1.485   4.697   5.203
 4382SOL     OW14044   6.913   3.310   5.209
 4382SOL    HW114045   6.993   3.352   5.253
 4382SOL    HW214046   6.864   3.380   5.157
 4383SOL     OW14047   0.756   2.701   6.109
 4383SOL    HW114048   0.729   2.789   6.148
 4383SOL    HW214049   0.696   2.629   6.144
 4384SOL     OW14050   6.165   1.733   5.276
 4384SOL    HW114051   6.242   1.669   5.271
 4384SOL    HW214052   6.178   1.794   5.354
 4385SOL     OW14053   6.046   2.502   4.992
 4385SOL    HW114054   6.024   2.421   5.046
 4385SOL    HW214055   6.118   2.555   5.039
 4386SOL     OW14056   2.409   3.260   6.475
 4386SOL    HW114057   2.463   3.270   6.391
 4386SOL    HW214058   2.450   3.316   6.547
 4387SOL     OW14059   6.833   1.389   0.909
 4387SOL    HW114060   6.735   1.408   0.901
 4387SOL    HW214061   6.884   1.455   0.855
 4388SOL     OW14062   5.102   2.465   6.711
 4388SOL    HW114063   5.072   2.370   6.722
 4388SOL    HW214064   5.105   2.487   6.614
 4389SOL     OW14065   6.597   3.422   0.686
 4389SOL    HW114066   6.589   3.357   0.611
 4389SOL    HW214067   6.683   3.473   0.677
 4390SOL     OW14068   3.782   0.947   1.422
 4390SOL    HW114069   3.769   0.962   1.520
 4390SOL    HW214070   3.857   1.005   1.389
 4391SOL     OW14071   2.115   5.690   6.902
 4391SOL    HW114072   2.086   5.773   6.950
 4391SOL    HW214073   2.205   5.661   6.936
 4392SOL     OW14074   6.954   2.770   4.553
 4392SOL    HW114075   0.009   2.732   4.604
 4392SOL    HW214076   6.972   2.866   4.531
 4393SOL     OW14077   5.688   0.812   2.448
 4393SOL    HW114078   5.703   0.725   2.495
 4393SOL    HW214079   5.775   0.848   2.416
 4394SOL     OW14080   6.592   5.872   2.280
 4394SOL    HW114081   6.602   5.878   2.379
 4394SOL    HW214082   6.640   5.791   2.246
 4395SOL     OW14083   2.788   6.571   2.284
 4395SOL    HW114084   2.888   6.561   2.277
 4395SOL    HW214085   2.745   6.533   2.203
 4396SOL     OW14086   2.132   2.244   3.598
 4396SOL    HW114087   2.108   2.150   3.571
 4396SOL    HW214088   2.182   2.287   3.523
 4397SOL     OW14089   0.095   1.420   4.740
 4397SOL    HW114090   0.010   1.390   4.698
 4397SOL    HW214091   0.091   1.402   4.839
 4398SOL     OW14092   0.399   3.828   5.638
 4398SOL    HW114093   0.480   3.878   5.669
 4398SOL    HW214094   0.377   3.757   5.706
 4399SOL     OW14095   2.570   0.206   1.818
 4399SOL    HW114096   2.601   0.237   1.728
 4399SOL    HW214097   2.486   0.152   1.807
 4400SOL     OW14098   3.144   6.254   5.302
 4400SOL    HW114099   3.120   6.236   5.397
 4400SOL    HW214100   3.067   6.298   5.256
 4401SOL     OW14101   3.752   6.686   6.194
 4401SOL    HW114102   3.663   6.729   6.202
 4401SOL    HW214103   3.790   6.705   6.103
 4402SOL     OW14104   2.671   0.418   1.977
 4402SOL    HW114105   2.625   0.344   1.928
 4402SOL    HW214106   2.608   0.456   2.045
 4403SOL     OW14107   1.360   0.466   1.587
 4403SOL    HW114108   1.454   0.502   1.586
 4403SOL    HW214109   1.308   0.511   1.660
 4404SOL     OW14110   1.536   4.700   5.522
 4404SOL    HW114111   1.530   4.620   5.582
 4404SOL    HW214112   1.619   4.694   5.467
 4405SOL     OW14113   1.683   3.893   0.773
 4405SOL    HW114114   1.765   3.852   0.733
 4405SOL    HW214115   1.669   3.984   0.735
 4406SOL     OW14116   0.550   3.687   0.597
 4406SOL    HW114117   0.491   3.688   0.516
 4406SOL    HW214118   0.619   3.759   0.590
 4407SOL     OW14119   6.452   5.077   0.140
 4407SOL    HW114120   6.414   5.101   0.051
 4407SOL    HW214121   6.525   5.141   0.163
 4408SOL     OW14122   3.245   0.842   1.018
 4408SOL    HW114123   3.309   0.766   1.008
 4408SOL    HW214124   3.202   0.862   0.931
 4409SOL     OW14125   5.033   1.192   2.699
 4409SOL    HW114126   5.125   1.229   2.712
 4409SOL    HW214127   5.039   1.099   2.664
 4410SOL     OW14128   1.118   4.975   0.065
 4410SOL    HW114129   1.177   4.955   7.010
 4410SOL    HW214130   1.026   4.997   0.033
 4411SOL     OW14131   3.876   4.086   4.825
 4411SOL    HW114132   3.899   4.000   4.779
 4411SOL    HW214133   3.939   4.158   4.795
 4412SOL     OW14134   4.319   6.146   4.883
 4412SOL    HW114135   4.344   6.154   4.786
 4412SOL    HW214136   4.228   6.105   4.890
 4413SOL     OW14137   6.248   4.786   4.315
 4413SOL    HW114138   6.251   4.874   4.363
 4413SOL    HW214139   6.162   4.739   4.336
 4414SOL     OW14140   3.116   5.253   0.947
 4414SOL    HW114141   3.194   5.191   0.957
 4414SOL    HW214142   3.107   5.280   0.852
 4415SOL     OW14143   3.975   2.678   0.630
 4415SOL    HW114144   3.908   2.744   0.664
 4415SOL    HW214145   3.994   2.696   0.533
 4416SOL     OW14146   3.999   0.923   4.296
 4416SOL    HW114147   4.028   1.017   4.314
 4416SOL    HW214148   3.920   0.901   4.353
 4417SOL     OW14149   5.399   4.274   3.441
 4417SOL    HW114150   5.438   4.262   3.349
 4417SOL    HW214151   5.469   4.256   3.510
 4418SOL     OW14152   6.062   2.001   2.247
 4418SOL    HW114153   6.089   2.075   2.185
 4418SOL    HW214154   6.140   1.940   2.262
 4419SOL     OW14155   5.663   6.485   6.422
 4419SOL    HW114156   5.649   6.521   6.330
 4419SOL    HW214157   5.577   6.491   6.473
 4420SOL     OW14158   5.110   0.737   1.948
 4420SOL    HW114159   5.046   0.687   1.890
 4420SOL    HW214160   5.185   0.772   1.893
 4421SOL     OW14161   2.566   1.256   5.245
 4421SOL    HW114162   2.541   1.330   5.308
 4421SOL    HW214163   2.650   1.212   5.277
 4422SOL     OW14164   2.384   3.816   0.210
 4422SOL    HW114165   2.383   3.763   0.125
 4422SOL    HW214166   2.345   3.906   0.193
 4423SOL     OW14167   0.318   3.356   5.948
 4423SOL    HW114168   0.223   3.371   5.921
 4423SOL    HW214169   0.348   3.266   5.915
 4424SOL     OW14170   5.674   1.288   4.235
 4424SOL    HW114171   5.690   1.224   4.311
 4424SOL    HW214172   5.582   1.273   4.198
 4425SOL     OW14173   2.728   4.257   0.423
 4425SOL    HW114174   2.719   4.310   0.338
 4425SOL    HW214175   2.824   4.233   0.438
 4426SOL     OW14176   0.020   1.709   3.909
 4426SOL    HW114177   7.018   1.736   3.815
 4426SOL    HW214178   6.961   1.679   3.957
 4427SOL     OW14179   0.639   6.457   2.920
 4427SOL    HW114180   0.685   6.544   2.899
 4427SOL    HW214181   0.649   6.395   2.842
 4428SOL     OW14182   3.369   0.515   3.190
 4428SOL    HW114183   3.287   0.520   3.134
 4428SOL    HW214184   3.380   0.601   3.240
 4429SOL     OW14185   2.852   6.781   3.040
 4429SOL    HW114186   2.794   6.798   3.119
 4429SOL    HW214187   2.879   6.685   3.039
 4430SOL     OW14188   4.937   3.983   4.825
 4430SOL    HW114189   4.928   3.921   4.902
 4430SOL    HW214190   5.033   4.008   4.813
 4431SOL     OW14191   2.412   1.286   1.855
 4431SOL    HW114192   2.473   1.271   1.933
 4431SOL    HW214193   2.435   1.372   1.810
 4432SOL     OW14194   2.491   3.236   6.227
 4432SOL    HW114195   2.574   3.232   6.172
 4432SOL    HW214196   2.416   3.191   6.179
 4433SOL     OW14197   5.134   2.009   4.230
 4433SOL    HW114198   5.095   2.069   4.161
 4433SOL    HW214199   5.140   2.057   4.317
 4434SOL     OW14200   5.432   1.565   3.009
 4434SOL    HW114201   5.360   1.593   3.073
 4434SOL    HW214202   5.496   1.640   2.996
 4435SOL     OW14203   5.299   3.009   1.548
 4435SOL    HW114204   5.287   3.108   1.543
 4435SOL    HW214205   5.237   2.965   1.483
 4436SOL     OW14206   4.130   1.229   1.601
 4436SOL    HW114207   4.033   1.233   1.581
 4436SOL    HW214208   4.145   1.175   1.684
 4437SOL     OW14209   6.869   2.116   2.851
 4437SOL    HW114210   6.924   2.084   2.774
 4437SOL    HW214211   6.773   2.094   2.835
 4438SOL     OW14212   5.019   6.713   6.802
 4438SOL    HW114213   4.931   6.684   6.765
 4438SOL    HW214214   5.076   6.752   6.729
 4439SOL     OW14215   0.019   4.308   1.535
 4439SOL    HW114216   6.947   4.284   1.559
 4439SOL    HW214217   0.074   4.312   1.618
 4440SOL     OW14218   2.518   4.476   0.453
 4440SOL    HW114219   2.548   4.410   0.522
 4440SOL    HW214220   2.445   4.437   0.398
 4441SOL     OW14221   0.152   1.940   2.845
 4441SOL    HW114222   0.073   1.884   2.821
 4441SOL    HW214223   0.224   1.882   2.883
 4442SOL     OW14224   2.307   5.220   4.294
 4442SOL    HW114225   2.215   5.259   4.295
 4442SOL    HW214226   2.302   5.121   4.306
 4443SOL     OW14227   0.839   3.643   6.733
 4443SOL    HW114228   0.893   3.561   6.717
 4443SOL    HW214229   0.744   3.626   6.707
 4444SOL     OW14230   3.161   4.091   5.006
 4444SOL    HW114231   3.084   4.075   5.068
 4444SOL    HW214232   3.132   4.153   4.933
 4445SOL     OW14233   1.542   6.714   0.428
 4445SOL    HW114234   1.527   6.776   0.505
 4445SOL    HW214235   1.625   6.741   0.379
 4446SOL     OW14236   5.171   0.944   1.564
 4446SOL    HW114237   5.120   0.869   1.522
 4446SOL    HW214238   5.223   0.910   1.642
 4447SOL     OW14239   5.938   4.196   5.866
 4447SOL    HW114240   6.035   4.218   5.859
 4447SOL    HW214241   5.922   4.105   5.828
 4448SOL     OW14242   2.428   3.941   1.535
 4448SOL    HW114243   2.465   3.870   1.594
 4448SOL    HW214244   2.473   4.028   1.555
 4449SOL     OW14245   5.103   0.739   6.193
 4449SOL    HW114246   5.178   0.686   6.153
 4449SOL    HW214247   5.139   0.807   6.257
 4450SOL     OW14248   3.322   3.044   5.450
 4450SOL    HW114249   3.388   3.009   5.518
 4450SOL    HW214250   3.365   3.116   5.396
 4451SOL     OW14251   6.591   4.584   2.754
 4451SOL    HW114252   6.604   4.619   2.847
 4451SOL    HW214253   6.620   4.489   2.750
 4452SOL     OW14254   5.107   6.370   4.468
 4452SOL    HW114255   5.065   6.458   4.493
 4452SOL    HW214256   5.038   6.309   4.430
 4453SOL     OW14257   1.087   2.939   1.606
 4453SOL    HW114258   1.058   2.988   1.523
 4453SOL    HW214259   1.170   2.887   1.587
 4454SOL     OW14260   1.803   1.917   0.083
 4454SOL    HW114261   1.731   1.892   0.149
 4454SOL    HW214262   1.885   1.946   0.133
 4455SOL     OW14263   4.249   6.221   5.913
 4455SOL    HW114264   4.280   6.242   6.006
 4455SOL    HW214265   4.318   6.163   5.868
 4456SOL     OW14266   3.015   6.288   2.158
 4456SOL    HW114267   3.005   6.327   2.066
 4456SOL    HW214268   3.102   6.238   2.164
 4457SOL     OW14269   4.208   1.071   2.566
 4457SOL    HW114270   4.173   1.049   2.475
 4457SOL    HW214271   4.173   1.160   2.595
 4458SOL     OW14272   1.913   2.310   0.728
 4458SOL    HW114273   1.871   2.377   0.790
 4458SOL    HW214274   1.908   2.219   0.769
 4459SOL     OW14275   4.169   1.197   4.275
 4459SOL    HW114276   4.097   1.226   4.339
 4459SOL    HW214277   4.240   1.147   4.325
 4460SOL     OW14278   2.196   2.740   6.010
 4460SOL    HW114279   2.275   2.797   6.031
 4460SOL    HW214280   2.221   2.670   5.944
 4461SOL     OW14281   1.336   7.017   0.986
 4461SOL    HW114282   1.348   0.070   0.922
 4461SOL    HW214283   1.246   0.001   1.029
 4462SOL     OW14284   5.746   5.296   1.566
 4462SOL    HW114285   5.834   5.248   1.559
 4462SOL    HW214286   5.674   5.231   1.590
 4463SOL     OW14287   5.025   1.307   0.933
 4463SOL    HW114288   5.112   1.283   0.976
 4463SOL    HW214289   5.023   1.405   0.913
 4464SOL     OW14290   0.460   5.507   0.557
 4464SOL    HW114291   0.375   5.494   0.608
 4464SOL    HW214292   0.493   5.600   0.571
 4465SOL     OW14293   3.326   5.748   1.551
 4465SOL    HW114294   3.229   5.722   1.551
 4465SOL    HW214295   3.333   5.848   1.558
 4466SOL     OW14296   1.537   1.921   3.415
 4466SOL    HW114297   1.439   1.943   3.416
 4466SOL    HW214298   1.550   1.827   3.446
 4467SOL     OW14299   2.084   5.897   2.647
 4467SOL    HW114300   2.124   5.836   2.716
 4467SOL    HW214301   1.995   5.929   2.679
 4468SOL     OW14302   1.950   3.639   0.389
 4468SOL    HW114303   1.920   3.691   0.470
 4468SOL    HW214304   1.873   3.588   0.352
 4469SOL     OW14305   3.275   0.509   1.569
 4469SOL    HW114306   3.207   0.579   1.549
 4469SOL    HW214307   3.364   0.539   1.534
 4470SOL     OW14308   6.713   2.443   2.265
 4470SOL    HW114309   6.760   2.476   2.347
 4470SOL    HW214310   6.619   2.418   2.287
 4471SOL     OW14311   0.803   2.382   6.398
 4471SOL    HW114312   0.789   2.468   6.447
 4471SOL    HW214313   0.896   2.379   6.362
 4472SOL     OW14314   1.228   3.404   1.853
 4472SOL    HW114315   1.165   3.481   1.852
 4472SOL    HW214316   1.196   3.336   1.919
 4473SOL     OW14317   5.803   2.828   4.452
 4473SOL    HW114318   5.707   2.845   4.477
 4473SOL    HW214319   5.848   2.916   4.435
 4474SOL     OW14320   2.113   0.619   2.292
 4474SOL    HW114321   2.140   0.637   2.387
 4474SOL    HW214322   2.078   0.703   2.250
 4475SOL     OW14323   1.362   4.154   2.449
 4475SOL    HW114324   1.428   4.209   2.501
 4475SOL    HW214325   1.275   4.152   2.498
 4476SOL     OW14326   5.078   0.063   3.375
 4476SOL    HW114327   5.065   0.095   3.468
 4476SOL    HW214328   5.045   6.992   3.366
 4477SOL     OW14329   2.018   6.539   4.915
 4477SOL    HW114330   1.925   6.508   4.934
 4477SOL    HW214331   2.083   6.478   4.961
 4478SOL     OW14332   3.503   0.112   3.011
 4478SOL    HW114333   3.459   0.084   3.096
 4478SOL    HW214334   3.496   0.038   2.944
 4479SOL     OW14335   0.537   1.597   0.770
 4479SOL    HW114336   0.535   1.635   0.862
 4479SOL    HW214337   0.622   1.624   0.724
 4480SOL     OW14338   1.042   4.454   5.097
 4480SOL    HW114339   1.032   4.553   5.092
 4480SOL    HW214340   1.139   4.430   5.086
 4481SOL     OW14341   3.576   5.941   4.804
 4481SOL    HW114342   3.638   5.973   4.732
 4481SOL    HW214343   3.623   5.873   4.861
 4482SOL     OW14344   1.552   2.982   4.923
 4482SOL    HW114345   1.548   2.892   4.878
 4482SOL    HW214346   1.630   3.034   4.888
 4483SOL     OW14347   5.578   2.845   2.328
 4483SOL    HW114348   5.566   2.883   2.236
 4483SOL    HW214349   5.501   2.874   2.385
 4484SOL     OW14350   2.881   2.242   6.161
 4484SOL    HW114351   2.930   2.190   6.091
 4484SOL    HW214352   2.946   2.289   6.220
 4485SOL     OW14353   5.319   1.862   4.509
 4485SOL    HW114354   5.363   1.789   4.455
 4485SOL    HW214355   5.365   1.949   4.492
 4486SOL     OW14356   5.591   4.802   5.366
 4486SOL    HW114357   5.637   4.716   5.344
 4486SOL    HW214358   5.652   4.860   5.420
 4487SOL     OW14359   2.794   2.790   6.553
 4487SOL    HW114360   2.739   2.721   6.601
 4487SOL    HW214361   2.815   2.865   6.615
 4488SOL     OW14362   0.678   3.361   5.796
 4488SOL    HW114363   0.758   3.420   5.802
 4488SOL    HW214364   0.609   3.404   5.737
 4489SOL     OW14365   5.473   5.449   5.242
 4489SOL    HW114366   5.492   5.382   5.315
 4489SOL    HW214367   5.504   5.539   5.271
 4490SOL     OW14368   6.290   2.367   1.656
 4490SOL    HW114369   6.305   2.270   1.637
 4490SOL    HW214370   6.330   2.389   1.745
 4491SOL     OW14371   6.544   3.058   3.843
 4491SOL    HW114372   6.609   3.132   3.822
 4491SOL    HW214373   6.462   3.097   3.884
 4492SOL     OW14374   5.802   4.952   1.716
 4492SOL    HW114375   5.841   4.869   1.756
 4492SOL    HW214376   5.721   4.928   1.663
 4493SOL     OW14377   4.801   5.137   4.577
 4493SOL    HW114378   4.741   5.195   4.631
 4493SOL    HW214379   4.883   5.115   4.630
 4494SOL     OW14380   0.523   0.801   6.816
 4494SOL    HW114381   0.424   0.795   6.804
 4494SOL    HW214382   0.569   0.750   6.743
 4495SOL     OW14383   3.745   6.416   4.490
 4495SOL    HW114384   3.656   6.422   4.536
 4495SOL    HW214385   3.730   6.411   4.391
 4496SOL     OW14386   5.735   6.598   0.835
 4496SOL    HW114387   5.668   6.525   0.825
 4496SOL    HW214388   5.689   6.687   0.834
 4497SOL     OW14389   5.413   1.972   6.712
 4497SOL    HW114390   5.328   2.009   6.750
 4497SOL    HW214391   5.398   1.879   6.679
 4498SOL     OW14392   0.196   3.370   0.099
 4498SOL    HW114393   0.138   3.395   0.022
 4498SOL    HW214394   0.170   3.279   0.132
 4499SOL     OW14395   5.556   3.864   4.046
 4499SOL    HW114396   5.504   3.781   4.024
 4499SOL    HW214397   5.643   3.863   3.996
 4500SOL     OW14398   3.088   3.131   4.744
 4500SOL    HW114399   3.075   3.033   4.735
 4500SOL    HW214400   3.169   3.159   4.692
 4501SOL     OW14401   6.918   3.386   3.030
 4501SOL    HW114402   6.886   3.321   3.098
 4501SOL    HW214403   6.842   3.443   2.999
 4502SOL     OW14404   0.278   2.965   6.562
 4502SOL    HW114405   0.206   3.033   6.578
 4502SOL    HW214406   0.333   2.957   6.645
 4503SOL     OW14407   3.379   6.888   1.454
 4503SOL    HW114408   3.464   6.940   1.450
 4503SOL    HW214409   3.384   6.822   1.528
 4504SOL     OW14410   6.459   1.256   4.922
 4504SOL    HW114411   6.504   1.167   4.935
 4504SOL    HW214412   6.408   1.280   5.005
 4505SOL     OW14413   6.042   5.399   1.728
 4505SOL    HW114414   6.022   5.312   1.683
 4505SOL    HW214415   6.076   5.382   1.820
 4506SOL     OW14416   4.724   2.691   3.404
 4506SOL    HW114417   4.793   2.758   3.433
 4506SOL    HW214418   4.658   2.675   3.477
 4507SOL     OW14419   5.834   4.671   3.090
 4507SOL    HW114420   5.789   4.652   3.177
 4507SOL    HW214421   5.898   4.747   3.102
 4508SOL     OW14422   1.880   5.525   0.150
 4508SOL    HW114423   1.927   5.470   0.081
 4508SOL    HW214424   1.789   5.550   0.117
 4509SOL     OW14425   4.584   2.298   2.291
 4509SOL    HW114426   4.494   2.276   2.252
 4509SOL    HW214427   4.655   2.272   2.226
 4510SOL     OW14428   3.910   1.444   4.272
 4510SOL    HW114429   3.910   1.532   4.224
 4510SOL    HW214430   3.965   1.452   4.355
 4511SOL     OW14431   5.679   3.715   6.967
 4511SOL    HW114432   5.596   3.689   7.017
 4511SOL    HW214433   5.666   3.805   6.925
 4512SOL     OW14434   2.797   1.524   5.497
 4512SOL    HW114435   2.829   1.487   5.410
 4512SOL    HW214436   2.866   1.507   5.568
 4513SOL     OW14437   0.630   4.741   6.678
 4513SOL    HW114438   0.627   4.748   6.778
 4513SOL    HW214439   0.638   4.833   6.638
 4514SOL     OW14440   3.987   2.093   6.360
 4514SOL    HW114441   3.991   2.100   6.261
 4514SOL    HW214442   4.079   2.098   6.398
 4515SOL     OW14443   0.201   2.151   5.558
 4515SOL    HW114444   0.104   2.131   5.571
 4515SOL    HW214445   0.255   2.088   5.613
 4516SOL     OW14446   1.883   0.049   0.636
 4516SOL    HW114447   1.944   0.010   0.567
 4516SOL    HW214448   1.821   7.001   0.670
 4517SOL     OW14449   4.220   0.920   6.566
 4517SOL    HW114450   4.297   0.930   6.504
 4517SOL    HW214451   4.209   1.003   6.620
 4518SOL     OW14452   0.153   0.287   2.472
 4518SOL    HW114453   0.118   0.298   2.379
 4518SOL    HW214454   0.253   0.278   2.468
 4519SOL     OW14455   0.015   6.924   1.624
 4519SOL    HW114456   6.971   6.941   1.552
 4519SOL    HW214457   0.072   6.845   1.599
 4520SOL     OW14458   4.325   6.366   5.030
 4520SOL    HW114459   4.333   6.291   4.965
 4520SOL    HW214460   4.414   6.383   5.073
 4521SOL     OW14461   6.782   2.011   4.928
 4521SOL    HW114462   6.815   2.080   4.993
 4521SOL    HW214463   6.682   2.014   4.924
 4522SOL     OW14464   5.434   5.720   3.578
 4522SOL    HW114465   5.341   5.683   3.578
 4522SOL    HW214466   5.490   5.667   3.514
 4523SOL     OW14467   1.000   4.618   0.277
 4523SOL    HW114468   1.071   4.568   0.227
 4523SOL    HW214469   1.043   4.683   0.339
 4524SOL     OW14470   6.079   2.604   2.170
 4524SOL    HW114471   6.023   2.552   2.235
 4524SOL    HW214472   6.164   2.554   2.152
 4525SOL     OW14473   4.506   2.205   5.720
 4525SOL    HW114474   4.549   2.225   5.632
 4525SOL    HW214475   4.576   2.174   5.785
 4526SOL     OW14476   0.027   0.056   0.129
 4526SOL    HW114477   0.023   0.085   0.034
 4526SOL    HW214478   0.102   7.012   0.140
 4527SOL     OW14479   6.015   1.244   3.813
 4527SOL    HW114480   6.016   1.183   3.892
 4527SOL    HW214481   5.998   1.191   3.730
 4528SOL     OW14482   4.572   0.433   0.294
 4528SOL    HW114483   4.630   0.403   0.370
 4528SOL    HW214484   4.630   0.455   0.215
 4529SOL     OW14485   1.776   0.522   5.046
 4529SOL    HW114486   1.708   0.565   5.105
 4529SOL    HW214487   1.792   0.579   4.966
 4530SOL     OW14488   1.644   5.047   4.038
 4530SOL    HW114489   1.701   4.999   3.971
 4530SOL    HW214490   1.574   5.100   3.991
 4531SOL     OW14491   0.708   2.743   5.276
 4531SOL    HW114492   0.730   2.645   5.269
 4531SOL    HW214493   0.789   2.793   5.307
 4532SOL     OW14494   6.628   1.204   2.517
 4532SOL    HW114495   6.700   1.194   2.585
 4532SOL    HW214496   6.544   1.161   2.551
 4533SOL     OW14497   1.254   1.720   1.947
 4533SOL    HW114498   1.344   1.731   1.905
 4533SOL    HW214499   1.186   1.767   1.891
 4534SOL     OW14500   4.730   4.176   4.713
 4534SOL    HW114501   4.807   4.132   4.759
 4534SOL    HW214502   4.659   4.198   4.780
 4535SOL     OW14503   3.343   1.045   2.703
 4535SOL    HW114504   3.303   1.054   2.611
 4535SOL    HW214505   3.307   1.117   2.762
 4536SOL     OW14506   3.993   1.590   4.523
 4536SOL    HW114507   4.028   1.671   4.570
 4536SOL    HW214508   4.026   1.507   4.568
 4537SOL     OW14509   4.258   3.521   0.228
 4537SOL    HW114510   4.299   3.538   0.317
 4537SOL    HW214511   4.182   3.457   0.237
 4538SOL     OW14512   1.647   0.173   2.957
 4538SOL    HW114513   1.710   0.163   2.880
 4538SOL    HW214514   1.688   0.231   3.027
 4539SOL     OW14515   3.325   6.407   4.776
 4539SOL    HW114516   3.395   6.418   4.847
 4539SOL    HW214517   3.237   6.440   4.812
 4540SOL     OW14518   2.401   2.161   6.419
 4540SOL    HW114519   2.315   2.126   6.459
 4540SOL    HW214520   2.400   2.261   6.420
 4541SOL     OW14521   5.838   1.730   6.870
 4541SOL    HW114522   5.808   1.661   6.935
 4541SOL    HW214523   5.775   1.809   6.874
 4542SOL     OW14524   0.018   1.711   1.612
 4542SOL    HW114525   0.091   1.752   1.667
 4542SOL    HW214526   6.985   1.651   1.670
 4543SOL     OW14527   4.526   1.837   1.706
 4543SOL    HW114528   4.483   1.898   1.773
 4543SOL    HW214529   4.616   1.871   1.682
 4544SOL     OW14530   3.566   5.753   6.714
 4544SOL    HW114531   3.482   5.708   6.684
 4544SOL    HW214532   3.591   5.719   6.805
 4545SOL     OW14533   5.641   3.230   4.488
 4545SOL    HW114534   5.710   3.179   4.538
 4545SOL    HW214535   5.677   3.255   4.398
 4546SOL     OW14536   1.215   1.154   4.665
 4546SOL    HW114537   1.226   1.143   4.763
 4546SOL    HW214538   1.159   1.235   4.646
 4547SOL     OW14539   6.510   2.219   1.235
 4547SOL    HW114540   6.519   2.171   1.147
 4547SOL    HW214541   6.415   2.216   1.264
 4548SOL     OW14542   1.439   3.386   3.996
 4548SOL    HW114543   1.418   3.482   4.014
 4548SOL    HW214544   1.411   3.363   3.903
 4549SOL     OW14545   6.725   4.340   1.852
 4549SOL    HW114546   6.761   4.249   1.833
 4549SOL    HW214547   6.650   4.333   1.918
 4550SOL     OW14548   0.818   5.272   3.307
 4550SOL    HW114549   0.841   5.355   3.358
 4550SOL    HW214550   0.831   5.192   3.365
 4551SOL     OW14551   6.959   3.128   4.759
 4551SOL    HW114552   6.871   3.141   4.806
 4551SOL    HW214553   6.942   3.108   4.663
 4552SOL     OW14554   6.737   2.808   1.706
 4552SOL    HW114555   6.822   2.861   1.709
 4552SOL    HW214556   6.659   2.869   1.706
 4553SOL     OW14557   3.914   4.432   6.814
 4553SOL    HW114558   3.998   4.419   6.866
 4553SOL    HW214559   3.836   4.404   6.870
 4554SOL     OW14560   6.291   6.565   1.202
 4554SOL    HW114561   6.198   6.528   1.200
 4554SOL    HW214562   6.315   6.600   1.111
 4555SOL     OW14563   2.591   2.094   5.244
 4555SOL    HW114564   2.541   2.055   5.321
 4555SOL    HW214565   2.688   2.069   5.251
 4556SOL     OW14566   5.454   3.193   4.138
 4556SOL    HW114567   5.408   3.157   4.220
 4556SOL    HW214568   5.529   3.132   4.113
 4557SOL     OW14569   5.000   6.375   5.238
 4557SOL    HW114570   5.021   6.419   5.326
 4557SOL    HW214571   4.910   6.332   5.243
 4558SOL     OW14572   6.826   4.340   5.149
 4558SOL    HW114573   6.837   4.297   5.239
 4558SOL    HW214574   6.732   4.374   5.140
 4559SOL     OW14575   0.574   3.544   1.998
 4559SOL    HW114576   0.599   3.614   2.066
 4559SOL    HW214577   0.609   3.455   2.028
 4560SOL     OW14578   5.478   4.216   1.753
 4560SOL    HW114579   5.537   4.225   1.672
 4560SOL    HW214580   5.383   4.205   1.724
 4561SOL     OW14581   2.482   2.112   2.887
 4561SOL    HW114582   2.524   2.044   2.946
 4561SOL    HW214583   2.383   2.098   2.884
 4562SOL     OW14584   2.204   6.559   6.208
 4562SOL    HW114585   2.199   6.638   6.147
 4562SOL    HW214586   2.282   6.501   6.182
 4563SOL     OW14587   0.136   2.747   0.690
 4563SOL    HW114588   0.202   2.678   0.720
 4563SOL    HW214589   0.180   2.810   0.627
 4564SOL     OW14590   6.888   5.677   1.971
 4564SOL    HW114591   6.960   5.684   2.041
 4564SOL    HW214592   6.864   5.768   1.939
 4565SOL     OW14593   0.852   1.085   5.016
 4565SOL    HW114594   0.901   0.998   5.028
 4565SOL    HW214595   0.883   1.150   5.086
 4566SOL     OW14596   6.822   2.822   0.071
 4566SOL    HW114597   6.870   2.739   0.101
 4566SOL    HW214598   6.730   2.799   0.040
 4567SOL     OW14599   6.075   1.301   5.987
 4567SOL    HW114600   6.110   1.233   5.922
 4567SOL    HW214601   6.045   1.382   5.937
 4568SOL     OW14602   1.929   3.227   6.220
 4568SOL    HW114603   1.849   3.286   6.210
 4568SOL    HW214604   1.930   3.188   6.313
 4569SOL     OW14605   1.905   1.689   3.048
 4569SOL    HW114606   1.991   1.708   3.001
 4569SOL    HW214607   1.830   1.690   2.982
 4570SOL     OW14608   6.960   6.749   2.551
 4570SOL    HW114609   7.012   6.822   2.596
 4570SOL    HW214610   6.872   6.739   2.596
 4571SOL     OW14611   4.398   4.259   6.476
 4571SOL    HW114612   4.485   4.284   6.520
 4571SOL    HW214613   4.387   4.314   6.393
 4572SOL     OW14614   2.430   0.277   6.675
 4572SOL    HW114615   2.510   0.336   6.687
 4572SOL    HW214616   2.390   0.257   6.764
 4573SOL     OW14617   6.397   0.147   0.624
 4573SOL    HW114618   6.354   0.185   0.706
 4573SOL    HW214619   6.330   0.091   0.575
 4574SOL     OW14620   5.847   3.710   0.697
 4574SOL    HW114621   5.847   3.665   0.608
 4574SOL    HW214622   5.942   3.723   0.727
 4575SOL     OW14623   5.793   1.154   5.992
 4575SOL    HW114624   5.720   1.151   5.924
 4575SOL    HW214625   5.849   1.235   5.977
 4576SOL     OW14626   2.735   6.215   5.599
 4576SOL    HW114627   2.714   6.199   5.695
 4576SOL    HW214628   2.655   6.251   5.552
 4577SOL     OW14629   1.110   2.056   4.324
 4577SOL    HW114630   1.093   1.974   4.270
 4577SOL    HW214631   1.185   2.108   4.284
 4578SOL     OW14632   0.917   2.876   5.325
 4578SOL    HW114633   0.996   2.814   5.325
 4578SOL    HW214634   0.913   2.924   5.413
 4579SOL     OW14635   3.715   0.589   3.295
 4579SOL    HW114636   3.685   0.503   3.336
 4579SOL    HW214637   3.707   0.662   3.363
 4580SOL     OW14638   5.719   4.659   0.521
 4580SOL    HW114639   5.751   4.574   0.478
 4580SOL    HW214640   5.619   4.659   0.524
 4581SOL     OW14641   2.284   5.236   2.591
 4581SOL    HW114642   2.215   5.179   2.637
 4581SOL    HW214643   2.329   5.294   2.658
 4582SOL     OW14644   4.757   0.417   5.059
 4582SOL    HW114645   4.668   0.372   5.056
 4582SOL    HW214646   4.768   0.474   4.977
 4583SOL     OW14647   2.820   2.410   6.665
 4583SOL    HW114648   2.731   2.453   6.646
 4583SOL    HW214649   2.887   2.481   6.685
 4584SOL     OW14650   0.420   4.205   5.637
 4584SOL    HW114651   0.402   4.178   5.732
 4584SOL    HW214652   0.399   4.303   5.627
 4585SOL     OW14653   2.629   5.923   3.620
 4585SOL    HW114654   2.633   6.015   3.660
 4585SOL    HW214655   2.555   5.919   3.553
 4586SOL     OW14656   4.017   4.549   0.628
 4586SOL    HW114657   4.061   4.633   0.597
 4586SOL    HW214658   4.010   4.550   0.728
 4587SOL     OW14659   3.675   3.956   3.468
 4587SOL    HW114660   3.765   3.973   3.427
 4587SOL    HW214661   3.671   4.001   3.558
 4588SOL     OW14662   2.438   3.405   5.445
 4588SOL    HW114663   2.479   3.325   5.487
 4588SOL    HW214664   2.510   3.469   5.416
 4589SOL     OW14665   6.207   1.067   2.122
 4589SOL    HW114666   6.267   1.050   2.044
 4589SOL    HW214667   6.225   0.999   2.193
 4590SOL     OW14668   4.623   5.424   0.932
 4590SOL    HW114669   4.605   5.361   1.008
 4590SOL    HW214670   4.605   5.378   0.846
 4591SOL     OW14671   1.488   0.071   4.417
 4591SOL    HW114672   1.482   6.993   4.417
 4591SOL    HW214673   1.585   0.098   4.415
 4592SOL     OW14674   2.360   1.673   2.643
 4592SOL    HW114675   2.328   1.691   2.736
 4592SOL    HW214676   2.377   1.575   2.632
 4593SOL     OW14677   5.156   5.765   2.499
 4593SOL    HW114678   5.073   5.717   2.470
 4593SOL    HW214679   5.183   5.733   2.590
 4594SOL     OW14680   2.626   1.459   2.939
 4594SOL    HW114681   2.672   1.379   2.977
 4594SOL    HW214682   2.537   1.432   2.902
 4595SOL     OW14683   4.427   3.274   5.676
 4595SOL    HW114684   4.454   3.338   5.748
 4595SOL    HW214685   4.478   3.189   5.686
 4596SOL     OW14686   6.125   0.353   2.164
 4596SOL    HW114687   6.203   0.395   2.118
 4596SOL    HW214688   6.092   0.415   2.236
 4597SOL     OW14689   3.866   5.434   6.371
 4597SOL    HW114690   3.928   5.474   6.438
 4597SOL    HW214691   3.793   5.384   6.419
 4598SOL     OW14692   1.554   5.955   0.211
 4598SOL    HW114693   1.642   5.961   0.165
 4598SOL    HW214694   1.544   5.864   0.253
 4599SOL     OW14695   1.790   4.798   0.364
 4599SOL    HW114696   1.789   4.805   0.264
 4599SOL    HW214697   1.724   4.863   0.402
 4600SOL     OW14698   1.564   5.455   5.671
 4600SOL    HW114699   1.464   5.457   5.668
 4600SOL    HW214700   1.594   5.446   5.765
 4601SOL     OW14701   2.306   1.415   5.083
 4601SOL    HW114702   2.278   1.341   5.144
 4601SOL    HW214703   2.386   1.461   5.121
 4602SOL     OW14704   2.977   6.412   1.118
 4602SOL    HW114705   3.012   6.368   1.201
 4602SOL    HW214706   3.034   6.385   1.041
 4603SOL     OW14707   3.438   6.269   0.572
 4603SOL    HW114708   3.445   6.175   0.537
 4603SOL    HW214709   3.493   6.278   0.655
 4604SOL     OW14710   4.470   0.299   6.957
 4604SOL    HW114711   4.536   0.226   6.941
 4604SOL    HW214712   4.428   0.288   0.025
 4605SOL     OW14713   1.998   6.519   2.427
 4605SOL    HW114714   2.004   6.455   2.350
 4605SOL    HW214715   2.071   6.498   2.492
 4606SOL     OW14716   0.829   6.635   2.585
 4606SOL    HW114717   0.897   6.682   2.528
 4606SOL    HW214718   0.789   6.559   2.533
 4607SOL     OW14719   1.872   3.414   1.736
 4607SOL    HW114720   1.856   3.318   1.760
 4607SOL    HW214721   1.826   3.434   1.649
 4608SOL     OW14722   0.567   5.705   3.580
 4608SOL    HW114723   0.601   5.713   3.486
 4608SOL    HW214724   0.591   5.788   3.631
 4609SOL     OW14725   4.382   5.019   6.555
 4609SOL    HW114726   4.426   5.089   6.498
 4609SOL    HW214727   4.413   5.030   6.650
 4610SOL     OW14728   5.095   1.930   0.512
 4610SOL    HW114729   5.025   1.983   0.560
 4610SOL    HW214730   5.065   1.835   0.505
 4611SOL     OW14731   0.702   6.166   6.247
 4611SOL    HW114732   0.736   6.115   6.168
 4611SOL    HW214733   0.664   6.254   6.216
 4612SOL     OW14734   1.249   6.269   0.360
 4612SOL    HW114735   1.284   6.359   0.335
 4612SOL    HW214736   1.267   6.204   0.286
 4613SOL     OW14737   1.832   5.545   2.087
 4613SOL    HW114738   1.834   5.622   2.023
 4613SOL    HW214739   1.924   5.507   2.095
 4614SOL     OW14740   6.198   3.250   2.889
 4614SOL    HW114741   6.152   3.248   2.977
 4614SOL    HW214742   6.296   3.263   2.902
 4615SOL     OW14743   2.014   0.833   6.902
 4615SOL    HW114744   2.103   0.799   6.933
 4615SOL    HW214745   2.014   0.844   6.803
 4616SOL     OW14746   6.156   1.174   4.674
 4616SOL    HW114747   6.143   1.200   4.578
 4616SOL    HW214748   6.236   1.115   4.681
 4617SOL     OW14749   0.845   2.172   2.334
 4617SOL    HW114750   0.892   2.097   2.381
 4617SOL    HW214751   0.837   2.250   2.396
 4618SOL     OW14752   2.403   2.721   5.186
 4618SOL    HW114753   2.410   2.821   5.183
 4618SOL    HW214754   2.413   2.684   5.093
 4619SOL     OW14755   3.434   6.464   3.548
 4619SOL    HW114756   3.374   6.480   3.626
 4619SOL    HW214757   3.503   6.536   3.542
 4620SOL     OW14758   2.524   4.840   0.807
 4620SOL    HW114759   2.545   4.922   0.861
 4620SOL    HW214760   2.428   4.841   0.781
 4621SOL     OW14761   4.845   0.377   2.477
 4621SOL    HW114762   4.760   0.349   2.520
 4621SOL    HW214763   4.856   0.476   2.486
 4622SOL     OW14764   3.121   4.682   0.569
 4622SOL    HW114765   3.127   4.583   0.562
 4622SOL    HW214766   3.084   4.707   0.658
 4623SOL     OW14767   5.630   6.163   1.028
 4623SOL    HW114768   5.605   6.170   1.125
 4623SOL    HW214769   5.721   6.203   1.015
 4624SOL     OW14770   3.749   0.018   2.733
 4624SOL    HW114771   3.809   6.994   2.797
 4624SOL    HW214772   3.793   0.102   2.700
 4625SOL     OW14773   1.613   4.553   1.445
 4625SOL    HW114774   1.546   4.481   1.467
 4625SOL    HW214775   1.686   4.554   1.513
 4626SOL     OW14776   5.611   4.092   2.290
 4626SOL    HW114777   5.549   4.148   2.344
 4626SOL    HW214778   5.614   4.128   2.196
 4627SOL     OW14779   2.033   4.701   5.013
 4627SOL    HW114780   2.043   4.605   5.037
 4627SOL    HW214781   2.089   4.721   4.932
 4628SOL     OW14782   5.219   4.390   4.165
 4628SOL    HW114783   5.247   4.347   4.251
 4628SOL    HW214784   5.120   4.380   4.153
 4629SOL     OW14785   2.966   4.920   5.463
 4629SOL    HW114786   2.991   4.958   5.552
 4629SOL    HW214787   2.959   4.820   5.470
 4630SOL     OW14788   2.780   6.134   2.133
 4630SOL    HW114789   2.819   6.081   2.209
 4630SOL    HW214790   2.813   6.228   2.137
 4631SOL     OW14791   1.745   5.892   3.740
 4631SOL    HW114792   1.808   5.915   3.815
 4631SOL    HW214793   1.797   5.872   3.658
 4632SOL     OW14794   2.887   4.754   2.549
 4632SOL    HW114795   2.794   4.729   2.577
 4632SOL    HW214796   2.943   4.768   2.631
 4633SOL     OW14797   5.869   0.606   5.357
 4633SOL    HW114798   5.823   0.691   5.331
 4633SOL    HW214799   5.859   0.592   5.456
 4634SOL     OW14800   2.899   4.129   5.626
 4634SOL    HW114801   2.883   4.223   5.596
 4634SOL    HW214802   2.812   4.079   5.631
 4635SOL     OW14803   5.190   3.598   1.629
 4635SOL    HW114804   5.153   3.557   1.713
 4635SOL    HW214805   5.286   3.620   1.642
 4636SOL     OW14806   1.959   4.356   6.953
 4636SOL    HW114807   1.881   4.297   6.973
 4636SOL    HW214808   1.931   4.429   6.892
 4637SOL     OW14809   0.856   6.251   1.483
 4637SOL    HW114810   0.839   6.275   1.388
 4637SOL    HW214811   0.950   6.273   1.507
 4638SOL     OW14812   4.191   4.587   6.858
 4638SOL    HW114813   4.249   4.667   6.842
 4638SOL    HW214814   4.156   4.553   6.770
 4639SOL     OW14815   3.461   3.547   6.081
 4639SOL    HW114816   3.378   3.552   6.027
 4639SOL    HW214817   3.497   3.639   6.097
 4640SOL     OW14818   4.977   3.945   3.741
 4640SOL    HW114819   4.992   3.878   3.668
 4640SOL    HW214820   4.922   3.904   3.814
 4641SOL     OW14821   2.422   0.301   4.639
 4641SOL    HW114822   2.509   0.335   4.674
 4641SOL    HW214823   2.406   0.208   4.673
 4642SOL     OW14824   1.057   6.827   3.853
 4642SOL    HW114825   0.979   6.777   3.891
 4642SOL    HW214826   1.097   6.886   3.924
 4643SOL     OW14827   6.742   2.060   0.553
 4643SOL    HW114828   6.815   2.053   0.620
 4643SOL    HW214829   6.697   2.149   0.561
 4644SOL     OW14830   0.722   5.361   5.434
 4644SOL    HW114831   0.705   5.271   5.473
 4644SOL    HW214832   0.807   5.358   5.380
 4645SOL     OW14833   0.449   0.265   3.999
 4645SOL    HW114834   0.479   0.172   4.021
 4645SOL    HW214835   0.516   0.309   3.939
 4646SOL     OW14836   2.381   5.704   3.624
 4646SOL    HW114837   2.360   5.691   3.720
 4646SOL    HW214838   2.405   5.616   3.583
 4647SOL     OW14839   1.911   0.078   3.146
 4647SOL    HW114840   1.837   0.143   3.159
 4647SOL    HW214841   1.913   0.048   3.051
 4648SOL     OW14842   3.464   0.879   2.900
 4648SOL    HW114843   3.531   0.811   2.930
 4648SOL    HW214844   3.507   0.941   2.834
 4649SOL     OW14845   4.972   0.787   6.934
 4649SOL    HW114846   4.968   0.715   7.003
 4649SOL    HW214847   4.885   0.791   6.884
 4650SOL     OW14848   4.835   5.606   2.808
 4650SOL    HW114849   4.757   5.587   2.749
 4650SOL    HW214850   4.917   5.564   2.770
 4651SOL     OW14851   6.214   3.323   0.127
 4651SOL    HW114852   6.197   3.234   0.169
 4651SOL    HW214853   6.244   3.311   0.032
 4652SOL     OW14854   6.025   6.253   4.230
 4652SOL    HW114855   6.113   6.279   4.268
 4652SOL    HW214856   5.990   6.173   4.280
 4653SOL     OW14857   5.029   5.638   1.136
 4653SOL    HW114858   4.940   5.594   1.122
 4653SOL    HW214859   5.064   5.670   1.048
 4654SOL     OW14860   0.437   6.584   0.225
 4654SOL    HW114861   0.534   6.605   0.228
 4654SOL    HW214862   0.406   6.580   0.130
 4655SOL     OW14863   6.083   4.098   1.029
 4655SOL    HW114864   6.035   4.116   0.943
 4655SOL    HW214865   6.028   4.133   1.105
 4656SOL     OW14866   1.374   0.541   2.218
 4656SOL    HW114867   1.315   0.503   2.289
 4656SOL    HW214868   1.343   0.633   2.194
 4657SOL     OW14869   4.170   5.689   1.646
 4657SOL    HW114870   4.091   5.737   1.684
 4657SOL    HW214871   4.167   5.593   1.672
 4658SOL     OW14872   3.680   0.713   3.523
 4658SOL    HW114873   3.589   0.741   3.554
 4658SOL    HW214874   3.749   0.775   3.561
 4659SOL     OW14875   3.256   4.201   5.534
 4659SOL    HW114876   3.183   4.166   5.475
 4659SOL    HW214877   3.246   4.300   5.544
 4660SOL     OW14878   0.904   4.865   5.397
 4660SOL    HW114879   0.954   4.860   5.483
 4660SOL    HW214880   0.810   4.835   5.411
 4661SOL     OW14881   3.054   4.575   6.179
 4661SOL    HW114882   3.123   4.505   6.197
 4661SOL    HW214883   2.993   4.545   6.106
 4662SOL     OW14884   3.280   7.009   5.256
 4662SOL    HW114885   3.279   0.083   5.281
 4662SOL    HW214886   3.189   6.982   5.225
 4663SOL     OW14887   0.330   1.477   1.139
 4663SOL    HW114888   0.399   1.509   1.204
 4663SOL    HW214889   0.242   1.520   1.160
 4664SOL     OW14890   1.694   0.973   1.077
 4664SOL    HW114891   1.663   0.891   1.029
 4664SOL    HW214892   1.726   1.040   1.010
 4665SOL     OW14893   3.275   6.319   6.600
 4665SOL    HW114894   3.253   6.222   6.598
 4665SOL    HW214895   3.195   6.371   6.628
 4666SOL     OW14896   2.020   2.637   7.022
 4666SOL    HW114897   1.974   2.690   0.071
 4666SOL    HW214898   2.053   2.551   0.039
 4667SOL     OW14899   6.829   3.656   2.147
 4667SOL    HW114900   6.781   3.706   2.219
 4667SOL    HW214901   6.927   3.679   2.150
 4668SOL     OW14902   4.501   2.228   3.388
 4668SOL    HW114903   4.450   2.155   3.434
 4668SOL    HW214904   4.449   2.260   3.309
 4669SOL     OW14905   4.749   6.168   6.957
 4669SOL    HW114906   4.713   6.173   0.028
 4669SOL    HW214907   4.696   6.102   6.904
 4670SOL     OW14908   2.019   2.519   5.471
 4670SOL    HW114909   1.938   2.462   5.459
 4670SOL    HW214910   2.040   2.527   5.569
 4671SOL     OW14911   6.951   3.035   6.991
 4671SOL    HW114912   6.895   3.101   6.941
 4671SOL    HW214913   6.893   2.968   0.013
 4672SOL     OW14914   2.511   4.872   5.595
 4672SOL    HW114915   2.475   4.836   5.509
 4672SOL    HW214916   2.504   4.803   5.666
 4673SOL     OW14917   5.044   6.916   2.252
 4673SOL    HW114918   5.087   6.869   2.330
 4673SOL    HW214919   4.979   6.984   2.287
 4674SOL     OW14920   5.392   0.720   6.168
 4674SOL    HW114921   5.354   0.658   6.100
 4674SOL    HW214922   5.449   0.669   6.232
 4675SOL     OW14923   2.429   1.535   6.740
 4675SOL    HW114924   2.523   1.555   6.713
 4675SOL    HW214925   2.370   1.536   6.659
 4676SOL     OW14926   6.657   6.381   4.402
 4676SOL    HW114927   6.631   6.463   4.452
 4676SOL    HW214928   6.656   6.401   4.304
 4677SOL     OW14929   2.290   1.434   6.544
 4677SOL    HW114930   2.194   1.408   6.535
 4677SOL    HW214931   2.344   1.387   6.474
 4678SOL     OW14932   2.025   4.403   2.863
 4678SOL    HW114933   2.013   4.327   2.927
 4678SOL    HW214934   2.077   4.476   2.908
 4679SOL     OW14935   3.697   1.329   0.058
 4679SOL    HW114936   3.612   1.278   0.073
 4679SOL    HW214937   3.675   1.427   0.050
 4680SOL     OW14938   2.525   1.211   0.535
 4680SOL    HW114939   2.465   1.288   0.513
 4680SOL    HW214940   2.515   1.140   0.465
 4681SOL     OW14941   4.951   6.184   6.129
 4681SOL    HW114942   4.857   6.152   6.123
 4681SOL    HW214943   5.010   6.111   6.164
 4682SOL     OW14944   4.313   4.422   5.600
 4682SOL    HW114945   4.271   4.432   5.509
 4682SOL    HW214946   4.400   4.470   5.601
 4683SOL     OW14947   3.989   4.759   2.536
 4683SOL    HW114948   4.003   4.853   2.503
 4683SOL    HW214949   3.919   4.760   2.608
 4684SOL     OW14950   6.530   2.081   5.660
 4684SOL    HW114951   6.464   2.012   5.690
 4684SOL    HW214952   6.596   2.099   5.732
 4685SOL     OW14953   0.512   6.340   5.460
 4685SOL    HW114954   0.579   6.391   5.515
 4685SOL    HW214955   0.550   6.322   5.370
 4686SOL     OW14956   4.639   4.981   0.313
 4686SOL    HW114957   4.570   4.916   0.346
 4686SOL    HW214958   4.601   5.034   0.238
 4687SOL     OW14959   6.546   4.123   5.135
 4687SOL    HW114960   6.469   4.139   5.073
 4687SOL    HW214961   6.614   4.064   5.091
 4688SOL     OW14962   6.326   3.866   4.927
 4688SOL    HW114963   6.332   3.841   5.023
 4688SOL    HW214964   6.374   3.797   4.872
 4689SOL     OW14965   6.114   0.439   0.120
 4689SOL    HW114966   6.062   0.442   0.205
 4689SOL    HW214967   6.090   0.517   0.063
 4690SOL     OW14968   0.943   0.631   6.922
 4690SOL    HW114969   0.906   0.538   6.927
 4690SOL    HW214970   1.043   0.627   6.920
 4691SOL     OW14971   2.785   4.860   2.105
 4691SOL    HW114972   2.778   4.769   2.065
 4691SOL    HW214973   2.850   4.859   2.181
 4692SOL     OW14974   5.866   5.582   1.841
 4692SOL    HW114975   5.918   5.528   1.776
 4692SOL    HW214976   5.820   5.522   1.906
 4693SOL     OW14977   1.269   0.966   3.259
 4693SOL    HW114978   1.182   1.014   3.265
 4693SOL    HW214979   1.259   0.885   3.202
 4694SOL     OW14980   2.218   0.075   0.319
 4694SOL    HW114981   2.182   0.131   0.244
 4694SOL    HW214982   2.316   0.062   0.307
 4695SOL     OW14983   2.150   3.789   1.621
 4695SOL    HW114984   2.127   3.695   1.645
 4695SOL    HW214985   2.199   3.832   1.697
 4696SOL     OW14986   0.215   4.112   6.494
 4696SOL    HW114987   0.241   4.199   6.535
 4696SOL    HW214988   0.289   4.078   6.436
 4697SOL     OW14989   2.303   3.081   0.858
 4697SOL    HW114990   2.349   3.020   0.794
 4697SOL    HW214991   2.215   3.109   0.820
 4698SOL     OW14992   4.665   5.942   3.507
 4698SOL    HW114993   4.577   5.950   3.461
 4698SOL    HW214994   4.653   5.898   3.596
 4699SOL     OW14995   1.715   6.694   1.776
 4699SOL    HW114996   1.733   6.774   1.719
 4699SOL    HW214997   1.746   6.711   1.869
 4700SOL     OW14998   6.734   1.506   2.803
 4700SOL    HW114999   6.732   1.484   2.705
 4700SOL    HW215000   6.818   1.470   2.843
 4701SOL     OW15001   2.404   2.169   6.997
 4701SOL    HW115002   2.337   2.095   6.992
 4701SOL    HW215003   2.494   2.133   6.972
 4702SOL     OW15004   5.528   4.806   6.461
 4702SOL    HW115005   5.550   4.899   6.490
 4702SOL    HW215006   5.443   4.807   6.409
 4703SOL     OW15007   0.925   1.541   1.690
 4703SOL    HW115008   0.933   1.547   1.789
 4703SOL    HW215009   1.005   1.493   1.653
 4704SOL     OW15010   1.407   0.001   7.018
 4704SOL    HW115011   1.441   0.061   0.068
 4704SOL    HW215012   1.309   0.015   7.006
 4705SOL     OW15013   3.108   3.280   2.153
 4705SOL    HW115014   3.101   3.375   2.124
 4705SOL    HW215015   3.016   3.242   2.167
 4706SOL     OW15016   3.955   0.048   6.629
 4706SOL    HW115017   3.862   0.076   6.651
 4706SOL    HW215018   3.991   7.014   6.703
 4707SOL     OW15019   1.943   6.042   1.262
 4707SOL    HW115020   1.851   6.052   1.301
 4707SOL    HW215021   1.961   5.945   1.246
 4708SOL     OW15022   1.280   2.053   6.389
 4708SOL    HW115023   1.345   1.977   6.386
 4708SOL    HW215024   1.311   2.126   6.327
 4709SOL     OW15025   4.723   5.887   5.875
 4709SOL    HW115026   4.782   5.929   5.806
 4709SOL    HW215027   4.643   5.846   5.831
 4710SOL     OW15028   3.876   1.127   5.168
 4710SOL    HW115029   3.850   1.066   5.242
 4710SOL    HW215030   3.851   1.221   5.192
 4711SOL     OW15031   5.602   0.894   1.489
 4711SOL    HW115032   5.624   0.852   1.577
 4711SOL    HW215033   5.645   0.984   1.483
 4712SOL     OW15034   2.977   4.383   0.171
 4712SOL    HW115035   2.881   4.403   0.191
 4712SOL    HW215036   3.025   4.365   0.257
 4713SOL     OW15037   3.295   3.114   0.719
 4713SOL    HW115038   3.331   3.057   0.793
 4713SOL    HW215039   3.333   3.082   0.632
 4714SOL     OW15040   1.336   2.602   6.738
 4714SOL    HW115041   1.367   2.619   6.645
 4714SOL    HW215042   1.245   2.561   6.736
 4715SOL     OW15043   6.605   2.709   2.448
 4715SOL    HW115044   6.542   2.723   2.524
 4715SOL    HW215045   6.666   2.632   2.469
 4716SOL     OW15046   4.674   6.215   6.202
 4716SOL    HW115047   4.632   6.259   6.281
 4716SOL    HW215048   4.671   6.116   6.214
 4717SOL     OW15049   0.369   6.855   3.582
 4717SOL    HW115050   0.377   6.805   3.496
 4717SOL    HW215051   0.386   6.952   3.566
 4718SOL     OW15052   5.654   2.650   1.020
 4718SOL    HW115053   5.636   2.680   1.113
 4718SOL    HW215054   5.570   2.617   0.978
 4719SOL     OW15055   5.419   3.435   2.073
 4719SOL    HW115056   5.438   3.419   2.170
 4719SOL    HW215057   5.432   3.350   2.022
 4720SOL     OW15058   2.171   5.614   6.180
 4720SOL    HW115059   2.188   5.572   6.091
 4720SOL    HW215060   2.149   5.710   6.168
 4721SOL     OW15061   6.567   2.577   1.653
 4721SOL    HW115062   6.631   2.653   1.643
 4721SOL    HW215063   6.527   2.555   1.564
 4722SOL     OW15064   1.004   5.929   6.699
 4722SOL    HW115065   1.001   5.839   6.743
 4722SOL    HW215066   0.973   5.921   6.605
 4723SOL     OW15067   1.996   4.068   6.192
 4723SOL    HW115068   2.050   4.062   6.276
 4723SOL    HW215069   2.056   4.092   6.116
 4724SOL     OW15070   5.585   6.256   3.003
 4724SOL    HW115071   5.586   6.349   3.040
 4724SOL    HW215072   5.562   6.259   2.905
 4725SOL     OW15073   6.210   6.013   2.852
 4725SOL    HW115074   6.229   5.995   2.948
 4725SOL    HW215075   6.296   6.027   2.803
 4726SOL     OW15076   1.555   2.369   5.997
 4726SOL    HW115077   1.622   2.315   5.945
 4726SOL    HW215078   1.498   2.307   6.050
 4727SOL     OW15079   0.998   6.244   0.512
 4727SOL    HW115080   1.024   6.175   0.580
 4727SOL    HW215081   1.068   6.249   0.441
 4728SOL     OW15082   5.339   0.668   1.730
 4728SOL    HW115083   5.424   0.663   1.676
 4728SOL    HW215084   5.346   0.607   1.808
 4729SOL     OW15085   2.701   1.507   0.976
 4729SOL    HW115086   2.750   1.441   0.917
 4729SOL    HW215087   2.635   1.459   1.033
 4730SOL     OW15088   3.319   6.014   4.887
 4730SOL    HW115089   3.324   6.080   4.962
 4730SOL    HW215090   3.407   5.967   4.878
 4731SOL     OW15091   4.358   0.036   6.682
 4731SOL    HW115092   4.356   0.114   6.620
 4731SOL    HW215093   4.448   7.015   6.678
 4732SOL     OW15094   1.215   3.159   5.881
 4732SOL    HW115095   1.231   3.151   5.980
 4732SOL    HW215096   1.121   3.131   5.861
 4733SOL     OW15097   1.409   4.500   4.047
 4733SOL    HW115098   1.479   4.569   4.062
 4733SOL    HW215099   1.445   4.428   3.987
 4734SOL     OW15100   4.796   2.351   0.662
 4734SOL    HW115101   4.854   2.431   0.647
 4734SOL    HW215102   4.704   2.381   0.687
 4735SOL     OW15103   0.394   5.534   4.785
 4735SOL    HW115104   0.307   5.550   4.831
 4735SOL    HW215105   0.407   5.435   4.772
 4736SOL     OW15106   0.069   2.237   6.596
 4736SOL    HW115107   0.068   2.239   6.496
 4736SOL    HW215108   0.162   2.217   6.628
 4737SOL     OW15109   2.107   4.515   2.609
 4737SOL    HW115110   2.196   4.537   2.570
 4737SOL    HW215111   2.119   4.461   2.692
 4738SOL     OW15112   0.219   6.447   3.305
 4738SOL    HW115113   0.187   6.352   3.312
 4738SOL    HW215114   0.184   6.487   3.220
 4739SOL     OW15115   4.345   6.070   3.134
 4739SOL    HW115116   4.398   6.153   3.121
 4739SOL    HW215117   4.394   6.009   3.197
 4740SOL     OW15118   1.513   1.141   1.235
 4740SOL    HW115119   1.582   1.090   1.182
 4740SOL    HW215120   1.445   1.178   1.172
 4741SOL     OW15121   3.613   3.544   1.286
 4741SOL    HW115122   3.676   3.602   1.234
 4741SOL    HW215123   3.650   3.451   1.291
 4742SOL     OW15124   3.267   6.812   5.494
 4742SOL    HW115125   3.309   6.721   5.496
 4742SOL    HW215126   3.178   6.806   5.448
 4743SOL     OW15127   1.844   3.693   3.151
 4743SOL    HW115128   1.883   3.784   3.164
 4743SOL    HW215129   1.772   3.698   3.083
 4744SOL     OW15130   1.520   4.505   0.703
 4744SOL    HW115131   1.450   4.513   0.631
 4744SOL    HW215132   1.576   4.425   0.686
 4745SOL     OW15133   2.972   3.363   5.836
 4745SOL    HW115134   2.940   3.330   5.747
 4745SOL    HW215135   2.967   3.463   5.839
 4746SOL     OW15136   5.190   5.966   2.988
 4746SOL    HW115137   5.094   5.991   2.999
 4746SOL    HW215138   5.208   5.880   3.036
 4747SOL     OW15139   1.632   3.745   0.027
 4747SOL    HW115140   1.569   3.810   7.007
 4747SOL    HW215141   1.726   3.778   0.016
 4748SOL     OW15142   2.466   5.701   1.218
 4748SOL    HW115143   2.535   5.733   1.153
 4748SOL    HW215144   2.423   5.618   1.182
 4749SOL     OW15145   2.348   6.254   5.892
 4749SOL    HW115146   2.299   6.198   5.959
 4749SOL    HW215147   2.345   6.208   5.803
 4750SOL     OW15148   0.020   4.081   4.793
 4750SOL    HW115149   0.102   4.025   4.783
 4750SOL    HW215150   6.965   4.023   4.817
 4751SOL     OW15151   4.271   2.038   2.701
 4751SOL    HW115152   4.198   2.101   2.674
 4751SOL    HW215153   4.230   1.952   2.734
 4752SOL     OW15154   4.134   1.128   6.736
 4752SOL    HW115155   4.061   1.092   6.795
 4752SOL    HW215156   4.187   1.196   6.786
 4753SOL     OW15157   6.583   0.245   4.302
 4753SOL    HW115158   6.641   0.325   4.283
 4753SOL    HW215159   6.632   0.163   4.273
 4754SOL     OW15160   5.686   4.184   4.597
 4754SOL    HW115161   5.684   4.252   4.670
 4754SOL    HW215162   5.622   4.210   4.525
 4755SOL     OW15163   3.269   0.644   7.011
 4755SOL    HW115164   3.233   0.605   6.927
 4755SOL    HW215165   3.245   0.741   7.017
 4756SOL     OW15166   5.793   2.814   6.193
 4756SOL    HW115167   5.740   2.749   6.138
 4756SOL    HW215168   5.735   2.891   6.219
 4757SOL     OW15169   2.626   1.718   1.545
 4757SOL    HW115170   2.673   1.747   1.629
 4757SOL    HW215171   2.680   1.745   1.466
 4758SOL     OW15172   1.560   6.746   3.196
 4758SOL    HW115173   1.654   6.770   3.221
 4758SOL    HW215174   1.516   6.698   3.272
 4759SOL     OW15175   6.932   4.856   5.622
 4759SOL    HW115176   6.878   4.933   5.656
 4759SOL    HW215177   6.949   4.793   5.697
 4760SOL     OW15178   2.537   1.992   0.194
 4760SOL    HW115179   2.580   2.006   0.105
 4760SOL    HW215180   2.439   2.009   0.186
 4761SOL     OW15181   1.317   6.448   0.853
 4761SOL    HW115182   1.258   6.373   0.884
 4761SOL    HW215183   1.337   6.436   0.756
 4762SOL     OW15184   1.712   5.221   2.025
 4762SOL    HW115185   1.730   5.214   1.927
 4762SOL    HW215186   1.715   5.317   2.053
 4763SOL     OW15187   5.797   0.561   2.532
 4763SOL    HW115188   5.868   0.550   2.462
 4763SOL    HW215189   5.840   0.562   2.623
 4764SOL     OW15190   4.893   3.816   5.018
 4764SOL    HW115191   4.885   3.853   5.111
 4764SOL    HW215192   4.888   3.717   5.021
 4765SOL     OW15193   4.119   0.551   5.324
 4765SOL    HW115194   4.081   0.618   5.388
 4765SOL    HW215195   4.115   0.589   5.231
 4766SOL     OW15196   5.734   5.805   3.674
 4766SOL    HW115197   5.732   5.714   3.716
 4766SOL    HW215198   5.641   5.837   3.659
 4767SOL     OW15199   2.957   5.305   5.194
 4767SOL    HW115200   2.979   5.207   5.190
 4767SOL    HW215201   2.926   5.328   5.287
 4768SOL     OW15202   4.548   2.095   6.479
 4768SOL    HW115203   4.516   2.042   6.558
 4768SOL    HW215204   4.610   2.039   6.424
 4769SOL     OW15205   4.987   5.809   0.090
 4769SOL    HW115206   5.048   5.879   0.053
 4769SOL    HW215207   4.898   5.816   0.045
 4770SOL     OW15208   6.527   1.703   4.536
 4770SOL    HW115209   6.436   1.688   4.573
 4770SOL    HW215210   6.585   1.745   4.606
 4771SOL     OW15211   2.992   6.156   5.523
 4771SOL    HW115212   2.908   6.203   5.549
 4771SOL    HW215213   3.027   6.105   5.601
 4772SOL     OW15214   3.843   4.957   0.612
 4772SOL    HW115215   3.920   5.020   0.623
 4772SOL    HW215216   3.824   4.913   0.700
 4773SOL     OW15217   6.862   5.156   5.249
 4773SOL    HW115218   6.765   5.166   5.273
 4773SOL    HW215219   6.914   5.128   5.330
 4774SOL     OW15220   1.562   3.336   1.049
 4774SOL    HW115221   1.516   3.248   1.040
 4774SOL    HW215222   1.629   3.347   0.975
 4775SOL     OW15223   5.561   6.546   3.011
 4775SOL    HW115224   5.501   6.548   3.092
 4775SOL    HW215225   5.528   6.612   2.943
 4776SOL     OW15226   1.181   0.082   5.760
 4776SOL    HW115227   1.174   0.110   5.664
 4776SOL    HW215228   1.096   0.106   5.808
 4777SOL     OW15229   1.174   5.049   1.426
 4777SOL    HW115230   1.101   5.027   1.491
 4777SOL    HW215231   1.225   5.129   1.458
 4778SOL     OW15232   6.689   3.302   3.836
 4778SOL    HW115233   6.700   3.361   3.757
 4778SOL    HW215234   6.658   3.356   3.914
 4779SOL     OW15235   5.312   0.019   2.818
 4779SOL    HW115236   5.264   0.059   2.897
 4779SOL    HW215237   5.359   0.092   2.768
 4780SOL     OW15238   5.754   2.201   6.795
 4780SOL    HW115239   5.765   2.277   6.731
 4780SOL    HW215240   5.756   2.237   6.889
 4781SOL     OW15241   2.538   5.817   3.159
 4781SOL    HW115242   2.617   5.829   3.218
 4781SOL    HW215243   2.549   5.871   3.076
 4782SOL     OW15244   6.168   5.387   6.511
 4782SOL    HW115245   6.257   5.387   6.556
 4782SOL    HW215246   6.176   5.428   6.420
 4783SOL     OW15247   4.695   3.620   0.078
 4783SOL    HW115248   4.626   3.548   0.077
 4783SOL    HW215249   4.765   3.601   0.009
 4784SOL     OW15250   6.340   2.689   6.751
 4784SOL    HW115251   6.358   2.599   6.710
 4784SOL    HW215252   6.364   2.761   6.685
 4785SOL     OW15253   0.606   6.264   3.349
 4785SOL    HW115254   0.577   6.346   3.299
 4785SOL    HW215255   0.639   6.195   3.284
 4786SOL     OW15256   2.655   0.090   1.006
 4786SOL    HW115257   2.564   0.131   1.007
 4786SOL    HW215258   2.721   0.154   1.045
 4787SOL     OW15259   4.039   1.205   2.959
 4787SOL    HW115260   3.941   1.222   2.973
 4787SOL    HW215261   4.089   1.292   2.965
 4788SOL     OW15262   6.543   6.352   0.006
 4788SOL    HW115263   6.458   6.380   0.052
 4788SOL    HW215264   6.538   6.378   6.932
 4789SOL     OW15265   5.707   1.707   2.234
 4789SOL    HW115266   5.750   1.729   2.322
 4789SOL    HW215267   5.768   1.733   2.160
 4790SOL     OW15268   5.381   1.410   5.757
 4790SOL    HW115269   5.360   1.475   5.831
 4790SOL    HW215270   5.439   1.337   5.792
 4791SOL     OW15271   0.635   2.981   1.315
 4791SOL    HW115272   0.627   2.884   1.338
 4791SOL    HW215273   0.650   3.033   1.399
 4792SOL     OW15274   2.709   4.672   3.485
 4792SOL    HW115275   2.681   4.760   3.523
 4792SOL    HW215276   2.800   4.649   3.518
 4793SOL     OW15277   2.078   2.978   5.377
 4793SOL    HW115278   2.019   3.051   5.341
 4793SOL    HW215279   2.174   3.004   5.366
 4794SOL     OW15280   5.625   6.943   4.839
 4794SOL    HW115281   5.700   6.994   4.798
 4794SOL    HW215282   5.582   6.884   4.770
 4795SOL     OW15283   6.126   2.293   4.094
 4795SOL    HW115284   6.110   2.310   4.191
 4795SOL    HW215285   6.137   2.194   4.079
 4796SOL     OW15286   4.240   0.889   4.869
 4796SOL    HW115287   4.202   0.873   4.778
 4796SOL    HW215288   4.190   0.963   4.913
 4797SOL     OW15289   0.783   6.820   5.424
 4797SOL    HW115290   0.843   6.837   5.502
 4797SOL    HW215291   0.693   6.791   5.457
 4798SOL     OW15292   0.384   4.134   5.365
 4798SOL    HW115293   0.385   4.140   5.465
 4798SOL    HW215294   0.478   4.129   5.331
 4799SOL     OW15295   3.827   1.885   0.865
 4799SOL    HW115296   3.782   1.807   0.822
 4799SOL    HW215297   3.914   1.903   0.818
 4800SOL     OW15298   2.386   2.785   6.981
 4800SOL    HW115299   2.380   2.833   0.046
 4800SOL    HW215300   2.310   2.811   6.923
 4801SOL     OW15301   3.366   3.013   7.013
 4801SOL    HW115302   3.279   3.037   6.969
 4801SOL    HW215303   3.360   3.035   0.088
 4802SOL     OW15304   0.205   6.715   2.483
 4802SOL    HW115305   0.187   6.683   2.390
 4802SOL    HW215306   0.118   6.725   2.532
 4803SOL     OW15307   0.023   4.642   6.906
 4803SOL    HW115308   7.019   4.619   6.812
 4803SOL    HW215309   6.985   4.595   6.970
 4804SOL     OW15310   6.821   6.286   1.618
 4804SOL    HW115311   6.797   6.232   1.698
 4804SOL    HW215312   6.804   6.232   1.535
 4805SOL     OW15313   5.855   0.999   2.287
 4805SOL    HW115314   5.810   1.087   2.303
 4805SOL    HW215315   5.912   1.005   2.205
 4806SOL     OW15316   1.457   4.405   2.567
 4806SOL    HW115317   1.396   4.477   2.535
 4806SOL    HW215318   1.535   4.398   2.504
 4807SOL     OW15319   0.440   4.744   0.162
 4807SOL    HW115320   0.484   4.662   0.199
 4807SOL    HW215321   0.395   4.722   0.075
 4808SOL     OW15322   4.578   5.736   0.234
 4808SOL    HW115323   4.593   5.645   0.272
 4808SOL    HW215324   4.614   5.739   0.141
 4809SOL     OW15325   3.591   5.155   0.662
 4809SOL    HW115326   3.659   5.082   0.652
 4809SOL    HW215327   3.541   5.166   0.576
 4810SOL     OW15328   1.703   4.246   2.931
 4810SOL    HW115329   1.718   4.160   2.981
 4810SOL    HW215330   1.701   4.322   2.995
 4811SOL     OW15331   3.100   4.073   1.956
 4811SOL    HW115332   3.035   4.118   2.017
 4811SOL    HW215333   3.052   4.035   1.876
 4812SOL     OW15334   0.424   6.371   2.430
 4812SOL    HW115335   0.387   6.428   2.504
 4812SOL    HW215336   0.476   6.429   2.367
 4813SOL     OW15337   5.461   1.269   6.384
 4813SOL    HW115338   5.489   1.319   6.467
 4813SOL    HW215339   5.542   1.237   6.336
 4814SOL     OW15340   0.189   3.377   0.776
 4814SOL    HW115341   0.213   3.463   0.731
 4814SOL    HW215342   0.129   3.396   0.854
 4815SOL     OW15343   5.184   3.885   2.786
 4815SOL    HW115344   5.225   3.837   2.708
 4815SOL    HW215345   5.229   3.855   2.871
 4816SOL     OW15346   2.132   4.908   1.011
 4816SOL    HW115347   2.171   4.953   0.931
 4816SOL    HW215348   2.054   4.852   0.983
 4817SOL     OW15349   2.652   1.508   0.135
 4817SOL    HW115350   2.722   1.437   0.140
 4817SOL    HW215351   2.669   1.577   0.206
 4818SOL     OW15352   0.146   0.494   4.490
 4818SOL    HW115353   0.095   0.535   4.415
 4818SOL    HW215354   0.220   0.556   4.517
 4819SOL     OW15355   2.285   2.070   1.323
 4819SOL    HW115356   2.186   2.070   1.334
 4819SOL    HW215357   2.328   2.106   1.406
 4820SOL     OW15358   6.470   2.490   1.386
 4820SOL    HW115359   6.511   2.401   1.366
 4820SOL    HW215360   6.377   2.492   1.350
 4821SOL     OW15361   0.742   6.925   1.921
 4821SOL    HW115362   0.718   6.977   1.839
 4821SOL    HW215363   0.773   6.988   1.993
 4822SOL     OW15364   1.703   3.699   4.354
 4822SOL    HW115365   1.654   3.703   4.267
 4822SOL    HW215366   1.787   3.753   4.347
 4823SOL     OW15367   1.037   0.721   4.042
 4823SOL    HW115368   1.103   0.761   3.978
 4823SOL    HW215369   1.058   0.751   4.135
 4824SOL     OW15370   5.328   1.961   4.018
 4824SOL    HW115371   5.293   1.973   4.111
 4824SOL    HW215372   5.255   1.978   3.952
 4825SOL     OW15373   2.081   2.091   4.830
 4825SOL    HW115374   1.987   2.090   4.863
 4825SOL    HW215375   2.143   2.098   4.908
 4826SOL     OW15376   0.483   0.970   6.440
 4826SOL    HW115377   0.442   1.049   6.486
 4826SOL    HW215378   0.474   0.981   6.341
 4827SOL     OW15379   6.235   1.818   1.476
 4827SOL    HW115380   6.193   1.821   1.385
 4827SOL    HW215381   6.164   1.809   1.546
 4828SOL     OW15382   5.543   3.454   1.207
 4828SOL    HW115383   5.477   3.461   1.282
 4828SOL    HW215384   5.495   3.436   1.122
 4829SOL     OW15385   4.047   6.417   0.036
 4829SOL    HW115386   4.090   6.507   0.033
 4829SOL    HW215387   4.076   6.370   0.120
 4830SOL     OW15388   4.526   6.432   3.632
 4830SOL    HW115389   4.437   6.477   3.639
 4830SOL    HW215390   4.596   6.501   3.611
 4831SOL     OW15391   0.179   4.761   6.314
 4831SOL    HW115392   0.189   4.854   6.279
 4831SOL    HW215393   0.201   4.695   6.242
 4832SOL     OW15394   3.693   3.203   5.547
 4832SOL    HW115395   3.690   3.300   5.523
 4832SOL    HW215396   3.671   3.148   5.466
 4833SOL     OW15397   5.029   2.084   2.789
 4833SOL    HW115398   4.995   2.171   2.825
 4833SOL    HW215399   4.998   2.009   2.847
 4834SOL     OW15400   4.350   6.543   1.206
 4834SOL    HW115401   4.296   6.625   1.224
 4834SOL    HW215402   4.333   6.475   1.277
 4835SOL     OW15403   6.940   1.185   6.125
 4835SOL    HW115404   6.889   1.271   6.125
 4835SOL    HW215405   0.016   1.204   6.119
 4836SOL     OW15406   4.809   3.084   4.178
 4836SOL    HW115407   4.805   2.988   4.207
 4836SOL    HW215408   4.813   3.143   4.259
 4837SOL     OW15409   5.987   4.478   1.789
 4837SOL    HW115410   6.074   4.460   1.743
 4837SOL    HW215411   5.974   4.411   1.862
 4838SOL     OW15412   0.708   4.702   0.830
 4838SOL    HW115413   0.674   4.631   0.768
 4838SOL    HW215414   0.678   4.791   0.798
 4839SOL     OW15415   1.774   2.552   5.977
 4839SOL    HW115416   1.783   2.592   6.068
 4839SOL    HW215417   1.694   2.491   5.974
 4840SOL     OW15418   0.501   5.643   5.788
 4840SOL    HW115419   0.479   5.709   5.860
 4840SOL    HW215420   0.416   5.612   5.745
 4841SOL     OW15421   3.131   6.115   1.809
 4841SOL    HW115422   3.072   6.175   1.862
 4841SOL    HW215423   3.075   6.055   1.752
 4842SOL     OW15424   3.441   4.974   2.407
 4842SOL    HW115425   3.389   5.056   2.432
 4842SOL    HW215426   3.415   4.944   2.315
 4843SOL     OW15427   6.044   3.277   0.498
 4843SOL    HW115428   6.014   3.185   0.470
 4843SOL    HW215429   6.000   3.302   0.584
 4844SOL     OW15430   6.486   3.050   5.766
 4844SOL    HW115431   6.546   3.057   5.846
 4844SOL    HW215432   6.530   3.095   5.688
 4845SOL     OW15433   5.804   5.285   5.204
 4845SOL    HW115434   5.763   5.343   5.274
 4845SOL    HW215435   5.765   5.308   5.115
 4846SOL     OW15436   0.269   2.605   3.739
 4846SOL    HW115437   0.282   2.507   3.758
 4846SOL    HW215438   0.242   2.617   3.644
 4847SOL     OW15439   2.769   1.144   6.211
 4847SOL    HW115440   2.748   1.233   6.169
 4847SOL    HW215441   2.685   1.104   6.246
 4848SOL     OW15442   1.552   0.747   4.013
 4848SOL    HW115443   1.463   0.703   4.006
 4848SOL    HW215444   1.576   0.788   3.925
 4849SOL     OW15445   1.363   6.434   6.704
 4849SOL    HW115446   1.312   6.453   6.619
 4849SOL    HW215447   1.319   6.359   6.753
 4850SOL     OW15448   4.309   1.863   2.363
 4850SOL    HW115449   4.316   1.871   2.263
 4850SOL    HW215450   4.373   1.926   2.406
 4851SOL     OW15451   4.462   6.073   5.821
 4851SOL    HW115452   4.488   6.064   5.725
 4851SOL    HW215453   4.427   5.985   5.854
 4852SOL     OW15454   1.199   6.308   5.124
 4852SOL    HW115455   1.226   6.369   5.199
 4852SOL    HW215456   1.281   6.272   5.079
 4853SOL     OW15457   3.077   1.133   3.367
 4853SOL    HW115458   3.026   1.151   3.451
 4853SOL    HW215459   3.173   1.158   3.380
 4854SOL     OW15460   4.664   0.204   1.806
 4854SOL    HW115461   4.704   0.182   1.895
 4854SOL    HW215462   4.608   0.128   1.774
 4855SOL     OW15463   5.973   2.506   2.495
 4855SOL    HW115464   5.938   2.444   2.425
 4855SOL    HW215465   6.067   2.480   2.519
 4856SOL     OW15466   1.863   3.800   2.616
 4856SOL    HW115467   1.884   3.807   2.714
 4856SOL    HW215468   1.787   3.862   2.594
 4857SOL     OW15469   2.197   2.107   5.073
 4857SOL    HW115470   2.258   2.029   5.087
 4857SOL    HW215471   2.248   2.192   5.089
 4858SOL     OW15472   0.547   0.631   4.363
 4858SOL    HW115473   0.588   0.613   4.453
 4858SOL    HW215474   0.494   0.552   4.333
 4859SOL     OW15475   6.969   0.824   4.780
 4859SOL    HW115476   6.990   0.816   4.878
 4859SOL    HW215477   6.969   0.920   4.753
 4860SOL     OW15478   4.362   4.873   1.553
 4860SOL    HW115479   4.427   4.836   1.619
 4860SOL    HW215480   4.409   4.896   1.468
 4861SOL     OW15481   5.066   4.878   0.058
 4861SOL    HW115482   4.977   4.853   0.019
 4861SOL    HW215483   5.138   4.822   0.016
 4862SOL     OW15484   2.612   4.766   4.306
 4862SOL    HW115485   2.574   4.857   4.327
 4862SOL    HW215486   2.584   4.702   4.378
 4863SOL     OW15487   6.149   4.055   1.465
 4863SOL    HW115488   6.176   3.984   1.401
 4863SOL    HW215489   6.087   4.017   1.533
 4864SOL     OW15490   4.089   1.291   2.666
 4864SOL    HW115491   4.039   1.377   2.661
 4864SOL    HW215492   4.073   1.248   2.755
 4865SOL     OW15493   1.956   0.245   4.500
 4865SOL    HW115494   1.873   0.299   4.515
 4865SOL    HW215495   1.998   0.224   4.588
 4866SOL     OW15496   6.181   2.633   1.549
 4866SOL    HW115497   6.266   2.676   1.517
 4866SOL    HW215498   6.202   2.542   1.584
 4867SOL     OW15499   3.396   5.353   2.096
 4867SOL    HW115500   3.398   5.449   2.070
 4867SOL    HW215501   3.486   5.312   2.082
 4868SOL     OW15502   6.448   5.127   3.011
 4868SOL    HW115503   6.362   5.089   2.976
 4868SOL    HW215504   6.524   5.093   2.956
 4869SOL     OW15505   1.411   1.221   1.464
 4869SOL    HW115506   1.355   1.146   1.499
 4869SOL    HW215507   1.455   1.194   1.379
 4870SOL     OW15508   0.159   5.810   1.786
 4870SOL    HW115509   0.079   5.752   1.772
 4870SOL    HW215510   0.205   5.784   1.872
 4871SOL     OW15511   1.454   1.229   3.779
 4871SOL    HW115512   1.535   1.190   3.735
 4871SOL    HW215513   1.459   1.329   3.774
 4872SOL     OW15514   6.176   6.442   3.524
 4872SOL    HW115515   6.211   6.367   3.469
 4872SOL    HW215516   6.129   6.508   3.464
 4873SOL     OW15517   6.632   5.616   3.017
 4873SOL    HW115518   6.624   5.716   3.016
 4873SOL    HW215519   6.688   5.587   3.095
 4874SOL     OW15520   6.342   3.555   2.914
 4874SOL    HW115521   6.376   3.462   2.920
 4874SOL    HW215522   6.266   3.568   2.978
 4875SOL     OW15523   6.066   2.401   1.309
 4875SOL    HW115524   6.075   2.432   1.404
 4875SOL    HW215525   6.076   2.479   1.248
 4876SOL     OW15526   5.868   1.766   3.874
 4876SOL    HW115527   5.852   1.748   3.777
 4876SOL    HW215528   5.810   1.706   3.929
 4877SOL     OW15529   1.426   1.894   6.627
 4877SOL    HW115530   1.501   1.935   6.575
 4877SOL    HW215531   1.389   1.962   6.690
 4878SOL     OW15532   6.051   1.513   2.722
 4878SOL    HW115533   5.957   1.541   2.744
 4878SOL    HW215534   6.049   1.427   2.670
 4879SOL     OW15535   4.135   6.725   2.720
 4879SOL    HW115536   4.072   6.650   2.699
 4879SOL    HW215537   4.226   6.704   2.684
 4880SOL     OW15538   5.311   3.158   0.444
 4880SOL    HW115539   5.299   3.072   0.494
 4880SOL    HW215540   5.280   3.234   0.501
 4881SOL     OW15541   1.941   0.761   0.158
 4881SOL    HW115542   1.925   0.819   0.078
 4881SOL    HW215543   1.995   0.812   0.225
 4882SOL     OW15544   5.050   1.257   5.119
 4882SOL    HW115545   5.106   1.337   5.095
 4882SOL    HW215546   5.108   1.188   5.163
 4883SOL     OW15547   4.929   5.066   1.865
 4883SOL    HW115548   5.001   5.036   1.927
 4883SOL    HW215549   4.918   5.166   1.873
 4884SOL     OW15550   2.375   6.510   1.359
 4884SOL    HW115551   2.465   6.549   1.377
 4884SOL    HW215552   2.315   6.528   1.437
 4885SOL     OW15553   2.706   5.139   1.909
 4885SOL    HW115554   2.637   5.067   1.905
 4885SOL    HW215555   2.661   5.228   1.917
 4886SOL     OW15556   0.880   5.439   1.392
 4886SOL    HW115557   0.809   5.508   1.373
 4886SOL    HW215558   0.967   5.486   1.408
 4887SOL     OW15559   0.861   0.201   2.604
 4887SOL    HW115560   0.961   0.194   2.600
 4887SOL    HW215561   0.834   0.233   2.695
 4888SOL     OW15562   2.479   6.964   3.548
 4888SOL    HW115563   2.551   6.958   3.617
 4888SOL    HW215564   2.486   0.029   3.501
 4889SOL     OW15565   6.748   1.416   5.687
 4889SOL    HW115566   6.681   1.401   5.759
 4889SOL    HW215567   6.827   1.466   5.724
 4890SOL     OW15568   0.573   1.208   0.064
 4890SOL    HW115569   0.637   1.143   0.023
 4890SOL    HW215570   0.622   1.293   0.084
 4891SOL     OW15571   1.693   4.420   6.686
 4891SOL    HW115572   1.726   4.332   6.651
 4891SOL    HW215573   1.771   4.476   6.714
 4892SOL     OW15574   3.283   6.092   1.579
 4892SOL    HW115575   3.244   6.067   1.667
 4892SOL    HW215576   3.300   6.191   1.577
 4893SOL     OW15577   7.008   3.180   1.794
 4893SOL    HW115578   6.982   3.142   1.883
 4893SOL    HW215579   6.965   3.269   1.782
 4894SOL     OW15580   2.315   1.313   3.578
 4894SOL    HW115581   2.252   1.339   3.505
 4894SOL    HW215582   2.306   1.215   3.597
 4895SOL     OW15583   0.917   4.728   3.991
 4895SOL    HW115584   0.987   4.701   4.057
 4895SOL    HW215585   0.961   4.765   3.909
 4896SOL     OW15586   1.912   4.824   2.095
 4896SOL    HW115587   1.931   4.891   2.023
 4896SOL    HW215588   1.830   4.851   2.146
 4897SOL     OW15589   2.030   3.714   5.576
 4897SOL    HW115590   2.073   3.793   5.619
 4897SOL    HW215591   2.094   3.672   5.511
 4898SOL     OW15592   4.224   0.709   4.323
 4898SOL    HW115593   4.185   0.620   4.346
 4898SOL    HW215594   4.151   0.777   4.318
 4899SOL     OW15595   5.732   5.828   3.151
 4899SOL    HW115596   5.664   5.896   3.121
 4899SOL    HW215597   5.812   5.832   3.091
 4900SOL     OW15598   3.077   6.500   4.847
 4900SOL    HW115599   3.026   6.529   4.928
 4900SOL    HW215600   3.082   6.576   4.782
 4901SOL     OW15601   3.410   0.760   5.297
 4901SOL    HW115602   3.417   0.831   5.227
 4901SOL    HW215603   3.434   0.671   5.257
 4902SOL     OW15604   2.114   1.693   4.531
 4902SOL    HW115605   2.056   1.763   4.573
 4902SOL    HW215606   2.206   1.699   4.569
 4903SOL     OW15607   3.890   5.634   6.832
 4903SOL    HW115608   3.979   5.597   6.808
 4903SOL    HW215609   3.901   5.709   6.896
 4904SOL     OW15610   2.110   0.036   4.234
 4904SOL    HW115611   2.059   7.016   4.309
 4904SOL    HW215612   2.119   0.134   4.251
 4905SOL     OW15613   3.957   6.916   2.878
 4905SOL    HW115614   4.008   6.836   2.845
 4905SOL    HW215615   3.984   6.936   2.972
 4906SOL     OW15616   5.110   2.450   6.431
 4906SOL    HW115617   5.041   2.474   6.363
 4906SOL    HW215618   5.200   2.448   6.388
 4907SOL     OW15619   4.396   5.515   2.163
 4907SOL    HW115620   4.450   5.587   2.207
 4907SOL    HW215621   4.378   5.442   2.229
 4908SOL     OW15622   5.392   5.326   6.942
 4908SOL    HW115623   5.415   5.342   0.015
 4908SOL    HW215624   5.457   5.375   6.884
 4909SOL     OW15625   6.824   0.067   4.325
 4909SOL    HW115626   6.870   0.047   4.239
 4909SOL    HW215627   6.856   0.154   4.361
 4910SOL     OW15628   5.789   0.657   4.865
 4910SOL    HW115629   5.757   0.679   4.957
 4910SOL    HW215630   5.777   0.736   4.806
 4911SOL     OW15631   1.566   3.994   3.975
 4911SOL    HW115632   1.494   4.060   3.997
 4911SOL    HW215633   1.525   3.903   3.965
 4912SOL     OW15634   5.029   1.227   6.377
 4912SOL    HW115635   5.093   1.197   6.306
 4912SOL    HW215636   5.041   1.170   6.458
 4913SOL     OW15637   3.558   2.737   5.521
 4913SOL    HW115638   3.500   2.732   5.439
 4913SOL    HW215639   3.647   2.697   5.501
 4914SOL     OW15640   3.641   0.515   4.840
 4914SOL    HW115641   3.694   0.600   4.842
 4914SOL    HW215642   3.683   0.451   4.777
 4915SOL     OW15643   3.939   6.438   5.745
 4915SOL    HW115644   3.968   6.489   5.825
 4915SOL    HW215645   3.980   6.346   5.747
 4916SOL     OW15646   1.014   0.164   3.732
 4916SOL    HW115647   1.045   0.246   3.779
 4916SOL    HW215648   0.950   0.115   3.790
 4917SOL     OW15649   2.734   5.261   1.331
 4917SOL    HW115650   2.822   5.270   1.285
 4917SOL    HW215651   2.691   5.175   1.306
 4918SOL     OW15652   5.016   5.540   2.396
 4918SOL    HW115653   4.979   5.456   2.356
 4918SOL    HW215654   5.099   5.566   2.347
 4919SOL     OW15655   2.497   3.048   0.501
 4919SOL    HW115656   2.480   3.087   0.410
 4919SOL    HW215657   2.589   3.072   0.531
 4920SOL     OW15658   6.042   0.932   4.264
 4920SOL    HW115659   6.141   0.943   4.269
 4920SOL    HW215660   6.005   0.914   4.355
 4921SOL     OW15661   1.223   5.075   0.583
 4921SOL    HW115662   1.191   5.073   0.488
 4921SOL    HW215663   1.144   5.073   0.645
 4922SOL     OW15664   2.608   2.311   5.079
 4922SOL    HW115665   2.591   2.235   5.142
 4922SOL    HW215666   2.678   2.284   5.012
 4923SOL     OW15667   4.157   1.785   2.741
 4923SOL    HW115668   4.105   1.812   2.660
 4923SOL    HW215669   4.094   1.750   2.810
 4924SOL     OW15670   3.057   1.343   5.007
 4924SOL    HW115671   3.115   1.425   5.016
 4924SOL    HW215672   2.962   1.371   4.992
 4925SOL     OW15673   6.874   0.059   2.492
 4925SOL    HW115674   6.915   0.150   2.487
 4925SOL    HW215675   6.802   0.051   2.423
 4926SOL     OW15676   5.109   1.110   0.720
 4926SOL    HW115677   5.141   1.039   0.784
 4926SOL    HW215678   5.050   1.174   0.768
 4927SOL     OW15679   3.635   3.785   4.407
 4927SOL    HW115680   3.624   3.854   4.478
 4927SOL    HW215681   3.720   3.734   4.422
 4928SOL     OW15682   1.746   6.805   6.729
 4928SOL    HW115683   1.648   6.796   6.716
 4928SOL    HW215684   1.778   6.735   6.793
 4929SOL     OW15685   0.313   5.724   4.242
 4929SOL    HW115686   0.389   5.721   4.177
 4929SOL    HW215687   0.245   5.790   4.211
 4930SOL     OW15688   5.070   1.186   3.079
 4930SOL    HW115689   5.159   1.144   3.065
 4930SOL    HW215690   4.999   1.131   3.035
 4931SOL     OW15691   0.498   6.619   0.696
 4931SOL    HW115692   0.435   6.543   0.676
 4931SOL    HW215693   0.520   6.619   0.793
 4932SOL     OW15694   2.823   3.245   1.786
 4932SOL    HW115695   2.870   3.157   1.776
 4932SOL    HW215696   2.888   3.314   1.817
 4933SOL     OW15697   2.413   0.440   3.133
 4933SOL    HW115698   2.409   0.345   3.165
 4933SOL    HW215699   2.485   0.489   3.182
 4934SOL     OW15700   2.919   6.042   2.360
 4934SOL    HW115701   2.863   6.026   2.441
 4934SOL    HW215702   2.970   5.958   2.337
 4935SOL     OW15703   1.839   1.626   6.217
 4935SOL    HW115704   1.792   1.639   6.129
 4935SOL    HW215705   1.870   1.532   6.225
 4936SOL     OW15706   2.415   4.395   1.951
 4936SOL    HW115707   2.430   4.465   1.881
 4936SOL    HW215708   2.425   4.436   2.042
 4937SOL     OW15709   6.453   2.778   5.624
 4937SOL    HW115710   6.488   2.836   5.552
 4937SOL    HW215711   6.455   2.828   5.711
 4938SOL     OW15712   2.452   5.512   5.780
 4938SOL    HW115713   2.457   5.543   5.685
 4938SOL    HW215714   2.535   5.541   5.829
 4939SOL     OW15715   6.517   2.235   4.620
 4939SOL    HW115716   6.540   2.139   4.608
 4939SOL    HW215717   6.434   2.257   4.568
 4940SOL     OW15718   0.050   1.083   4.838
 4940SOL    HW115719   6.980   1.110   4.812
 4940SOL    HW215720   0.046   1.024   4.919
 4941SOL     OW15721   5.454   2.621   5.405
 4941SOL    HW115722   5.412   2.550   5.348
 4941SOL    HW215723   5.526   2.580   5.461
 4942SOL     OW15724   5.156   2.788   6.072
 4942SOL    HW115725   5.214   2.741   6.005
 4942SOL    HW215726   5.094   2.722   6.114
 4943SOL     OW15727   4.479   3.570   6.900
 4943SOL    HW115728   4.563   3.546   6.852
 4943SOL    HW215729   4.480   3.668   6.922
 4944SOL     OW15730   1.978   4.649   1.874
 4944SOL    HW115731   1.990   4.575   1.940
 4944SOL    HW215732   1.933   4.726   1.918
 4945SOL     OW15733   1.060   0.056   4.315
 4945SOL    HW115734   1.001   0.134   4.294
 4945SOL    HW215735   1.156   0.086   4.313
 4946SOL     OW15736   1.487   4.683   0.150
 4946SOL    HW115737   1.408   4.718   0.201
 4946SOL    HW215738   1.547   4.632   0.213
 4947SOL     OW15739   2.154   0.967   0.964
 4947SOL    HW115740   2.234   0.980   1.024
 4947SOL    HW215741   2.098   1.049   0.966
 4948SOL     OW15742   1.256   2.391   2.592
 4948SOL    HW115743   1.244   2.453   2.515
 4948SOL    HW215744   1.169   2.349   2.615
 4949SOL     OW15745   4.898   6.406   5.960
 4949SOL    HW115746   4.866   6.488   6.007
 4949SOL    HW215747   4.922   6.336   6.027
 4950SOL     OW15748   2.474   5.885   4.182
 4950SOL    HW115749   2.398   5.902   4.244
 4950SOL    HW215750   2.525   5.970   4.167
 4951SOL     OW15751   5.739   1.681   4.992
 4951SOL    HW115752   5.807   1.733   5.044
 4951SOL    HW215753   5.785   1.609   4.940
 4952SOL     OW15754   0.227   0.781   6.285
 4952SOL    HW115755   0.258   0.774   6.379
 4952SOL    HW215756   0.127   0.781   6.282
 4953SOL     OW15757   2.585   5.910   2.825
 4953SOL    HW115758   2.647   5.976   2.783
 4953SOL    HW215759   2.636   5.828   2.853
 4954SOL     OW15760   4.028   3.038   6.886
 4954SOL    HW115761   4.073   3.079   6.806
 4954SOL    HW215762   4.098   3.007   6.951
 4955SOL     OW15763   2.849   6.167   6.645
 4955SOL    HW115764   2.775   6.171   6.713
 4955SOL    HW215765   2.852   6.252   6.593
 4956SOL     OW15766   2.293   6.495   5.221
 4956SOL    HW115767   2.338   6.583   5.206
 4956SOL    HW215768   2.265   6.488   5.317
 4957SOL     OW15769   6.701   2.169   1.824
 4957SOL    HW115770   6.657   2.217   1.900
 4957SOL    HW215771   6.710   2.072   1.846
 4958SOL     OW15772   7.008   5.137   5.547
 4958SOL    HW115773   0.041   5.220   5.561
 4958SOL    HW215774   0.046   5.059   5.529
 4959SOL     OW15775   6.294   1.284   0.112
 4959SOL    HW115776   6.297   1.196   0.160
 4959SOL    HW215777   6.384   1.328   0.118
 4960SOL     OW15778   3.481   4.903   3.781
 4960SOL    HW115779   3.570   4.878   3.742
 4960SOL    HW215780   3.485   4.895   3.880
 4961SOL     OW15781   4.689   1.376   5.954
 4961SOL    HW115782   4.732   1.391   6.043
 4961SOL    HW215783   4.743   1.310   5.902
 4962SOL     OW15784   6.745   1.918   0.305
 4962SOL    HW115785   6.815   1.926   0.235
 4962SOL    HW215786   6.783   1.943   0.394
 4963SOL     OW15787   6.246   5.827   6.827
 4963SOL    HW115788   6.196   5.740   6.824
 4963SOL    HW215789   6.181   5.902   6.842
 4964SOL     OW15790   2.790   6.994   3.922
 4964SOL    HW115791   2.789   6.986   3.822
 4964SOL    HW215792   2.875   0.015   3.951
 4965SOL     OW15793   6.894   0.636   3.117
 4965SOL    HW115794   6.874   0.733   3.099
 4965SOL    HW215795   6.937   0.596   3.036
 4966SOL     OW15796   2.120   6.926   4.865
 4966SOL    HW115797   2.143   6.842   4.816
 4966SOL    HW215798   2.073   6.903   4.950
 4967SOL     OW15799   3.978   4.998   6.318
 4967SOL    HW115800   3.969   4.917   6.260
 4967SOL    HW215801   4.068   5.039   6.303
 4968SOL     OW15802   6.364   2.227   3.808
 4968SOL    HW115803   6.288   2.228   3.744
 4968SOL    HW215804   6.392   2.132   3.826
 4969SOL     OW15805   2.430   0.278   2.776
 4969SOL    HW115806   2.476   0.206   2.724
 4969SOL    HW215807   2.332   0.259   2.780
 4970SOL     OW15808   1.819   2.482   3.299
 4970SOL    HW115809   1.910   2.488   3.256
 4970SOL    HW215810   1.750   2.466   3.229
 4971SOL     OW15811   6.521   6.134   4.242
 4971SOL    HW115812   6.504   6.191   4.322
 4971SOL    HW215813   6.610   6.158   4.202
 4972SOL     OW15814   2.091   3.060   0.302
 4972SOL    HW115815   2.114   3.135   0.364
 4972SOL    HW215816   2.002   3.021   0.328
 4973SOL     OW15817   1.784   0.452   2.587
 4973SOL    HW115818   1.882   0.450   2.568
 4973SOL    HW215819   1.733   0.447   2.501
 4974SOL     OW15820   5.755   4.868   0.974
 4974SOL    HW115821   5.739   4.833   1.067
 4974SOL    HW215822   5.666   4.887   0.931
 4975SOL     OW15823   5.878   4.368   5.682
 4975SOL    HW115824   5.853   4.312   5.604
 4975SOL    HW215825   5.888   4.311   5.764
 4976SOL     OW15826   2.406   0.259   4.076
 4976SOL    HW115827   2.499   0.286   4.099
 4976SOL    HW215828   2.408   0.178   4.017
 4977SOL     OW15829   3.799   4.392   0.627
 4977SOL    HW115830   3.741   4.384   0.546
 4977SOL    HW215831   3.876   4.453   0.607
 4978SOL     OW15832   0.112   4.343   4.809
 4978SOL    HW115833   0.208   4.337   4.782
 4978SOL    HW215834   0.067   4.255   4.795
 4979SOL     OW15835   0.390   0.308   6.033
 4979SOL    HW115836   0.324   0.256   6.088
 4979SOL    HW215837   0.392   0.402   6.065
 4980SOL     OW15838   5.045   6.119   3.423
 4980SOL    HW115839   5.002   6.034   3.396
 4980SOL    HW215840   5.131   6.131   3.371
 4981SOL     OW15841   4.942   6.336   6.625
 4981SOL    HW115842   4.887   6.419   6.633
 4981SOL    HW215843   4.980   6.313   6.715
 4982SOL     OW15844   2.562   1.708   6.144
 4982SOL    HW115845   2.531   1.685   6.237
 4982SOL    HW215846   2.634   1.778   6.150
 4983SOL     OW15847   5.712   2.584   4.753
 4983SOL    HW115848   5.802   2.544   4.738
 4983SOL    HW215849   5.670   2.604   4.664
 4984SOL     OW15850   5.587   4.198   3.629
 4984SOL    HW115851   5.683   4.225   3.627
 4984SOL    HW215852   5.536   4.257   3.692
 4985SOL     OW15853   6.255   6.215   3.428
 4985SOL    HW115854   6.298   6.223   3.338
 4985SOL    HW215855   6.239   6.119   3.450
 4986SOL     OW15856   6.003   4.075   2.168
 4986SOL    HW115857   6.025   4.007   2.099
 4986SOL    HW215858   5.927   4.043   2.225
 4987SOL     OW15859   1.212   0.866   1.128
 4987SOL    HW115860   1.138   0.805   1.155
 4987SOL    HW215861   1.178   0.961   1.129
 4988SOL     OW15862   5.581   0.689   3.405
 4988SOL    HW115863   5.574   0.589   3.397
 4988SOL    HW215864   5.534   0.719   3.488
 4989SOL     OW15865   5.533   0.098   1.632
 4989SOL    HW115866   5.459   0.067   1.691
 4989SOL    HW215867   5.568   0.020   1.579
 4990SOL     OW15868   1.978   1.797   4.984
 4990SOL    HW115869   2.050   1.750   4.932
 4990SOL    HW215870   1.972   1.892   4.953
 4991SOL     OW15871   6.690   4.226   4.637
 4991SOL    HW115872   6.784   4.202   4.616
 4991SOL    HW215873   6.646   4.150   4.686
 4992SOL     OW15874   4.874   0.965   4.616
 4992SOL    HW115875   4.836   0.937   4.528
 4992SOL    HW215876   4.868   1.064   4.625
 4993SOL     OW15877   3.392   5.200   4.290
 4993SOL    HW115878   3.363   5.296   4.287
 4993SOL    HW215879   3.317   5.144   4.325
 4994SOL     OW15880   2.280   0.021   2.737
 4994SOL    HW115881   2.363   0.026   2.682
 4994SOL    HW215882   2.303   0.023   2.834
 4995SOL     OW15883   0.004   2.714   5.872
 4995SOL    HW115884   0.024   2.647   5.943
 4995SOL    HW215885   6.929   2.737   5.874
 4996SOL     OW15886   1.601   1.105   2.602
 4996SOL    HW115887   1.656   1.183   2.572
 4996SOL    HW215888   1.508   1.114   2.567
 4997SOL     OW15889   5.595   2.044   3.215
 4997SOL    HW115890   5.513   1.992   3.191
 4997SOL    HW215891   5.672   1.981   3.229
 4998SOL     OW15892   2.080   4.067   5.199
 4998SOL    HW115893   2.166   4.024   5.225
 4998SOL    HW215894   2.095   4.125   5.119
 4999SOL     OW15895   6.227   4.614   1.022
 4999SOL    HW115896   6.165   4.560   0.965
 4999SOL    HW215897   6.247   4.701   0.976
 5000SOL     OW15898   2.869   6.744   3.993
 5000SOL    HW115899   2.786   6.689   3.984
 5000SOL    HW215900   2.863   6.823   3.933
 5001SOL     OW15901   0.949   4.153   0.431
 5001SOL    HW115902   0.925   4.056   0.424
 5001SOL    HW215903   0.965   4.176   0.527
 5002SOL     OW15904   1.319   3.380   3.736
 5002SOL    HW115905   1.390   3.438   3.696
 5002SOL    HW215906   1.287   3.315   3.667
 5003SOL     OW15907   2.324   6.494   2.888
 5003SOL    HW115908   2.385   6.517   2.963
 5003SOL    HW215909   2.367   6.424   2.830
 5004SOL     OW15910   3.088   4.916   5.968
 5004SOL    HW115911   3.152   4.849   6.006
 5004SOL    HW215912   3.087   4.998   6.026
 5005SOL     OW15913   3.232   2.571   0.214
 5005SOL    HW115914   3.155   2.605   0.160
 5005SOL    HW215915   3.211   2.479   0.248
 5006SOL     OW15916   4.983   6.933   0.123
 5006SOL    HW115917   4.980   0.002   0.083
 5006SOL    HW215918   4.905   6.922   0.184
 5007SOL     OW15919   1.608   0.201   6.945
 5007SOL    HW115920   1.568   0.202   0.014
 5007SOL    HW215921   1.626   0.106   6.919
 5008SOL     OW15922   6.446   6.988   3.280
 5008SOL    HW115923   6.450   6.906   3.222
 5008SOL    HW215924   6.519   0.029   3.253
 5009SOL     OW15925   1.832   6.168   1.037
 5009SOL    HW115926   1.892   6.138   1.112
 5009SOL    HW215927   1.884   6.222   0.972
 5010SOL     OW15928   3.381   3.244   2.996
 5010SOL    HW115929   3.420   3.249   2.903
 5010SOL    HW215930   3.436   3.182   3.052
 5011SOL     OW15931   1.911   4.133   2.723
 5011SOL    HW115932   1.942   4.041   2.748
 5011SOL    HW215933   1.902   4.188   2.806
 5012SOL     OW15934   4.882   4.238   6.576
 5012SOL    HW115935   4.947   4.191   6.517
 5012SOL    HW215936   4.886   4.336   6.559
 5013SOL     OW15937   4.802   1.607   6.857
 5013SOL    HW115938   4.827   1.558   6.940
 5013SOL    HW215939   4.878   1.665   6.828
 5014SOL     OW15940   5.149   4.176   0.749
 5014SOL    HW115941   5.165   4.168   0.650
 5014SOL    HW215942   5.212   4.115   0.798
 5015SOL     OW15943   4.718   2.308   3.779
 5015SOL    HW115944   4.724   2.219   3.825
 5015SOL    HW215945   4.716   2.294   3.680
 5016SOL     OW15946   2.582   2.497   0.633
 5016SOL    HW115947   2.568   2.398   0.635
 5016SOL    HW215948   2.512   2.540   0.576
 5017SOL     OW15949   1.613   1.799   6.954
 5017SOL    HW115950   1.685   1.862   6.985
 5017SOL    HW215951   1.538   1.852   6.914
 5018SOL     OW15952   0.349   4.187   2.044
 5018SOL    HW115953   0.355   4.120   1.970
 5018SOL    HW215954   0.441   4.204   2.080
 5019SOL     OW15955   1.415   4.814   6.695
 5019SOL    HW115956   1.430   4.760   6.778
 5019SOL    HW215957   1.410   4.753   6.616
 5020SOL     OW15958   4.662   6.583   6.090
 5020SOL    HW115959   4.579   6.630   6.123
 5020SOL    HW215960   4.648   6.552   5.996
 5021SOL     OW15961   1.295   2.175   5.824
 5021SOL    HW115962   1.332   2.234   5.752
 5021SOL    HW215963   1.201   2.148   5.800
 5022SOL     OW15964   1.680   0.605   0.598
 5022SOL    HW115965   1.746   0.530   0.594
 5022SOL    HW215966   1.630   0.609   0.511
 5023SOL     OW15967   6.418   2.899   0.729
 5023SOL    HW115968   6.471   2.958   0.789
 5023SOL    HW215969   6.321   2.908   0.750
 5024SOL     OW15970   6.072   5.838   2.699
 5024SOL    HW115971   6.101   5.915   2.756
 5024SOL    HW215972   5.987   5.862   2.651
 5025SOL     OW15973   3.760   1.842   2.058
 5025SOL    HW115974   3.816   1.889   1.990
 5025SOL    HW215975   3.788   1.870   2.150
 5026SOL     OW15976   6.224   6.171   6.567
 5026SOL    HW115977   6.139   6.203   6.610
 5026SOL    HW215978   6.298   6.234   6.590
 5027SOL     OW15979   0.996   6.737   2.316
 5027SOL    HW115980   1.028   6.647   2.287
 5027SOL    HW215981   1.011   6.803   2.243
 5028SOL     OW15982   0.417   6.624   3.402
 5028SOL    HW115983   0.354   6.574   3.344
 5028SOL    HW215984   0.460   6.562   3.467
 5029SOL     OW15985   0.193   3.378   3.279
 5029SOL    HW115986   0.257   3.454   3.269
 5029SOL    HW215987   0.109   3.411   3.324
 5030SOL     OW15988   6.508   0.802   6.007
 5030SOL    HW115989   6.542   0.863   5.935
 5030SOL    HW215990   6.533   0.839   6.096
 5031SOL     OW15991   5.989   0.493   4.903
 5031SOL    HW115992   6.038   0.514   4.988
 5031SOL    HW215993   5.904   0.546   4.900
 5032SOL     OW15994   1.453   3.094   0.761
 5032SOL    HW115995   1.489   3.119   0.851
 5032SOL    HW215996   1.522   3.042   0.710
 5033SOL     OW15997   2.558   5.872   6.726
 5033SOL    HW115998   2.633   5.828   6.676
 5033SOL    HW215999   2.477   5.877   6.668
 5034SOL     OW16000   6.011   1.357   3.116
 5034SOL    HW116001   5.938   1.316   3.062
 5034SOL    HW216002   6.087   1.293   3.126
 5035SOL     OW16003   6.957   4.227   0.398
 5035SOL    HW116004   6.886   4.170   0.356
 5035SOL    HW216005   7.013   4.171   0.459
 5036SOL     OW16006   0.429   4.965   6.868
 5036SOL    HW116007   0.496   4.951   6.941
 5036SOL    HW216008   0.407   5.062   6.861
 5037SOL     OW16009   5.559   2.633   2.482
 5037SOL    HW116010   5.471   2.594   2.453
 5037SOL    HW216011   5.584   2.708   2.421
 5038SOL     OW16012   2.063   3.941   5.734
 5038SOL    HW116013   2.111   3.902   5.813
 5038SOL    HW216014   2.074   4.040   5.734
 5039SOL     OW16015   2.977   3.663   5.440
 5039SOL    HW116016   3.008   3.757   5.449
 5039SOL    HW216017   3.052   3.601   5.464
 5040SOL     OW16018   1.720   4.717   6.388
 5040SOL    HW116019   1.671   4.674   6.312
 5040SOL    HW216020   1.689   4.811   6.398
 5041SOL     OW16021   1.920   1.997   1.289
 5041SOL    HW116022   1.927   1.900   1.312
 5041SOL    HW216023   1.880   2.007   1.198
 5042SOL     OW16024   5.906   3.154   1.083
 5042SOL    HW116025   5.934   3.058   1.077
 5042SOL    HW216026   5.836   3.164   1.154
 5043SOL     OW16027   2.794   1.147   5.691
 5043SOL    HW116028   2.780   1.081   5.765
 5043SOL    HW216029   2.708   1.191   5.668
 5044SOL     OW16030   6.608   6.284   2.319
 5044SOL    HW116031   6.590   6.264   2.223
 5044SOL    HW216032   6.578   6.207   2.376
 5045SOL     OW16033   5.536   3.205   0.284
 5045SOL    HW116034   5.576   3.293   0.313
 5045SOL    HW216035   5.441   3.201   0.315
 5046SOL     OW16036   3.579   4.164   4.380
 5046SOL    HW116037   3.639   4.242   4.394
 5046SOL    HW216038   3.581   4.105   4.461
 5047SOL     OW16039   0.147   3.194   2.369
 5047SOL    HW116040   0.101   3.261   2.427
 5047SOL    HW216041   0.246   3.203   2.379
 5048SOL     OW16042   0.511   1.126   1.823
 5048SOL    HW116043   0.489   1.154   1.917
 5048SOL    HW216044   0.606   1.150   1.803
 5049SOL     OW16045   6.156   2.105   4.655
 5049SOL    HW116046   6.138   2.023   4.600
 5049SOL    HW216047   6.174   2.079   4.749
 5050SOL     OW16048   1.026   0.967   1.978
 5050SOL    HW116049   1.084   0.915   2.040
 5050SOL    HW216050   1.067   1.057   1.961
 5051SOL     OW16051   4.213   3.279   0.500
 5051SOL    HW116052   4.251   3.334   0.575
 5051SOL    HW216053   4.149   3.335   0.447
 5052SOL     OW16054   2.654   5.640   5.929
 5052SOL    HW116055   2.690   5.661   6.020
 5052SOL    HW216056   2.728   5.644   5.862
 5053SOL     OW16057   1.976   3.980   3.900
 5053SOL    HW116058   1.918   4.017   3.827
 5053SOL    HW216059   1.929   3.988   3.988
 5054SOL     OW16060   3.727   5.632   5.264
 5054SOL    HW116061   3.674   5.553   5.234
 5054SOL    HW216062   3.825   5.613   5.255
 5055SOL     OW16063   1.453   0.008   5.722
 5055SOL    HW116064   1.464   0.005   5.622
 5055SOL    HW216065   1.360   0.038   5.744
 5056SOL     OW16066   6.190   4.031   0.449
 5056SOL    HW116067   6.264   4.016   0.384
 5056SOL    HW216068   6.223   4.015   0.542
 5057SOL     OW16069   0.336   5.222   4.977
 5057SOL    HW116070   0.381   5.289   5.036
 5057SOL    HW216071   0.237   5.225   4.992
 5058SOL     OW16072   2.575   3.198   5.533
 5058SOL    HW116073   2.530   3.118   5.571
 5058SOL    HW216074   2.640   3.169   5.462
 5059SOL     OW16075   5.304   3.266   3.656
 5059SOL    HW116076   5.297   3.335   3.727
 5059SOL    HW216077   5.372   3.198   3.683
 5060SOL     OW16078   0.551   2.686   5.593
 5060SOL    HW116079   0.509   2.683   5.502
 5060SOL    HW216080   0.514   2.763   5.645
 5061SOL     OW16081   3.067   3.241   3.431
 5061SOL    HW116082   3.075   3.161   3.372
 5061SOL    HW216083   3.063   3.212   3.527
 5062SOL     OW16084   5.790   1.017   3.168
 5062SOL    HW116085   5.791   1.015   3.268
 5062SOL    HW216086   5.871   0.971   3.133
 5063SOL     OW16087   1.356   6.835   2.080
 5063SOL    HW116088   1.329   6.858   1.986
 5063SOL    HW216089   1.318   6.746   2.105
 5064SOL     OW16090   4.360   4.182   1.584
 5064SOL    HW116091   4.384   4.194   1.680
 5064SOL    HW216092   4.329   4.269   1.546
 5065SOL     OW16093   1.277   1.972   3.319
 5065SOL    HW116094   1.202   1.927   3.271
 5065SOL    HW216095   1.271   2.071   3.304
 5066SOL     OW16096   3.780   4.471   1.148
 5066SOL    HW116097   3.760   4.377   1.123
 5066SOL    HW216098   3.706   4.531   1.115
 5067SOL     OW16099   2.902   1.238   2.434
 5067SOL    HW116100   2.804   1.217   2.443
 5067SOL    HW216101   2.936   1.204   2.347
 5068SOL     OW16102   2.991   4.790   0.353
 5068SOL    HW116103   3.037   4.751   0.432
 5068SOL    HW216104   3.007   4.889   0.349
 5069SOL     OW16105   1.717   2.203   5.876
 5069SOL    HW116106   1.755   2.129   5.820
 5069SOL    HW216107   1.789   2.240   5.934
 5070SOL     OW16108   5.084   5.091   4.459
 5070SOL    HW116109   5.082   5.115   4.556
 5070SOL    HW216110   5.014   5.021   4.441
 5071SOL     OW16111   3.841   1.946   3.483
 5071SOL    HW116112   3.872   2.018   3.544
 5071SOL    HW216113   3.834   1.860   3.533
 5072SOL     OW16114   1.225   1.060   1.578
 5072SOL    HW116115   1.187   1.036   1.667
 5072SOL    HW216116   1.218   0.982   1.516
 5073SOL     OW16117   1.292   4.335   0.818
 5073SOL    HW116118   1.284   4.316   0.720
 5073SOL    HW216119   1.238   4.269   0.869
 5074SOL     OW16120   2.997   2.026   2.009
 5074SOL    HW116121   2.908   2.069   1.997
 5074SOL    HW216122   3.055   2.083   2.066
 5075SOL     OW16123   1.588   2.293   6.444
 5075SOL    HW116124   1.643   2.333   6.517
 5075SOL    HW216125   1.607   2.195   6.437
 5076SOL     OW16126   5.487   0.078   0.983
 5076SOL    HW116127   5.536   7.015   0.966
 5076SOL    HW216128   5.498   0.104   1.079
 5077SOL     OW16129   1.636   4.210   5.689
 5077SOL    HW116130   1.691   4.131   5.662
 5077SOL    HW216131   1.588   4.190   5.775
 5078SOL     OW16132   0.448   0.758   3.925
 5078SOL    HW116133   0.513   0.685   3.902
 5078SOL    HW216134   0.384   0.723   3.994
 5079SOL     OW16135   2.293   2.766   4.881
 5079SOL    HW116136   2.305   2.833   4.955
 5079SOL    HW216137   2.350   2.686   4.899
 5080SOL     OW16138   6.260   6.281   5.815
 5080SOL    HW116139   6.309   6.317   5.735
 5080SOL    HW216140   6.317   6.213   5.861
 5081SOL     OW16141   2.421   3.925   5.980
 5081SOL    HW116142   2.426   3.825   5.973
 5081SOL    HW216143   2.398   3.964   5.890
 5082SOL     OW16144   4.855   6.556   1.178
 5082SOL    HW116145   4.917   6.494   1.227
 5082SOL    HW216146   4.865   6.649   1.215
 5083SOL     OW16147   2.735   0.556   2.732
 5083SOL    HW116148   2.741   0.654   2.753
 5083SOL    HW216149   2.693   0.508   2.809
 5084SOL     OW16150   1.029   4.907   3.784
 5084SOL    HW116151   1.085   4.876   3.708
 5084SOL    HW216152   1.086   4.959   3.848
 5085SOL     OW16153   6.488   2.656   5.349
 5085SOL    HW116154   6.531   2.676   5.262
 5085SOL    HW216155   6.446   2.740   5.385
 5086SOL     OW16156   1.671   5.305   3.203
 5086SOL    HW116157   1.655   5.208   3.222
 5086SOL    HW216158   1.702   5.316   3.108
 5087SOL     OW16159   1.147   5.352   2.146
 5087SOL    HW116160   1.124   5.434   2.093
 5087SOL    HW216161   1.128   5.370   2.243
 5088SOL     OW16162   6.208   6.800   3.917
 5088SOL    HW116163   6.170   6.819   3.827
 5088SOL    HW216164   6.163   6.720   3.957
 5089SOL     OW16165   6.167   4.675   3.508
 5089SOL    HW116166   6.238   4.674   3.579
 5089SOL    HW216167   6.206   4.705   3.421
 5090SOL     OW16168   1.823   3.340   2.457
 5090SOL    HW116169   1.786   3.329   2.365
 5090SOL    HW216170   1.923   3.346   2.452
 5091SOL     OW16171   0.157   1.512   1.443
 5091SOL    HW116172   0.088   1.570   1.487
 5091SOL    HW216173   0.150   1.419   1.478
 5092SOL     OW16174   3.270   3.461   3.425
 5092SOL    HW116175   3.242   3.555   3.447
 5092SOL    HW216176   3.191   3.400   3.433
 5093SOL     OW16177   3.149   1.105   0.591
 5093SOL    HW116178   3.100   1.191   0.578
 5093SOL    HW216179   3.245   1.124   0.612
 5094SOL     OW16180   2.608   5.586   6.456
 5094SOL    HW116181   2.669   5.507   6.464
 5094SOL    HW216182   2.547   5.574   6.378
 5095SOL     OW16183   6.781   2.397   2.765
 5095SOL    HW116184   6.803   2.303   2.789
 5095SOL    HW216185   6.724   2.438   2.837
 5096SOL     OW16186   4.495   4.791   6.395
 5096SOL    HW116187   4.432   4.723   6.357
 5096SOL    HW216188   4.449   4.844   6.466
 5097SOL     OW16189   0.934   0.122   6.248
 5097SOL    HW116190   0.982   0.132   6.161
 5097SOL    HW216191   0.937   0.026   6.276
 5098SOL     OW16192   2.838   0.739   2.092
 5098SOL    HW116193   2.844   0.685   2.008
 5098SOL    HW216194   2.851   0.680   2.171
 5099SOL     OW16195   0.557   0.036   1.124
 5099SOL    HW116196   0.615   0.048   1.043
 5099SOL    HW216197   0.486   6.991   1.104
 5100SOL     OW16198   3.098   5.703   4.422
 5100SOL    HW116199   3.048   5.699   4.508
 5100SOL    HW216200   3.099   5.796   4.387
 5101SOL     OW16201   4.033   6.976   6.241
 5101SOL    HW116202   4.021   0.052   6.250
 5101SOL    HW216203   3.944   6.931   6.246
 5102SOL     OW16204   5.675   6.185   4.082
 5102SOL    HW116205   5.607   6.257   4.066
 5102SOL    HW216206   5.753   6.200   4.021
 5103SOL     OW16207   6.948   1.092   4.356
 5103SOL    HW116208   6.925   1.186   4.333
 5103SOL    HW216209   0.016   1.089   4.399
 5104SOL     OW16210   1.863   5.979   2.152
 5104SOL    HW116211   1.789   6.030   2.194
 5104SOL    HW216212   1.919   5.936   2.222
 5105SOL     OW16213   2.783   2.483   7.018
 5105SOL    HW116214   2.809   2.479   6.921
 5105SOL    HW216215   2.711   2.551   0.008
 5106SOL     OW16216   4.328   1.862   0.511
 5106SOL    HW116217   4.408   1.877   0.452
 5106SOL    HW216218   4.260   1.934   0.494
 5107SOL     OW16219   4.368   2.372   1.524
 5107SOL    HW116220   4.297   2.336   1.584
 5107SOL    HW216221   4.382   2.308   1.448
 5108SOL     OW16222   4.016   3.963   5.164
 5108SOL    HW116223   4.029   3.898   5.089
 5108SOL    HW216224   3.947   4.031   5.138
 5109SOL     OW16225   0.719   2.210   6.615
 5109SOL    HW116226   0.717   2.114   6.587
 5109SOL    HW216227   0.739   2.267   6.536
 5110SOL     OW16228   0.617   0.056   6.161
 5110SOL    HW116229   0.684   0.080   6.231
 5110SOL    HW216230   0.657   0.069   6.070
 5111SOL     OW16231   1.153   0.497   4.694
 5111SOL    HW116232   1.172   0.595   4.688
 5111SOL    HW216233   1.134   0.473   4.789
 5112SOL     OW16234   1.503   6.947   2.999
 5112SOL    HW116235   1.573   7.010   2.965
 5112SOL    HW216236   1.546   6.878   3.056
 5113SOL     OW16237   2.116   6.276   0.959
 5113SOL    HW116238   2.088   6.333   1.037
 5113SOL    HW216239   2.208   6.241   0.975
 5114SOL     OW16240   3.971   0.226   6.948
 5114SOL    HW116241   4.025   0.235   6.864
 5114SOL    HW216242   4.031   0.201   0.001
 5115SOL     OW16243   1.323   5.084   3.619
 5115SOL    HW116244   1.261   5.149   3.664
 5115SOL    HW216245   1.415   5.123   3.615
 5116SOL     OW16246   0.943   6.310   6.801
 5116SOL    HW116247   0.848   6.287   6.780
 5116SOL    HW216248   0.991   6.228   6.832
 5117SOL     OW16249   1.489   4.397   4.402
 5117SOL    HW116250   1.424   4.330   4.437
 5117SOL    HW216251   1.564   4.350   4.356
 5118SOL     OW16252   5.395   0.707   6.986
 5118SOL    HW116253   5.357   0.651   0.037
 5118SOL    HW216254   5.321   0.753   6.937
 5119SOL     OW16255   5.330   0.512   2.714
 5119SOL    HW116256   5.387   0.481   2.791
 5119SOL    HW216257   5.247   0.457   2.710
 5120SOL     OW16258   4.232   0.116   4.109
 5120SOL    HW116259   4.189   0.193   4.062
 5120SOL    HW216260   4.274   0.055   4.041
 5121SOL     OW16261   3.094   3.026   6.936
 5121SOL    HW116262   3.138   3.077   6.862
 5121SOL    HW216263   3.016   2.975   6.900
 5122SOL     OW16264   3.599   6.151   3.448
 5122SOL    HW116265   3.574   6.202   3.366
 5122SOL    HW216266   3.573   6.203   3.529
 5123SOL     OW16267   4.154   2.158   4.324
 5123SOL    HW116268   4.071   2.127   4.278
 5123SOL    HW216269   4.205   2.079   4.357
 5124SOL     OW16270   2.093   5.667   4.531
 5124SOL    HW116271   2.009   5.695   4.579
 5124SOL    HW216272   2.172   5.711   4.574
 5125SOL     OW16273   6.276   3.830   3.897
 5125SOL    HW116274   6.287   3.783   3.810
 5125SOL    HW216275   6.356   3.813   3.954
 5126SOL     OW16276   6.322   5.517   5.649
 5126SOL    HW116277   6.328   5.480   5.556
 5126SOL    HW216278   6.238   5.485   5.693
 5127SOL     OW16279   0.655   3.931   0.240
 5127SOL    HW116280   0.635   3.872   0.161
 5127SOL    HW216281   0.727   3.890   0.295
 5128SOL     OW16282   7.010   0.463   6.233
 5128SOL    HW116283   0.005   0.561   6.224
 5128SOL    HW216284   6.912   0.445   6.219
 5129SOL     OW16285   6.427   0.032   2.611
 5129SOL    HW116286   6.449   0.068   2.702
 5129SOL    HW216287   6.397   6.960   2.619
 5130SOL     OW16288   0.020   5.537   3.971
 5130SOL    HW116289   7.020   5.583   3.885
 5130SOL    HW216290   0.119   5.519   3.974
 5131SOL     OW16291   2.340   4.871   4.187
 5131SOL    HW116292   2.345   4.780   4.144
 5131SOL    HW216293   2.344   4.941   4.116
 5132SOL     OW16294   3.725   2.663   7.006
 5132SOL    HW116295   3.649   2.709   6.960
 5132SOL    HW216296   3.810   2.685   6.959
 5133SOL     OW16297   2.266   5.419   0.168
 5133SOL    HW116298   2.210   5.484   0.219
 5133SOL    HW216299   2.209   5.345   0.133
 5134SOL     OW16300   0.568   3.510   3.096
 5134SOL    HW116301   0.653   3.464   3.120
 5134SOL    HW216302   0.540   3.483   3.004
 5135SOL     OW16303   5.832   3.120   4.683
 5135SOL    HW116304   5.902   3.190   4.671
 5135SOL    HW216305   5.872   3.040   4.727
 5136SOL     OW16306   4.413   0.758   5.925
 5136SOL    HW116307   4.506   0.792   5.913
 5136SOL    HW216308   4.402   0.673   5.873
 5137SOL     OW16309   5.019   3.227   5.627
 5137SOL    HW116310   5.020   3.128   5.613
 5137SOL    HW216311   4.967   3.270   5.553
 5138SOL     OW16312   3.209   2.962   5.191
 5138SOL    HW116313   3.110   2.952   5.203
 5138SOL    HW216314   3.253   2.975   5.280
 5139SOL     OW16315   1.009   0.666   3.255
 5139SOL    HW116316   1.088   0.685   3.197
 5139SOL    HW216317   1.013   0.724   3.337
 5140SOL     OW16318   4.354   2.666   0.074
 5140SOL    HW116319   4.346   2.651   6.998
 5140SOL    HW216320   4.274   2.715   0.108
 5141SOL     OW16321   6.902   3.392   0.672
 5141SOL    HW116322   6.898   3.405   0.771
 5141SOL    HW216323   6.888   3.479   0.626
 5142SOL     OW16324   6.076   0.246   3.628
 5142SOL    HW116325   6.082   0.190   3.545
 5142SOL    HW216326   6.011   0.321   3.613
 5143SOL     OW16327   6.738   4.615   3.661
 5143SOL    HW116328   6.794   4.534   3.677
 5143SOL    HW216329   6.682   4.601   3.579
 5144SOL     OW16330   0.567   4.609   6.253
 5144SOL    HW116331   0.527   4.679   6.195
 5144SOL    HW216332   0.521   4.610   6.342
 5145SOL     OW16333   2.944   4.969   5.749
 5145SOL    HW116334   3.014   4.961   5.819
 5145SOL    HW216335   2.860   5.007   5.789
 5146SOL     OW16336   3.526   4.254   5.502
 5146SOL    HW116337   3.568   4.206   5.425
 5146SOL    HW216338   3.429   4.228   5.508
 5147SOL     OW16339   6.786   5.227   2.736
 5147SOL    HW116340   6.829   5.166   2.670
 5147SOL    HW216341   6.724   5.175   2.795
 5148SOL     OW16342   6.717   6.134   1.371
 5148SOL    HW116343   6.789   6.090   1.317
 5148SOL    HW216344   6.647   6.171   1.310
 5149SOL     OW16345   6.279   5.600   2.861
 5149SOL    HW116346   6.259   5.629   2.768
 5149SOL    HW216347   6.335   5.670   2.906
 5150SOL     OW16348   2.305   5.548   3.042
 5150SOL    HW116349   2.208   5.529   3.026
 5150SOL    HW216350   2.326   5.531   3.138
 5151SOL     OW16351   6.196   2.341   0.881
 5151SOL    HW116352   6.281   2.298   0.853
 5151SOL    HW216353   6.123   2.272   0.885
 5152SOL     OW16354   2.722   4.684   0.095
 5152SOL    HW116355   2.778   4.760   0.063
 5152SOL    HW216356   2.637   4.719   0.134
 5153SOL     OW16357   1.944   0.474   0.175
 5153SOL    HW116358   2.037   0.459   0.210
 5153SOL    HW216359   1.915   0.567   0.196
 5154SOL     OW16360   0.762   2.988   6.126
 5154SOL    HW116361   0.741   2.954   6.034
 5154SOL    HW216362   0.693   3.054   6.154
 5155SOL     OW16363   4.381   6.836   1.994
 5155SOL    HW116364   4.285   6.855   2.010
 5155SOL    HW216365   4.426   6.811   2.080
 5156SOL     OW16366   5.698   3.692   6.195
 5156SOL    HW116367   5.682   3.593   6.195
 5156SOL    HW216368   5.793   3.710   6.222
 5157SOL     OW16369   3.762   2.095   3.268
 5157SOL    HW116370   3.779   2.044   3.353
 5157SOL    HW216371   3.848   2.115   3.223
 5158SOL     OW16372   3.467   1.293   1.856
 5158SOL    HW116373   3.418   1.218   1.901
 5158SOL    HW216374   3.403   1.345   1.798
 5159SOL     OW16375   6.911   3.649   4.506
 5159SOL    HW116376   6.943   3.706   4.429
 5159SOL    HW216377   6.981   3.650   4.578
 5160SOL     OW16378   6.947   5.154   2.987
 5160SOL    HW116379   6.916   5.133   2.895
 5160SOL    HW216380   6.869   5.179   3.045
 5161SOL     OW16381   1.394   3.631   5.737
 5161SOL    HW116382   1.455   3.678   5.800
 5161SOL    HW216383   1.345   3.559   5.785
 5162SOL     OW16384   1.142   5.315   3.065
 5162SOL    HW116385   1.232   5.328   3.023
 5162SOL    HW216386   1.071   5.343   3.001
 5163SOL     OW16387   3.492   6.397   0.109
 5163SOL    HW116388   3.487   6.408   0.010
 5163SOL    HW216389   3.411   6.439   0.151
 5164SOL     OW16390   3.876   2.471   0.107
 5164SOL    HW116391   3.940   2.414   0.056
 5164SOL    HW216392   3.832   2.535   0.044
 5165SOL     OW16393   6.121   4.518   6.287
 5165SOL    HW116394   6.049   4.508   6.357
 5165SOL    HW216395   6.210   4.509   6.331
 5166SOL     OW16396   0.606   5.650   2.727
 5166SOL    HW116397   0.522   5.600   2.747
 5166SOL    HW216398   0.631   5.636   2.631
 5167SOL     OW16399   6.470   6.570   6.301
 5167SOL    HW116400   6.460   6.670   6.305
 5167SOL    HW216401   6.561   6.544   6.332
 5168SOL     OW16402   5.740   4.000   1.932
 5168SOL    HW116403   5.764   4.040   1.844
 5168SOL    HW216404   5.665   3.934   1.919
 5169SOL     OW16405   3.690   1.579   4.604
 5169SOL    HW116406   3.737   1.637   4.537
 5169SOL    HW216407   3.738   1.585   4.692
 5170SOL     OW16408   0.723   4.460   5.835
 5170SOL    HW116409   0.741   4.558   5.824
 5170SOL    HW216410   0.804   4.409   5.806
 5171SOL     OW16411   1.185   6.130   4.713
 5171SOL    HW116412   1.094   6.137   4.672
 5171SOL    HW216413   1.197   6.039   4.754
 5172SOL     OW16414   1.166   1.947   2.297
 5172SOL    HW116415   1.116   1.886   2.236
 5172SOL    HW216416   1.262   1.917   2.302
 5173SOL     OW16417   5.085   4.833   6.123
 5173SOL    HW116418   5.056   4.828   6.218
 5173SOL    HW216419   5.034   4.766   6.069
 5174SOL     OW16420   2.424   4.686   3.681
 5174SOL    HW116421   2.455   4.740   3.760
 5174SOL    HW216422   2.502   4.661   3.625
 5175SOL     OW16423   2.148   3.412   0.067
 5175SOL    HW116424   2.049   3.401   0.055
 5175SOL    HW216425   2.165   3.466   0.149
 5176SOL     OW16426   4.674   2.740   6.459
 5176SOL    HW116427   4.738   2.679   6.504
 5176SOL    HW216428   4.637   2.805   6.525
 5177SOL     OW16429   5.315   0.548   0.204
 5177SOL    HW116430   5.309   0.525   0.301
 5177SOL    HW216431   5.230   0.590   0.174
 5178SOL     OW16432   0.883   4.520   2.140
 5178SOL    HW116433   0.846   4.595   2.195
 5178SOL    HW216434   0.943   4.464   2.198
 5179SOL     OW16435   3.738   6.346   3.813
 5179SOL    HW116436   3.718   6.380   3.721
 5179SOL    HW216437   3.721   6.417   3.880
 5180SOL     OW16438   2.991   3.080   1.027
 5180SOL    HW116439   3.073   3.024   1.036
 5180SOL    HW216440   2.988   3.120   0.936
 5181SOL     OW16441   6.161   1.541   2.072
 5181SOL    HW116442   6.096   1.490   2.018
 5181SOL    HW216443   6.117   1.622   2.110
 5182SOL     OW16444   4.041   4.576   1.627
 5182SOL    HW116445   3.947   4.591   1.657
 5182SOL    HW216446   4.044   4.499   1.564
 5183SOL     OW16447   4.605   1.612   3.144
 5183SOL    HW116448   4.595   1.685   3.076
 5183SOL    HW216449   4.583   1.649   3.234
 5184SOL     OW16450   0.390   2.391   4.414
 5184SOL    HW116451   0.383   2.477   4.364
 5184SOL    HW216452   0.299   2.360   4.441
 5185SOL     OW16453   5.671   1.156   2.766
 5185SOL    HW116454   5.606   1.095   2.721
 5185SOL    HW216455   5.622   1.234   2.805
 5186SOL     OW16456   6.460   3.390   1.097
 5186SOL    HW116457   6.459   3.443   1.181
 5186SOL    HW216458   6.370   3.350   1.080
 5187SOL     OW16459   0.800   6.704   3.870
 5187SOL    HW116460   0.732   6.690   3.798
 5187SOL    HW216461   0.756   6.740   3.952
 5188SOL     OW16462   0.668   5.682   0.973
 5188SOL    HW116463   0.612   5.764   0.982
 5188SOL    HW216464   0.616   5.601   1.000
 5189SOL     OW16465   4.430   4.822   0.665
 5189SOL    HW116466   4.464   4.807   0.572
 5189SOL    HW216467   4.429   4.735   0.715
 5190SOL     OW16468   0.199   2.587   4.221
 5190SOL    HW116469   0.130   2.658   4.233
 5190SOL    HW216470   0.155   2.499   4.208
 5191SOL     OW16471   4.252   0.428   1.694
 5191SOL    HW116472   4.223   0.376   1.774
 5191SOL    HW216473   4.348   0.456   1.706
 5192SOL     OW16474   2.779   5.747   2.928
 5192SOL    HW116475   2.858   5.689   2.910
 5192SOL    HW216476   2.706   5.692   2.969
 5193SOL     OW16477   4.737   4.454   5.038
 5193SOL    HW116478   4.788   4.374   5.069
 5193SOL    HW216479   4.689   4.432   4.953
 5194SOL     OW16480   4.748   1.822   0.218
 5194SOL    HW116481   4.703   1.774   0.142
 5194SOL    HW216482   4.847   1.817   0.206
 5195SOL     OW16483   6.216   6.339   4.651
 5195SOL    HW116484   6.273   6.258   4.662
 5195SOL    HW216485   6.239   6.406   4.721
 5196SOL     OW16486   3.434   4.817   0.896
 5196SOL    HW116487   3.351   4.776   0.858
 5196SOL    HW216488   3.513   4.762   0.869
 5197SOL     OW16489   2.064   5.502   4.889
 5197SOL    HW116490   2.070   5.602   4.894
 5197SOL    HW216491   2.150   5.465   4.855
 5198SOL     OW16492   3.712   6.702   3.099
 5198SOL    HW116493   3.732   6.620   3.153
 5198SOL    HW216494   3.613   6.713   3.090
 5199SOL     OW16495   1.197   5.726   0.574
 5199SOL    HW116496   1.236   5.705   0.663
 5199SOL    HW216497   1.099   5.748   0.584
 5200SOL     OW16498   1.388   2.046   5.398
 5200SOL    HW116499   1.474   2.082   5.434
 5200SOL    HW216500   1.354   1.974   5.458
 5201SOL     OW16501   0.006   6.537   4.251
 5201SOL    HW116502   6.983   6.624   4.234
 5201SOL    HW216503   0.103   6.553   4.268
 5202SOL     OW16504   6.161   4.146   5.550
 5202SOL    HW116505   6.187   4.221   5.611
 5202SOL    HW216506   6.094   4.179   5.484
 5203SOL     OW16507   2.462   1.379   6.322
 5203SOL    HW116508   2.476   1.463   6.375
 5203SOL    HW216509   2.535   1.370   6.254
 5204SOL     OW16510   4.357   6.371   6.730
 5204SOL    HW116511   4.317   6.456   6.698
 5204SOL    HW216512   4.421   6.391   6.805
 5205SOL     OW16513   0.058   5.932   0.608
 5205SOL    HW116514   7.014   5.928   0.683
 5205SOL    HW216515   0.009   5.929   0.521
 5206SOL     OW16516   0.484   5.179   0.502
 5206SOL    HW116517   0.565   5.163   0.447
 5206SOL    HW216518   0.412   5.217   0.445
 5207SOL     OW16519   1.523   6.896   3.517
 5207SOL    HW116520   1.456   6.884   3.591
 5207SOL    HW216521   1.561   6.808   3.492
 5208SOL     OW16522   5.145   2.089   0.159
 5208SOL    HW116523   5.074   2.082   0.089
 5208SOL    HW216524   5.116   2.040   0.241
 5209SOL     OW16525   5.430   0.100   2.033
 5209SOL    HW116526   5.393   0.168   1.970
 5209SOL    HW216527   5.384   0.012   2.020
 5210SOL     OW16528   4.629   3.124   0.341
 5210SOL    HW116529   4.535   3.109   0.371
 5210SOL    HW216530   4.686   3.046   0.368
 5211SOL     OW16531   4.191   2.464   5.907
 5211SOL    HW116532   4.228   2.480   5.816
 5211SOL    HW216533   4.153   2.372   5.913
 5212SOL     OW16534   0.883   2.740   0.489
 5212SOL    HW116535   0.880   2.826   0.540
 5212SOL    HW216536   0.971   2.696   0.505
 5213SOL     OW16537   4.147   3.755   0.391
 5213SOL    HW116538   4.060   3.718   0.359
 5213SOL    HW216539   4.206   3.773   0.312
 5214SOL     OW16540   4.807   2.401   6.535
 5214SOL    HW116541   4.862   2.319   6.518
 5214SOL    HW216542   4.851   2.458   6.604
 5215SOL     OW16543   0.993   4.862   4.393
 5215SOL    HW116544   0.924   4.922   4.352
 5215SOL    HW216545   1.082   4.908   4.391
 5216SOL     OW16546   4.159   4.728   1.441
 5216SOL    HW116547   4.239   4.770   1.484
 5216SOL    HW216548   4.092   4.703   1.511
 5217SOL     OW16549   3.633   5.374   4.462
 5217SOL    HW116550   3.641   5.319   4.379
 5217SOL    HW216551   3.584   5.323   4.532
 5218SOL     OW16552   0.825   0.738   1.406
 5218SOL    HW116553   0.816   0.797   1.325
 5218SOL    HW216554   0.920   0.707   1.414
 5219SOL     OW16555   3.559   1.406   4.941
 5219SOL    HW116556   3.505   1.450   5.013
 5219SOL    HW216557   3.576   1.473   4.868
 5220SOL     OW16558   1.216   6.118   2.468
 5220SOL    HW116559   1.243   6.140   2.561
 5220SOL    HW216560   1.296   6.089   2.416
 5221SOL     OW16561   6.233   1.878   3.212
 5221SOL    HW116562   6.160   1.819   3.176
 5221SOL    HW216563   6.322   1.835   3.196
 5222SOL     OW16564   3.864   6.723   2.561
 5222SOL    HW116565   3.905   6.799   2.611
 5222SOL    HW216566   3.917   6.639   2.578
 5223SOL     OW16567   6.428   2.352   0.498
 5223SOL    HW116568   6.509   2.359   0.555
 5223SOL    HW216569   6.378   2.268   0.520
 5224SOL     OW16570   6.335   2.861   4.726
 5224SOL    HW116571   6.248   2.910   4.717
 5224SOL    HW216572   6.339   2.789   4.657
 5225SOL     OW16573   0.231   0.898   3.839
 5225SOL    HW116574   0.288   0.821   3.870
 5225SOL    HW216575   0.218   0.962   3.914
 5226SOL     OW16576   6.692   6.857   4.703
 5226SOL    HW116577   6.638   6.908   4.635
 5226SOL    HW216578   6.777   6.825   4.661
 5227SOL     OW16579   0.286   3.235   5.653
 5227SOL    HW116580   0.363   3.259   5.594
 5227SOL    HW216581   0.272   3.136   5.649
 5228SOL     OW16582   0.123   2.319   0.626
 5228SOL    HW116583   0.047   2.371   0.664
 5228SOL    HW216584   0.141   2.239   0.685
 5229SOL     OW16585   2.607   6.674   0.205
 5229SOL    HW116586   2.549   6.593   0.200
 5229SOL    HW216587   2.682   6.658   0.268
 5230SOL     OW16588   0.409   5.992   2.074
 5230SOL    HW116589   0.384   6.087   2.059
 5230SOL    HW216590   0.436   5.979   2.169
 5231SOL     OW16591   4.763   2.366   4.365
 5231SOL    HW116592   4.724   2.372   4.273
 5231SOL    HW216593   4.853   2.410   4.366
 5232SOL     OW16594   1.577   3.659   6.231
 5232SOL    HW116595   1.619   3.666   6.321
 5232SOL    HW216596   1.557   3.564   6.210
 5233SOL     OW16597   4.329   1.409   2.555
 5233SOL    HW116598   4.336   1.509   2.560
 5233SOL    HW216599   4.251   1.378   2.609
 5234SOL     OW16600   2.820   1.740   6.052
 5234SOL    HW116601   2.869   1.667   6.004
 5234SOL    HW216602   2.886   1.801   6.095
 5235SOL     OW16603   1.769   2.467   0.905
 5235SOL    HW116604   1.811   2.552   0.873
 5235SOL    HW216605   1.753   2.473   1.004
 5236SOL     OW16606   4.263   5.176   1.750
 5236SOL    HW116607   4.336   5.122   1.790
 5236SOL    HW216608   4.245   5.144   1.657
 5237SOL     OW16609   0.788   0.713   4.761
 5237SOL    HW116610   0.861   0.781   4.766
 5237SOL    HW216611   0.769   0.677   4.852
 5238SOL     OW16612   0.844   4.822   0.174
 5238SOL    HW116613   0.902   4.846   0.095
 5238SOL    HW216614   0.892   4.756   0.231
 5239SOL     OW16615   3.652   2.987   5.361
 5239SOL    HW116616   3.610   2.986   5.270
 5239SOL    HW216617   3.590   2.945   5.427
 5240SOL     OW16618   3.114   2.224   5.578
 5240SOL    HW116619   3.145   2.312   5.543
 5240SOL    HW216620   3.139   2.151   5.515
 5241SOL     OW16621   0.188   5.037   4.605
 5241SOL    HW116622   0.252   5.113   4.596
 5241SOL    HW216623   0.232   4.962   4.654
 5242SOL     OW16624   6.542   6.847   6.921
 5242SOL    HW116625   6.459   6.793   6.912
 5242SOL    HW216626   6.528   6.939   6.882
 5243SOL     OW16627   1.790   5.574   1.507
 5243SOL    HW116628   1.747   5.614   1.426
 5243SOL    HW216629   1.725   5.575   1.583
 5244SOL     OW16630   3.065   5.232   6.569
 5244SOL    HW116631   3.071   5.200   6.475
 5244SOL    HW216632   3.008   5.169   6.622
 5245SOL     OW16633   4.078   4.385   0.044
 5245SOL    HW116634   4.124   4.315   0.099
 5245SOL    HW216635   4.146   4.432   7.010
 5246SOL     OW16636   6.339   3.320   1.493
 5246SOL    HW116637   6.339   3.287   1.398
 5246SOL    HW216638   6.314   3.417   1.494
 5247SOL     OW16639   2.241   0.759   6.513
 5247SOL    HW116640   2.167   0.697   6.491
 5247SOL    HW216641   2.325   0.707   6.529
 5248SOL     OW16642   6.025   2.263   2.938
 5248SOL    HW116643   6.051   2.309   3.023
 5248SOL    HW216644   6.097   2.276   2.870
 5249SOL     OW16645   0.610   5.490   6.249
 5249SOL    HW116646   0.690   5.520   6.198
 5249SOL    HW216647   0.550   5.568   6.265
 5250SOL     OW16648   2.054   5.946   6.432
 5250SOL    HW116649   2.083   5.887   6.508
 5250SOL    HW216650   2.130   5.959   6.369
 5251SOL     OW16651   0.445   3.215   6.958
 5251SOL    HW116652   0.379   3.142   6.943
 5251SOL    HW216653   0.533   3.190   6.917
 5252SOL     OW16654   1.976   6.465   0.293
 5252SOL    HW116655   1.911   6.541   0.294
 5252SOL    HW216656   1.958   6.404   0.370
 5253SOL     OW16657   6.064   4.627   4.648
 5253SOL    HW116658   6.036   4.532   4.657
 5253SOL    HW216659   6.056   4.673   4.736
 5254SOL     OW16660   4.701   0.838   2.718
 5254SOL    HW116661   4.676   0.748   2.683
 5254SOL    HW216662   4.672   0.908   2.653
 5255SOL     OW16663   5.429   2.021   5.140
 5255SOL    HW116664   5.467   1.947   5.196
 5255SOL    HW216665   5.501   2.088   5.121
 5256SOL     OW16666   4.326   2.130   3.793
 5256SOL    HW116667   4.423   2.131   3.817
 5256SOL    HW216668   4.284   2.047   3.828
 5257SOL     OW16669   5.281   0.005   1.760
 5257SOL    HW116670   5.230   0.082   1.721
 5257SOL    HW216671   5.260   6.944   1.709
 5258SOL     OW16672   6.238   3.075   1.763
 5258SOL    HW116673   6.231   3.146   1.694
 5258SOL    HW216674   6.334   3.056   1.783
 5259SOL     OW16675   4.885   6.375   2.053
 5259SOL    HW116676   4.913   6.373   1.957
 5259SOL    HW216677   4.849   6.466   2.076
 5260SOL     OW16678   4.503   3.288   0.902
 5260SOL    HW116679   4.590   3.335   0.887
 5260SOL    HW216680   4.505   3.198   0.859
 5261SOL     OW16681   0.784   3.749   6.440
 5261SOL    HW116682   0.691   3.761   6.474
 5261SOL    HW216683   0.847   3.743   6.516
 5262SOL     OW16684   2.500   1.099   3.828
 5262SOL    HW116685   2.411   1.145   3.822
 5262SOL    HW216686   2.537   1.109   3.920
 5263SOL     OW16687   2.334   1.548   3.748
 5263SOL    HW116688   2.337   1.465   3.693
 5263SOL    HW216689   2.294   1.526   3.838
 5264SOL     OW16690   7.008   2.674   1.780
 5264SOL    HW116691   6.928   2.734   1.783
 5264SOL    HW216692   0.037   2.692   1.696
 5265SOL     OW16693   6.559   3.842   4.052
 5265SOL    HW116694   6.643   3.791   4.034
 5265SOL    HW216695   6.562   3.929   4.003
 5266SOL     OW16696   2.851   5.808   0.302
 5266SOL    HW116697   2.802   5.806   0.390
 5266SOL    HW216698   2.887   5.899   0.287
 5267SOL     OW16699   5.287   3.214   5.138
 5267SOL    HW116700   5.242   3.144   5.082
 5267SOL    HW216701   5.386   3.206   5.127
 5268SOL     OW16702   5.825   1.384   0.353
 5268SOL    HW116703   5.784   1.341   0.273
 5268SOL    HW216704   5.848   1.479   0.331
 5269SOL     OW16705   1.237   6.159   2.979
 5269SOL    HW116706   1.214   6.077   3.032
 5269SOL    HW216707   1.283   6.226   3.037
 5270SOL     OW16708   6.107   0.798   1.020
 5270SOL    HW116709   6.073   0.847   0.940
 5270SOL    HW216710   6.200   0.767   1.004
 5271SOL     OW16711   6.703   5.722   5.522
 5271SOL    HW116712   6.653   5.656   5.465
 5271SOL    HW216713   6.692   5.813   5.484
 5272SOL     OW16714   2.838   5.555   1.799
 5272SOL    HW116715   2.915   5.493   1.787
 5272SOL    HW216716   2.784   5.558   1.715
 5273SOL     OW16717   6.893   2.847   4.029
 5273SOL    HW116718   6.808   2.893   4.053
 5273SOL    HW216719   6.969   2.889   4.080
 5274SOL     OW16720   6.488   6.570   2.985
 5274SOL    HW116721   6.468   6.502   2.914
 5274SOL    HW216722   6.482   6.526   3.075
 5275SOL     OW16723   3.709   2.083   1.515
 5275SOL    HW116724   3.787   2.112   1.570
 5275SOL    HW216725   3.643   2.158   1.508
 5276SOL     OW16726   2.275   6.948   1.056
 5276SOL    HW116727   2.220   6.877   1.014
 5276SOL    HW216728   2.328   6.909   1.131
 5277SOL     OW16729   1.412   1.468   2.341
 5277SOL    HW116730   1.363   1.447   2.425
 5277SOL    HW216731   1.362   1.539   2.290
 5278SOL     OW16732   5.841   6.954   3.874
 5278SOL    HW116733   5.817   6.894   3.950
 5278SOL    HW216734   5.770   6.951   3.805
 5279SOL     OW16735   2.269   5.234   6.089
 5279SOL    HW116736   2.335   5.175   6.136
 5279SOL    HW216737   2.189   5.181   6.063
 5280SOL     OW16738   2.597   6.254   4.758
 5280SOL    HW116739   2.503   6.284   4.773
 5280SOL    HW216740   2.659   6.328   4.780
 5281SOL     OW16741   0.028   2.663   2.550
 5281SOL    HW116742   0.097   2.691   2.483
 5281SOL    HW216743   0.061   2.581   2.598
 5282SOL     OW16744   2.797   2.066   3.985
 5282SOL    HW116745   2.852   1.998   4.032
 5282SOL    HW216746   2.718   2.021   3.942
 5283SOL     OW16747   4.409   6.874   1.265
 5283SOL    HW116748   4.338   6.834   1.322
 5283SOL    HW216749   4.369   6.947   1.209
 5284SOL     OW16750   4.873   3.548   3.214
 5284SOL    HW116751   4.950   3.573   3.273
 5284SOL    HW216752   4.809   3.625   3.209
 5285SOL     OW16753   2.533   4.836   3.855
 5285SOL    HW116754   2.602   4.773   3.891
 5285SOL    HW216755   2.516   4.908   3.922
 5286SOL     OW16756   1.592   4.600   0.387
 5286SOL    HW116757   1.667   4.666   0.394
 5286SOL    HW216758   1.626   4.509   0.409
 5287SOL     OW16759   2.895   6.517   0.868
 5287SOL    HW116760   2.846   6.464   0.938
 5287SOL    HW216761   2.952   6.586   0.913
 5288SOL     OW16762   3.404   0.315   1.737
 5288SOL    HW116763   3.383   0.375   1.660
 5288SOL    HW216764   3.360   0.350   1.820
 5289SOL     OW16765   1.685   4.977   6.388
 5289SOL    HW116766   1.616   5.009   6.453
 5289SOL    HW216767   1.752   5.049   6.373
 5290SOL     OW16768   1.515   5.782   5.106
 5290SOL    HW116769   1.429   5.730   5.114
 5290SOL    HW216770   1.589   5.720   5.079
 5291SOL     OW16771   2.807   5.231   6.143
 5291SOL    HW116772   2.800   5.326   6.174
 5291SOL    HW216773   2.774   5.170   6.215
 5292SOL     OW16774   6.278   3.102   6.383
 5292SOL    HW116775   6.308   3.047   6.462
 5292SOL    HW216776   6.194   3.063   6.345
 5293SOL     OW16777   0.495   0.540   4.997
 5293SOL    HW116778   0.411   0.505   5.039
 5293SOL    HW216779   0.471   0.608   4.927
 5294SOL     OW16780   4.588   3.670   5.620
 5294SOL    HW116781   4.682   3.678   5.587
 5294SOL    HW216782   4.558   3.758   5.656
 5295SOL     OW16783   5.821   0.864   2.856
 5295SOL    HW116784   5.883   0.880   2.933
 5295SOL    HW216785   5.733   0.907   2.876
 5296SOL     OW16786   1.913   5.172   6.883
 5296SOL    HW116787   1.824   5.128   6.884
 5296SOL    HW216788   1.902   5.270   6.902
 5297SOL     OW16789   2.444   2.021   1.649
 5297SOL    HW116790   2.523   2.006   1.589
 5297SOL    HW216791   2.460   2.102   1.706
 5298SOL     OW16792   0.598   5.458   1.125
 5298SOL    HW116793   0.575   5.530   1.191
 5298SOL    HW216794   0.693   5.430   1.139
 5299SOL     OW16795   2.905   2.461   0.463
 5299SOL    HW116796   2.839   2.535   0.457
 5299SOL    HW216797   2.870   2.390   0.524
 5300SOL     OW16798   0.387   5.857   3.024
 5300SOL    HW116799   0.475   5.852   2.978
 5300SOL    HW216800   0.383   5.940   3.079
 5301SOL     OW16801   4.721   1.509   0.253
 5301SOL    HW116802   4.728   1.608   0.268
 5301SOL    HW216803   4.632   1.477   0.285
 5302SOL     OW16804   5.452   4.783   3.197
 5302SOL    HW116805   5.488   4.859   3.251
 5302SOL    HW216806   5.492   4.697   3.229
 5303SOL     OW16807   6.938   6.123   3.942
 5303SOL    HW116808   6.856   6.079   3.978
 5303SOL    HW216809   6.925   6.222   3.940
 5304SOL     OW16810   6.354   1.881   5.760
 5304SOL    HW116811   6.392   1.792   5.782
 5304SOL    HW216812   6.300   1.915   5.837
 5305SOL     OW16813   1.809   6.621   4.343
 5305SOL    HW116814   1.721   6.645   4.304
 5305SOL    HW216815   1.828   6.679   4.422
 5306SOL     OW16816   1.036   5.665   5.225
 5306SOL    HW116817   0.965   5.736   5.222
 5306SOL    HW216818   0.995   5.579   5.255
 5307SOL     OW16819   4.105   6.661   6.934
 5307SOL    HW116820   4.142   6.621   6.850
 5307SOL    HW216821   4.071   6.753   6.915
 5308SOL     OW16822   0.630   6.841   4.521
 5308SOL    HW116823   0.720   6.858   4.481
 5308SOL    HW216824   0.639   6.776   4.597
 5309SOL     OW16825   3.210   4.048   2.357
 5309SOL    HW116826   3.233   4.111   2.283
 5309SOL    HW216827   3.210   4.098   2.444
 5310SOL     OW16828   5.335   2.589   1.848
 5310SOL    HW116829   5.306   2.685   1.836
 5310SOL    HW216830   5.278   2.546   1.917
 5311SOL     OW16831   0.097   6.001   0.988
 5311SOL    HW116832   0.091   6.096   1.019
 5311SOL    HW216833   0.008   5.956   1.000
 5312SOL     OW16834   6.831   3.759   2.551
 5312SOL    HW116835   6.786   3.681   2.509
 5312SOL    HW216836   6.765   3.833   2.564
 5313SOL     OW16837   1.050   5.801   0.273
 5313SOL    HW116838   1.027   5.852   0.355
 5313SOL    HW216839   1.122   5.849   0.223
 5314SOL     OW16840   3.751   4.784   0.226
 5314SOL    HW116841   3.672   4.819   0.175
 5314SOL    HW216842   3.788   4.705   0.178
 5315SOL     OW16843   4.279   4.377   1.173
 5315SOL    HW116844   4.187   4.417   1.179
 5315SOL    HW216845   4.272   4.283   1.143
 5316SOL     OW16846   6.689   5.330   4.986
 5316SOL    HW116847   6.670   5.237   5.018
 5316SOL    HW216848   6.775   5.331   4.934
 5317SOL     OW16849   6.119   1.340   4.941
 5317SOL    HW116850   6.156   1.337   5.034
 5317SOL    HW216851   6.126   1.249   4.899
 5318SOL     OW16852   0.436   1.944   5.686
 5318SOL    HW116853   0.421   1.863   5.743
 5318SOL    HW216854   0.450   2.024   5.745
 5319SOL     OW16855   4.713   6.877   6.993
 5319SOL    HW116856   4.722   6.825   6.908
 5319SOL    HW216857   4.804   6.888   0.012
 5320SOL     OW16858   5.361   5.160   6.591
 5320SOL    HW116859   5.335   5.212   6.509
 5320SOL    HW216860   5.447   5.113   6.573
 5321SOL     OW16861   0.873   5.028   2.257
 5321SOL    HW116862   0.820   4.944   2.268
 5321SOL    HW216863   0.824   5.105   2.298
 5322SOL     OW16864   3.959   6.547   6.016
 5322SOL    HW116865   3.867   6.556   6.053
 5322SOL    HW216866   4.021   6.517   6.089
 5323SOL     OW16867   3.474   3.245   1.372
 5323SOL    HW116868   3.573   3.249   1.362
 5323SOL    HW216869   3.432   3.236   1.282
 5324SOL     OW16870   3.654   2.576   1.718
 5324SOL    HW116871   3.681   2.634   1.794
 5324SOL    HW216872   3.627   2.486   1.753
 5325SOL     OW16873   6.095   6.682   3.418
 5325SOL    HW116874   6.035   6.712   3.344
 5325SOL    HW216875   6.113   6.758   3.480
 5326SOL     OW16876   6.073   5.109   2.170
 5326SOL    HW116877   6.073   5.011   2.147
 5326SOL    HW216878   6.127   5.123   2.254
 5327SOL     OW16879   0.902   5.933   5.822
 5327SOL    HW116880   0.991   5.901   5.791
 5327SOL    HW216881   0.830   5.897   5.762
 5328SOL     OW16882   4.027   2.666   5.673
 5328SOL    HW116883   4.111   2.666   5.618
 5328SOL    HW216884   4.044   2.617   5.759
 5329SOL     OW16885   0.184   3.433   6.704
 5329SOL    HW116886   0.242   3.380   6.641
 5329SOL    HW216887   0.118   3.487   6.651
 5330SOL     OW16888   3.357   4.657   0.108
 5330SOL    HW116889   3.258   4.647   0.108
 5330SOL    HW216890   3.388   4.687   0.198
 5331SOL     OW16891   5.641   0.991   0.874
 5331SOL    HW116892   5.712   1.031   0.932
 5331SOL    HW216893   5.557   1.045   0.882
 5332SOL     OW16894   6.394   4.194   6.805
 5332SOL    HW116895   6.317   4.236   6.757
 5332SOL    HW216896   6.390   4.216   6.902
 5333SOL     OW16897   1.411   0.644   3.697
 5333SOL    HW116898   1.414   0.560   3.642
 5333SOL    HW216899   1.388   0.621   3.792
 5334SOL     OW16900   3.997   5.142   5.239
 5334SOL    HW116901   3.980   5.077   5.313
 5334SOL    HW216902   4.051   5.219   5.276
 5335SOL     OW16903   0.240   5.010   2.431
 5335SOL    HW116904   0.208   4.980   2.341
 5335SOL    HW216905   0.186   4.965   2.502
 5336SOL     OW16906   2.060   2.328   3.250
 5336SOL    HW116907   2.147   2.337   3.300
 5336SOL    HW216908   2.045   2.410   3.195
 5337SOL     OW16909   5.583   5.073   1.514
 5337SOL    HW116910   5.504   5.016   1.539
 5337SOL    HW216911   5.559   5.128   1.434
 5338SOL     OW16912   5.462   0.992   6.920
 5338SOL    HW116913   5.512   1.043   6.850
 5338SOL    HW216914   5.493   0.897   6.921
 5339SOL     OW16915   5.746   1.607   3.158
 5339SOL    HW116916   5.717   1.671   3.087
 5339SOL    HW216917   5.734   1.513   3.125
 5340SOL     OW16918   5.816   3.911   1.156
 5340SOL    HW116919   5.906   3.901   1.113
 5340SOL    HW216920   5.747   3.866   1.100
 5341SOL     OW16921   3.352   4.857   5.059
 5341SOL    HW116922   3.388   4.783   5.116
 5341SOL    HW216923   3.257   4.836   5.033
 5342SOL     OW16924   5.033   6.621   4.536
 5342SOL    HW116925   4.991   6.682   4.468
 5342SOL    HW216926   4.997   6.642   4.627
 5343SOL     OW16927   3.909   3.303   4.918
 5343SOL    HW116928   4.000   3.339   4.899
 5343SOL    HW216929   3.861   3.363   4.981
 5344SOL     OW16930   0.838   1.538   0.339
 5344SOL    HW116931   0.920   1.483   0.355
 5344SOL    HW216932   0.858   1.605   0.267
 5345SOL     OW16933   4.749   0.718   6.777
 5345SOL    HW116934   4.809   0.661   6.722
 5345SOL    HW216935   4.690   0.660   6.834
 5346SOL     OW16936   2.747   5.558   4.465
 5346SOL    HW116937   2.674   5.510   4.417
 5346SOL    HW216938   2.718   5.579   4.558
 5347SOL     OW16939   6.700   3.702   3.464
 5347SOL    HW116940   6.643   3.772   3.421
 5347SOL    HW216941   6.778   3.745   3.509
 5348SOL     OW16942   6.815   0.877   5.600
 5348SOL    HW116943   6.777   0.800   5.651
 5348SOL    HW216944   6.863   0.939   5.663
 5349SOL     OW16945   2.268   3.524   0.726
 5349SOL    HW116946   2.307   3.461   0.793
 5349SOL    HW216947   2.299   3.499   0.634
 5350SOL     OW16948   2.267   6.433   5.501
 5350SOL    HW116949   2.193   6.376   5.537
 5350SOL    HW216950   2.353   6.381   5.505
 5351SOL     OW16951   0.446   5.536   2.134
 5351SOL    HW116952   0.417   5.537   2.229
 5351SOL    HW216953   0.546   5.537   2.129
 5352SOL     OW16954   2.339   4.606   2.865
 5352SOL    HW116955   2.264   4.578   2.926
 5352SOL    HW216956   2.306   4.676   2.802
 5353SOL     OW16957   4.087   5.212   3.654
 5353SOL    HW116958   4.019   5.238   3.722
 5353SOL    HW216959   4.144   5.139   3.690
 5354SOL     OW16960   2.170   4.652   0.187
 5354SOL    HW116961   2.188   4.724   0.120
 5354SOL    HW216962   2.242   4.651   0.256
 5355SOL     OW16963   6.000   4.670   4.393
 5355SOL    HW116964   5.978   4.581   4.354
 5355SOL    HW216965   6.042   4.657   4.483
 5356SOL     OW16966   0.112   3.768   2.250
 5356SOL    HW116967   0.175   3.802   2.179
 5356SOL    HW216968   0.149   3.683   2.288
 5357SOL     OW16969   4.043   4.807   1.201
 5357SOL    HW116970   3.961   4.862   1.214
 5357SOL    HW216971   4.094   4.801   1.287
 5358SOL     OW16972   4.585   2.081   0.869
 5358SOL    HW116973   4.501   2.042   0.908
 5358SOL    HW216974   4.647   2.107   0.943
 5359SOL     OW16975   2.002   2.058   6.519
 5359SOL    HW116976   1.969   1.964   6.516
 5359SOL    HW216977   2.041   2.077   6.609
 5360SOL     OW16978   5.569   5.602   3.793
 5360SOL    HW116979   5.506   5.640   3.726
 5360SOL    HW216980   5.525   5.599   3.883
 5361SOL     OW16981   1.976   6.639   4.101
 5361SOL    HW116982   1.932   6.658   4.189
 5361SOL    HW216983   1.908   6.648   4.027
 5362SOL     OW16984   6.336   6.277   2.912
 5362SOL    HW116985   6.396   6.200   2.889
 5362SOL    HW216986   6.246   6.261   2.872
 5363SOL     OW16987   5.312   6.403   5.549
 5363SOL    HW116988   5.214   6.409   5.530
 5363SOL    HW216989   5.364   6.438   5.471
 5364SOL     OW16990   6.494   7.009   1.952
 5364SOL    HW116991   6.451   0.072   1.922
 5364SOL    HW216992   6.584   7.000   1.909
 5365SOL     OW16993   3.590   2.881   2.392
 5365SOL    HW116994   3.522   2.952   2.375
 5365SOL    HW216995   3.679   2.911   2.358
 5366SOL     OW16996   6.896   0.002   2.132
 5366SOL    HW116997   6.819   0.033   2.186
 5366SOL    HW216998   6.869   7.018   2.036
 5367SOL     OW16999   6.447   6.371   1.326
 5367SOL    HW117000   6.405   6.288   1.288
 5367SOL    HW217001   6.401   6.451   1.289
 5368SOL     OW17002   6.413   6.455   2.392
 5368SOL    HW117003   6.483   6.391   2.359
 5368SOL    HW217004   6.455   6.543   2.412
 5369SOL     OW17005   2.567   5.847   0.792
 5369SOL    HW117006   2.606   5.780   0.856
 5369SOL    HW217007   2.596   5.939   0.818
 5370SOL     OW17008   4.565   3.548   1.231
 5370SOL    HW117009   4.496   3.540   1.303
 5370SOL    HW217010   4.526   3.519   1.144
 5371SOL     OW17011   6.647   4.791   5.424
 5371SOL    HW117012   6.696   4.718   5.473
 5371SOL    HW217013   6.695   4.877   5.436
 5372SOL     OW17014   1.292   6.559   2.721
 5372SOL    HW117015   1.223   6.616   2.766
 5372SOL    HW217016   1.381   6.574   2.765
 5373SOL     OW17017   3.800   6.780   5.939
 5373SOL    HW117018   3.781   6.717   5.864
 5373SOL    HW217019   3.788   6.874   5.908
 5374SOL     OW17020   2.544   4.276   0.642
 5374SOL    HW117021   2.453   4.251   0.610
 5374SOL    HW217022   2.611   4.258   0.569
 5375SOL     OW17023   0.699   5.527   5.930
 5375SOL    HW117024   0.756   5.515   5.848
 5375SOL    HW217025   0.604   5.545   5.903
 5376SOL     OW17026   1.461   2.395   1.772
 5376SOL    HW117027   1.492   2.489   1.791
 5376SOL    HW217028   1.536   2.332   1.789
 5377SOL     OW17029   1.134   0.143   2.980
 5377SOL    HW117030   1.159   0.119   3.074
 5377SOL    HW217031   1.052   0.201   2.982
 5378SOL     OW17032   6.621   0.305   1.517
 5378SOL    HW117033   6.686   0.246   1.565
 5378SOL    HW217034   6.544   0.251   1.486
 5379SOL     OW17035   1.366   3.467   4.912
 5379SOL    HW117036   1.442   3.528   4.889
 5379SOL    HW217037   1.399   3.372   4.913
 5380SOL     OW17038   2.711   6.862   1.138
 5380SOL    HW117039   2.811   6.857   1.133
 5380SOL    HW217040   2.678   6.942   1.088
 5381SOL     OW17041   6.291   5.947   2.346
 5381SOL    HW117042   6.391   5.943   2.340
 5381SOL    HW217043   6.254   5.985   2.262
 5382SOL     OW17044   3.170   2.159   2.619
 5382SOL    HW117045   3.154   2.085   2.554
 5382SOL    HW217046   3.269   2.175   2.629
 5383SOL     OW17047   1.492   2.618   4.563
 5383SOL    HW117048   1.550   2.697   4.580
 5383SOL    HW217049   1.456   2.621   4.469
 5384SOL     OW17050   4.598   5.251   4.713
 5384SOL    HW117051   4.559   5.266   4.804
 5384SOL    HW217052   4.531   5.205   4.655
 5385SOL     OW17053   5.694   3.285   5.357
 5385SOL    HW117054   5.635   3.235   5.293
 5385SOL    HW217055   5.665   3.381   5.360
 5386SOL     OW17056   5.834   1.489   4.270
 5386SOL    HW117057   5.766   1.416   4.261
 5386SOL    HW217058   5.790   1.578   4.257
 5387SOL     OW17059   2.631   6.727   3.811
 5387SOL    HW117060   2.683   6.663   3.753
 5387SOL    HW217061   2.654   6.821   3.786
 5388SOL     OW17062   1.887   6.675   2.689
 5388SOL    HW117063   1.838   6.755   2.722
 5388SOL    HW217064   1.966   6.657   2.748
 5389SOL     OW17065   3.854   1.624   4.847
 5389SOL    HW117066   3.917   1.551   4.874
 5389SOL    HW217067   3.905   1.701   4.811
 5390SOL     OW17068   5.234   4.084   3.574
 5390SOL    HW117069   5.273   4.171   3.543
 5390SOL    HW217070   5.302   4.011   3.566
 5391SOL     OW17071   3.340   1.895   6.841
 5391SOL    HW117072   3.408   1.953   6.885
 5391SOL    HW217073   3.315   1.934   6.752
 5392SOL     OW17074   5.314   3.799   1.779
 5392SOL    HW117075   5.214   3.798   1.785
 5392SOL    HW217076   5.347   3.891   1.802
 5393SOL     OW17077   4.462   0.756   4.943
 5393SOL    HW117078   4.458   0.752   5.042
 5393SOL    HW217079   4.385   0.809   4.909
 5394SOL     OW17080   0.639   5.879   1.298
 5394SOL    HW117081   0.545   5.907   1.317
 5394SOL    HW217082   0.677   5.938   1.227
 5395SOL     OW17083   5.152   0.874   0.866
 5395SOL    HW117084   5.138   0.783   0.827
 5395SOL    HW217085   5.143   0.869   0.966
 5396SOL     OW17086   5.337   5.489   1.512
 5396SOL    HW117087   5.306   5.394   1.499
 5396SOL    HW217088   5.318   5.542   1.429
 5397SOL     OW17089   7.015   2.378   1.779
 5397SOL    HW117090   7.017   2.331   1.867
 5397SOL    HW217091   7.000   2.476   1.795
 5398SOL     OW17092   3.351   2.120   3.834
 5398SOL    HW117093   3.273   2.183   3.834
 5398SOL    HW217094   3.330   2.043   3.774
 5399SOL     OW17095   2.640   0.092   5.990
 5399SOL    HW117096   2.693   0.045   6.061
 5399SOL    HW217097   2.651   0.045   5.903
 5400SOL     OW17098   2.982   3.436   0.713
 5400SOL    HW117099   3.025   3.391   0.635
 5400SOL    HW217100   2.936   3.367   0.769
 5401SOL     OW17101   5.697   3.842   2.377
 5401SOL    HW117102   5.705   3.832   2.476
 5401SOL    HW217103   5.643   3.924   2.357
 5402SOL     OW17104   2.784   6.441   0.614
 5402SOL    HW117105   2.827   6.475   0.698
 5402SOL    HW217106   2.827   6.354   0.588
 5403SOL     OW17107   5.165   3.573   6.468
 5403SOL    HW117108   5.210   3.548   6.383
 5403SOL    HW217109   5.168   3.495   6.531
 5404SOL     OW17110   1.042   0.640   1.150
 5404SOL    HW117111   0.984   0.558   1.156
 5404SOL    HW217112   1.112   0.626   1.081
 5405SOL     OW17113   5.837   5.646   6.934
 5405SOL    HW117114   5.920   5.634   6.880
 5405SOL    HW217115   5.830   5.572   7.001
 5406SOL     OW17116   2.004   1.072   4.876
 5406SOL    HW117117   1.995   1.168   4.851
 5406SOL    HW217118   2.092   1.057   4.921
 5407SOL     OW17119   3.322   1.417   0.586
 5407SOL    HW117120   3.356   1.396   0.678
 5407SOL    HW217121   3.222   1.422   0.588
 5408SOL     OW17122   3.417   1.148   4.822
 5408SOL    HW117123   3.491   1.213   4.839
 5408SOL    HW217124   3.330   1.198   4.812
 5409SOL     OW17125   6.738   1.455   2.534
 5409SOL    HW117126   6.684   1.382   2.492
 5409SOL    HW217127   6.832   1.451   2.500
 5410SOL     OW17128   0.790   2.605   6.573
 5410SOL    HW117129   0.746   2.580   6.660
 5410SOL    HW217130   0.876   2.653   6.593
 5411SOL     OW17131   4.981   4.850   6.367
 5411SOL    HW117132   4.932   4.763   6.356
 5411SOL    HW217133   4.970   4.883   6.460
 5412SOL     OW17134   2.566   1.504   5.931
 5412SOL    HW117135   2.535   1.544   5.845
 5412SOL    HW217136   2.534   1.560   6.007
 5413SOL     OW17137   0.643   6.827   6.467
 5413SOL    HW117138   0.610   6.777   6.387
 5413SOL    HW217139   0.740   6.809   6.480
 5414SOL     OW17140   6.123   4.532   5.137
 5414SOL    HW117141   6.167   4.610   5.182
 5414SOL    HW217142   6.054   4.493   5.198
 5415SOL     OW17143   2.898   6.202   0.535
 5415SOL    HW117144   2.936   6.142   0.605
 5415SOL    HW217145   2.930   6.172   0.445
 5416SOL     OW17146   2.622   4.777   5.077
 5416SOL    HW117147   2.567   4.697   5.101
 5416SOL    HW217148   2.715   4.748   5.052
 5417SOL     OW17149   3.799   0.354   4.692
 5417SOL    HW117150   3.834   0.322   4.604
 5417SOL    HW217151   3.851   0.311   4.766
 5418SOL     OW17152   5.517   5.688   4.940
 5418SOL    HW117153   5.438   5.721   4.992
 5418SOL    HW217154   5.489   5.610   4.884
 5419SOL     OW17155   4.115   6.246   0.268
 5419SOL    HW117156   4.179   6.294   0.329
 5419SOL    HW217157   4.096   6.155   0.305
 5420SOL     OW17158   2.497   1.575   0.528
 5420SOL    HW117159   2.592   1.594   0.503
 5420SOL    HW217160   2.441   1.656   0.513
 5421SOL     OW17161   3.617   5.138   1.811
 5421SOL    HW117162   3.608   5.198   1.890
 5421SOL    HW217163   3.681   5.177   1.745
 5422SOL     OW17164   1.864   5.497   4.708
 5422SOL    HW117165   1.786   5.436   4.722
 5422SOL    HW217166   1.921   5.497   4.789
 5423SOL     OW17167   5.775   5.368   0.386
 5423SOL    HW117168   5.715   5.447   0.402
 5423SOL    HW217169   5.732   5.286   0.422
 5424SOL     OW17170   5.167   4.092   4.078
 5424SOL    HW117171   5.252   4.129   4.040
 5424SOL    HW217172   5.190   4.025   4.149
 5425SOL     OW17173   6.553   2.616   4.715
 5425SOL    HW117174   6.590   2.660   4.797
 5425SOL    HW217175   6.464   2.575   4.735
 5426SOL     OW17176   4.241   5.440   2.413
 5426SOL    HW117177   4.229   5.371   2.342
 5426SOL    HW217178   4.196   5.525   2.385
 5427SOL     OW17179   5.258   2.700   0.323
 5427SOL    HW117180   5.304   2.616   0.297
 5427SOL    HW217181   5.192   2.726   0.252
 5428SOL     OW17182   4.826   6.486   2.393
 5428SOL    HW117183   4.880   6.445   2.466
 5428SOL    HW217184   4.881   6.555   2.345
 5429SOL     OW17185   1.751   0.100   5.190
 5429SOL    HW117186   1.824   0.145   5.138
 5429SOL    HW217187   1.791   0.040   5.260
 5430SOL     OW17188   1.945   2.861   4.974
 5430SOL    HW117189   2.015   2.932   4.966
 5430SOL    HW217190   1.882   2.885   5.049
 5431SOL     OW17191   3.264   3.891   6.562
 5431SOL    HW117192   3.305   3.834   6.633
 5431SOL    HW217193   3.203   3.958   6.604
 5432SOL     OW17194   4.686   5.451   6.411
 5432SOL    HW117195   4.782   5.478   6.414
 5432SOL    HW217196   4.629   5.528   6.440
 5433SOL     OW17197   1.155   0.058   1.198
 5433SOL    HW117198   1.186   0.112   1.276
 5433SOL    HW217199   1.056   0.045   1.203
 5434SOL     OW17200   4.621   1.291   4.707
 5434SOL    HW117201   4.631   1.191   4.703
 5434SOL    HW217202   4.691   1.334   4.650
 5435SOL     OW17203   6.310   3.897   0.675
 5435SOL    HW117204   6.240   3.847   0.727
 5435SOL    HW217205   6.371   3.832   0.631
 5436SOL     OW17206   6.492   4.930   3.900
 5436SOL    HW117207   6.491   4.906   3.997
 5436SOL    HW217208   6.417   4.994   3.881
 5437SOL     OW17209   3.653   5.162   5.417
 5437SOL    HW117210   3.686   5.230   5.352
 5437SOL    HW217211   3.565   5.190   5.454
 5438SOL     OW17212   4.876   5.161   2.160
 5438SOL    HW117213   4.815   5.233   2.128
 5438SOL    HW217214   4.824   5.076   2.172
 5439SOL     OW17215   0.887   3.716   6.977
 5439SOL    HW117216   0.801   3.747   7.020
 5439SOL    HW217217   0.867   3.679   6.886
 5440SOL     OW17218   6.079   6.612   4.091
 5440SOL    HW117219   6.137   6.580   4.166
 5440SOL    HW217220   6.042   6.534   4.041
 5441SOL     OW17221   5.169   3.315   3.061
 5441SOL    HW117222   5.172   3.267   2.973
 5441SOL    HW217223   5.083   3.293   3.108
 5442SOL     OW17224   4.326   7.002   3.499
 5442SOL    HW117225   4.410   6.947   3.495
 5442SOL    HW217226   4.280   6.997   3.410
 5443SOL     OW17227   4.559   6.306   3.862
 5443SOL    HW117228   4.644   6.331   3.908
 5443SOL    HW217229   4.556   6.349   3.772
 5444SOL     OW17230   6.534   1.196   4.231
 5444SOL    HW117231   6.441   1.214   4.200
 5444SOL    HW217232   6.591   1.277   4.215
 5445SOL     OW17233   5.499   4.561   3.356
 5445SOL    HW117234   5.527   4.469   3.330
 5445SOL    HW217235   5.399   4.564   3.366
 5446SOL     OW17236   5.811   4.806   4.558
 5446SOL    HW117237   5.886   4.743   4.539
 5446SOL    HW217238   5.826   4.850   4.647
 5447SOL     OW17239   1.739   1.670   1.287
 5447SOL    HW117240   1.775   1.619   1.366
 5447SOL    HW217241   1.808   1.671   1.214
 5448SOL     OW17242   4.724   4.830   3.955
 5448SOL    HW117243   4.752   4.925   3.947
 5448SOL    HW217244   4.800   4.775   3.990
 5449SOL     OW17245   2.343   1.039   1.513
 5449SOL    HW117246   2.358   1.081   1.423
 5449SOL    HW217247   2.316   1.109   1.578
 5450SOL     OW17248   3.301   6.741   1.230
 5450SOL    HW117249   3.391   6.698   1.221
 5450SOL    HW217250   3.299   6.797   1.313
 5451SOL     OW17251   1.529   5.935   3.901
 5451SOL    HW117252   1.604   5.924   3.836
 5451SOL    HW217253   1.442   5.924   3.852
 5452SOL     OW17254   2.463   4.533   1.375
 5452SOL    HW117255   2.426   4.445   1.405
 5452SOL    HW217256   2.392   4.604   1.383
 5453SOL     OW17257   5.391   4.031   1.960
 5453SOL    HW117258   5.377   4.073   2.050
 5453SOL    HW217259   5.450   4.089   1.904
 5454SOL     OW17260   5.541   5.946   1.373
 5454SOL    HW117261   5.590   5.950   1.460
 5454SOL    HW217262   5.452   5.991   1.384
 5455SOL     OW17263   0.412   1.942   3.618
 5455SOL    HW117264   0.365   1.912   3.535
 5455SOL    HW217265   0.476   1.871   3.648
 5456SOL     OW17266   3.405   1.646   6.219
 5456SOL    HW117267   3.444   1.706   6.149
 5456SOL    HW217268   3.477   1.586   6.255
 5457SOL     OW17269   6.638   1.830   0.858
 5457SOL    HW117270   6.601   1.756   0.914
 5457SOL    HW217271   6.734   1.846   0.882
 5458SOL     OW17272   6.810   4.643   0.933
 5458SOL    HW117273   6.769   4.574   0.873
 5458SOL    HW217274   6.842   4.599   1.017
 5459SOL     OW17275   2.217   5.062   4.808
 5459SOL    HW117276   2.143   5.112   4.853
 5459SOL    HW217277   2.305   5.093   4.845
 5460SOL     OW17278   2.830   0.086   2.384
 5460SOL    HW117279   2.826   7.022   2.434
 5460SOL    HW217280   2.910   0.086   2.324
 5461SOL     OW17281   0.868   1.376   4.478
 5461SOL    HW117282   0.961   1.400   4.506
 5461SOL    HW217283   0.872   1.315   4.399
 5462SOL     OW17284   5.243   6.085   6.397
 5462SOL    HW117285   5.207   6.014   6.336
 5462SOL    HW217286   5.176   6.102   6.470
 5463SOL     OW17287   0.333   1.487   6.673
 5463SOL    HW117288   0.341   1.463   6.770
 5463SOL    HW217289   0.237   1.482   6.646
 5464SOL     OW17290   6.242   6.106   5.345
 5464SOL    HW117291   6.274   6.169   5.274
 5464SOL    HW217292   6.311   6.036   5.361
 5465SOL     OW17293   6.894   0.291   3.358
 5465SOL    HW117294   6.883   0.290   3.457
 5465SOL    HW217295   6.805   0.286   3.314
 5466SOL     OW17296   6.304   2.563   5.722
 5466SOL    HW117297   6.350   2.512   5.795
 5466SOL    HW217298   6.358   2.644   5.698
 5467SOL     OW17299   5.728   3.801   3.071
 5467SOL    HW117300   5.812   3.792   3.017
 5467SOL    HW217301   5.661   3.734   3.039
 5468SOL     OW17302   0.121   2.374   4.444
 5468SOL    HW117303   0.048   2.430   4.483
 5468SOL    HW217304   0.082   2.298   4.392
 5469SOL     OW17305   3.369   5.736   6.031
 5469SOL    HW117306   3.425   5.802   6.082
 5469SOL    HW217307   3.336   5.780   5.947
 5470SOL     OW17308   3.751   5.126   3.935
 5470SOL    HW117309   3.761   5.128   3.835
 5470SOL    HW217310   3.803   5.202   3.975
 5471SOL     OW17311   5.501   0.546   2.149
 5471SOL    HW117312   5.485   0.642   2.171
 5471SOL    HW217313   5.433   0.489   2.195
 5472SOL     OW17314   3.043   3.967   6.880
 5472SOL    HW117315   3.118   3.996   6.940
 5472SOL    HW217316   3.056   4.008   6.790
 5473SOL     OW17317   1.744   3.518   0.271
 5473SOL    HW117318   1.667   3.504   0.209
 5473SOL    HW217319   1.710   3.553   0.359
 5474SOL     OW17320   0.754   5.723   4.387
 5474SOL    HW117321   0.812   5.722   4.469
 5474SOL    HW217322   0.687   5.796   4.395
 5475SOL     OW17323   1.616   1.725   0.712
 5475SOL    HW117324   1.709   1.761   0.708
 5475SOL    HW217325   1.586   1.721   0.808
 5476SOL     OW17326   2.137   4.856   5.219
 5476SOL    HW117327   2.087   4.812   5.144
 5476SOL    HW217328   2.207   4.794   5.253
 5477SOL     OW17329   2.162   3.688   3.352
 5477SOL    HW117330   2.214   3.630   3.415
 5477SOL    HW217331   2.081   3.638   3.320
 5478SOL     OW17332   4.633   6.461   5.475
 5478SOL    HW117333   4.698   6.536   5.475
 5478SOL    HW217334   4.682   6.374   5.476
 5479SOL     OW17335   4.235   1.599   4.788
 5479SOL    HW117336   4.159   1.594   4.852
 5479SOL    HW217337   4.287   1.514   4.791
 5480SOL     OW17338   5.644   4.957   4.966
 5480SOL    HW117339   5.565   4.967   5.026
 5480SOL    HW217340   5.626   5.002   4.879
 5481SOL     OW17341   4.894   1.300   4.889
 5481SOL    HW117342   4.945   1.315   4.973
 5481SOL    HW217343   4.830   1.375   4.874
 5482SOL     OW17344   3.720   4.084   2.687
 5482SOL    HW117345   3.771   4.112   2.605
 5482SOL    HW217346   3.629   4.052   2.660
 5483SOL     OW17347   0.157   1.964   5.165
 5483SOL    HW117348   0.181   1.924   5.254
 5483SOL    HW217349   0.122   1.892   5.105
 5484SOL     OW17350   6.061   0.784   3.797
 5484SOL    HW117351   6.107   0.703   3.760
 5484SOL    HW217352   6.096   0.802   3.889
 5485SOL     OW17353   2.870   0.003   4.735
 5485SOL    HW117354   2.816   6.959   4.684
 5485SOL    HW217355   2.936   0.047   4.674
 5486SOL     OW17356   1.414   6.269   4.692
 5486SOL    HW117357   1.337   6.206   4.695
 5486SOL    HW217358   1.428   6.308   4.783
 5487SOL     OW17359   5.264   3.112   6.397
 5487SOL    HW117360   5.181   3.056   6.407
 5487SOL    HW217361   5.274   3.170   6.477
 5488SOL     OW17362   5.395   1.100   1.265
 5488SOL    HW117363   5.380   1.139   1.356
 5488SOL    HW217364   5.432   1.171   1.204
 5489SOL     OW17365   0.916   4.725   1.020
 5489SOL    HW117366   0.998   4.673   0.995
 5489SOL    HW217367   0.843   4.706   0.956
 5490SOL     OW17368   3.666   0.555   0.925
 5490SOL    HW117369   3.728   0.560   0.846
 5490SOL    HW217370   3.592   0.491   0.904
 5491SOL     OW17371   2.034   3.554   6.683
 5491SOL    HW117372   2.122   3.517   6.713
 5491SOL    HW217373   2.017   3.530   6.588
 5492SOL     OW17374   0.866   1.971   6.491
 5492SOL    HW117375   0.917   1.947   6.409
 5492SOL    HW217376   0.875   1.898   6.559
 5493SOL     OW17377   4.056   3.669   4.068
 5493SOL    HW117378   4.063   3.651   3.970
 5493SOL    HW217379   4.060   3.582   4.118
 5494SOL     OW17380   6.587   2.696   6.883
 5494SOL    HW117381   6.667   2.683   6.824
 5494SOL    HW217382   6.504   2.671   6.833
 5495SOL     OW17383   3.810   2.449   1.384
 5495SOL    HW117384   3.878   2.413   1.319
 5495SOL    HW217385   3.796   2.382   1.458
 5496SOL     OW17386   2.662   0.159   3.536
 5496SOL    HW117387   2.641   0.231   3.602
 5496SOL    HW217388   2.697   0.200   3.452
 5497SOL     OW17389   0.215   2.272   4.032
 5497SOL    HW117390   0.290   2.309   4.087
 5497SOL    HW217391   0.130   2.319   4.056
 5498SOL     OW17392   4.995   6.901   1.535
 5498SOL    HW117393   4.929   6.826   1.534
 5498SOL    HW217394   5.046   6.901   1.449
 5499SOL     OW17395   0.566   0.988   3.872
 5499SOL    HW117396   0.516   0.901   3.881
 5499SOL    HW217397   0.661   0.973   3.897
 5500SOL     OW17398   1.727   6.913   0.096
 5500SOL    HW117399   1.788   6.955   0.029
 5500SOL    HW217400   1.646   6.879   0.049
 5501SOL     OW17401   3.895   0.179   1.042
 5501SOL    HW117402   3.991   0.205   1.029
 5501SOL    HW217403   3.870   0.111   0.973
 5502SOL     OW17404   5.683   4.024   0.129
 5502SOL    HW117405   5.727   3.936   0.147
 5502SOL    HW217406   5.590   4.008   0.095
 5503SOL     OW17407   7.002   5.636   3.709
 5503SOL    HW117408   0.073   5.652   3.677
 5503SOL    HW217409   6.954   5.724   3.715
 5504SOL     OW17410   4.057   1.465   4.927
 5504SOL    HW117411   4.074   1.377   4.882
 5504SOL    HW217412   4.078   1.457   5.025
 5505SOL     OW17413   1.865   5.408   4.460
 5505SOL    HW117414   1.781   5.457   4.435
 5505SOL    HW217415   1.888   5.427   4.555
 5506SOL     OW17416   1.268   1.655   5.862
 5506SOL    HW117417   1.233   1.745   5.888
 5506SOL    HW217418   1.360   1.643   5.898
 5507SOL     OW17419   2.339   0.182   3.226
 5507SOL    HW117420   2.277   0.141   3.292
 5507SOL    HW217421   2.414   0.119   3.206
 5508SOL     OW17422   2.045   1.130   6.784
 5508SOL    HW117423   2.126   1.112   6.841
 5508SOL    HW217424   2.028   1.052   6.724
 5509SOL     OW17425   1.132   6.293   0.995
 5509SOL    HW117426   1.034   6.271   0.997
 5509SOL    HW217427   1.154   6.354   1.070
 5510SOL     OW17428   5.137   6.318   0.728
 5510SOL    HW117429   5.178   6.256   0.795
 5510SOL    HW217430   5.044   6.341   0.757
 5511SOL     OW17431   2.680   0.710   4.239
 5511SOL    HW117432   2.702   0.627   4.188
 5511SOL    HW217433   2.719   0.705   4.331
 5512SOL     OW17434   5.877   2.216   1.528
 5512SOL    HW117435   5.953   2.175   1.579
 5512SOL    HW217436   5.839   2.293   1.581
 5513SOL     OW17437   4.091   4.415   6.078
 5513SOL    HW117438   4.173   4.432   6.023
 5513SOL    HW217439   4.010   4.447   6.028
 5514SOL     OW17440   4.947   6.148   2.447
 5514SOL    HW117441   4.996   6.121   2.364
 5514SOL    HW217442   4.923   6.067   2.500
 5515SOL     OW17443   0.173   4.795   1.511
 5515SOL    HW117444   0.113   4.731   1.558
 5515SOL    HW217445   0.151   4.796   1.413
 5516SOL     OW17446   1.297   3.679   6.341
 5516SOL    HW117447   1.270   3.588   6.372
 5516SOL    HW217448   1.373   3.712   6.396
 5517SOL     OW17449   2.140   3.015   2.177
 5517SOL    HW117450   2.154   3.098   2.124
 5517SOL    HW217451   2.213   2.950   2.156
 5518SOL     OW17452   6.230   6.704   6.149
 5518SOL    HW117453   6.292   6.625   6.148
 5518SOL    HW217454   6.136   6.673   6.145
 5519SOL     OW17455   5.416   3.081   2.863
 5519SOL    HW117456   5.409   2.998   2.918
 5519SOL    HW217457   5.328   3.129   2.863
 5520SOL     OW17458   6.826   5.344   2.386
 5520SOL    HW117459   6.816   5.301   2.296
 5520SOL    HW217460   6.795   5.281   2.457
 5521SOL     OW17461   4.543   6.914   1.783
 5521SOL    HW117462   4.480   6.866   1.844
 5521SOL    HW217463   4.493   6.987   1.736
 5522SOL     OW17464   0.151   5.147   0.988
 5522SOL    HW117465   0.202   5.138   0.902
 5522SOL    HW217466   0.212   5.131   1.065
 5523SOL     OW17467   3.662   6.986   2.005
 5523SOL    HW117468   3.656   0.049   1.953
 5523SOL    HW217469   3.709   7.003   2.091
 5524SOL     OW17470   5.360   5.255   5.047
 5524SOL    HW117471   5.425   5.300   5.108
 5524SOL    HW217472   5.304   5.191   5.100
 5525SOL     OW17473   6.603   2.975   6.730
 5525SOL    HW117474   6.651   2.916   6.795
 5525SOL    HW217475   6.644   2.965   6.639
 5526SOL     OW17476   5.410   4.737   4.797
 5526SOL    HW117477   5.478   4.682   4.845
 5526SOL    HW217478   5.430   4.738   4.699
 5527SOL     OW17479   6.768   3.876   4.565
 5527SOL    HW117480   6.824   3.803   4.527
 5527SOL    HW217481   6.819   3.962   4.561
 5528SOL     OW17482   1.170   2.136   6.883
 5528SOL    HW117483   1.092   2.178   6.931
 5528SOL    HW217484   1.142   2.109   6.791
 5529SOL     OW17485   1.838   0.513   4.436
 5529SOL    HW117486   1.774   0.464   4.377
 5529SOL    HW217487   1.914   0.548   4.382
 5530SOL     OW17488   6.956   2.495   2.138
 5530SOL    HW117489   6.865   2.477   2.176
 5530SOL    HW217490   6.965   2.593   2.119
 5531SOL     OW17491   3.916   2.998   2.650
 5531SOL    HW117492   4.002   3.048   2.652
 5531SOL    HW217493   3.887   2.979   2.744
 5532SOL     OW17494   1.283   2.154   0.632
 5532SOL    HW117495   1.361   2.119   0.582
 5532SOL    HW217496   1.201   2.148   0.575
 5533SOL     OW17497   3.348   0.745   3.358
 5533SOL    HW117498   3.387   0.730   3.449
 5533SOL    HW217499   3.365   0.839   3.330
 5534SOL     OW17500   0.504   1.454   5.624
 5534SOL    HW117501   0.413   1.473   5.662
 5534SOL    HW217502   0.572   1.461   5.697
 5535SOL     OW17503   0.434   3.374   4.509
 5535SOL    HW117504   0.476   3.293   4.549
 5535SOL    HW217505   0.499   3.418   4.447
 5536SOL     OW17506   2.624   0.899   4.455
 5536SOL    HW117507   2.643   0.896   4.357
 5536SOL    HW217508   2.649   0.811   4.496
 5537SOL     OW17509   2.734   0.749   3.743
 5537SOL    HW117510   2.644   0.719   3.713
 5537SOL    HW217511   2.797   0.671   3.743
 5538SOL     OW17512   3.291   0.282   5.281
 5538SOL    HW117513   3.377   0.261   5.235
 5538SOL    HW217514   3.242   0.353   5.230
 5539SOL     OW17515   1.555   3.209   0.253
 5539SOL    HW117516   1.579   3.222   0.157
 5539SOL    HW217517   1.479   3.269   0.277
 5540SOL     OW17518   6.018   4.091   3.439
 5540SOL    HW117519   6.093   4.090   3.504
 5540SOL    HW217520   6.052   4.066   3.348
 5541SOL     OW17521   5.702   0.774   6.140
 5541SOL    HW117522   5.621   0.828   6.163
 5541SOL    HW217523   5.729   0.719   6.219
 5542SOL     OW17524   6.536   5.482   6.426
 5542SOL    HW117525   6.512   5.453   6.518
 5542SOL    HW217526   6.580   5.572   6.430
 5543SOL     OW17527   3.439   5.366   5.793
 5543SOL    HW117528   3.487   5.326   5.872
 5543SOL    HW217529   3.342   5.345   5.800
 5544SOL     OW17530   5.591   6.577   5.929
 5544SOL    HW117531   5.675   6.587   5.876
 5544SOL    HW217532   5.513   6.570   5.867
 5545SOL     OW17533   4.130   1.697   3.051
 5545SOL    HW117534   4.056   1.694   2.984
 5545SOL    HW217535   4.166   1.790   3.057
 5546SOL     OW17536   1.060   6.666   4.643
 5546SOL    HW117537   1.031   6.606   4.718
 5546SOL    HW217538   1.015   6.755   4.652
 5547SOL     OW17539   3.543   0.783   4.244
 5547SOL    HW117540   3.494   0.835   4.175
 5547SOL    HW217541   3.480   0.761   4.319
 5548SOL     OW17542   5.640   3.536   5.307
 5548SOL    HW117543   5.626   3.620   5.360
 5548SOL    HW217544   5.596   3.544   5.218
 5549SOL     OW17545   4.621   3.917   0.598
 5549SOL    HW117546   4.683   3.965   0.660
 5549SOL    HW217547   4.548   3.873   0.650
 5550SOL     OW17548   2.541   4.809   2.355
 5550SOL    HW117549   2.486   4.862   2.291
 5550SOL    HW217550   2.618   4.864   2.387
 5551SOL     OW17551   2.126   5.524   3.500
 5551SOL    HW117552   2.029   5.509   3.483
 5551SOL    HW217553   2.174   5.535   3.413
 5552SOL     OW17554   6.548   0.132   6.562
 5552SOL    HW117555   6.542   0.129   6.463
 5552SOL    HW217556   6.491   0.206   6.597
 5553SOL     OW17557   5.029   6.655   0.370
 5553SOL    HW117558   4.939   6.612   0.377
 5553SOL    HW217559   5.024   6.748   0.406
 5554SOL     OW17560   4.485   1.670   6.001
 5554SOL    HW117561   4.554   1.727   6.045
 5554SOL    HW217562   4.431   1.624   6.070
 5555SOL     OW17563   1.453   4.303   3.865
 5555SOL    HW117564   1.547   4.319   3.834
 5555SOL    HW217565   1.455   4.262   3.956
 5556SOL     OW17566   6.692   1.378   3.349
 5556SOL    HW117567   6.738   1.427   3.275
 5556SOL    HW217568   6.748   1.380   3.431
 5557SOL     OW17569   3.358   6.706   3.106
 5557SOL    HW117570   3.310   6.775   3.053
 5557SOL    HW217571   3.317   6.616   3.088
 5558SOL     OW17572   4.104   3.479   5.808
 5558SOL    HW117573   4.140   3.522   5.725
 5558SOL    HW217574   4.119   3.380   5.803
 5559SOL     OW17575   1.542   0.468   1.974
 5559SOL    HW117576   1.464   0.464   2.036
 5559SOL    HW217577   1.567   0.563   1.956
 5560SOL     OW17578   0.716   6.408   2.414
 5560SOL    HW117579   0.658   6.439   2.339
 5560SOL    HW217580   0.785   6.345   2.379
 5561SOL     OW17581   0.899   1.770   3.938
 5561SOL    HW117582   0.937   1.786   3.847
 5561SOL    HW217583   0.853   1.681   3.940
 5562SOL     OW17584   3.927   2.401   6.830
 5562SOL    HW117585   3.996   2.355   6.772
 5562SOL    HW217586   3.970   2.476   6.880
 5563SOL     OW17587   4.056   5.275   2.247
 5563SOL    HW117588   4.027   5.249   2.339
 5563SOL    HW217589   3.976   5.301   2.193
 5564SOL     OW17590   4.564   0.758   1.292
 5564SOL    HW117591   4.561   0.658   1.294
 5564SOL    HW217592   4.597   0.792   1.380
 5565SOL     OW17593   4.553   1.643   6.459
 5565SOL    HW117594   4.456   1.646   6.434
 5565SOL    HW217595   4.561   1.613   6.554
 5566SOL     OW17596   1.343   5.003   6.922
 5566SOL    HW117597   1.381   4.948   6.847
 5566SOL    HW217598   1.388   5.092   6.924
 5567SOL     OW17599   0.210   2.977   1.263
 5567SOL    HW117600   0.233   3.001   1.358
 5567SOL    HW217601   0.111   2.984   1.250
 5568SOL     OW17602   4.128   1.766   4.157
 5568SOL    HW117603   4.196   1.820   4.207
 5568SOL    HW217604   4.151   1.669   4.163
 5569SOL     OW17605   1.509   1.462   3.081
 5569SOL    HW117606   1.482   1.433   2.990
 5569SOL    HW217607   1.539   1.383   3.134
 5570SOL     OW17608   6.373   4.672   4.678
 5570SOL    HW117609   6.431   4.650   4.600
 5570SOL    HW217610   6.277   4.657   4.655
 5571SOL     OW17611   6.843   5.827   0.731
 5571SOL    HW117612   6.801   5.786   0.650
 5571SOL    HW217613   6.773   5.874   0.784
 5572SOL     OW17614   1.113   1.989   5.451
 5572SOL    HW117615   1.129   1.901   5.406
 5572SOL    HW217616   1.173   1.996   5.531
 5573SOL     OW17617   2.268   4.253   5.453
 5573SOL    HW117618   2.318   4.307   5.520
 5573SOL    HW217619   2.297   4.158   5.458
 5574SOL     OW17620   6.694   1.785   2.797
 5574SOL    HW117621   6.701   1.685   2.803
 5574SOL    HW217622   6.714   1.814   2.703
 5575SOL     OW17623   7.001   1.180   0.889
 5575SOL    HW117624   7.001   1.131   0.976
 5575SOL    HW217625   6.937   1.257   0.895
 5576SOL     OW17626   1.402   5.281   2.077
 5576SOL    HW117627   1.315   5.323   2.101
 5576SOL    HW217628   1.463   5.280   2.156
 5577SOL     OW17629   2.732   3.424   5.251
 5577SOL    HW117630   2.736   3.326   5.230
 5577SOL    HW217631   2.804   3.471   5.200
 5578SOL     OW17632   3.457   3.771   0.600
 5578SOL    HW117633   3.365   3.731   0.595
 5578SOL    HW217634   3.465   3.843   0.531
 5579SOL     OW17635   1.097   3.588   5.991
 5579SOL    HW117636   1.011   3.547   5.958
 5579SOL    HW217637   1.171   3.564   5.928
 5580SOL     OW17638   5.257   2.873   5.698
 5580SOL    HW117639   5.231   2.801   5.763
 5580SOL    HW217640   5.351   2.857   5.667
 5581SOL     OW17641   1.584   6.956   1.962
 5581SOL    HW117642   1.516   6.914   2.023
 5581SOL    HW217643   1.671   6.909   1.973
 5582SOL     OW17644   3.310   3.635   4.661
 5582SOL    HW117645   3.309   3.734   4.677
 5582SOL    HW217646   3.401   3.607   4.631
 5583SOL     OW17647   4.112   0.504   2.527
 5583SOL    HW117648   4.170   0.485   2.448
 5583SOL    HW217649   4.161   0.562   2.592
 5584SOL     OW17650   5.885   4.245   3.979
 5584SOL    HW117651   5.965   4.303   3.992
 5584SOL    HW217652   5.850   4.257   3.886
 5585SOL     OW17653   4.859   6.287   3.859
 5585SOL    HW117654   4.915   6.270   3.940
 5585SOL    HW217655   4.810   6.203   3.834
 5586SOL     OW17656   6.851   2.481   6.925
 5586SOL    HW117657   6.917   2.550   6.895
 5586SOL    HW217658   6.856   2.473   0.002
 5587SOL     OW17659   3.855   5.662   2.560
 5587SOL    HW117660   3.769   5.712   2.551
 5587SOL    HW217661   3.844   5.589   2.628
 5588SOL     OW17662   2.271   6.147   2.548
 5588SOL    HW117663   2.217   6.077   2.595
 5588SOL    HW217664   2.237   6.158   2.454
 5589SOL     OW17665   6.084   3.892   5.626
 5589SOL    HW117666   6.036   3.840   5.555
 5589SOL    HW217667   6.106   3.983   5.592
 5590SOL     OW17668   6.306   5.565   4.450
 5590SOL    HW117669   6.250   5.542   4.371
 5590SOL    HW217670   6.282   5.657   4.482
 5591SOL     OW17671   5.323   1.479   0.314
 5591SOL    HW117672   5.349   1.453   0.407
 5591SOL    HW217673   5.392   1.446   0.249
 5592SOL     OW17674   6.653   5.036   2.849
 5592SOL    HW117675   6.701   4.982   2.918
 5592SOL    HW217676   6.649   4.984   2.763
 5593SOL     OW17677   0.071   3.130   6.525
 5593SOL    HW117678   0.028   3.153   6.438
 5593SOL    HW217679   0.004   3.137   6.599
 5594SOL     OW17680   3.480   0.988   6.583
 5594SOL    HW117681   3.534   0.933   6.519
 5594SOL    HW217682   3.538   1.058   6.624
 5595SOL     OW17683   6.182   0.359   5.451
 5595SOL    HW117684   6.230   0.406   5.377
 5595SOL    HW217685   6.155   0.426   5.520
 5596SOL     OW17686   4.823   0.510   3.149
 5596SOL    HW117687   4.838   0.608   3.133
 5596SOL    HW217688   4.826   0.461   3.063
 5597SOL     OW17689   6.002   2.449   5.384
 5597SOL    HW117690   6.076   2.412   5.442
 5597SOL    HW217691   5.996   2.548   5.398
 5598SOL     OW17692   6.094   3.430   3.862
 5598SOL    HW117693   6.018   3.429   3.796
 5598SOL    HW217694   6.129   3.523   3.870
 5599SOL     OW17695   1.011   2.920   1.848
 5599SOL    HW117696   1.090   2.876   1.890
 5599SOL    HW217697   1.027   2.931   1.749
 5600SOL     OW17698   1.991   0.386   2.387
 5600SOL    HW117699   2.059   0.377   2.460
 5600SOL    HW217700   2.021   0.456   2.323
 5601SOL     OW17701   2.681   1.393   6.139
 5601SOL    HW117702   2.659   1.428   6.047
 5601SOL    HW217703   2.714   1.468   6.196
 5602SOL     OW17704   0.147   0.689   1.820
 5602SOL    HW117705   0.048   0.683   1.831
 5602SOL    HW217706   0.181   0.772   1.865
 5603SOL     OW17707   5.371   2.227   0.265
 5603SOL    HW117708   5.447   2.163   0.265
 5603SOL    HW217709   5.290   2.183   0.226
 5604SOL     OW17710   6.530   2.639   5.087
 5604SOL    HW117711   6.582   2.557   5.063
 5604SOL    HW217712   6.435   2.613   5.106
 5605SOL     OW17713   0.655   0.878   4.573
 5605SOL    HW117714   0.628   0.830   4.490
 5605SOL    HW217715   0.714   0.819   4.628
 5606SOL     OW17716   5.244   0.238   0.927
 5606SOL    HW117717   5.293   0.270   0.846
 5606SOL    HW217718   5.283   0.151   0.957
 5607SOL     OW17719   5.757   1.229   3.970
 5607SOL    HW117720   5.855   1.209   3.973
 5607SOL    HW217721   5.728   1.268   4.057
 5608SOL     OW17722   6.820   0.880   3.069
 5608SOL    HW117723   6.729   0.896   3.029
 5608SOL    HW217724   6.847   0.961   3.121
 5609SOL     OW17725   4.222   5.727   2.092
 5609SOL    HW117726   4.279   5.649   2.118
 5609SOL    HW217727   4.152   5.742   2.162
 5610SOL     OW17728   4.933   4.671   1.819
 5610SOL    HW117729   4.862   4.691   1.752
 5610SOL    HW217730   5.013   4.729   1.801
 5611SOL     OW17731   0.841   5.039   3.434
 5611SOL    HW117732   0.820   4.958   3.379
 5611SOL    HW217733   0.760   5.065   3.487
 5612SOL     OW17734   4.481   2.731   6.279
 5612SOL    HW117735   4.567   2.753   6.324
 5612SOL    HW217736   4.406   2.736   6.346
 5613SOL     OW17737   5.696   5.943   5.285
 5613SOL    HW117738   5.703   5.904   5.193
 5613SOL    HW217739   5.772   6.006   5.301
 5614SOL     OW17740   5.319   2.636   4.712
 5614SOL    HW117741   5.265   2.720   4.698
 5614SOL    HW217742   5.324   2.616   4.810
 5615SOL     OW17743   6.433   1.528   4.189
 5615SOL    HW117744   6.363   1.491   4.249
 5615SOL    HW217745   6.432   1.628   4.195
 5616SOL     OW17746   2.434   2.363   5.384
 5616SOL    HW117747   2.520   2.374   5.333
 5616SOL    HW217748   2.372   2.438   5.362
 5617SOL     OW17749   2.346   5.308   5.635
 5617SOL    HW117750   2.381   5.369   5.707
 5617SOL    HW217751   2.261   5.346   5.598
 5618SOL     OW17752   6.628   4.784   4.150
 5618SOL    HW117753   6.673   4.740   4.227
 5618SOL    HW217754   6.660   4.743   4.064
 5619SOL     OW17755   4.082   3.764   4.490
 5619SOL    HW117756   4.134   3.697   4.437
 5619SOL    HW217757   4.047   3.835   4.429
 5620SOL     OW17758   4.114   3.684   6.948
 5620SOL    HW117759   4.193   3.702   7.007
 5620SOL    HW217760   4.137   3.705   6.854
 5621SOL     OW17761   1.740   2.909   0.094
 5621SOL    HW117762   1.746   2.814   0.127
 5621SOL    HW217763   1.755   2.971   0.171
 5622SOL     OW17764   3.863   0.171   5.897
 5622SOL    HW117765   3.881   0.211   5.806
 5622SOL    HW217766   3.949   0.139   5.936
 5623SOL     OW17767   4.771   6.255   4.856
 5623SOL    HW117768   4.704   6.329   4.846
 5623SOL    HW217769   4.738   6.173   4.810
 5624SOL     OW17770   0.461   4.477   3.811
 5624SOL    HW117771   0.440   4.568   3.847
 5624SOL    HW217772   0.375   4.430   3.788
 5625SOL     OW17773   0.186   6.728   5.651
 5625SOL    HW117774   0.255   6.667   5.613
 5625SOL    HW217775   0.104   6.725   5.593
 5626SOL     OW17776   2.654   6.553   4.103
 5626SOL    HW117777   2.702   6.506   4.177
 5626SOL    HW217778   2.621   6.486   4.037
 5627SOL     OW17779   0.775   5.566   6.676
 5627SOL    HW117780   0.701   5.546   6.740
 5627SOL    HW217781   0.749   5.533   6.585
 5628SOL     OW17782   1.924   2.882   1.708
 5628SOL    HW117783   1.949   2.821   1.782
 5628SOL    HW217784   1.925   2.831   1.621
 5629SOL     OW17785   4.340   3.014   1.744
 5629SOL    HW117786   4.424   3.005   1.797
 5629SOL    HW217787   4.315   3.111   1.738
 5630SOL     OW17788   2.006   3.838   6.665
 5630SOL    HW117789   2.000   3.753   6.611
 5630SOL    HW217790   1.937   3.836   6.738
 5631SOL     OW17791   4.711   1.437   2.147
 5631SOL    HW117792   4.799   1.439   2.101
 5631SOL    HW217793   4.708   1.360   2.211
 5632SOL     OW17794   2.954   2.512   5.530
 5632SOL    HW117795   3.035   2.527   5.586
 5632SOL    HW217796   2.971   2.437   5.466
 5633SOL     OW17797   5.862   4.913   4.306
 5633SOL    HW117798   5.894   4.844   4.240
 5633SOL    HW217799   5.874   4.878   4.399
 5634SOL     OW17800   1.812   4.906   3.878
 5634SOL    HW117801   1.905   4.886   3.907
 5634SOL    HW217802   1.813   4.943   3.785
 5635SOL     OW17803   1.771   5.986   7.010
 5635SOL    HW117804   1.766   6.085   7.020
 5635SOL    HW217805   1.866   5.956   0.000
 5636SOL     OW17806   5.442   0.025   5.037
 5636SOL    HW117807   5.354   7.008   5.010
 5636SOL    HW217808   5.512   7.018   4.972
 5637SOL     OW17809   4.683   6.745   3.292
 5637SOL    HW117810   4.669   6.797   3.376
 5637SOL    HW217811   4.676   6.647   3.312
 5638SOL     OW17812   6.962   3.640   0.870
 5638SOL    HW117813   7.020   3.715   0.902
 5638SOL    HW217814   6.998   3.553   0.904
 5639SOL     OW17815   2.183   0.035   2.108
 5639SOL    HW117816   2.089   0.054   2.080
 5639SOL    HW217817   2.209   0.098   2.182
 5640SOL     OW17818   3.254   0.769   2.715
 5640SOL    HW117819   3.292   0.856   2.746
 5640SOL    HW217820   3.307   0.694   2.755
 5641SOL     OW17821   0.381   4.473   5.577
 5641SOL    HW117822   0.469   4.521   5.574
 5641SOL    HW217823   0.334   4.483   5.490
 5642SOL     OW17824   0.587   5.745   5.299
 5642SOL    HW117825   0.511   5.763   5.362
 5642SOL    HW217826   0.565   5.783   5.209
 5643SOL     OW17827   3.899   0.875   3.656
 5643SOL    HW117828   3.913   0.946   3.725
 5643SOL    HW217829   3.957   0.893   3.577
 5644SOL     OW17830   3.481   6.808   5.265
 5644SOL    HW117831   3.443   6.730   5.216
 5644SOL    HW217832   3.415   6.884   5.263
 5645SOL     OW17833   5.660   4.857   2.675
 5645SOL    HW117834   5.667   4.833   2.772
 5645SOL    HW217835   5.640   4.955   2.667
 5646SOL     OW17836   0.836   5.865   3.889
 5646SOL    HW117837   0.853   5.791   3.953
 5646SOL    HW217838   0.923   5.896   3.851
 5647SOL     OW17839   4.796   0.063   0.573
 5647SOL    HW117840   4.860   0.047   0.648
 5647SOL    HW217841   4.704   0.038   0.601
 5648SOL     OW17842   1.706   0.023   3.658
 5648SOL    HW117843   1.674   0.114   3.685
 5648SOL    HW217844   1.632   6.996   3.614
 5649SOL     OW17845   0.316   0.727   4.488
 5649SOL    HW117846   0.407   0.701   4.455
 5649SOL    HW217847   0.298   0.822   4.463
 5650SOL     OW17848   0.999   5.023   0.743
 5650SOL    HW117849   1.022   4.995   0.836
 5650SOL    HW217850   0.901   5.014   0.728
 5651SOL     OW17851   1.296   1.580   1.486
 5651SOL    HW117852   1.379   1.532   1.458
 5651SOL    HW217853   1.228   1.514   1.517
 5652SOL     OW17854   6.680   0.046   2.291
 5652SOL    HW117855   6.632   0.121   2.247
 5652SOL    HW217856   6.618   6.991   2.303
 5653SOL     OW17857   6.598   6.272   6.727
 5653SOL    HW117858   6.603   6.172   6.729
 5653SOL    HW217859   6.534   6.301   6.656
 5654SOL     OW17860   6.339   7.015   5.343
 5654SOL    HW117861   6.429   0.021   5.377
 5654SOL    HW217862   6.326   6.917   5.362
 5655SOL     OW17863   1.439   3.936   4.804
 5655SOL    HW117864   1.486   4.014   4.845
 5655SOL    HW217865   1.346   3.963   4.778
 5656SOL     OW17866   6.991   3.598   6.617
 5656SOL    HW117867   6.914   3.646   6.660
 5656SOL    HW217868   7.010   3.639   6.528
 5657SOL     OW17869   5.638   1.708   0.420
 5657SOL    HW117870   5.721   1.762   0.410
 5657SOL    HW217871   5.598   1.693   0.329
 5658SOL     OW17872   3.834   4.099   6.570
 5658SOL    HW117873   3.890   4.181   6.576
 5658SOL    HW217874   3.845   4.058   6.479
 5659SOL     OW17875   3.873   3.025   4.941
 5659SOL    HW117876   3.781   3.000   4.970
 5659SOL    HW217877   3.874   3.120   4.910
 5660SOL     OW17878   4.993   7.022   0.750
 5660SOL    HW117879   5.092   0.016   0.749
 5660SOL    HW217880   4.972   6.954   0.820
 5661SOL     OW17881   1.541   5.312   5.085
 5661SOL    HW117882   1.535   5.384   5.154
 5661SOL    HW217883   1.510   5.225   5.125
 5662SOL     OW17884   2.915   6.117   3.585
 5662SOL    HW117885   2.969   6.034   3.599
 5662SOL    HW217886   2.838   6.118   3.649
 5663SOL     OW17887   1.862   3.184   6.836
 5663SOL    HW117888   1.903   3.243   6.767
 5663SOL    HW217889   1.918   3.186   6.919
 5664SOL     OW17890   6.584   4.104   4.346
 5664SOL    HW117891   6.560   4.018   4.300
 5664SOL    HW217892   6.659   4.088   4.410
 5665SOL     OW17893   2.133   1.053   0.142
 5665SOL    HW117894   2.133   1.021   0.237
 5665SOL    HW217895   2.079   1.137   0.136
 5666SOL     OW17896   6.062   6.559   2.642
 5666SOL    HW117897   5.968   6.550   2.674
 5666SOL    HW217898   6.099   6.469   2.621
 5667SOL     OW17899   1.450   5.367   4.547
 5667SOL    HW117900   1.473   5.310   4.468
 5667SOL    HW217901   1.452   5.464   4.520
 5668SOL     OW17902   5.096   2.296   4.049
 5668SOL    HW117903   5.023   2.361   4.027
 5668SOL    HW217904   5.081   2.211   3.999
 5669SOL     OW17905   6.666   3.672   6.743
 5669SOL    HW117906   6.661   3.596   6.808
 5669SOL    HW217907   6.695   3.755   6.790
 5670SOL     OW17908   6.950   2.454   3.758
 5670SOL    HW117909   6.913   2.362   3.765
 5670SOL    HW217910   6.998   2.478   3.843
 5671SOL     OW17911   6.487   6.017   6.323
 5671SOL    HW117912   6.507   6.086   6.393
 5671SOL    HW217913   6.515   6.052   6.233
 5672SOL     OW17914   3.948   4.358   6.562
 5672SOL    HW117915   3.930   4.411   6.645
 5672SOL    HW217916   3.909   4.406   6.483
 5673SOL     OW17917   1.045   0.439   1.814
 5673SOL    HW117918   1.056   0.351   1.861
 5673SOL    HW217919   0.997   0.503   1.875
 5674SOL     OW17920   0.480   4.976   4.968
 5674SOL    HW117921   0.442   5.066   4.987
 5674SOL    HW217922   0.466   4.953   4.872
 5675SOL     OW17923   3.858   2.382   0.381
 5675SOL    HW117924   3.807   2.458   0.422
 5675SOL    HW217925   3.873   2.400   0.284
 5676SOL     OW17926   2.343   2.718   1.800
 5676SOL    HW117927   2.377   2.763   1.717
 5676SOL    HW217928   2.311   2.626   1.777
 5677SOL     OW17929   1.054   1.409   0.438
 5677SOL    HW117930   1.056   1.461   0.524
 5677SOL    HW217931   1.139   1.425   0.388
 5678SOL     OW17932   4.178   6.792   2.337
 5678SOL    HW117933   4.215   6.707   2.375
 5678SOL    HW217934   4.088   6.775   2.298
 5679SOL     OW17935   0.350   1.282   3.961
 5679SOL    HW117936   0.306   1.372   3.961
 5679SOL    HW217937   0.393   1.266   3.872
 5680SOL     OW17938   1.902   4.993   5.705
 5680SOL    HW117939   1.899   4.896   5.728
 5680SOL    HW217940   1.822   5.039   5.742
 5681SOL     OW17941   0.011   4.343   1.052
 5681SOL    HW117942   0.094   4.359   0.998
 5681SOL    HW217943   7.001   4.250   1.035
 5682SOL     OW17944   2.450   4.586   5.205
 5682SOL    HW117945   2.462   4.488   5.213
 5682SOL    HW217946   2.363   4.613   5.247
 5683SOL     OW17947   4.662   0.952   6.127
 5683SOL    HW117948   4.732   1.024   6.131
 5683SOL    HW217949   4.581   0.987   6.080
 5684SOL     OW17950   2.669   3.396   5.775
 5684SOL    HW117951   2.588   3.382   5.717
 5684SOL    HW217952   2.751   3.402   5.717
 5685SOL     OW17953   1.916   2.738   2.198
 5685SOL    HW117954   1.876   2.822   2.234
 5685SOL    HW217955   1.986   2.704   2.260
 5686SOL     OW17956   3.134   1.318   6.125
 5686SOL    HW117957   3.229   1.328   6.098
 5686SOL    HW217958   3.076   1.317   6.044
 5687SOL     OW17959   0.818   5.228   6.994
 5687SOL    HW117960   0.792   5.271   0.058
 5687SOL    HW217961   0.877   5.290   6.943
 5688SOL     OW17962   0.420   2.521   1.398
 5688SOL    HW117963   0.346   2.496   1.460
 5688SOL    HW217964   0.467   2.439   1.367
 5689SOL     OW17965   3.693   1.355   0.503
 5689SOL    HW117966   3.759   1.283   0.480
 5689SOL    HW217967   3.708   1.434   0.443
 5690SOL     OW17968   2.210   6.014   0.321
 5690SOL    HW117969   2.287   5.990   0.379
 5690SOL    HW217970   2.125   6.001   0.372
 5691SOL     OW17971   3.406   0.691   1.803
 5691SOL    HW117972   3.457   0.653   1.726
 5691SOL    HW217973   3.349   0.620   1.844
 5692SOL     OW17974   5.640   3.249   0.834
 5692SOL    HW117975   5.616   3.336   0.878
 5692SOL    HW217976   5.602   3.174   0.888
 5693SOL     OW17977   5.245   2.485   2.471
 5693SOL    HW117978   5.183   2.414   2.437
 5693SOL    HW217979   5.193   2.556   2.519
 5694SOL     OW17980   0.908   1.691   3.098
 5694SOL    HW117981   0.913   1.596   3.129
 5694SOL    HW217982   0.971   1.747   3.151
 5695SOL     OW17983   1.372   2.719   3.127
 5695SOL    HW117984   1.401   2.729   3.032
 5695SOL    HW217985   1.291   2.660   3.130
 5696SOL     OW17986   1.018   1.461   3.214
 5696SOL    HW117987   0.981   1.387   3.270
 5696SOL    HW217988   1.115   1.473   3.235
 5697SOL     OW17989   5.924   2.350   1.078
 5697SOL    HW117990   5.969   2.377   1.163
 5697SOL    HW217991   5.934   2.251   1.065
 5698SOL     OW17992   1.014   4.030   3.947
 5698SOL    HW117993   1.092   4.068   3.997
 5698SOL    HW217994   0.930   4.077   3.975
 5699SOL     OW17995   0.499   2.935   3.248
 5699SOL    HW117996   0.586   2.974   3.218
 5699SOL    HW217997   0.453   2.893   3.170
 5700SOL     OW17998   6.757   6.859   3.238
 5700SOL    HW117999   6.702   6.892   3.315
 5700SOL    HW218000   6.840   6.914   3.231
 5701SOL     OW18001   1.387   0.849   1.930
 5701SOL    HW118002   1.459   0.819   1.993
 5701SOL    HW218003   1.309   0.786   1.935
 5702SOL     OW18004   2.672   6.062   4.574
 5702SOL    HW118005   2.718   5.986   4.619
 5702SOL    HW218006   2.648   6.132   4.641
 5703SOL     OW18007   6.750   4.598   1.734
 5703SOL    HW118008   6.701   4.667   1.788
 5703SOL    HW218009   6.740   4.509   1.778
 5704SOL     OW18010   4.625   4.673   2.540
 5704SOL    HW118011   4.667   4.594   2.495
 5704SOL    HW218012   4.636   4.664   2.639
 5705SOL     OW18013   4.915   0.160   6.991
 5705SOL    HW118014   4.965   0.098   6.930
 5705SOL    HW218015   4.979   0.227   0.006
 5706SOL     OW18016   6.930   4.088   1.003
 5706SOL    HW118017   6.848   4.054   0.957
 5706SOL    HW218018   6.996   4.013   1.013
 5707SOL     OW18019   0.046   6.449   0.213
 5707SOL    HW118020   0.028   6.359   0.174
 5707SOL    HW218021   0.125   6.444   0.274
 5708SOL     OW18022   5.087   6.048   2.205
 5708SOL    HW118023   5.186   6.064   2.208
 5708SOL    HW218024   5.053   6.063   2.112
 5709SOL     OW18025   1.260   0.632   2.611
 5709SOL    HW118026   1.221   0.564   2.549
 5709SOL    HW218027   1.320   0.587   2.676
 5710SOL     OW18028   2.417   2.872   0.733
 5710SOL    HW118029   2.388   2.799   0.795
 5710SOL    HW218030   2.401   2.843   0.638
 5711SOL     OW18031   5.514   0.981   2.616
 5711SOL    HW118032   5.584   0.936   2.561
 5711SOL    HW218033   5.444   0.914   2.642
 5712SOL     OW18034   6.162   0.615   6.323
 5712SOL    HW118035   6.148   0.712   6.344
 5712SOL    HW218036   6.222   0.607   6.244
 5713SOL     OW18037   3.565   3.022   1.822
 5713SOL    HW118038   3.525   2.942   1.777
 5713SOL    HW218039   3.605   2.995   1.909
 5714SOL     OW18040   0.194   5.813   0.354
 5714SOL    HW118041   0.238   5.723   0.352
 5714SOL    HW218042   0.237   5.870   0.424
 5715SOL     OW18043   0.915   0.566   2.815
 5715SOL    HW118044   0.900   0.624   2.896
 5715SOL    HW218045   0.898   0.471   2.839
 5716SOL     OW18046   1.831   4.164   6.632
 5716SOL    HW118047   1.921   4.194   6.666
 5716SOL    HW218048   1.797   4.090   6.690
 5717SOL     OW18049   1.351   4.975   1.244
 5717SOL    HW118050   1.427   4.916   1.271
 5717SOL    HW218051   1.273   4.957   1.304
 5718SOL     OW18052   0.317   2.852   5.068
 5718SOL    HW118053   0.266   2.923   5.020
 5718SOL    HW218054   0.284   2.762   5.040
 5719SOL     OW18055   2.633   2.068   6.311
 5719SOL    HW118056   2.650   2.123   6.229
 5719SOL    HW218057   2.549   2.100   6.356
 5720SOL     OW18058   1.669   5.584   5.011
 5720SOL    HW118059   1.628   5.584   4.920
 5720SOL    HW218060   1.701   5.492   5.033
 5721SOL     OW18061   0.068   3.501   1.214
 5721SOL    HW118062   0.154   3.532   1.174
 5721SOL    HW218063   0.087   3.436   1.288
 5722SOL     OW18064   6.754   1.563   4.764
 5722SOL    HW118065   6.665   1.518   4.769
 5722SOL    HW218066   6.795   1.567   4.856
 5723SOL     OW18067   4.183   2.886   0.869
 5723SOL    HW118068   4.168   2.822   0.794
 5723SOL    HW218069   4.098   2.936   0.888
 5724SOL     OW18070   5.900   2.832   4.838
 5724SOL    HW118071   5.865   2.849   4.930
 5724SOL    HW218072   5.849   2.756   4.797
 5725SOL     OW18073   5.027   5.743   4.382
 5725SOL    HW118074   5.004   5.649   4.356
 5725SOL    HW218075   5.114   5.744   4.431
 5726SOL     OW18076   0.262   4.650   4.666
 5726SOL    HW118077   0.294   4.558   4.641
 5726SOL    HW218078   0.223   4.648   4.758
 5727SOL     OW18079   6.715   1.600   3.798
 5727SOL    HW118080   6.715   1.697   3.820
 5727SOL    HW218081   6.629   1.577   3.752
 5728SOL     OW18082   3.763   0.401   6.575
 5728SOL    HW118083   3.744   0.339   6.499
 5728SOL    HW218084   3.704   0.378   6.652
 5729SOL     OW18085   1.285   1.386   0.756
 5729SOL    HW118086   1.304   1.356   0.662
 5729SOL    HW218087   1.261   1.483   0.755
 5730SOL     OW18088   4.894   5.086   6.235
 5730SOL    HW118089   4.978   5.035   6.256
 5730SOL    HW218090   4.815   5.026   6.246
 5731SOL     OW18091   6.963   6.716   3.856
 5731SOL    HW118092   0.010   6.769   3.808
 5731SOL    HW218093   6.875   6.763   3.850
 5732SOL     OW18094   6.778   5.627   4.627
 5732SOL    HW118095   6.695   5.644   4.574
 5732SOL    HW218096   6.844   5.578   4.571
 5733SOL     OW18097   4.566   6.702   5.105
 5733SOL    HW118098   4.610   6.720   5.017
 5733SOL    HW218099   4.568   6.604   5.123
 5734SOL     OW18100   0.886   6.796   5.681
 5734SOL    HW118101   0.870   6.755   5.771
 5734SOL    HW218102   0.836   6.882   5.674
 5735SOL     OW18103   4.086   2.253   2.084
 5735SOL    HW118104   4.129   2.292   2.003
 5735SOL    HW218105   3.996   2.294   2.098
 5736SOL     OW18106   6.160   4.442   0.174
 5736SOL    HW118107   6.211   4.503   0.114
 5736SOL    HW218108   6.179   4.465   0.270
 5737SOL     OW18109   5.865   6.940   1.101
 5737SOL    HW118110   5.958   6.929   1.067
 5737SOL    HW218111   5.860   7.020   1.162
 5738SOL     OW18112   2.352   3.166   5.961
 5738SOL    HW118113   2.414   3.236   5.926
 5738SOL    HW218114   2.257   3.193   5.944
 5739SOL     OW18115   1.717   0.649   6.026
 5739SOL    HW118116   1.636   0.673   5.972
 5739SOL    HW218117   1.693   0.578   6.093
 5740SOL     OW18118   4.238   3.570   1.637
 5740SOL    HW118119   4.234   3.670   1.643
 5740SOL    HW218120   4.147   3.533   1.649
 5741SOL     OW18121   0.577   4.265   4.301
 5741SOL    HW118122   0.615   4.192   4.358
 5741SOL    HW218123   0.483   4.284   4.331
 5742SOL     OW18124   5.263   6.898   2.100
 5742SOL    HW118125   5.168   6.869   2.111
 5742SOL    HW218126   5.305   6.911   2.189
 5743SOL     OW18127   2.502   4.922   5.309
 5743SOL    HW118128   2.583   4.948   5.362
 5743SOL    HW218129   2.528   4.855   5.240
 5744SOL     OW18130   4.721   0.808   2.143
 5744SOL    HW118131   4.791   0.814   2.214
 5744SOL    HW218132   4.699   0.899   2.110
 5745SOL     OW18133   1.789   0.933   3.905
 5745SOL    HW118134   1.697   0.954   3.871
 5745SOL    HW218135   1.857   0.974   3.844
 5746SOL     OW18136   5.946   6.781   1.683
 5746SOL    HW118137   5.965   6.715   1.611
 5746SOL    HW218138   5.866   6.750   1.736
 5747SOL     OW18139   6.972   4.403   2.998
 5747SOL    HW118140   6.917   4.393   3.081
 5747SOL    HW218141   0.029   4.460   3.017
 5748SOL     OW18142   1.440   5.733   0.396
 5748SOL    HW118143   1.527   5.712   0.439
 5748SOL    HW218144   1.368   5.738   0.465
 5749SOL     OW18145   1.430   0.079   4.801
 5749SOL    HW118146   1.395   0.154   4.745
 5749SOL    HW218147   1.384   7.017   4.775
 5750SOL     OW18148   5.496   6.442   4.503
 5750SOL    HW118149   5.432   6.518   4.508
 5750SOL    HW218150   5.450   6.362   4.465
 5751SOL     OW18151   2.535   2.608   4.682
 5751SOL    HW118152   2.610   2.646   4.628
 5751SOL    HW218153   2.448   2.641   4.646
 5752SOL     OW18154   6.019   0.663   6.989
 5752SOL    HW118155   5.934   0.645   0.017
 5752SOL    HW218156   6.033   0.761   6.982
 5753SOL     OW18157   3.826   3.460   5.484
 5753SOL    HW118158   3.868   3.414   5.562
 5753SOL    HW218159   3.822   3.559   5.501
 5754SOL     OW18160   6.377   4.407   1.130
 5754SOL    HW118161   6.472   4.428   1.104
 5754SOL    HW218162   6.315   4.462   1.074
 5755SOL     OW18163   2.225   3.095   6.563
 5755SOL    HW118164   2.296   3.155   6.524
 5755SOL    HW218165   2.217   3.012   6.508
 5756SOL     OW18166   6.078   6.441   3.786
 5756SOL    HW118167   6.122   6.422   3.699
 5756SOL    HW218168   6.000   6.501   3.771
 5757SOL     OW18169   6.653   6.439   2.731
 5757SOL    HW118170   6.641   6.538   2.739
 5757SOL    HW218171   6.585   6.403   2.667
 5758SOL     OW18172   2.377   0.885   5.044
 5758SOL    HW118173   2.459   0.828   5.045
 5758SOL    HW218174   2.298   0.830   5.017
 5759SOL     OW18175   4.930   0.841   6.462
 5759SOL    HW118176   4.978   0.781   6.525
 5759SOL    HW218177   4.850   0.794   6.426
 5760SOL     OW18178   0.409   4.898   0.946
 5760SOL    HW118179   0.387   4.836   1.021
 5760SOL    HW218180   0.496   4.944   0.966
 5761SOL     OW18181   5.779   6.788   6.360
 5761SOL    HW118182   5.827   6.741   6.434
 5761SOL    HW218183   5.690   6.820   6.392
 5762SOL     OW18184   4.563   6.012   0.331
 5762SOL    HW118185   4.578   6.013   0.430
 5762SOL    HW218186   4.555   5.918   0.299
 5763SOL     OW18187   6.832   1.003   6.355
 5763SOL    HW118188   6.912   1.049   6.317
 5763SOL    HW218189   6.827   1.021   6.453
 5764SOL     OW18190   4.647   4.755   5.701
 5764SOL    HW118191   4.623   4.675   5.646
 5764SOL    HW218192   4.745   4.751   5.724
 5765SOL     OW18193   6.637   3.810   0.024
 5765SOL    HW118194   6.539   3.805   0.042
 5765SOL    HW218195   6.662   3.902   7.019
 5766SOL     OW18196   2.501   2.356   0.165
 5766SOL    HW118197   2.543   2.305   0.239
 5766SOL    HW218198   2.461   2.293   0.099
 5767SOL     OW18199   2.222   0.201   0.580
 5767SOL    HW118200   2.229   0.165   0.487
 5767SOL    HW218201   2.261   0.135   0.644
 5768SOL     OW18202   0.118   6.869   2.729
 5768SOL    HW118203   0.112   6.960   2.771
 5768SOL    HW218204   0.078   6.801   2.790
 5769SOL     OW18205   2.324   6.258   4.211
 5769SOL    HW118206   2.362   6.270   4.302
 5769SOL    HW218207   2.225   6.244   4.217
 5770SOL     OW18208   5.829   0.159   0.269
 5770SOL    HW118209   5.746   0.207   0.299
 5770SOL    HW218210   5.856   0.093   0.339
 5771SOL     OW18211   1.542   6.295   3.042
 5771SOL    HW118212   1.472   6.361   3.068
 5771SOL    HW218213   1.626   6.313   3.093
 5772SOL     OW18214   6.246   2.617   0.762
 5772SOL    HW118215   6.280   2.530   0.798
 5772SOL    HW218216   6.322   2.675   0.733
 5773SOL     OW18217   4.773   1.110   4.225
 5773SOL    HW118218   4.872   1.122   4.237
 5773SOL    HW218219   4.749   1.126   4.129
 5774SOL     OW18220   2.994   5.544   3.776
 5774SOL    HW118221   3.078   5.570   3.729
 5774SOL    HW218222   3.013   5.533   3.874
 5775SOL     OW18223   1.609   0.741   2.103
 5775SOL    HW118224   1.692   0.721   2.052
 5775SOL    HW218225   1.623   0.822   2.159
 5776SOL     OW18226   6.424   1.178   5.914
 5776SOL    HW118227   6.397   1.184   6.010
 5776SOL    HW218228   6.465   1.088   5.895
 5777SOL     OW18229   6.720   0.282   4.940
 5777SOL    HW118230   6.682   0.241   5.022
 5777SOL    HW218231   6.648   0.293   4.871
 5778SOL     OW18232   1.703   0.558   1.561
 5778SOL    HW118233   1.749   0.528   1.478
 5778SOL    HW218234   1.653   0.482   1.602
 5779SOL     OW18235   4.071   1.508   0.650
 5779SOL    HW118236   4.103   1.524   0.743
 5779SOL    HW218237   3.990   1.562   0.632
 5780SOL     OW18238   5.948   5.701   2.937
 5780SOL    HW118239   6.046   5.721   2.936
 5780SOL    HW218240   5.902   5.751   2.863
 5781SOL     OW18241   0.918   4.133   4.597
 5781SOL    HW118242   0.853   4.058   4.608
 5781SOL    HW218243   0.875   4.219   4.622
 5782SOL     OW18244   1.689   0.692   0.902
 5782SOL    HW118245   1.663   0.714   0.808
 5782SOL    HW218246   1.789   0.697   0.911
 5783SOL     OW18247   1.853   1.034   1.297
 5783SOL    HW118248   1.793   1.008   1.221
 5783SOL    HW218249   1.814   1.002   1.383
 5784SOL     OW18250   6.783   6.641   6.994
 5784SOL    HW118251   6.698   6.691   6.974
 5784SOL    HW218252   6.801   6.644   0.070
 5785SOL     OW18253   1.777   1.482   1.493
 5785SOL    HW118254   1.773   1.393   1.538
 5785SOL    HW218255   1.779   1.554   1.563
 5786SOL     OW18256   0.833   4.473   0.452
 5786SOL    HW118257   0.910   4.537   0.458
 5786SOL    HW218258   0.868   4.380   0.439
 5787SOL     OW18259   4.707   2.526   4.754
 5787SOL    HW118260   4.658   2.563   4.833
 5787SOL    HW218261   4.697   2.427   4.753
 5788SOL     OW18262   3.341   0.925   1.280
 5788SOL    HW118263   3.367   1.020   1.264
 5788SOL    HW218264   3.308   0.885   1.194
 5789SOL     OW18265   3.094   3.331   6.098
 5789SOL    HW118266   2.997   3.345   6.114
 5789SOL    HW218267   3.127   3.398   6.031
 5790SOL     OW18268   0.664   4.615   4.720
 5790SOL    HW118269   0.649   4.582   4.627
 5790SOL    HW218270   0.722   4.696   4.717
 5791SOL     OW18271   2.810   2.251   2.299
 5791SOL    HW118272   2.840   2.299   2.217
 5791SOL    HW218273   2.710   2.250   2.303
 5792SOL     OW18274   5.699   3.375   2.210
 5792SOL    HW118275   5.647   3.291   2.227
 5792SOL    HW218276   5.729   3.378   2.114
 5793SOL     OW18277   5.960   0.748   4.566
 5793SOL    HW118278   5.908   0.797   4.636
 5793SOL    HW218279   5.972   0.653   4.594
 5794SOL     OW18280   2.993   0.054   6.353
 5794SOL    HW118281   3.020   0.098   6.438
 5794SOL    HW218282   3.018   0.113   6.276
 5795SOL     OW18283   6.829   6.944   1.382
 5795SOL    HW118284   6.755   6.959   1.317
 5795SOL    HW218285   6.874   6.857   1.362
 5796SOL     OW18286   4.353   0.646   6.391
 5796SOL    HW118287   4.377   0.743   6.387
 5796SOL    HW218288   4.314   0.624   6.481
 5797SOL     OW18289   5.135   1.157   0.300
 5797SOL    HW118290   5.090   1.237   0.338
 5797SOL    HW218291   5.098   1.137   0.209
 5798SOL     OW18292   6.957   4.415   4.414
 5798SOL    HW118293   6.860   4.439   4.413
 5798SOL    HW218294   7.012   4.499   4.417
 5799SOL     OW18295   0.032   0.704   3.978
 5799SOL    HW118296   7.006   0.695   3.891
 5799SOL    HW218297   0.032   0.800   4.007
 5800SOL     OW18298   1.019   6.560   1.714
 5800SOL    HW118299   0.963   6.480   1.737
 5800SOL    HW218300   1.099   6.564   1.774
 5801SOL     OW18301   2.204   2.672   3.451
 5801SOL    HW118302   2.265   2.731   3.398
 5801SOL    HW218303   2.234   2.670   3.546
 5802SOL     OW18304   6.269   3.185   2.621
 5802SOL    HW118305   6.195   3.133   2.577
 5802SOL    HW218306   6.237   3.218   2.710
 5803SOL     OW18307   1.774   5.646   3.455
 5803SOL    HW118308   1.786   5.746   3.456
 5803SOL    HW218309   1.705   5.620   3.522
 5804SOL     OW18310   6.954   5.754   3.065
 5804SOL    HW118311   6.920   5.819   2.998
 5804SOL    HW218312   0.011   5.792   3.111
 5805SOL     OW18313   2.044   2.629   0.332
 5805SOL    HW118314   2.075   2.651   0.424
 5805SOL    HW218315   2.088   2.544   0.301
 5806SOL     OW18316   0.109   4.617   4.883
 5806SOL    HW118317   0.124   4.519   4.895
 5806SOL    HW218318   0.012   4.637   4.893
 5807SOL     OW18319   0.860   5.355   1.046
 5807SOL    HW118320   0.934   5.392   0.991
 5807SOL    HW218321   0.869   5.256   1.053
 5808SOL     OW18322   6.807   6.471   4.681
 5808SOL    HW118323   6.794   6.388   4.628
 5808SOL    HW218324   6.718   6.509   4.707
 5809SOL     OW18325   6.352   1.951   5.334
 5809SOL    HW118326   6.389   2.019   5.271
 5809SOL    HW218327   6.294   1.996   5.401
 5810SOL     OW18328   4.708   1.329   5.456
 5810SOL    HW118329   4.769   1.301   5.383
 5810SOL    HW218330   4.615   1.337   5.421
 5811SOL     OW18331   3.499   1.527   5.177
 5811SOL    HW118332   3.499   1.520   5.277
 5811SOL    HW218333   3.575   1.585   5.147
 5812SOL     OW18334   4.804   3.490   5.916
 5812SOL    HW118335   4.824   3.392   5.918
 5812SOL    HW218336   4.710   3.504   5.884
 5813SOL     OW18337   2.674   0.419   0.910
 5813SOL    HW118338   2.654   0.335   0.861
 5813SOL    HW218339   2.590   0.470   0.926
 5814SOL     OW18340   0.238   3.239   1.985
 5814SOL    HW118341   0.230   3.155   1.931
 5814SOL    HW218342   0.205   3.222   2.078
 5815SOL     OW18343   4.652   1.822   3.990
 5815SOL    HW118344   4.649   1.824   4.090
 5815SOL    HW218345   4.747   1.810   3.960
 5816SOL     OW18346   5.934   4.975   0.237
 5816SOL    HW118347   5.962   4.889   0.278
 5816SOL    HW218348   5.939   4.969   0.138
 5817SOL     OW18349   6.281   4.735   5.249
 5817SOL    HW118350   6.246   4.805   5.311
 5817SOL    HW218351   6.363   4.769   5.203
 5818SOL     OW18352   0.154   5.587   5.393
 5818SOL    HW118353   0.212   5.507   5.408
 5818SOL    HW218354   0.210   5.661   5.354
 5819SOL     OW18355   3.233   5.774   6.987
 5819SOL    HW118356   3.134   5.784   7.000
 5819SOL    HW218357   3.250   5.705   6.916
 5820SOL     OW18358   4.395   4.542   2.612
 5820SOL    HW118359   4.426   4.479   2.684
 5820SOL    HW218360   4.472   4.599   2.583
 5821SOL     OW18361   6.506   0.736   1.458
 5821SOL    HW118362   6.489   0.822   1.409
 5821SOL    HW218363   6.477   0.659   1.401
 5822SOL     OW18364   2.034   2.392   1.488
 5822SOL    HW118365   1.949   2.423   1.446
 5822SOL    HW218366   2.029   2.293   1.503
 5823SOL     OW18367   2.734   0.170   4.905
 5823SOL    HW118368   2.782   0.108   4.844
 5823SOL    HW218369   2.777   0.169   4.995
 5824SOL     OW18370   0.432   6.194   3.752
 5824SOL    HW118371   0.509   6.216   3.813
 5824SOL    HW218372   0.357   6.155   3.806
 5825SOL     OW18373   0.345   5.974   4.774
 5825SOL    HW118374   0.377   5.939   4.862
 5825SOL    HW218375   0.265   5.921   4.745
 5826SOL     OW18376   0.628   6.182   5.898
 5826SOL    HW118377   0.695   6.138   5.957
 5826SOL    HW218378   0.612   6.126   5.817
 5827SOL     OW18379   1.289   3.438   4.604
 5827SOL    HW118380   1.295   3.466   4.700
 5827SOL    HW218381   1.292   3.338   4.599
 5828SOL     OW18382   5.031   1.476   2.863
 5828SOL    HW118383   4.943   1.443   2.830
 5828SOL    HW218384   5.104   1.418   2.827
 5829SOL     OW18385   1.499   0.425   4.686
 5829SOL    HW118386   1.452   0.496   4.738
 5829SOL    HW218387   1.433   0.356   4.657
 5830SOL     OW18388   4.937   0.393   5.685
 5830SOL    HW118389   4.897   0.448   5.611
 5830SOL    HW218390   4.864   0.358   5.743
 5831SOL     OW18391   1.236   1.290   6.091
 5831SOL    HW118392   1.247   1.226   6.014
 5831SOL    HW218393   1.298   1.367   6.078
 5832SOL     OW18394   3.641   4.502   0.382
 5832SOL    HW118395   3.697   4.471   0.305
 5832SOL    HW218396   3.657   4.599   0.398
 5833SOL     OW18397   4.239   3.587   5.167
 5833SOL    HW118398   4.332   3.551   5.175
 5833SOL    HW218399   4.185   3.557   5.245
 5834SOL     OW18400   6.221   4.354   6.620
 5834SOL    HW118401   6.200   4.298   6.539
 5834SOL    HW218402   6.285   4.426   6.594
 5835SOL     OW18403   5.707   1.995   2.645
 5835SOL    HW118404   5.678   2.090   2.654
 5835SOL    HW218405   5.719   1.955   2.737
 5836SOL     OW18406   3.026   0.085   2.193
 5836SOL    HW118407   3.114   0.080   2.146
 5836SOL    HW218408   2.979   0.169   2.166
 5837SOL     OW18409   3.449   3.238   0.387
 5837SOL    HW118410   3.407   3.307   0.328
 5837SOL    HW218411   3.540   3.215   0.351
 5838SOL     OW18412   3.143   1.963   1.433
 5838SOL    HW118413   3.242   1.975   1.446
 5838SOL    HW218414   3.098   2.051   1.440
 5839SOL     OW18415   0.760   2.153   0.652
 5839SOL    HW118416   0.845   2.126   0.696
 5839SOL    HW218417   0.727   2.238   0.693
 5840SOL     OW18418   0.780   4.157   0.162
 5840SOL    HW118419   0.838   4.176   0.241
 5840SOL    HW218420   0.718   4.081   0.184
 5841SOL     OW18421   5.734   0.743   1.665
 5841SOL    HW118422   5.761   0.685   1.742
 5841SOL    HW218423   5.815   0.763   1.609
 5842SOL     OW18424   4.969   2.744   1.710
 5842SOL    HW118425   4.954   2.674   1.639
 5842SOL    HW218426   5.067   2.761   1.719
 5843SOL     OW18427   0.877   4.404   1.867
 5843SOL    HW118428   0.811   4.331   1.848
 5843SOL    HW218429   0.878   4.423   1.965
 5844SOL     OW18430   1.513   6.109   5.906
 5844SOL    HW118431   1.484   6.026   5.953
 5844SOL    HW218432   1.435   6.172   5.899
 5845SOL     OW18433   1.095   0.189   1.889
 5845SOL    HW118434   1.116   0.208   1.985
 5845SOL    HW218435   1.132   0.101   1.863
 5846SOL     OW18436   5.937   3.379   5.476
 5846SOL    HW118437   6.025   3.361   5.431
 5846SOL    HW218438   5.863   3.346   5.419
 5847SOL     OW18439   2.736   2.563   1.732
 5847SOL    HW118440   2.738   2.661   1.715
 5847SOL    HW218441   2.820   2.535   1.778
 5848SOL     OW18442   1.480   5.777   3.372
 5848SOL    HW118443   1.475   5.687   3.329
 5848SOL    HW218444   1.449   5.770   3.467
 5849SOL     OW18445   2.097   6.961   5.290
 5849SOL    HW118446   2.077   6.877   5.240
 5849SOL    HW218447   2.019   6.984   5.348
 5850SOL     OW18448   0.418   3.504   2.396
 5850SOL    HW118449   0.459   3.592   2.420
 5850SOL    HW218450   0.336   3.519   2.341
 5851SOL     OW18451   5.226   3.900   3.882
 5851SOL    HW118452   5.133   3.936   3.874
 5851SOL    HW218453   5.271   3.903   3.792
 5852SOL     OW18454   5.299   6.120   2.762
 5852SOL    HW118455   5.260   6.097   2.851
 5852SOL    HW218456   5.331   6.215   2.764
 5853SOL     OW18457   4.240   5.252   5.507
 5853SOL    HW118458   4.289   5.223   5.425
 5853SOL    HW218459   4.230   5.173   5.568
 5854SOL     OW18460   4.117   4.076   5.514
 5854SOL    HW118461   4.114   3.987   5.557
 5854SOL    HW218462   4.171   4.071   5.430
 5855SOL     OW18463   1.164   1.112   4.382
 5855SOL    HW118464   1.188   1.123   4.478
 5855SOL    HW218465   1.065   1.121   4.371
 5856SOL     OW18466   1.042   6.035   3.777
 5856SOL    HW118467   1.036   6.010   3.681
 5856SOL    HW218468   0.962   6.091   3.802
 5857SOL     OW18469   6.570   3.336   4.986
 5857SOL    HW118470   6.491   3.286   4.950
 5857SOL    HW218471   6.573   3.324   5.085
 5858SOL     OW18472   2.196   2.364   2.874
 5858SOL    HW118473   2.205   2.266   2.859
 5858SOL    HW218474   2.100   2.388   2.881
 5859SOL     OW18475   6.469   5.991   1.325
 5859SOL    HW118476   6.402   6.057   1.293
 5859SOL    HW218477   6.516   5.950   1.246
 5860SOL     OW18478   6.740   5.212   3.130
 5860SOL    HW118479   6.742   5.206   3.230
 5860SOL    HW218480   6.701   5.301   3.103
 5861SOL     OW18481   5.342   1.201   3.821
 5861SOL    HW118482   5.256   1.182   3.772
 5861SOL    HW218483   5.419   1.183   3.760
 5862SOL     OW18484   6.074   5.113   1.103
 5862SOL    HW118485   6.132   5.103   1.022
 5862SOL    HW218486   5.979   5.127   1.074
 5863SOL     OW18487   2.750   2.101   4.762
 5863SOL    HW118488   2.772   2.132   4.854
 5863SOL    HW218489   2.679   2.160   4.723
 5864SOL     OW18490   2.957   3.506   2.610
 5864SOL    HW118491   2.888   3.469   2.672
 5864SOL    HW218492   2.912   3.560   2.539
 5865SOL     OW18493   5.718   0.739   5.122
 5865SOL    HW118494   5.681   0.652   5.155
 5865SOL    HW218495   5.651   0.812   5.137
 5866SOL     OW18496   3.515   3.454   1.720
 5866SOL    HW118497   3.451   3.378   1.729
 5866SOL    HW218498   3.523   3.479   1.624
 5867SOL     OW18499   1.990   3.117   1.366
 5867SOL    HW118500   1.956   3.203   1.328
 5867SOL    HW218501   2.073   3.133   1.419
 5868SOL     OW18502   1.862   1.566   5.886
 5868SOL    HW118503   1.847   1.478   5.842
 5868SOL    HW218504   1.951   1.566   5.932
 5869SOL     OW18505   2.120   5.746   2.902
 5869SOL    HW118506   2.207   5.719   2.943
 5869SOL    HW218507   2.057   5.773   2.974
 5870SOL     OW18508   5.728   6.207   5.006
 5870SOL    HW118509   5.713   6.111   5.030
 5870SOL    HW218510   5.650   6.240   4.953
 5871SOL     OW18511   3.778   3.317   1.782
 5871SOL    HW118512   3.738   3.282   1.867
 5871SOL    HW218513   3.736   3.404   1.759
 5872SOL     OW18514   4.199   6.749   1.385
 5872SOL    HW118515   4.099   6.756   1.379
 5872SOL    HW218516   4.223   6.671   1.443
 5873SOL     OW18517   3.346   6.649   2.322
 5873SOL    HW118518   3.418   6.588   2.288
 5873SOL    HW218519   3.368   6.743   2.297
 5874SOL     OW18520   2.355   4.386   4.872
 5874SOL    HW118521   2.421   4.311   4.877
 5874SOL    HW218522   2.296   4.384   4.953
 5875SOL     OW18523   4.105   1.503   0.364
 5875SOL    HW118524   4.166   1.572   0.324
 5875SOL    HW218525   4.110   1.510   0.464
 5876SOL     OW18526   3.984   3.501   1.701
 5876SOL    HW118527   3.996   3.573   1.769
 5876SOL    HW218528   3.911   3.527   1.637
 5877SOL     OW18529   6.493   6.428   0.945
 5877SOL    HW118530   6.520   6.487   0.869
 5877SOL    HW218531   6.434   6.355   0.911
 5878SOL     OW18532   0.341   5.480   4.357
 5878SOL    HW118533   0.248   5.452   4.332
 5878SOL    HW218534   0.358   5.573   4.325
 5879SOL     OW18535   1.691   4.291   6.969
 5879SOL    HW118536   1.672   4.297   6.871
 5879SOL    HW218537   1.641   4.213   7.007
 5880SOL     OW18538   4.332   4.280   6.935
 5880SOL    HW118539   4.301   4.201   6.988
 5880SOL    HW218540   4.276   4.288   6.852
 5881SOL     OW18541   0.158   6.190   3.024
 5881SOL    HW118542   0.247   6.234   3.011
 5881SOL    HW218543   0.128   6.202   3.119
 5882SOL     OW18544   0.331   6.255   1.181
 5882SOL    HW118545   0.297   6.289   1.269
 5882SOL    HW218546   0.275   6.293   1.107
 5883SOL     OW18547   1.255   0.757   6.268
 5883SOL    HW118548   1.230   0.838   6.321
 5883SOL    HW218549   1.353   0.739   6.277
 5884SOL     OW18550   3.194   1.911   4.565
 5884SOL    HW118551   3.167   1.985   4.626
 5884SOL    HW218552   3.113   1.872   4.522
 5885SOL     OW18553   0.611   0.304   3.313
 5885SOL    HW118554   0.541   0.375   3.314
 5885SOL    HW218555   0.701   0.346   3.300
 5886SOL     OW18556   0.381   1.923   5.008
 5886SOL    HW118557   0.359   1.945   4.913
 5886SOL    HW218558   0.320   1.972   5.069
 5887SOL     OW18559   2.800   1.404   3.375
 5887SOL    HW118560   2.895   1.433   3.381
 5887SOL    HW218561   2.747   1.450   3.446
 5888SOL     OW18562   3.304   0.850   2.012
 5888SOL    HW118563   3.371   0.821   2.081
 5888SOL    HW218564   3.303   0.785   1.937
 5889SOL     OW18565   1.466   6.494   1.345
 5889SOL    HW118566   1.554   6.486   1.298
 5889SOL    HW218567   1.460   6.424   1.416
 5890SOL     OW18568   2.097   1.067   4.060
 5890SOL    HW118569   2.068   0.978   4.096
 5890SOL    HW218570   2.020   1.130   4.062
 5891SOL     OW18571   3.475   3.206   6.156
 5891SOL    HW118572   3.471   3.295   6.109
 5891SOL    HW218573   3.487   3.134   6.088
 5892SOL     OW18574   0.493   5.236   1.832
 5892SOL    HW118575   0.419   5.223   1.899
 5892SOL    HW218576   0.498   5.156   1.773
 5893SOL     OW18577   1.734   4.236   4.613
 5893SOL    HW118578   1.636   4.218   4.622
 5893SOL    HW218579   1.774   4.169   4.550
 5894SOL     OW18580   6.579   4.878   4.491
 5894SOL    HW118581   6.625   4.886   4.580
 5894SOL    HW218582   6.480   4.879   4.506
 5895SOL     OW18583   5.181   3.736   4.094
 5895SOL    HW118584   5.131   3.650   4.097
 5895SOL    HW218585   5.198   3.761   3.998
 5896SOL     OW18586   4.565   0.555   6.943
 5896SOL    HW118587   4.564   0.455   6.936
 5896SOL    HW218588   4.568   0.582   0.017
 5897SOL     OW18589   4.101   0.577   1.507
 5897SOL    HW118590   4.119   0.555   1.603
 5897SOL    HW218591   4.177   0.631   1.471
 5898SOL     OW18592   2.287   6.647   3.208
 5898SOL    HW118593   2.368   6.660   3.151
 5898SOL    HW218594   2.279   6.721   3.275
 5899SOL     OW18595   5.122   6.139   5.895
 5899SOL    HW118596   5.050   6.161   5.961
 5899SOL    HW218597   5.211   6.147   5.940
 5900SOL     OW18598   5.178   4.826   3.147
 5900SOL    HW118599   5.190   4.909   3.092
 5900SOL    HW218600   5.265   4.777   3.153
 5901SOL     OW18601   2.577   0.330   0.672
 5901SOL    HW118602   2.517   0.405   0.701
 5901SOL    HW218603   2.523   0.258   0.629
 5902SOL     OW18604   6.830   2.571   6.135
 5902SOL    HW118605   6.835   2.619   6.223
 5902SOL    HW218606   6.918   2.530   6.115
 5903SOL     OW18607   3.970   4.091   6.993
 5903SOL    HW118608   3.917   4.103   6.909
 5903SOL    HW218609   3.924   4.138   0.046
 5904SOL     OW18610   1.014   3.959   1.968
 5904SOL    HW118611   1.039   3.932   1.875
 5904SOL    HW218612   1.056   3.896   2.033
 5905SOL     OW18613   6.483   5.804   2.729
 5905SOL    HW118614   6.557   5.798   2.661
 5905SOL    HW218615   6.413   5.736   2.707
 5906SOL     OW18616   4.182   2.295   3.592
 5906SOL    HW118617   4.252   2.362   3.569
 5906SOL    HW218618   4.215   2.235   3.665
 5907SOL     OW18619   0.404   4.788   1.182
 5907SOL    HW118620   0.308   4.791   1.209
 5907SOL    HW218621   0.455   4.857   1.234
 5908SOL     OW18622   0.207   2.590   6.294
 5908SOL    HW118623   0.226   2.642   6.378
 5908SOL    HW218624   0.255   2.632   6.217
 5909SOL     OW18625   6.690   5.473   0.590
 5909SOL    HW118626   6.691   5.565   0.552
 5909SOL    HW218627   6.615   5.421   0.549
 5910SOL     OW18628   0.130   3.367   3.914
 5910SOL    HW118629   0.208   3.340   3.857
 5910SOL    HW218630   0.052   3.307   3.895
 5911SOL     OW18631   6.808   6.682   6.313
 5911SOL    HW118632   6.903   6.700   6.339
 5911SOL    HW218633   6.799   6.686   6.213
 5912SOL     OW18634   6.705   0.643   5.706
 5912SOL    HW118635   6.633   0.630   5.638
 5912SOL    HW218636   6.679   0.599   5.792
 5913SOL     OW18637   4.761   2.929   6.233
 5913SOL    HW118638   4.784   2.895   6.325
 5913SOL    HW218639   4.789   3.024   6.225
 5914SOL     OW18640   1.661   5.054   6.857
 5914SOL    HW118641   1.658   5.042   6.758
 5914SOL    HW218642   1.672   4.965   6.901
 5915SOL     OW18643   4.868   5.786   1.354
 5915SOL    HW118644   4.893   5.696   1.318
 5915SOL    HW218645   4.944   5.823   1.408
 5916SOL     OW18646   6.014   6.158   3.614
 5916SOL    HW118647   6.077   6.080   3.611
 5916SOL    HW218648   6.048   6.231   3.554
 5917SOL     OW18649   3.424   3.823   4.253
 5917SOL    HW118650   3.503   3.797   4.309
 5917SOL    HW218651   3.363   3.745   4.244
 5918SOL     OW18652   2.380   4.283   5.200
 5918SOL    HW118653   2.363   4.288   5.298
 5918SOL    HW218654   2.343   4.197   5.164
 5919SOL     OW18655   3.764   2.986   3.429
 5919SOL    HW118656   3.741   2.931   3.509
 5919SOL    HW218657   3.732   2.940   3.346
 5920SOL     OW18658   4.448   0.916   6.422
 5920SOL    HW118659   4.483   0.938   6.513
 5920SOL    HW218660   4.517   0.938   6.353
 5921SOL     OW18661   3.773   5.091   6.491
 5921SOL    HW118662   3.843   5.063   6.426
 5921SOL    HW218663   3.796   5.056   6.582
 5922SOL     OW18664   5.779   3.944   3.332
 5922SOL    HW118665   5.831   4.029   3.336
 5922SOL    HW218666   5.738   3.934   3.242
 5923SOL     OW18667   0.128   1.839   2.065
 5923SOL    HW118668   0.032   1.865   2.056
 5923SOL    HW218669   0.183   1.894   2.002
 5924SOL     OW18670   6.859   7.021   2.770
 5924SOL    HW118671   6.868   0.029   2.676
 5924SOL    HW218672   6.950   7.020   2.813
 5925SOL     OW18673   3.971   6.582   1.859
 5925SOL    HW118674   3.900   6.653   1.853
 5925SOL    HW218675   4.058   6.620   1.828
 5926SOL     OW18676   3.556   5.485   2.591
 5926SOL    HW118677   3.601   5.400   2.563
 5926SOL    HW218678   3.462   5.465   2.618
 5927SOL     OW18679   1.281   4.697   2.380
 5927SOL    HW118680   1.225   4.778   2.365
 5927SOL    HW218681   1.351   4.692   2.309
 5928SOL     OW18682   3.343   6.611   0.834
 5928SOL    HW118683   3.336   6.549   0.912
 5928SOL    HW218684   3.434   6.652   0.832
 5929SOL     OW18685   6.352   0.452   6.019
 5929SOL    HW118686   6.403   0.416   6.096
 5929SOL    HW218687   6.393   0.419   5.933
 5930SOL     OW18688   6.808   4.008   2.977
 5930SOL    HW118689   6.894   4.050   2.947
 5930SOL    HW218690   6.808   3.998   3.076
 5931SOL     OW18691   6.555   6.085   2.503
 5931SOL    HW118692   6.647   6.083   2.543
 5931SOL    HW218693   6.487   6.063   2.572
 5932SOL     OW18694   2.937   0.016   1.347
 5932SOL    HW118695   2.910   6.947   1.316
 5932SOL    HW218696   3.037   0.022   1.347
 5933SOL     OW18697   6.709   4.865   3.720
 5933SOL    HW118698   6.722   4.767   3.707
 5933SOL    HW218699   6.618   4.882   3.759
 5934SOL     OW18700   3.267   2.920   4.896
 5934SOL    HW118701   3.286   2.822   4.899
 5934SOL    HW218702   3.239   2.952   4.987
 5935SOL     OW18703   6.613   5.242   6.305
 5935SOL    HW118704   6.578   5.159   6.349
 5935SOL    HW218705   6.613   5.317   6.371
 5936SOL     OW18706   3.310   2.885   1.524
 5936SOL    HW118707   3.340   2.839   1.608
 5936SOL    HW218708   3.337   2.831   1.445
 5937SOL     OW18709   6.213   3.228   2.025
 5937SOL    HW118710   6.205   3.204   1.929
 5937SOL    HW218711   6.123   3.223   2.068
 5938SOL     OW18712   6.420   5.745   3.331
 5938SOL    HW118713   6.433   5.792   3.419
 5938SOL    HW218714   6.340   5.783   3.285
 5939SOL     OW18715   2.492   6.494   3.360
 5939SOL    HW118716   2.401   6.513   3.324
 5939SOL    HW218717   2.491   6.502   3.459
 5940SOL     OW18718   4.521   5.395   2.445
 5940SOL    HW118719   4.542   5.298   2.436
 5940SOL    HW218720   4.422   5.407   2.450
 5941SOL     OW18721   6.020   3.910   1.959
 5941SOL    HW118722   6.043   3.885   1.865
 5941SOL    HW218723   5.924   3.936   1.964
 5942SOL     OW18724   5.419   3.997   0.046
 5942SOL    HW118725   5.359   3.918   0.041
 5942SOL    HW218726   5.388   4.067   7.004
 5943SOL     OW18727   3.412   4.431   5.949
 5943SOL    HW118728   3.423   4.464   5.856
 5943SOL    HW218729   3.350   4.491   5.999
 5944SOL     OW18730   0.073   2.428   0.386
 5944SOL    HW118731   0.086   2.364   0.461
 5944SOL    HW218732   0.038   2.515   0.422
 5945SOL     OW18733   6.682   4.731   5.120
 5945SOL    HW118734   6.647   4.640   5.098
 5945SOL    HW218735   6.663   4.752   5.216
 5946SOL     OW18736   3.595   3.794   6.134
 5946SOL    HW118737   3.565   3.796   6.229
 5946SOL    HW218738   3.695   3.781   6.132
 5947SOL     OW18739   3.593   3.202   2.290
 5947SOL    HW118740   3.593   3.224   2.193
 5947SOL    HW218741   3.504   3.226   2.330
 5948SOL     OW18742   4.288   5.008   2.399
 5948SOL    HW118743   4.224   4.939   2.364
 5948SOL    HW218744   4.298   5.081   2.331
 5949SOL     OW18745   5.194   3.934   1.497
 5949SOL    HW118746   5.283   3.889   1.489
 5949SOL    HW218747   5.121   3.868   1.476
 5950SOL     OW18748   5.345   1.609   5.277
 5950SOL    HW118749   5.285   1.587   5.200
 5950SOL    HW218750   5.353   1.528   5.336
 5951SOL     OW18751   1.387   5.178   3.937
 5951SOL    HW118752   1.373   5.238   3.858
 5951SOL    HW218753   1.353   5.086   3.915
 5952SOL     OW18754   5.285   5.179   2.952
 5952SOL    HW118755   5.330   5.263   2.920
 5952SOL    HW218756   5.347   5.101   2.939
 5953SOL     OW18757   6.625   3.859   5.483
 5953SOL    HW118758   6.609   3.827   5.389
 5953SOL    HW218759   6.539   3.892   5.522
 5954SOL     OW18760   6.543   5.636   5.736
 5954SOL    HW118761   6.466   5.592   5.690
 5954SOL    HW218762   6.617   5.653   5.671
 5955SOL     OW18763   4.729   5.527   2.304
 5955SOL    HW118764   4.669   5.465   2.356
 5955SOL    HW218765   4.809   5.549   2.360
 5956SOL     OW18766   4.643   1.780   4.264
 5956SOL    HW118767   4.597   1.840   4.329
 5956SOL    HW218768   4.716   1.730   4.311
 5957SOL     OW18769   2.964   1.065   4.501
 5957SOL    HW118770   2.944   1.105   4.411
 5957SOL    HW218771   2.936   1.128   4.573
 5958SOL     OW18772   4.421   6.462   2.913
 5958SOL    HW118773   4.451   6.412   2.831
 5958SOL    HW218774   4.323   6.445   2.928
 5959SOL     OW18775   4.393   2.864   5.386
 5959SOL    HW118776   4.298   2.896   5.387
 5959SOL    HW218777   4.419   2.836   5.479
 5960SOL     OW18778   4.004   5.662   5.165
 5960SOL    HW118779   4.006   5.579   5.109
 5960SOL    HW218780   4.085   5.718   5.146
 5961SOL     OW18781   4.381   2.243   2.893
 5961SOL    HW118782   4.423   2.305   2.827
 5961SOL    HW218783   4.339   2.166   2.845
 5962SOL     OW18784   5.985   6.602   6.675
 5962SOL    HW118785   6.049   6.649   6.615
 5962SOL    HW218786   5.950   6.520   6.630
 5963SOL     OW18787   3.426   3.845   6.356
 5963SOL    HW118788   3.354   3.863   6.423
 5963SOL    HW218789   3.463   3.753   6.371
 5964SOL     OW18790   1.490   6.412   5.265
 5964SOL    HW118791   1.530   6.375   5.349
 5964SOL    HW218792   1.478   6.510   5.274
 5965SOL     OW18793   2.099   1.883   0.377
 5965SOL    HW118794   2.035   1.809   0.399
 5965SOL    HW218795   2.064   1.935   0.299
 5966SOL     OW18796   2.231   5.744   5.784
 5966SOL    HW118797   2.272   5.695   5.707
 5966SOL    HW218798   2.294   5.741   5.863
 5967SOL     OW18799   2.826   0.273   5.921
 5967SOL    HW118800   2.748   0.210   5.925
 5967SOL    HW218801   2.894   0.237   5.857
 5968SOL     OW18802   5.557   1.794   0.131
 5968SOL    HW118803   5.461   1.790   0.100
 5968SOL    HW218804   5.578   1.887   0.162
 5969SOL     OW18805   5.934   0.659   6.610
 5969SOL    HW118806   5.935   0.565   6.643
 5969SOL    HW218807   6.023   0.701   6.627
 5970SOL     OW18808   0.115   3.827   2.924
 5970SOL    HW118809   0.017   3.817   2.940
 5970SOL    HW218810   0.132   3.838   2.827
 5971SOL     OW18811   0.142   1.432   2.221
 5971SOL    HW118812   0.115   1.425   2.125
 5971SOL    HW218813   0.202   1.510   2.233
 5972SOL     OW18814   5.472   5.918   5.938
 5972SOL    HW118815   5.525   5.884   5.860
 5972SOL    HW218816   5.494   5.863   6.019
 5973SOL     OW18817   1.641   3.224   1.670
 5973SOL    HW118818   1.624   3.322   1.656
 5973SOL    HW218819   1.593   3.193   1.752
 5974SOL     OW18820   5.679   6.027   6.677
 5974SOL    HW118821   5.680   5.941   6.627
 5974SOL    HW218822   5.632   6.097   6.623
 5975SOL     OW18823   4.555   0.222   1.228
 5975SOL    HW118824   4.644   0.230   1.274
 5975SOL    HW218825   4.566   0.166   1.146
 5976SOL     OW18826   4.141   2.531   6.178
 5976SOL    HW118827   4.169   2.468   6.106
 5976SOL    HW218828   4.146   2.625   6.144
 5977SOL     OW18829   1.318   6.336   0.602
 5977SOL    HW118830   1.292   6.294   0.516
 5977SOL    HW218831   1.384   6.277   0.649
 5978SOL     OW18832   3.948   5.486   1.683
 5978SOL    HW118833   3.942   5.542   1.600
 5978SOL    HW218834   4.044   5.463   1.700
 5979SOL     OW18835   5.919   0.631   2.777
 5979SOL    HW118836   5.871   0.709   2.818
 5979SOL    HW218837   6.014   0.631   2.808
 5980SOL     OW18838   3.697   4.238   1.725
 5980SOL    HW118839   3.740   4.172   1.663
 5980SOL    HW218840   3.734   4.329   1.707
 5981SOL     OW18841   5.857   2.027   1.305
 5981SOL    HW118842   5.800   2.062   1.231
 5981SOL    HW218843   5.838   2.078   1.389
 5982SOL     OW18844   6.263   2.242   1.940
 5982SOL    HW118845   6.283   2.340   1.948
 5982SOL    HW218846   6.338   2.197   1.890
 5983SOL     OW18847   1.177   1.154   3.707
 5983SOL    HW118848   1.271   1.176   3.734
 5983SOL    HW218849   1.128   1.115   3.785
 5984SOL     OW18850   5.801   6.037   3.350
 5984SOL    HW118851   5.722   6.020   3.409
 5984SOL    HW218852   5.782   6.114   3.291
 5985SOL     OW18853   0.013   3.054   4.126
 5985SOL    HW118854   6.993   3.084   4.041
 5985SOL    HW218855   0.043   3.134   4.178
 5986SOL     OW18856   3.318   4.146   4.482
 5986SOL    HW118857   3.374   4.177   4.405
 5986SOL    HW218858   3.235   4.102   4.448
 5987SOL     OW18859   5.713   0.177   4.039
 5987SOL    HW118860   5.766   0.258   4.065
 5987SOL    HW218861   5.773   0.098   4.032
 5988SOL     OW18862   4.146   0.708   5.540
 5988SOL    HW118863   4.237   0.737   5.571
 5988SOL    HW218864   4.102   0.655   5.612
 5989SOL     OW18865   2.282   5.990   6.254
 5989SOL    HW118866   2.276   6.076   6.202
 5989SOL    HW218867   2.355   5.934   6.215
 5990SOL     OW18868   3.237   3.336   0.889
 5990SOL    HW118869   3.232   3.272   0.812
 5990SOL    HW218870   3.196   3.423   0.863
 5991SOL     OW18871   3.765   5.210   0.023
 5991SOL    HW118872   3.741   5.262   6.964
 5991SOL    HW218873   3.725   5.118   0.017
 5992SOL     OW18874   3.594   0.219   1.897
 5992SOL    HW118875   3.556   0.243   1.987
 5992SOL    HW218876   3.532   0.251   1.825
 5993SOL     OW18877   3.279   4.732   5.995
 5993SOL    HW118878   3.317   4.682   6.073
 5993SOL    HW218879   3.341   4.806   5.970
 5994SOL     OW18880   6.870   2.459   1.056
 5994SOL    HW118881   6.866   2.363   1.083
 5994SOL    HW218882   6.954   2.475   1.005
 5995SOL     OW18883   4.901   3.349   2.144
 5995SOL    HW118884   4.892   3.443   2.176
 5995SOL    HW218885   4.869   3.342   2.050
 5996SOL     OW18886   0.848   6.283   0.890
 5996SOL    HW118887   0.879   6.342   0.816
 5996SOL    HW218888   0.782   6.331   0.947
 5997SOL     OW18889   0.247   5.300   2.548
 5997SOL    HW118890   0.232   5.236   2.472
 5997SOL    HW218891   0.248   5.249   2.634
 5998SOL     OW18892   6.036   1.694   3.111
 5998SOL    HW118893   6.067   1.607   3.149
 5998SOL    HW218894   5.939   1.708   3.131
 5999SOL     OW18895   2.815   2.846   1.624
 5999SOL    HW118896   2.864   2.785   1.561
 5999SOL    HW218897   2.880   2.899   1.677
 6000SOL     OW18898   2.437   6.785   0.668
 6000SOL    HW118899   2.505   6.731   0.719
 6000SOL    HW218900   2.475   6.812   0.580
 6001SOL     OW18901   0.024   4.782   6.525
 6001SOL    HW118902   0.074   4.835   6.594
 6001SOL    HW218903   0.082   4.765   6.446
 6002SOL     OW18904   6.010   0.461   0.405
 6002SOL    HW118905   6.047   0.541   0.452
 6002SOL    HW218906   6.054   0.378   0.441
 6003SOL     OW18907   5.526   2.208   4.287
 6003SOL    HW118908   5.434   2.241   4.266
 6003SOL    HW218909   5.568   2.171   4.204
 6004SOL     OW18910   6.896   3.729   3.003
 6004SOL    HW118911   6.857   3.818   2.977
 6004SOL    HW218912   6.885   3.715   3.101
 6005SOL     OW18913   4.920   5.411   4.494
 6005SOL    HW118914   4.941   5.416   4.396
 6005SOL    HW218915   4.908   5.315   4.520
 6006SOL     OW18916   2.586   0.722   5.091
 6006SOL    HW118917   2.611   0.681   5.179
 6006SOL    HW218918   2.668   0.755   5.045
 6007SOL     OW18919   5.271   3.728   5.942
 6007SOL    HW118920   5.304   3.798   6.005
 6007SOL    HW218921   5.346   3.666   5.919
 6008SOL     OW18922   2.676   4.545   5.435
 6008SOL    HW118923   2.743   4.566   5.506
 6008SOL    HW218924   2.712   4.572   5.346
 6009SOL     OW18925   2.221   0.850   3.317
 6009SOL    HW118926   2.181   0.916   3.253
 6009SOL    HW218927   2.308   0.885   3.350
 6010SOL     OW18928   1.285   5.236   4.190
 6010SOL    HW118929   1.373   5.192   4.207
 6010SOL    HW218930   1.232   5.182   4.125
 6011SOL     OW18931   5.383   2.896   3.070
 6011SOL    HW118932   5.301   2.859   3.115
 6011SOL    HW218933   5.450   2.823   3.058
 6012SOL     OW18934   5.902   0.616   0.784
 6012SOL    HW118935   5.954   0.586   0.864
 6012SOL    HW218936   5.806   0.626   0.808
 6013SOL     OW18937   5.252   1.350   2.693
 6013SOL    HW118938   5.280   1.285   2.622
 6013SOL    HW218939   5.325   1.416   2.709
 6014SOL     OW18940   3.738   3.521   3.222
 6014SOL    HW118941   3.753   3.557   3.130
 6014SOL    HW218942   3.791   3.438   3.234
 6015SOL     OW18943   6.381   3.839   4.253
 6015SOL    HW118944   6.443   3.827   4.175
 6015SOL    HW218945   6.296   3.880   4.222
 6016SOL     OW18946   6.184   2.058   5.537
 6016SOL    HW118947   6.237   2.141   5.556
 6016SOL    HW218948   6.116   2.045   5.609
 6017SOL     OW18949   5.873   5.067   3.147
 6017SOL    HW118950   5.895   5.094   3.241
 6017SOL    HW218951   5.937   4.996   3.117
 6018SOL     OW18952   3.880   0.399   6.039
 6018SOL    HW118953   3.799   0.450   6.011
 6018SOL    HW218954   3.886   0.314   5.988
 6019SOL     OW18955   0.982   2.611   4.475
 6019SOL    HW118956   1.064   2.664   4.451
 6019SOL    HW218957   0.988   2.521   4.433
 6020SOL     OW18958   0.764   4.748   1.256
 6020SOL    HW118959   0.789   4.732   1.160
 6020SOL    HW218960   0.719   4.666   1.292
 6021SOL     OW18961   4.349   0.189   2.610
 6021SOL    HW118962   4.313   0.245   2.684
 6021SOL    HW218963   4.310   0.097   2.616
 6022SOL     OW18964   5.379   2.041   3.480
 6022SOL    HW118965   5.442   2.035   3.403
 6022SOL    HW218966   5.429   2.029   3.565
 6023SOL     OW18967   5.736   0.782   1.255
 6023SOL    HW118968   5.653   0.805   1.306
 6023SOL    HW218969   5.770   0.865   1.210
 6024SOL     OW18970   2.015   4.784   2.553
 6024SOL    HW118971   1.936   4.810   2.497
 6024SOL    HW218972   2.019   4.684   2.560
 6025SOL     OW18973   3.827   1.630   3.386
 6025SOL    HW118974   3.927   1.641   3.380
 6025SOL    HW218975   3.799   1.633   3.482
 6026SOL     OW18976   0.019   4.418   6.007
 6026SOL    HW118977   7.019   4.327   6.044
 6026SOL    HW218978   0.080   4.407   5.929
 6027SOL     OW18979   0.815   3.227   5.277
 6027SOL    HW118980   0.814   3.129   5.297
 6027SOL    HW218981   0.880   3.272   5.338
 6028SOL     OW18982   6.778   4.736   0.041
 6028SOL    HW118983   6.803   4.790   6.983
 6028SOL    HW218984   6.708   4.785   0.093
 6029SOL     OW18985   2.219   0.278   4.929
 6029SOL    HW118986   2.255   0.340   4.859
 6029SOL    HW218987   2.283   0.202   4.942
 6030SOL     OW18988   3.807   5.211   2.897
 6030SOL    HW118989   3.846   5.119   2.885
 6030SOL    HW218990   3.762   5.216   2.986
 6031SOL     OW18991   3.237   5.607   4.740
 6031SOL    HW118992   3.251   5.544   4.664
 6031SOL    HW218993   3.166   5.673   4.716
 6032SOL     OW18994   2.269   4.852   2.701
 6032SOL    HW118995   2.321   4.937   2.706
 6032SOL    HW218996   2.193   4.863   2.637
 6033SOL     OW18997   2.340   2.508   3.059
 6033SOL    HW118998   2.409   2.464   3.117
 6033SOL    HW218999   2.297   2.439   3.001
 6034SOL     OW19000   1.487   7.021   5.424
 6034SOL    HW119001   1.419   0.033   5.359
 6034SOL    HW219002   1.547   0.073   5.453
 6035SOL     OW19003   0.845   1.554   2.116
 6035SOL    HW119004   0.816   1.459   2.132
 6035SOL    HW219005   0.810   1.585   2.028
 6036SOL     OW19006   4.969   4.878   2.911
 6036SOL    HW119007   4.893   4.830   2.954
 6036SOL    HW219008   4.950   4.890   2.813
 6037SOL     OW19009   3.931   6.545   0.371
 6037SOL    HW119010   3.983   6.513   0.450
 6037SOL    HW219011   3.864   6.475   0.345
 6038SOL     OW19012   1.779   2.730   5.766
 6038SOL    HW119013   1.793   2.667   5.842
 6038SOL    HW219014   1.748   2.678   5.686
 6039SOL     OW19015   3.195   3.039   2.993
 6039SOL    HW119016   3.262   3.112   2.986
 6039SOL    HW219017   3.114   3.073   3.041
 6040SOL     OW19018   1.657   1.453   0.642
 6040SOL    HW119019   1.590   1.401   0.589
 6040SOL    HW219020   1.616   1.540   0.671
 6041SOL     OW19021   3.124   0.676   5.550
 6041SOL    HW119022   3.155   0.771   5.557
 6041SOL    HW219023   3.031   0.669   5.585
 6042SOL     OW19024   4.447   6.911   2.426
 6042SOL    HW119025   4.381   6.853   2.379
 6042SOL    HW219026   4.535   6.906   2.380
 6043SOL     OW19027   1.287   5.488   5.657
 6043SOL    HW119028   1.260   5.547   5.581
 6043SOL    HW219029   1.225   5.409   5.661
 6044SOL     OW19030   1.658   2.614   1.718
 6044SOL    HW119031   1.649   2.593   1.620
 6044SOL    HW219032   1.633   2.709   1.735
 6045SOL     OW19033   6.492   4.279   2.288
 6045SOL    HW119034   6.399   4.248   2.309
 6045SOL    HW219035   6.502   4.375   2.315
 6046SOL     OW19036   3.416   2.489   0.967
 6046SOL    HW119037   3.497   2.440   1.000
 6046SOL    HW219038   3.341   2.425   0.951
 6047SOL     OW19039   5.512   1.675   1.818
 6047SOL    HW119040   5.422   1.635   1.803
 6047SOL    HW219041   5.582   1.610   1.787
 6048SOL     OW19042   4.611   5.062   5.116
 6048SOL    HW119043   4.626   5.007   5.198
 6048SOL    HW219044   4.608   5.159   5.141
 6049SOL     OW19045   4.806   3.121   0.106
 6049SOL    HW119046   4.899   3.130   0.140
 6049SOL    HW219047   4.742   3.127   0.183
 6050SOL     OW19048   3.397   5.477   6.147
 6050SOL    HW119049   3.317   5.418   6.138
 6050SOL    HW219050   3.406   5.535   6.066
 6051SOL     OW19051   1.779   0.069   4.080
 6051SOL    HW119052   1.747   0.162   4.102
 6051SOL    HW219053   1.854   0.075   4.014
 6052SOL     OW19054   5.551   1.353   0.471
 6052SOL    HW119055   5.644   1.372   0.440
 6052SOL    HW219056   5.553   1.283   0.542
 6053SOL     OW19057   4.871   1.166   6.164
 6053SOL    HW119058   4.919   1.217   6.093
 6053SOL    HW219059   4.906   1.194   6.254
 6054SOL     OW19060   2.728   3.021   0.211
 6054SOL    HW119061   2.743   3.020   0.310
 6054SOL    HW219062   2.800   3.075   0.167
 6055SOL     OW19063   5.084   6.710   5.613
 6055SOL    HW119064   5.097   6.680   5.708
 6055SOL    HW219065   5.159   6.675   5.557
 6056SOL     OW19066   4.978   3.457   4.558
 6056SOL    HW119067   4.978   3.510   4.642
 6056SOL    HW219068   4.922   3.376   4.569
 6057SOL     OW19069   6.622   1.936   2.996
 6057SOL    HW119070   6.613   1.876   3.076
 6057SOL    HW219071   6.635   1.880   2.914
 6058SOL     OW19072   4.601   3.874   1.556
 6058SOL    HW119073   4.631   3.844   1.465
 6058SOL    HW219074   4.501   3.869   1.562
 6059SOL     OW19075   5.047   5.130   5.771
 6059SOL    HW119076   5.143   5.156   5.766
 6059SOL    HW219077   4.993   5.191   5.714
 6060SOL     OW19078   2.792   3.411   6.669
 6060SOL    HW119079   2.815   3.346   6.596
 6060SOL    HW219080   2.843   3.495   6.655
 6061SOL     OW19081   3.982   2.962   1.118
 6061SOL    HW119082   4.068   2.918   1.144
 6061SOL    HW219083   3.910   2.893   1.109
 6062SOL     OW19084   2.886   1.444   5.265
 6062SOL    HW119085   2.845   1.523   5.220
 6062SOL    HW219086   2.850   1.360   5.224
 6063SOL     OW19087   4.551   2.366   6.088
 6063SOL    HW119088   4.512   2.457   6.074
 6063SOL    HW219089   4.569   2.352   6.185
 6064SOL     OW19090   1.113   6.362   1.484
 6064SOL    HW119091   1.079   6.455   1.469
 6064SOL    HW219092   1.172   6.335   1.409
 6065SOL     OW19093   0.802   6.668   2.863
 6065SOL    HW119094   0.746   6.751   2.868
 6065SOL    HW219095   0.829   6.651   2.768
 6066SOL     OW19096   4.535   1.508   5.791
 6066SOL    HW119097   4.518   1.587   5.849
 6066SOL    HW219098   4.592   1.442   5.839
 6067SOL     OW19099   5.779   0.840   5.598
 6067SOL    HW119100   5.876   0.856   5.614
 6067SOL    HW219101   5.738   0.802   5.681
 6068SOL     OW19102   4.737   2.927   4.855
 6068SOL    HW119103   4.640   2.933   4.829
 6068SOL    HW219104   4.747   2.950   4.952
 6069SOL     OW19105   6.401   3.140   4.912
 6069SOL    HW119106   6.434   3.049   4.887
 6069SOL    HW219107   6.394   3.197   4.830
 6070SOL     OW19108   2.943   1.852   0.921
 6070SOL    HW119109   3.010   1.779   0.937
 6070SOL    HW219110   2.972   1.935   0.968
 6071SOL     OW19111   5.782   5.929   4.676
 6071SOL    HW119112   5.855   5.972   4.729
 6071SOL    HW219113   5.822   5.873   4.603
 6072SOL     OW19114   6.430   6.753   1.362
 6072SOL    HW119115   6.372   6.683   1.320
 6072SOL    HW219116   6.379   6.799   1.435
 6073SOL     OW19117   5.505   3.068   1.017
 6073SOL    HW119118   5.556   3.001   0.963
 6073SOL    HW219119   5.566   3.108   1.085
 6074SOL     OW19120   1.062   6.473   2.312
 6074SOL    HW119121   1.023   6.409   2.378
 6074SOL    HW219122   1.158   6.488   2.334
 6075SOL     OW19123   5.148   0.821   5.758
 6075SOL    HW119124   5.094   0.809   5.674
 6075SOL    HW219125   5.241   0.848   5.733
 6076SOL     OW19126   3.399   5.474   4.254
 6076SOL    HW119127   3.472   5.427   4.203
 6076SOL    HW219128   3.365   5.551   4.200
 6077SOL     OW19129   6.394   5.402   0.690
 6077SOL    HW119130   6.323   5.359   0.635
 6077SOL    HW219131   6.364   5.492   0.720
 6078SOL     OW19132   4.587   5.482   0.344
 6078SOL    HW119133   4.495   5.507   0.375
 6078SOL    HW219134   4.638   5.442   0.421
 6079SOL     OW19135   4.446   3.811   5.959
 6079SOL    HW119136   4.487   3.822   5.868
 6079SOL    HW219137   4.353   3.847   5.957
 6080SOL     OW19138   0.156   6.290   0.980
 6080SOL    HW119139   0.196   6.226   0.915
 6080SOL    HW219140   0.141   6.378   0.935
 6081SOL     OW19141   6.630   2.893   5.147
 6081SOL    HW119142   6.611   2.802   5.110
 6081SOL    HW219143   6.718   2.892   5.194
 6082SOL     OW19144   2.081   1.496   3.451
 6082SOL    HW119145   2.093   1.431   3.376
 6082SOL    HW219146   2.047   1.449   3.532
 6083SOL     OW19147   6.151   6.186   0.129
 6083SOL    HW119148   6.213   6.263   0.142
 6083SOL    HW219149   6.125   6.148   0.218
 6084SOL     OW19150   0.573   6.838   3.262
 6084SOL    HW119151   0.483   6.799   3.285
 6084SOL    HW219152   0.596   6.909   3.328
 6085SOL     OW19153   6.927   6.274   0.435
 6085SOL    HW119154   6.882   6.185   0.428
 6085SOL    HW219155   6.938   6.313   0.344
 6086SOL     OW19156   3.068   1.107   5.712
 6086SOL    HW119157   2.975   1.143   5.703
 6086SOL    HW219158   3.066   1.027   5.773
 6087SOL     OW19159   3.748   5.775   1.259
 6087SOL    HW119160   3.694   5.709   1.312
 6087SOL    HW219161   3.717   5.867   1.279
 6088SOL     OW19162   5.651   6.172   4.504
 6088SOL    HW119163   5.655   6.270   4.489
 6088SOL    HW219164   5.649   6.153   4.602
 6089SOL     OW19165   5.176   3.200   2.141
 6089SOL    HW119166   5.078   3.184   2.134
 6089SOL    HW219167   5.196   3.253   2.223
 6090SOL     OW19168   2.613   5.994   5.014
 6090SOL    HW119169   2.671   6.075   5.000
 6090SOL    HW219170   2.593   5.985   5.112
 6091SOL     OW19171   1.959   1.390   0.185
 6091SOL    HW119172   2.012   1.475   0.197
 6091SOL    HW219173   1.961   1.364   0.088
 6092SOL     OW19174   4.098   6.955   1.964
 6092SOL    HW119175   4.127   6.889   1.894
 6092SOL    HW219176   3.999   6.963   1.963
 6093SOL     OW19177   2.141   3.237   2.018
 6093SOL    HW119178   2.062   3.224   1.959
 6093SOL    HW219179   2.176   3.330   2.007
 6094SOL     OW19180   1.874   6.596   2.186
 6094SOL    HW119181   1.820   6.513   2.172
 6094SOL    HW219182   1.910   6.598   2.279
 6095SOL     OW19183   5.549   4.344   0.784
 6095SOL    HW119184   5.522   4.412   0.852
 6095SOL    HW219185   5.534   4.252   0.820
 6096SOL     OW19186   5.587   6.821   4.069
 6096SOL    HW119187   5.680   6.815   4.103
 6096SOL    HW219188   5.538   6.895   4.115
 6097SOL     OW19189   2.247   5.694   2.024
 6097SOL    HW119190   2.244   5.598   1.995
 6097SOL    HW219191   2.216   5.700   2.119
 6098SOL     OW19192   0.391   1.383   4.686
 6098SOL    HW119193   0.470   1.417   4.635
 6098SOL    HW219194   0.308   1.403   4.635
 6099SOL     OW19195   5.525   6.431   0.222
 6099SOL    HW119196   5.536   6.332   0.233
 6099SOL    HW219197   5.541   6.457   0.127
 6100SOL     OW19198   5.541   6.331   0.796
 6100SOL    HW119199   5.597   6.269   0.850
 6100SOL    HW219200   5.572   6.330   0.701
 6101SOL     OW19201   6.185   3.781   3.445
 6101SOL    HW119202   6.099   3.750   3.402
 6101SOL    HW219203   6.249   3.808   3.373
 6102SOL     OW19204   3.551   6.300   3.196
 6102SOL    HW119205   3.522   6.276   3.103
 6102SOL    HW219206   3.647   6.326   3.195
 6103SOL     OW19207   6.367   1.820   1.103
 6103SOL    HW119208   6.423   1.741   1.081
 6103SOL    HW219209   6.271   1.792   1.113
 6104SOL     OW19210   5.670   0.794   5.848
 6104SOL    HW119211   5.664   0.697   5.869
 6104SOL    HW219212   5.711   0.843   5.925
 6105SOL     OW19213   3.230   6.165   0.082
 6105SOL    HW119214   3.226   6.149   7.006
 6105SOL    HW219215   3.185   6.252   0.103
 6106SOL     OW19216   1.246   3.904   6.634
 6106SOL    HW119217   1.217   3.823   6.686
 6106SOL    HW219218   1.315   3.877   6.566
 6107SOL     OW19219   4.166   5.432   4.856
 6107SOL    HW119220   4.224   5.513   4.862
 6107SOL    HW219221   4.184   5.384   4.770
 6108SOL     OW19222   2.202   3.035   1.730
 6108SOL    HW119223   2.111   2.997   1.742
 6108SOL    HW219224   2.266   2.962   1.707
 6109SOL     OW19225   5.728   1.815   4.763
 6109SOL    HW119226   5.727   1.754   4.843
 6109SOL    HW219227   5.756   1.764   4.682
 6110SOL     OW19228   4.110   3.910   0.830
 6110SOL    HW119229   4.071   3.987   0.780
 6110SOL    HW219230   4.135   3.837   0.767
 6111SOL     OW19231   1.520   4.196   2.738
 6111SOL    HW119232   1.487   4.278   2.692
 6111SOL    HW219233   1.590   4.222   2.805
 6112SOL     OW19234   3.536   0.177   2.422
 6112SOL    HW119235   3.623   0.218   2.450
 6112SOL    HW219236   3.473   0.177   2.499
 6113SOL     OW19237   2.923   1.752   6.535
 6113SOL    HW119238   3.018   1.726   6.550
 6113SOL    HW219239   2.918   1.848   6.509
 6114SOL     OW19240   5.238   4.600   1.847
 6114SOL    HW119241   5.281   4.689   1.866
 6114SOL    HW219242   5.145   4.599   1.884
 6115SOL     OW19243   5.513   0.327   4.190
 6115SOL    HW119244   5.477   0.309   4.282
 6115SOL    HW219245   5.579   0.256   4.165
 6116SOL     OW19246   4.316   1.316   5.875
 6116SOL    HW119247   4.217   1.314   5.860
 6116SOL    HW219248   4.352   1.405   5.848
 6117SOL     OW19249   1.434   1.199   3.195
 6117SOL    HW119250   1.521   1.176   3.238
 6117SOL    HW219251   1.370   1.123   3.206
 6118SOL     OW19252   0.298   0.888   1.937
 6118SOL    HW119253   0.267   0.906   2.030
 6118SOL    HW219254   0.339   0.971   1.899
 6119SOL     OW19255   0.784   4.086   6.784
 6119SOL    HW119256   0.689   4.087   6.752
 6119SOL    HW219257   0.794   4.017   6.856
 6120SOL     OW19258   4.103   6.373   5.207
 6120SOL    HW119259   4.182   6.388   5.147
 6120SOL    HW219260   4.067   6.282   5.192
 6121SOL     OW19261   0.485   3.249   5.466
 6121SOL    HW119262   0.546   3.170   5.473
 6121SOL    HW219263   0.407   3.225   5.408
 6122SOL     OW19264   4.434   5.531   0.627
 6122SOL    HW119265   4.338   5.504   0.616
 6122SOL    HW219266   4.486   5.453   0.664
 6123SOL     OW19267   5.419   6.581   6.507
 6123SOL    HW119268   5.382   6.524   6.580
 6123SOL    HW219269   5.393   6.541   6.418
 6124SOL     OW19270   1.586   6.941   5.939
 6124SOL    HW119271   1.518   6.942   5.865
 6124SOL    HW219272   1.655   7.011   5.921
 6125SOL     OW19273   2.001   4.412   0.886
 6125SOL    HW119274   2.057   4.482   0.841
 6125SOL    HW219275   2.017   4.416   0.985
 6126SOL     OW19276   1.292   6.872   4.730
 6126SOL    HW119277   1.193   6.872   4.734
 6126SOL    HW219278   1.325   6.782   4.702
 6127SOL     OW19279   3.326   0.460   1.014
 6127SOL    HW119280   3.248   0.501   1.061
 6127SOL    HW219281   3.411   0.493   1.056
 6128SOL     OW19282   5.874   3.974   0.534
 6128SOL    HW119283   5.791   3.969   0.479
 6128SOL    HW219284   5.875   3.898   0.600
 6129SOL     OW19285   6.754   3.088   2.764
 6129SOL    HW119286   6.737   3.042   2.677
 6129SOL    HW219287   6.845   3.129   2.763
 6130SOL     OW19288   5.651   2.608   2.723
 6130SOL    HW119289   5.735   2.554   2.727
 6130SOL    HW219290   5.614   2.607   2.630
 6131SOL     OW19291   0.498   1.731   4.803
 6131SOL    HW119292   0.503   1.821   4.847
 6131SOL    HW219293   0.589   1.690   4.800
 6132SOL     OW19294   5.023   1.810   0.275
 6132SOL    HW119295   5.048   1.745   0.347
 6132SOL    HW219296   5.071   1.787   0.191
 6133SOL     OW19297   1.855   3.049   2.119
 6133SOL    HW119298   1.819   3.123   2.176
 6133SOL    HW219299   1.954   3.043   2.131
 6134SOL     OW19300   4.167   4.625   6.535
 6134SOL    HW119301   4.262   4.641   6.509
 6134SOL    HW219302   4.117   4.590   6.456
 6135SOL     OW19303   0.391   0.532   0.820
 6135SOL    HW119304   0.394   0.615   0.875
 6135SOL    HW219305   0.449   0.462   0.861
 6136SOL     OW19306   1.444   2.955   2.006
 6136SOL    HW119307   1.541   2.949   1.981
 6136SOL    HW219308   1.436   2.981   2.102
 6137SOL     OW19309   6.670   3.373   2.691
 6137SOL    HW119310   6.681   3.276   2.673
 6137SOL    HW219311   6.757   3.412   2.721
 6138SOL     OW19312   4.001   6.493   2.600
 6138SOL    HW119313   3.926   6.439   2.562
 6138SOL    HW219314   4.064   6.433   2.650
 6139SOL     OW19315   1.902   6.522   6.143
 6139SOL    HW119316   1.946   6.568   6.066
 6139SOL    HW219317   1.919   6.424   6.138
 6140SOL     OW19318   0.867   6.312   1.771
 6140SOL    HW119319   0.832   6.231   1.819
 6140SOL    HW219320   0.797   6.348   1.711
 6141SOL     OW19321   0.303   6.700   6.607
 6141SOL    HW119322   0.281   6.797   6.595
 6141SOL    HW219323   0.327   6.660   6.518
 6142SOL     OW19324   0.994   6.751   7.002
 6142SOL    HW119325   0.904   6.772   6.964
 6142SOL    HW219326   0.993   6.659   0.019
 6143SOL     OW19327   0.049   3.372   1.477
 6143SOL    HW119328   6.981   3.347   1.509
 6143SOL    HW219329   0.084   3.448   1.533
 6144SOL     OW19330   5.194   4.575   3.393
 6144SOL    HW119331   5.198   4.584   3.493
 6144SOL    HW219332   5.113   4.622   3.358
 6145SOL     OW19333   4.879   5.160   3.379
 6145SOL    HW119334   4.834   5.085   3.330
 6145SOL    HW219335   4.911   5.228   3.314
 6146SOL     OW19336   3.239   5.688   3.741
 6146SOL    HW119337   3.251   5.786   3.750
 6146SOL    HW219338   3.242   5.662   3.644
 6147SOL     OW19339   2.296   1.410   4.240
 6147SOL    HW119340   2.201   1.405   4.208
 6147SOL    HW219341   2.358   1.391   4.164
 6148SOL     OW19342   5.041   6.913   5.180
 6148SOL    HW119343   5.114   6.845   5.166
 6148SOL    HW219344   4.957   6.867   5.205
 6149SOL     OW19345   2.400   6.209   1.350
 6149SOL    HW119346   2.360   6.298   1.327
 6149SOL    HW219347   2.329   6.148   1.383
 6150SOL     OW19348   4.772   5.332   0.092
 6150SOL    HW119349   4.783   5.413   0.035
 6150SOL    HW219350   4.677   5.302   0.090
 6151SOL     OW19351   6.057   4.926   6.347
 6151SOL    HW119352   5.965   4.892   6.366
 6151SOL    HW219353   6.064   4.950   6.250
 6152SOL     OW19354   6.190   5.257   4.440
 6152SOL    HW119355   6.238   5.293   4.520
 6152SOL    HW219356   6.163   5.333   4.381
 6153SOL     OW19357   5.458   4.440   1.144
 6153SOL    HW119358   5.480   4.512   1.078
 6153SOL    HW219359   5.525   4.367   1.137
 6154SOL     OW19360   5.801   2.386   2.870
 6154SOL    HW119361   5.779   2.431   2.956
 6154SOL    HW219362   5.878   2.323   2.883
 6155SOL     OW19363   1.584   1.659   3.505
 6155SOL    HW119364   1.504   1.637   3.562
 6155SOL    HW219365   1.659   1.688   3.564
 6156SOL     OW19366   4.280   4.423   1.457
 6156SOL    HW119367   4.270   4.428   1.358
 6156SOL    HW219368   4.270   4.514   1.496
 6157SOL     OW19369   6.872   1.344   4.639
 6157SOL    HW119370   6.838   1.256   4.670
 6157SOL    HW219371   6.821   1.417   4.684
 6158SOL     OW19372   4.007   2.194   6.104
 6158SOL    HW119373   4.099   2.224   6.079
 6158SOL    HW219374   3.947   2.206   6.025
 6159SOL     OW19375   5.060   2.070   2.304
 6159SOL    HW119376   5.010   2.149   2.338
 6159SOL    HW219377   5.000   1.990   2.302
 6160SOL     OW19378   5.370   1.083   6.527
 6160SOL    HW119379   5.433   1.005   6.525
 6160SOL    HW219380   5.406   1.156   6.469
 6161SOL     OW19381   4.936   2.006   5.243
 6161SOL    HW119382   5.023   2.053   5.222
 6161SOL    HW219383   4.933   1.985   5.340
 6162SOL     OW19384   0.334   6.211   3.432
 6162SOL    HW119385   0.313   6.188   3.527
 6162SOL    HW219386   0.427   6.246   3.426
 6163SOL     OW19387   6.592   6.925   1.206
 6163SOL    HW119388   6.525   6.864   1.249
 6163SOL    HW219389   6.590   6.912   1.107
 6164SOL     OW19390   3.683   4.064   3.164
 6164SOL    HW119391   3.757   4.061   3.230
 6164SOL    HW219392   3.720   4.059   3.071
 6165SOL     OW19393   5.075   1.850   6.992
 6165SOL    HW119394   5.048   1.946   6.994
 6165SOL    HW219395   5.060   1.813   6.900
 6166SOL     OW19396   5.760   1.373   6.748
 6166SOL    HW119397   5.682   1.363   6.686
 6166SOL    HW219398   5.752   1.307   6.823
 6167SOL     OW19399   1.081   5.051   2.993
 6167SOL    HW119400   1.077   5.140   3.037
 6167SOL    HW219401   1.014   5.047   2.919
 6168SOL     OW19402   1.715   3.703   2.114
 6168SOL    HW119403   1.719   3.692   2.213
 6168SOL    HW219404   1.777   3.638   2.070
 6169SOL     OW19405   0.966   2.178   0.074
 6169SOL    HW119406   0.957   2.242   0.150
 6169SOL    HW219407   1.027   2.103   0.101
 6170SOL     OW19408   1.535   4.302   5.199
 6170SOL    HW119409   1.623   4.297   5.152
 6170SOL    HW219410   1.550   4.301   5.297
 6171SOL     OW19411   1.118   3.204   1.185
 6171SOL    HW119412   1.032   3.215   1.133
 6171SOL    HW219413   1.153   3.294   1.211
 6172SOL     OW19414   1.168   2.693   2.691
 6172SOL    HW119415   1.254   2.647   2.670
 6172SOL    HW219416   1.106   2.684   2.613
 6173SOL     OW19417   6.464   5.517   1.883
 6173SOL    HW119418   6.433   5.578   1.811
 6173SOL    HW219419   6.396   5.445   1.897
 6174SOL     OW19420   5.408   4.551   3.707
 6174SOL    HW119421   5.331   4.488   3.707
 6174SOL    HW219422   5.482   4.513   3.762
 6175SOL     OW19423   5.130   0.392   3.611
 6175SOL    HW119424   5.190   0.447   3.668
 6175SOL    HW219425   5.066   0.451   3.562
 6176SOL     OW19426   4.951   3.974   6.380
 6176SOL    HW119427   5.033   3.918   6.392
 6176SOL    HW219428   4.880   3.944   6.444
 6177SOL     OW19429   5.858   0.531   1.244
 6177SOL    HW119430   5.802   0.613   1.248
 6177SOL    HW219431   5.799   0.450   1.248
 6178SOL     OW19432   5.136   5.183   2.739
 6178SOL    HW119433   5.080   5.101   2.736
 6178SOL    HW219434   5.183   5.189   2.827
 6179SOL     OW19435   0.276   4.452   3.555
 6179SOL    HW119436   0.229   4.531   3.516
 6179SOL    HW219437   0.370   4.449   3.521
 6180SOL     OW19438   3.737   4.211   0.111
 6180SOL    HW119439   3.652   4.179   0.068
 6180SOL    HW219440   3.770   4.141   0.175
 6181SOL     OW19441   3.880   6.983   0.891
 6181SOL    HW119442   3.945   6.922   0.935
 6181SOL    HW219443   3.790   6.939   0.886
 6182SOL     OW19444   5.562   2.929   4.878
 6182SOL    HW119445   5.501   2.922   4.956
 6182SOL    HW219446   5.572   3.025   4.852
 6183SOL     OW19447   1.624   2.358   3.126
 6183SOL    HW119448   1.618   2.261   3.102
 6183SOL    HW219449   1.545   2.407   3.089
 6184SOL     OW19450   2.307   6.665   6.466
 6184SOL    HW119451   2.362   6.733   6.418
 6184SOL    HW219452   2.251   6.614   6.401
 6185SOL     OW19453   0.715   3.707   6.008
 6185SOL    HW119454   0.773   3.765   6.065
 6185SOL    HW219455   0.677   3.761   5.933
 6186SOL     OW19456   0.280   0.013   6.802
 6186SOL    HW119457   0.353   0.019   6.871
 6186SOL    HW219458   0.229   6.951   6.815
 6187SOL     OW19459   4.706   4.954   3.283
 6187SOL    HW119460   4.706   4.928   3.379
 6187SOL    HW219461   4.663   5.043   3.272
 6188SOL     OW19462   2.377   0.517   0.933
 6188SOL    HW119463   2.354   0.600   0.985
 6188SOL    HW219464   2.360   0.436   0.989
 6189SOL     OW19465   4.796   4.269   3.199
 6189SOL    HW119466   4.707   4.246   3.239
 6189SOL    HW219467   4.868   4.243   3.263
 6190SOL     OW19468   0.621   4.016   5.637
 6190SOL    HW119469   0.670   4.021   5.550
 6190SOL    HW219470   0.536   4.067   5.630
 6191SOL     OW19471   3.204   2.187   0.166
 6191SOL    HW119472   3.141   2.167   0.241
 6191SOL    HW219473   3.218   2.105   0.111
 6192SOL     OW19474   3.571   2.360   5.892
 6192SOL    HW119475   3.476   2.389   5.901
 6192SOL    HW219476   3.577   2.283   5.828
 6193SOL     OW19477   5.173   0.856   2.216
 6193SOL    HW119478   5.132   0.765   2.207
 6193SOL    HW219479   5.272   0.848   2.213
 6194SOL     OW19480   1.502   0.076   1.707
 6194SOL    HW119481   1.436   0.142   1.743
 6194SOL    HW219482   1.527   0.011   1.779
 6195SOL     OW19483   3.710   6.201   6.500
 6195SOL    HW119484   3.750   6.153   6.422
 6195SOL    HW219485   3.659   6.137   6.557
 6196SOL     OW19486   5.577   3.081   1.498
 6196SOL    HW119487   5.646   3.012   1.479
 6196SOL    HW219488   5.487   3.039   1.500
 6197SOL     OW19489   4.180   4.562   0.244
 6197SOL    HW119490   4.144   4.506   0.170
 6197SOL    HW219491   4.167   4.515   0.332
 6198SOL     OW19492   3.865   6.622   2.303
 6198SOL    HW119493   3.873   6.668   2.392
 6198SOL    HW219494   3.804   6.675   2.244
 6199SOL     OW19495   1.319   0.979   0.370
 6199SOL    HW119496   1.326   0.930   0.283
 6199SOL    HW219497   1.235   1.034   0.370
 6200SOL     OW19498   1.320   1.451   5.669
 6200SOL    HW119499   1.277   1.529   5.714
 6200SOL    HW219500   1.419   1.461   5.673
 6201SOL     OW19501   0.769   3.539   4.874
 6201SOL    HW119502   0.809   3.457   4.915
 6201SOL    HW219503   0.693   3.512   4.814
 6202SOL     OW19504   3.810   1.595   2.409
 6202SOL    HW119505   3.741   1.661   2.441
 6202SOL    HW219506   3.780   1.555   2.323
 6203SOL     OW19507   6.901   6.484   2.573
 6203SOL    HW119508   6.821   6.491   2.633
 6203SOL    HW219509   6.930   6.575   2.544
 6204SOL     OW19510   0.493   5.025   4.437
 6204SOL    HW119511   0.558   5.097   4.415
 6204SOL    HW219512   0.478   4.967   4.357
 6205SOL     OW19513   6.395   5.987   0.571
 6205SOL    HW119514   6.460   5.970   0.497
 6205SOL    HW219515   6.331   5.910   0.578
 6206SOL     OW19516   6.467   1.562   3.714
 6206SOL    HW119517   6.481   1.463   3.722
 6206SOL    HW219518   6.426   1.597   3.798
 6207SOL     OW19519   0.993   4.960   4.980
 6207SOL    HW119520   1.056   4.901   4.929
 6207SOL    HW219521   0.978   5.044   4.929
 6208SOL     OW19522   5.272   2.504   5.656
 6208SOL    HW119523   5.204   2.482   5.585
 6208SOL    HW219524   5.349   2.441   5.650
 6209SOL     OW19525   4.107   5.516   6.547
 6209SOL    HW119526   4.166   5.550   6.620
 6209SOL    HW219527   4.143   5.430   6.512
 6210SOL     OW19528   4.902   3.232   3.427
 6210SOL    HW119529   4.823   3.224   3.487
 6210SOL    HW219530   4.982   3.190   3.471
 6211SOL     OW19531   2.900   6.611   5.565
 6211SOL    HW119532   2.941   6.684   5.511
 6211SOL    HW219533   2.917   6.626   5.662
 6212SOL     OW19534   2.059   5.320   4.257
 6212SOL    HW119535   1.988   5.328   4.327
 6212SOL    HW219536   2.099   5.410   4.239
 6213SOL     OW19537   6.140   0.238   0.456
 6213SOL    HW119538   6.201   0.170   0.416
 6213SOL    HW219539   6.165   0.254   0.551
 6214SOL     OW19540   5.137   5.011   4.123
 6214SOL    HW119541   5.207   5.055   4.179
 6214SOL    HW219542   5.109   4.924   4.165
 6215SOL     OW19543   4.331   1.594   0.528
 6215SOL    HW119544   4.353   1.689   0.503
 6215SOL    HW219545   4.248   1.592   0.583
 6216SOL     OW19546   6.463   1.654   2.417
 6216SOL    HW119547   6.532   1.621   2.480
 6216SOL    HW219548   6.399   1.579   2.395
 6217SOL     OW19549   0.214   3.844   3.183
 6217SOL    HW119550   0.245   3.756   3.219
 6217SOL    HW219551   0.201   3.836   3.085
 6218SOL     OW19552   4.007   5.946   6.953
 6218SOL    HW119553   3.930   5.964   7.015
 6218SOL    HW219554   4.061   5.870   6.987
 6219SOL     OW19555   1.765   2.039   4.628
 6219SOL    HW119556   1.786   2.098   4.550
 6219SOL    HW219557   1.666   2.039   4.644
 6220SOL     OW19558   1.955   1.565   4.762
 6220SOL    HW119559   2.046   1.580   4.801
 6220SOL    HW219560   1.927   1.646   4.710
 6221SOL     OW19561   5.389   5.969   6.656
 6221SOL    HW119562   5.432   5.979   6.746
 6221SOL    HW219563   5.357   6.059   6.625
 6222SOL     OW19564   1.203   6.192   1.722
 6222SOL    HW119565   1.170   6.098   1.714
 6222SOL    HW219566   1.155   6.250   1.657
 6223SOL     OW19567   1.064   5.076   4.080
 6223SOL    HW119568   1.021   5.162   4.052
 6223SOL    HW219569   1.000   5.000   4.065
 6224SOL     OW19570   2.977   1.586   5.895
 6224SOL    HW119571   2.913   1.514   5.870
 6224SOL    HW219572   3.070   1.552   5.888
 6225SOL     OW19573   3.852   3.770   0.019
 6225SOL    HW119574   3.949   3.753   0.003
 6225SOL    HW219575   3.800   3.745   6.960
 6226SOL     OW19576   0.019   1.595   5.286
 6226SOL    HW119577   6.987   1.674   5.315
 6226SOL    HW219578   0.084   1.623   5.215
 6227SOL     OW19579   3.320   6.157   5.101
 6227SOL    HW119580   3.256   6.183   5.174
 6227SOL    HW219581   3.405   6.124   5.143
 6228SOL     OW19582   1.014   2.807   2.466
 6228SOL    HW119583   1.066   2.861   2.400
 6228SOL    HW219584   0.941   2.864   2.506
 6229SOL     OW19585   0.440   2.182   3.340
 6229SOL    HW119586   0.470   2.169   3.434
 6229SOL    HW219587   0.427   2.280   3.323
 6230SOL     OW19588   0.627   1.400   3.509
 6230SOL    HW119589   0.536   1.432   3.536
 6230SOL    HW219590   0.630   1.385   3.411
 6231SOL     OW19591   6.095   6.078   0.816
 6231SOL    HW119592   6.145   6.153   0.774
 6231SOL    HW219593   6.152   5.996   0.818
 6232SOL     OW19594   6.827   0.835   0.599
 6232SOL    HW119595   6.917   0.816   0.637
 6232SOL    HW219596   6.793   0.753   0.551
 6233SOL     OW19597   0.028   1.623   1.165
 6233SOL    HW119598   7.003   1.542   1.200
 6233SOL    HW219599   7.005   1.705   1.199
 6234SOL     OW19600   6.636   1.618   5.548
 6234SOL    HW119601   6.627   1.592   5.452
 6234SOL    HW219602   6.662   1.539   5.603
 6235SOL     OW19603   0.825   6.936   0.956
 6235SOL    HW119604   0.903   6.873   0.943
 6235SOL    HW219605   0.802   6.978   0.869
 6236SOL     OW19606   0.711   3.913   0.860
 6236SOL    HW119607   0.645   3.871   0.922
 6236SOL    HW219608   0.796   3.860   0.863
 6237SOL     OW19609   3.638   0.509   6.233
 6237SOL    HW119610   3.729   0.531   6.269
 6237SOL    HW219611   3.590   0.593   6.211
 6238SOL     OW19612   3.797   4.905   2.771
 6238SOL    HW119613   3.726   4.874   2.708
 6238SOL    HW219614   3.760   4.910   2.864
 6239SOL     OW19615   3.083   0.687   1.783
 6239SOL    HW119616   3.108   0.729   1.696
 6239SOL    HW219617   2.984   0.672   1.787
 6240SOL     OW19618   1.889   3.162   5.371
 6240SOL    HW119619   1.795   3.140   5.397
 6240SOL    HW219620   1.912   3.254   5.405
 6241SOL     OW19621   3.211   0.039   1.375
 6241SOL    HW119622   3.261   6.984   1.415
 6241SOL    HW219623   3.260   0.124   1.397
 6242SOL     OW19624   4.699   0.353   4.088
 6242SOL    HW119625   4.691   0.450   4.109
 6242SOL    HW219626   4.624   0.325   4.027
 6243SOL     OW19627   5.931   6.735   4.506
 6243SOL    HW119628   5.963   6.643   4.481
 6243SOL    HW219629   5.955   6.754   4.601
 6244SOL     OW19630   6.479   2.631   2.137
 6244SOL    HW119631   6.573   2.660   2.118
 6244SOL    HW219632   6.430   2.703   2.185
 6245SOL     OW19633   1.866   4.148   0.302
 6245SOL    HW119634   1.780   4.148   0.250
 6245SOL    HW219635   1.915   4.063   0.283
 6246SOL     OW19636   1.536   1.797   5.528
 6246SOL    HW119637   1.570   1.770   5.618
 6246SOL    HW219638   1.583   1.881   5.498
 6247SOL     OW19639   6.947   5.204   4.439
 6247SOL    HW119640   6.877   5.141   4.405
 6247SOL    HW219641   0.013   5.157   4.443
 6248SOL     OW19642   3.294   3.484   0.297
 6248SOL    HW119643   3.242   3.485   0.212
 6248SOL    HW219644   3.233   3.498   0.375
 6249SOL     OW19645   0.026   3.839   0.585
 6249SOL    HW119646   0.109   3.856   0.639
 6249SOL    HW219647   0.040   3.875   0.493
 6250SOL     OW19648   6.585   0.591   6.757
 6250SOL    HW119649   6.500   0.628   6.719
 6250SOL    HW219650   6.658   0.658   6.748
 6251SOL     OW19651   3.962   6.019   6.697
 6251SOL    HW119652   3.893   5.953   6.666
 6251SOL    HW219653   3.980   6.004   6.794
 6252SOL     OW19654   2.531   5.875   5.621
 6252SOL    HW119655   2.438   5.840   5.619
 6252SOL    HW219656   2.595   5.801   5.602
 6253SOL     OW19657   2.306   4.592   3.923
 6253SOL    HW119658   2.368   4.521   3.956
 6253SOL    HW219659   2.328   4.613   3.828
 6254SOL     OW19660   5.778   1.036   1.123
 6254SOL    HW119661   5.867   1.039   1.168
 6254SOL    HW219662   5.741   1.128   1.116
 6255SOL     OW19663   3.387   0.531   0.554
 6255SOL    HW119664   3.345   0.475   0.626
 6255SOL    HW219665   3.359   0.626   0.565
 6256SOL     OW19666   3.618   5.479   1.881
 6256SOL    HW119667   3.714   5.505   1.879
 6256SOL    HW219668   3.569   5.536   1.948
 6257SOL     OW19669   5.382   1.894   0.565
 6257SOL    HW119670   5.368   1.795   0.573
 6257SOL    HW219671   5.295   1.937   0.539
 6258SOL     OW19672   3.418   0.717   3.638
 6258SOL    HW119673   3.407   0.655   3.715
 6258SOL    HW219674   3.357   0.795   3.649
 6259SOL     OW19675   1.849   2.426   6.873
 6259SOL    HW119676   1.838   2.337   6.917
 6259SOL    HW219677   1.946   2.441   6.854
 6260SOL     OW19678   3.162   5.738   0.222
 6260SOL    HW119679   3.154   5.835   0.243
 6260SOL    HW219680   3.207   5.727   0.134
 6261SOL     OW19681   4.018   1.558   6.942
 6261SOL    HW119682   4.117   1.570   6.955
 6261SOL    HW219683   3.995   1.574   6.846
 6262SOL     OW19684   2.483   6.491   1.652
 6262SOL    HW119685   2.408   6.556   1.636
 6262SOL    HW219686   2.560   6.539   1.695
 6263SOL     OW19687   6.973   0.675   5.252
 6263SOL    HW119688   6.969   0.643   5.347
 6263SOL    HW219689   6.946   0.771   5.247
 6264SOL     OW19690   1.625   0.333   1.704
 6264SOL    HW119691   1.679   0.249   1.699
 6264SOL    HW219692   1.599   0.350   1.799
 6265SOL     OW19693   4.025   3.349   0.328
 6265SOL    HW119694   3.953   3.377   0.392
 6265SOL    HW219695   3.984   3.295   0.254
 6266SOL     OW19696   4.199   0.936   4.034
 6266SOL    HW119697   4.147   0.904   4.113
 6266SOL    HW219698   4.182   1.033   4.019
 6267SOL     OW19699   2.522   6.766   5.978
 6267SOL    HW119700   2.513   6.717   5.892
 6267SOL    HW219701   2.431   6.783   6.016
 6268SOL     OW19702   2.652   0.202   2.945
 6268SOL    HW119703   2.576   0.138   2.938
 6268SOL    HW219704   2.618   0.295   2.931
 6269SOL     OW19705   0.430   6.390   1.566
 6269SOL    HW119706   0.487   6.319   1.525
 6269SOL    HW219707   0.464   6.410   1.658
 6270SOL     OW19708   1.584   0.227   6.120
 6270SOL    HW119709   1.648   0.170   6.172
 6270SOL    HW219710   1.495   0.182   6.115
 6271SOL     OW19711   6.707   2.211   6.433
 6271SOL    HW119712   6.641   2.199   6.507
 6271SOL    HW219713   6.752   2.300   6.442
 6272SOL     OW19714   0.436   2.658   6.996
 6272SOL    HW119715   0.449   2.617   0.064
 6272SOL    HW219716   0.401   2.751   7.006
 6273SOL     OW19717   0.687   6.311   2.698
 6273SOL    HW119718   0.614   6.248   2.724
 6273SOL    HW219719   0.678   6.333   2.601
 6274SOL     OW19720   3.474   6.123   5.503
 6274SOL    HW119721   3.548   6.169   5.553
 6274SOL    HW219722   3.394   6.116   5.563
 6275SOL     OW19723   2.603   6.453   6.489
 6275SOL    HW119724   2.571   6.379   6.429
 6275SOL    HW219725   2.551   6.451   6.574
 6276SOL     OW19726   1.943   4.142   3.650
 6276SOL    HW119727   1.930   4.089   3.566
 6276SOL    HW219728   1.861   4.195   3.670
 6277SOL     OW19729   5.037   3.332   1.477
 6277SOL    HW119730   4.995   3.242   1.473
 6277SOL    HW219731   4.968   3.402   1.456
 6278SOL     OW19732   5.044   6.305   4.819
 6278SOL    HW119733   4.951   6.274   4.837
 6278SOL    HW219734   5.078   6.264   4.735
 6279SOL     OW19735   3.546   6.411   6.850
 6279SOL    HW119736   3.556   6.425   6.751
 6279SOL    HW219737   3.497   6.325   6.867
 6280SOL     OW19738   1.028   2.044   4.578
 6280SOL    HW119739   1.055   2.052   4.482
 6280SOL    HW219740   1.110   2.048   4.635
 6281SOL     OW19741   0.447   4.763   3.913
 6281SOL    HW119742   0.389   4.833   3.955
 6281SOL    HW219743   0.529   4.751   3.969
 6282SOL     OW19744   0.678   5.857   5.699
 6282SOL    HW119745   0.614   5.934   5.709
 6282SOL    HW219746   0.641   5.777   5.746
 6283SOL     OW19747   6.761   3.599   5.099
 6283SOL    HW119748   6.676   3.574   5.051
 6283SOL    HW219749   6.819   3.652   5.037
 6284SOL     OW19750   0.963   5.649   4.579
 6284SOL    HW119751   1.032   5.578   4.563
 6284SOL    HW219752   0.930   5.644   4.673
 6285SOL     OW19753   0.248   3.881   4.805
 6285SOL    HW119754   0.237   3.836   4.894
 6285SOL    HW219755   0.345   3.884   4.781
 6286SOL     OW19756   5.981   1.931   4.520
 6286SOL    HW119757   5.990   1.886   4.432
 6286SOL    HW219758   5.889   1.971   4.528
 6287SOL     OW19759   3.673   5.130   4.817
 6287SOL    HW119760   3.706   5.165   4.905
 6287SOL    HW219761   3.607   5.195   4.778
 6288SOL     OW19762   4.694   4.400   2.446
 6288SOL    HW119763   4.724   4.311   2.482
 6288SOL    HW219764   4.773   4.450   2.412
 6289SOL     OW19765   1.743   5.079   1.049
 6289SOL    HW119766   1.688   5.161   1.065
 6289SOL    HW219767   1.825   5.104   0.998
 6290SOL     OW19768   6.443   5.018   5.266
 6290SOL    HW119769   6.371   5.056   5.324
 6290SOL    HW219770   6.410   5.010   5.173
 6291SOL     OW19771   4.024   3.166   4.569
 6291SOL    HW119772   3.943   3.115   4.599
 6291SOL    HW219773   4.055   3.131   4.481
 6292SOL     OW19774   1.277   2.043   4.695
 6292SOL    HW119775   1.294   2.112   4.765
 6292SOL    HW219776   1.355   2.037   4.633
 6293SOL     OW19777   3.887   1.042   0.736
 6293SOL    HW119778   3.915   0.969   0.798
 6293SOL    HW219779   3.962   1.108   0.725
 6294SOL     OW19780   3.488   0.029   4.131
 6294SOL    HW119781   3.567   7.016   4.081
 6294SOL    HW219782   3.509   0.119   4.167
 6295SOL     OW19783   5.717   4.689   5.969
 6295SOL    HW119784   5.816   4.683   5.984
 6295SOL    HW219785   5.685   4.603   5.930
 6296SOL     OW19786   0.886   6.598   5.920
 6296SOL    HW119787   0.871   6.613   6.018
 6296SOL    HW219788   0.804   6.561   5.879
 6297SOL     OW19789   5.396   1.134   4.100
 6297SOL    HW119790   5.391   1.037   4.124
 6297SOL    HW219791   5.367   1.146   4.005
 6298SOL     OW19792   1.474   3.028   6.999
 6298SOL    HW119793   1.564   3.000   0.010
 6298SOL    HW219794   1.418   2.946   6.985
 6299SOL     OW19795   6.035   2.126   0.854
 6299SOL    HW119796   5.938   2.129   0.830
 6299SOL    HW219797   6.066   2.030   0.856
 6300SOL     OW19798   6.337   0.607   0.141
 6300SOL    HW119799   6.313   0.552   0.220
 6300SOL    HW219800   6.306   0.561   0.058
 6301SOL     OW19801   3.846   6.741   0.158
 6301SOL    HW119802   3.845   6.681   0.239
 6301SOL    HW219803   3.802   6.694   0.082
 6302SOL     OW19804   1.730   0.260   3.380
 6302SOL    HW119805   1.667   0.184   3.361
 6302SOL    HW219806   1.706   0.300   3.468
 6303SOL     OW19807   1.963   1.108   3.791
 6303SOL    HW119808   2.055   1.092   3.825
 6303SOL    HW219809   1.948   1.054   3.708
 6304SOL     OW19810   2.696   0.691   1.432
 6304SOL    HW119811   2.682   0.633   1.352
 6304SOL    HW219812   2.668   0.642   1.515
 6305SOL     OW19813   6.276   6.925   0.483
 6305SOL    HW119814   6.205   6.868   0.443
 6305SOL    HW219815   6.354   6.930   0.420
 6306SOL     OW19816   0.617   4.262   3.708
 6306SOL    HW119817   0.559   4.198   3.659
 6306SOL    HW219818   0.562   4.339   3.741
 6307SOL     OW19819   3.208   3.820   5.021
 6307SOL    HW119820   3.111   3.796   5.011
 6307SOL    HW219821   3.218   3.919   5.020
 6308SOL     OW19822   2.237   1.903   4.701
 6308SOL    HW119823   2.333   1.926   4.715
 6308SOL    HW219824   2.180   1.962   4.759
 6309SOL     OW19825   5.556   4.567   4.962
 6309SOL    HW119826   5.625   4.637   4.980
 6309SOL    HW219827   5.520   4.533   5.049
 6310SOL     OW19828   2.354   5.987   2.915
 6310SOL    HW119829   2.295   6.010   2.838
 6310SOL    HW219830   2.442   5.954   2.881
 6311SOL     OW19831   5.251   1.468   6.052
 6311SOL    HW119832   5.304   1.480   6.136
 6311SOL    HW219833   5.236   1.557   6.008
 6312SOL     OW19834   6.887   6.079   5.383
 6312SOL    HW119835   6.895   6.155   5.319
 6312SOL    HW219836   6.899   6.111   5.476
 6313SOL     OW19837   6.786   6.121   4.557
 6313SOL    HW119838   6.826   6.153   4.472
 6313SOL    HW219839   6.754   6.199   4.611
 6314SOL     OW19840   3.912   6.742   1.382
 6314SOL    HW119841   3.870   6.763   1.470
 6314SOL    HW219842   3.841   6.723   1.315
 6315SOL     OW19843   2.251   2.537   5.298
 6315SOL    HW119844   2.310   2.617   5.287
 6315SOL    HW219845   2.185   2.555   5.371
 6316SOL     OW19846   5.041   2.212   6.726
 6316SOL    HW119847   5.114   2.187   6.790
 6316SOL    HW219848   4.956   2.166   6.752
 6317SOL     OW19849   4.662   4.969   1.438
 6317SOL    HW119850   4.695   5.035   1.370
 6317SOL    HW219851   4.735   4.903   1.459
 6318SOL     OW19852   3.390   1.007   5.831
 6318SOL    HW119853   3.367   0.916   5.795
 6318SOL    HW219854   3.315   1.040   5.888
 6319SOL     OW19855   6.376   1.669   4.971
 6319SOL    HW119856   6.425   1.619   4.900
 6319SOL    HW219857   6.279   1.644   4.969
 6320SOL     OW19858   6.095   6.358   5.450
 6320SOL    HW119859   5.995   6.358   5.456
 6320SOL    HW219860   6.123   6.371   5.355
 6321SOL     OW19861   4.355   3.990   0.926
 6321SOL    HW119862   4.361   4.031   1.017
 6321SOL    HW219863   4.259   3.968   0.906
 6322SOL     OW19864   2.415   1.800   0.907
 6322SOL    HW119865   2.423   1.727   0.839
 6322SOL    HW219866   2.504   1.816   0.950
 6323SOL     OW19867   2.982   2.696   1.462
 6323SOL    HW119868   3.068   2.661   1.499
 6323SOL    HW219869   3.001   2.769   1.397
 6324SOL     OW19870   5.607   0.436   0.177
 6324SOL    HW119871   5.539   0.427   0.249
 6324SOL    HW219872   5.562   0.455   0.089
 6325SOL     OW19873   1.734   3.121   2.598
 6325SOL    HW119874   1.806   3.056   2.574
 6325SOL    HW219875   1.746   3.205   2.546
 6326SOL     OW19876   4.990   5.074   1.599
 6326SOL    HW119877   4.987   5.081   1.698
 6326SOL    HW219878   4.976   4.979   1.571
 6327SOL     OW19879   0.056   0.860   5.020
 6327SOL    HW119880   0.152   0.886   5.034
 6327SOL    HW219881   0.030   0.791   5.087
 6328SOL     OW19882   3.203   3.587   0.589
 6328SOL    HW119883   3.187   3.612   0.685
 6328SOL    HW219884   3.167   3.495   0.572
 6329SOL     OW19885   1.929   2.408   2.972
 6329SOL    HW119886   1.872   2.338   3.014
 6329SOL    HW219887   1.943   2.484   3.036
 6330SOL     OW19888   5.216   0.621   1.476
 6330SOL    HW119889   5.233   0.613   1.574
 6330SOL    HW219890   5.292   0.669   1.432
 6331SOL     OW19891   6.237   2.384   5.529
 6331SOL    HW119892   6.312   2.325   5.499
 6331SOL    HW219893   6.266   2.436   5.609
 6332SOL     OW19894   0.457   3.372   0.538
 6332SOL    HW119895   0.401   3.289   0.546
 6332SOL    HW219896   0.404   3.451   0.569
 6333SOL     OW19897   4.308   5.651   4.907
 6333SOL    HW119898   4.362   5.703   4.841
 6333SOL    HW219899   4.285   5.709   4.985
 6334SOL     OW19900   2.855   0.901   2.405
 6334SOL    HW119901   2.882   0.836   2.335
 6334SOL    HW219902   2.904   0.881   2.490
 6335SOL     OW19903   4.002   0.584   0.435
 6335SOL    HW119904   4.016   0.676   0.396
 6335SOL    HW219905   3.967   0.523   0.364
 6336SOL     OW19906   1.113   2.388   6.026
 6336SOL    HW119907   1.103   2.429   5.935
 6336SOL    HW219908   1.124   2.460   6.094
 6337SOL     OW19909   5.086   4.948   5.294
 6337SOL    HW119910   5.184   4.937   5.276
 6337SOL    HW219911   5.055   5.036   5.258
 6338SOL     OW19912   3.305   1.928   4.062
 6338SOL    HW119913   3.291   2.012   4.010
 6338SOL    HW219914   3.306   1.850   4.000
 6339SOL     OW19915   0.840   3.849   3.629
 6339SOL    HW119916   0.931   3.860   3.669
 6339SOL    HW219917   0.831   3.756   3.594
 6340SOL     OW19918   2.192   5.016   2.379
 6340SOL    HW119919   2.253   5.080   2.425
 6340SOL    HW219920   2.103   5.060   2.362
 6341SOL     OW19921   0.228   4.001   4.502
 6341SOL    HW119922   0.229   4.061   4.421
 6341SOL    HW219923   0.213   3.907   4.473
 6342SOL     OW19924   1.734   0.823   2.463
 6342SOL    HW119925   1.704   0.820   2.558
 6342SOL    HW219926   1.832   0.844   2.460
 6343SOL     OW19927   4.903   1.745   6.495
 6343SOL    HW119928   4.978   1.786   6.443
 6343SOL    HW219929   4.882   1.654   6.457
 6344SOL     OW19930   5.224   2.497   4.469
 6344SOL    HW119931   5.267   2.569   4.523
 6344SOL    HW219932   5.282   2.474   4.391
 6345SOL     OW19933   5.965   2.759   2.599
 6345SOL    HW119934   5.964   2.666   2.563
 6345SOL    HW219935   5.875   2.801   2.584
 6346SOL     OW19936   6.910   5.297   4.094
 6346SOL    HW119937   6.864   5.242   4.024
 6346SOL    HW219938   6.938   5.385   4.054
 6347SOL     OW19939   1.919   0.537   0.965
 6347SOL    HW119940   1.910   0.452   0.913
 6347SOL    HW219941   1.860   0.532   1.046
 6348SOL     OW19942   1.481   3.144   5.833
 6348SOL    HW119943   1.385   3.153   5.861
 6348SOL    HW219944   1.538   3.128   5.913
 6349SOL     OW19945   2.366   0.649   1.174
 6349SOL    HW119946   2.372   0.600   1.261
 6349SOL    HW219947   2.270   0.662   1.149
 6350SOL     OW19948   0.127   5.036   4.298
 6350SOL    HW119949   0.069   4.966   4.257
 6350SOL    HW219950   0.164   5.003   4.385
 6351SOL     OW19951   6.427   3.524   3.964
 6351SOL    HW119952   6.526   3.536   3.962
 6351SOL    HW219953   6.395   3.494   3.874
 6352SOL     OW19954   3.916   6.234   4.681
 6352SOL    HW119955   3.866   6.268   4.761
 6352SOL    HW219956   3.993   6.294   4.662
 6353SOL     OW19957   0.945   6.615   6.288
 6353SOL    HW119958   1.040   6.600   6.263
 6353SOL    HW219959   0.929   6.578   6.380
 6354SOL     OW19960   2.490   5.261   3.062
 6354SOL    HW119961   2.417   5.258   3.130
 6354SOL    HW219962   2.576   5.235   3.105
 6355SOL     OW19963   0.731   5.334   0.204
 6355SOL    HW119964   0.820   5.372   0.231
 6355SOL    HW219965   0.659   5.399   0.226
 6356SOL     OW19966   5.265   5.850   1.723
 6356SOL    HW119967   5.237   5.855   1.818
 6356SOL    HW219968   5.312   5.935   1.698
 6357SOL     OW19969   6.261   3.515   2.516
 6357SOL    HW119970   6.324   3.570   2.571
 6357SOL    HW219971   6.282   3.418   2.530
 6358SOL     OW19972   0.385   2.392   6.391
 6358SOL    HW119973   0.437   2.386   6.476
 6358SOL    HW219974   0.342   2.482   6.384
 6359SOL     OW19975   5.906   0.456   6.838
 6359SOL    HW119976   5.911   0.504   6.926
 6359SOL    HW219977   5.976   0.384   6.836
 6360SOL     OW19978   1.123   4.690   4.155
 6360SOL    HW119979   1.121   4.605   4.209
 6360SOL    HW219980   1.146   4.767   4.215
 6361SOL     OW19981   1.284   6.647   1.494
 6361SOL    HW119982   1.339   6.603   1.423
 6361SOL    HW219983   1.193   6.668   1.458
 6362SOL     OW19984   6.741   6.102   0.129
 6362SOL    HW119985   6.660   6.141   0.085
 6362SOL    HW219986   6.714   6.022   0.183
 6363SOL     OW19987   1.932   5.321   3.782
 6363SOL    HW119988   1.997   5.392   3.752
 6363SOL    HW219989   1.880   5.354   3.861
 6364SOL     OW19990   2.298   1.643   5.551
 6364SOL    HW119991   2.378   1.655   5.611
 6364SOL    HW219992   2.225   1.705   5.581
 6365SOL     OW19993   6.060   0.406   3.857
 6365SOL    HW119994   6.155   0.432   3.872
 6365SOL    HW219995   6.054   0.347   3.777
 6366SOL     OW19996   1.179   5.880   5.834
 6366SOL    HW119997   1.180   5.933   5.919
 6366SOL    HW219998   1.223   5.792   5.849
 6367SOL     OW19999   3.805   1.062   4.679
 6367SOL    HW120000   3.788   1.099   4.770
 6367SOL    HW220001   3.751   1.113   4.612
 6368SOL     OW20002   3.708   4.892   3.283
 6368SOL    HW120003   3.794   4.944   3.277
 6368SOL    HW220004   3.724   4.807   3.331
 6369SOL     OW20005   2.113   5.925   4.115
 6369SOL    HW120006   2.101   6.021   4.139
 6369SOL    HW220007   2.120   5.871   4.199
 6370SOL     OW20008   6.940   3.200   3.895
 6370SOL    HW120009   6.845   3.227   3.888
 6370SOL    HW220010   6.980   3.195   3.804
 6371SOL     OW20011   4.671   4.653   2.802
 6371SOL    HW120012   4.595   4.588   2.808
 6371SOL    HW220013   4.689   4.692   2.892
 6372SOL     OW20014   2.031   0.869   2.169
 6372SOL    HW120015   2.127   0.860   2.145
 6372SOL    HW220016   2.022   0.922   2.253
 6373SOL     OW20017   4.907   3.857   2.460
 6373SOL    HW120018   4.897   3.877   2.362
 6373SOL    HW220019   4.982   3.791   2.473
 6374SOL     OW20020   4.084   3.708   3.237
 6374SOL    HW120021   4.093   3.609   3.240
 6374SOL    HW220022   4.086   3.740   3.143
 6375SOL     OW20023   6.926   1.709   3.638
 6375SOL    HW120024   6.846   1.655   3.664
 6375SOL    HW220025   6.899   1.777   3.570
 6376SOL     OW20026   5.331   2.620   5.040
 6376SOL    HW120027   5.269   2.551   5.076
 6376SOL    HW220028   5.425   2.588   5.051
 6377SOL     OW20029   6.920   2.251   5.501
 6377SOL    HW120030   6.860   2.171   5.507
 6377SOL    HW220031   6.989   2.237   5.430
 6378SOL     OW20032   4.544   4.717   4.205
 6378SOL    HW120033   4.598   4.650   4.155
 6378SOL    HW220034   4.510   4.676   4.290
 6379SOL     OW20035   1.523   4.162   4.921
 6379SOL    HW120036   1.586   4.239   4.923
 6379SOL    HW220037   1.492   4.143   5.015
 6380SOL     OW20038   0.135   1.491   5.550
 6380SOL    HW120039   0.136   1.571   5.490
 6380SOL    HW220040   0.157   1.409   5.496
 6381SOL     OW20041   4.068   3.057   1.835
 6381SOL    HW120042   4.033   3.029   1.924
 6381SOL    HW220043   4.154   3.010   1.816
 6382SOL     OW20044   2.479   2.140   0.692
 6382SOL    HW120045   2.574   2.147   0.721
 6382SOL    HW220046   2.476   2.113   0.596
 6383SOL     OW20047   1.602   2.706   2.662
 6383SOL    HW120048   1.696   2.672   2.673
 6383SOL    HW220049   1.558   2.659   2.586
 6384SOL     OW20050   6.593   3.856   2.651
 6384SOL    HW120051   6.567   3.790   2.722
 6384SOL    HW220052   6.529   3.933   2.652
 6385SOL     OW20053   0.445   4.104   3.548
 6385SOL    HW120054   0.403   4.045   3.617
 6385SOL    HW220055   0.430   4.065   3.457
 6386SOL     OW20056   2.776   4.668   5.686
 6386SOL    HW120057   2.831   4.751   5.697
 6386SOL    HW220058   2.693   4.675   5.741
 6387SOL     OW20059   6.824   1.443   6.105
 6387SOL    HW120060   6.746   1.471   6.050
 6387SOL    HW220061   6.826   1.497   6.190
 6388SOL     OW20062   4.031   6.323   1.803
 6388SOL    HW120063   3.990   6.286   1.887
 6388SOL    HW220064   4.043   6.422   1.814
 6389SOL     OW20065   0.064   5.656   2.168
 6389SOL    HW120066   0.145   5.675   2.113
 6389SOL    HW220067   0.075   5.696   2.259
 6390SOL     OW20068   0.592   0.753   5.896
 6390SOL    HW120069   0.506   0.783   5.854
 6390SOL    HW220070   0.617   0.663   5.858
 6391SOL     OW20071   3.023   6.921   6.042
 6391SOL    HW120072   3.064   6.899   6.130
 6391SOL    HW220073   2.929   6.889   6.040
 6392SOL     OW20074   2.605   5.538   3.025
 6392SOL    HW120075   2.616   5.449   3.068
 6392SOL    HW220076   2.512   5.572   3.042
 6393SOL     OW20077   0.012   6.821   2.254
 6393SOL    HW120078   7.018   6.843   2.350
 6393SOL    HW220079   6.976   6.878   2.196
 6394SOL     OW20080   1.865   5.447   0.793
 6394SOL    HW120081   1.777   5.406   0.771
 6394SOL    HW220082   1.912   5.473   0.709
 6395SOL     OW20083   0.787   2.730   1.632
 6395SOL    HW120084   0.827   2.642   1.657
 6395SOL    HW220085   0.810   2.751   1.537
 6396SOL     OW20086   4.948   3.736   6.573
 6396SOL    HW120087   5.022   3.681   6.534
 6396SOL    HW220088   4.860   3.701   6.542
 6397SOL     OW20089   6.059   1.843   0.867
 6397SOL    HW120090   5.982   1.812   0.811
 6397SOL    HW220091   6.143   1.835   0.813
 6398SOL     OW20092   3.007   6.816   1.792
 6398SOL    HW120093   3.089   6.871   1.776
 6398SOL    HW220094   2.994   6.804   1.891
 6399SOL     OW20095   1.712   6.398   6.508
 6399SOL    HW120096   1.665   6.479   6.471
 6399SOL    HW220097   1.811   6.414   6.508
 6400SOL     OW20098   2.686   5.987   2.464
 6400SOL    HW120099   2.659   6.026   2.552
 6400SOL    HW220100   2.621   5.916   2.437
 6401SOL     OW20101   5.626   5.674   3.369
 6401SOL    HW120102   5.554   5.626   3.319
 6401SOL    HW220103   5.680   5.728   3.305
 6402SOL     OW20104   3.397   2.081   3.445
 6402SOL    HW120105   3.457   2.109   3.520
 6402SOL    HW220106   3.452   2.060   3.364
 6403SOL     OW20107   0.008   6.026   6.612
 6403SOL    HW120108   0.025   6.111   6.562
 6403SOL    HW220109   7.004   6.047   6.706
 6404SOL     OW20110   4.381   0.907   2.651
 6404SOL    HW120111   4.308   0.974   2.634
 6404SOL    HW220112   4.401   0.905   2.749
 6405SOL     OW20113   2.916   0.515   3.787
 6405SOL    HW120114   2.990   0.455   3.755
 6405SOL    HW220115   2.941   0.554   3.875
 6406SOL     OW20116   0.682   2.691   2.621
 6406SOL    HW120117   0.760   2.725   2.674
 6406SOL    HW220118   0.617   2.647   2.683
 6407SOL     OW20119   2.526   6.419   3.895
 6407SOL    HW120120   2.515   6.438   3.797
 6407SOL    HW220121   2.498   6.325   3.914
 6408SOL     OW20122   5.453   1.348   0.104
 6408SOL    HW120123   5.384   1.297   0.053
 6408SOL    HW220124   5.503   1.285   0.163
 6409SOL     OW20125   6.936   4.376   3.411
 6409SOL    HW120126   6.960   4.406   3.504
 6409SOL    HW220127   6.889   4.288   3.415
 6410SOL     OW20128   2.045   1.639   6.677
 6410SOL    HW120129   2.079   1.556   6.722
 6410SOL    HW220130   2.031   1.621   6.580
 6411SOL     OW20131   0.808   3.455   3.206
 6411SOL    HW120132   0.885   3.410   3.160
 6411SOL    HW220133   0.770   3.394   3.275
 6412SOL     OW20134   0.772   1.989   4.631
 6412SOL    HW120135   0.725   1.928   4.695
 6412SOL    HW220136   0.870   1.988   4.650
 6413SOL     OW20137   4.071   4.736   3.702
 6413SOL    HW120138   4.158   4.698   3.734
 6413SOL    HW220139   3.996   4.701   3.758
 6414SOL     OW20140   5.705   0.959   0.624
 6414SOL    HW120141   5.756   0.879   0.594
 6414SOL    HW220142   5.681   0.949   0.721
 6415SOL     OW20143   1.802   3.453   2.916
 6415SOL    HW120144   1.703   3.438   2.921
 6415SOL    HW220145   1.833   3.498   3.000
 6416SOL     OW20146   0.767   1.507   6.624
 6416SOL    HW120147   0.813   1.452   6.694
 6416SOL    HW220148   0.826   1.583   6.598
 6417SOL     OW20149   6.147   5.072   0.798
 6417SOL    HW120150   6.170   5.167   0.819
 6417SOL    HW220151   6.070   5.069   0.735
 6418SOL     OW20152   4.897   3.636   2.162
 6418SOL    HW120153   4.894   3.735   2.171
 6418SOL    HW220154   4.865   3.609   2.071
 6419SOL     OW20155   2.269   4.765   3.388
 6419SOL    HW120156   2.171   4.776   3.400
 6419SOL    HW220157   2.313   4.856   3.388
 6420SOL     OW20158   2.990   5.761   4.686
 6420SOL    HW120159   2.890   5.768   4.692
 6420SOL    HW220160   3.028   5.852   4.665
 6421SOL     OW20161   5.165   0.114   3.122
 6421SOL    HW120162   5.145   0.104   3.219
 6421SOL    HW220163   5.120   0.041   3.071
 6422SOL     OW20164   0.073   0.963   4.108
 6422SOL    HW120165   0.166   0.975   4.143
 6422SOL    HW220166   0.008   0.996   4.176
 6423SOL     OW20167   4.874   5.132   3.075
 6423SOL    HW120168   4.776   5.150   3.069
 6423SOL    HW220169   4.905   5.088   2.991
 6424SOL     OW20170   0.078   5.511   5.900
 6424SOL    HW120171   0.011   5.490   5.829
 6424SOL    HW220172   0.106   5.427   5.945
 6425SOL     OW20173   6.368   6.277   3.196
 6425SOL    HW120174   6.441   6.341   3.220
 6425SOL    HW220175   6.347   6.286   3.099
 6426SOL     OW20176   1.730   5.296   2.942
 6426SOL    HW120177   1.640   5.316   2.904
 6426SOL    HW220178   1.797   5.286   2.868
 6427SOL     OW20179   3.733   3.656   4.754
 6427SOL    HW120180   3.644   3.701   4.753
 6427SOL    HW220181   3.724   3.565   4.713
 6428SOL     OW20182   5.677   3.318   5.979
 6428SOL    HW120183   5.587   3.305   5.936
 6428SOL    HW220184   5.749   3.300   5.912
 6429SOL     OW20185   1.571   1.513   5.670
 6429SOL    HW120186   1.613   1.489   5.583
 6429SOL    HW220187   1.635   1.569   5.724
 6430SOL     OW20188   6.216   0.927   2.886
 6430SOL    HW120189   6.183   0.932   2.792
 6430SOL    HW220190   6.273   1.007   2.906
 6431SOL     OW20191   5.438   6.485   4.068
 6431SOL    HW120192   5.406   6.569   4.111
 6431SOL    HW220193   5.372   6.412   4.084
 6432SOL     OW20194   4.285   4.464   5.891
 6432SOL    HW120195   4.288   4.414   5.805
 6432SOL    HW220196   4.300   4.562   5.873
 6433SOL     OW20197   1.896   5.200   6.336
 6433SOL    HW120198   1.981   5.236   6.375
 6433SOL    HW220199   1.849   5.273   6.285
 6434SOL     OW20200   2.206   4.486   6.606
 6434SOL    HW120201   2.260   4.535   6.675
 6434SOL    HW220202   2.170   4.552   6.539
 6435SOL     OW20203   4.764   6.915   0.269
 6435SOL    HW120204   4.842   6.925   0.331
 6435SOL    HW220205   4.713   7.001   0.265
 6436SOL     OW20206   1.452   3.077   2.973
 6436SOL    HW120207   1.489   3.027   2.895
 6436SOL    HW220208   1.361   3.043   2.995
 6437SOL     OW20209   2.308   1.388   0.479
 6437SOL    HW120210   2.363   1.471   0.476
 6437SOL    HW220211   2.249   1.390   0.560
 6438SOL     OW20212   6.237   4.508   6.003
 6438SOL    HW120213   6.203   4.494   6.096
 6438SOL    HW220214   6.305   4.438   5.981
 6439SOL     OW20215   5.895   1.184   1.792
 6439SOL    HW120216   5.940   1.154   1.875
 6439SOL    HW220217   5.796   1.174   1.802
 6440SOL     OW20218   2.285   1.588   5.837
 6440SOL    HW120219   2.237   1.571   5.751
 6440SOL    HW220220   2.313   1.684   5.841
 6441SOL     OW20221   6.730   6.660   1.957
 6441SOL    HW120222   6.691   6.633   1.869
 6441SOL    HW220223   6.694   6.749   1.984
 6442SOL     OW20224   2.389   1.075   4.471
 6442SOL    HW120225   2.382   1.172   4.496
 6442SOL    HW220226   2.479   1.058   4.432
 6443SOL     OW20227   4.046   2.147   5.687
 6443SOL    HW120228   3.968   2.179   5.740
 6443SOL    HW220229   4.126   2.141   5.746
 6444SOL     OW20230   5.601   2.769   4.009
 6444SOL    HW120231   5.694   2.738   3.989
 6444SOL    HW220232   5.581   2.851   3.956
 6445SOL     OW20233   4.178   3.432   4.917
 6445SOL    HW120234   4.186   3.526   4.885
 6445SOL    HW220235   4.262   3.405   4.963
 6446SOL     OW20236   1.176   1.461   6.346
 6446SOL    HW120237   1.128   1.403   6.412
 6446SOL    HW220238   1.202   1.407   6.266
 6447SOL     OW20239   5.341   5.119   3.366
 6447SOL    HW120240   5.274   5.123   3.291
 6447SOL    HW220241   5.292   5.111   3.453
 6448SOL     OW20242   3.930   5.768   2.151
 6448SOL    HW120243   3.908   5.709   2.074
 6448SOL    HW220244   3.959   5.858   2.118
 6449SOL     OW20245   3.088   5.816   1.095
 6449SOL    HW120246   3.123   5.759   1.020
 6449SOL    HW220247   2.988   5.816   1.091
 6450SOL     OW20248   0.641   4.010   0.580
 6450SOL    HW120249   0.609   4.103   0.562
 6450SOL    HW220250   0.652   3.996   0.678
 6451SOL     OW20251   1.854   0.895   4.647
 6451SOL    HW120252   1.944   0.855   4.634
 6451SOL    HW220253   1.791   0.862   4.576
 6452SOL     OW20254   4.346   5.831   4.308
 6452SOL    HW120255   4.420   5.836   4.376
 6452SOL    HW220256   4.258   5.835   4.355
 6453SOL     OW20257   2.155   6.253   1.584
 6453SOL    HW120258   2.136   6.164   1.625
 6453SOL    HW220259   2.220   6.303   1.642
 6454SOL     OW20260   1.397   2.437   2.982
 6454SOL    HW120261   1.376   2.534   2.972
 6454SOL    HW220262   1.424   2.398   2.894
 6455SOL     OW20263   6.923   2.893   3.727
 6455SOL    HW120264   6.984   2.969   3.705
 6455SOL    HW220265   6.940   2.863   3.821
 6456SOL     OW20266   0.898   0.643   3.759
 6456SOL    HW120267   0.974   0.661   3.822
 6456SOL    HW220268   0.829   0.587   3.805
 6457SOL     OW20269   4.794   1.815   1.040
 6457SOL    HW120270   4.837   1.866   0.966
 6457SOL    HW220271   4.703   1.784   1.011
 6458SOL     OW20272   1.079   6.711   4.136
 6458SOL    HW120273   1.064   6.665   4.223
 6458SOL    HW220274   1.071   6.645   4.061
 6459SOL     OW20275   6.279   3.235   0.975
 6459SOL    HW120276   6.284   3.158   1.040
 6459SOL    HW220277   6.309   3.204   0.885
 6460SOL     OW20278   6.070   6.141   5.676
 6460SOL    HW120279   6.070   6.183   5.586
 6460SOL    HW220280   6.145   6.180   5.731
 6461SOL     OW20281   2.556   4.729   5.849
 6461SOL    HW120282   2.462   4.761   5.842
 6461SOL    HW220283   2.591   4.749   5.940
 6462SOL     OW20284   2.535   2.554   4.367
 6462SOL    HW120285   2.562   2.568   4.271
 6462SOL    HW220286   2.439   2.578   4.378
 6463SOL     OW20287   6.066   2.954   6.710
 6463SOL    HW120288   6.034   3.046   6.685
 6463SOL    HW220289   6.007   2.916   6.781
 6464SOL     OW20290   0.888   5.635   4.838
 6464SOL    HW120291   0.841   5.723   4.834
 6464SOL    HW220292   0.841   5.574   4.901
 6465SOL     OW20293   0.036   3.006   2.931
 6465SOL    HW120294   7.001   3.057   2.867
 6465SOL    HW220295   0.121   3.057   2.947
 6466SOL     OW20296   1.383   1.054   6.483
 6466SOL    HW120297   1.300   0.999   6.479
 6466SOL    HW220298   1.360   1.146   6.517
 6467SOL     OW20299   3.369   1.531   0.345
 6467SOL    HW120300   3.368   1.482   0.432
 6467SOL    HW220301   3.281   1.575   0.329
 6468SOL     OW20302   3.134   6.386   0.225
 6468SOL    HW120303   3.170   6.370   0.317
 6468SOL    HW220304   3.178   6.465   0.185
 6469SOL     OW20305   4.910   1.259   4.602
 6469SOL    HW120306   4.892   1.342   4.549
 6469SOL    HW220307   4.882   1.273   4.697
 6470SOL     OW20308   6.263   3.582   0.509
 6470SOL    HW120309   6.325   3.580   0.587
 6470SOL    HW220310   6.169   3.589   0.542
 6471SOL     OW20311   6.468   6.807   5.861
 6471SOL    HW120312   6.509   6.832   5.773
 6471SOL    HW220313   6.369   6.804   5.853
 6472SOL     OW20314   0.169   5.760   1.497
 6472SOL    HW120315   0.141   5.850   1.463
 6472SOL    HW220316   0.126   5.743   1.586
 6473SOL     OW20317   3.225   1.095   4.203
 6473SOL    HW120318   3.199   1.015   4.257
 6473SOL    HW220319   3.321   1.118   4.221
 6474SOL     OW20320   2.736   4.332   6.129
 6474SOL    HW120321   2.790   4.414   6.110
 6474SOL    HW220322   2.639   4.356   6.131
 6475SOL     OW20323   5.806   5.206   3.736
 6475SOL    HW120324   5.761   5.277   3.789
 6475SOL    HW220325   5.749   5.124   3.733
 6476SOL     OW20326   4.052   3.429   1.365
 6476SOL    HW120327   4.002   3.404   1.282
 6476SOL    HW220328   4.015   3.515   1.400
 6477SOL     OW20329   6.034   4.835   1.216
 6477SOL    HW120330   6.038   4.933   1.195
 6477SOL    HW220331   6.048   4.783   1.132
 6478SOL     OW20332   3.537   0.594   1.566
 6478SOL    HW120333   3.591   0.522   1.610
 6478SOL    HW220334   3.582   0.622   1.482
 6479SOL     OW20335   4.361   5.216   3.939
 6479SOL    HW120336   4.357   5.271   3.855
 6479SOL    HW220337   4.270   5.210   3.979
 6480SOL     OW20338   2.673   1.625   6.656
 6480SOL    HW120339   2.663   1.688   6.733
 6480SOL    HW220340   2.765   1.632   6.618
 6481SOL     OW20341   3.548   1.980   2.170
 6481SOL    HW120342   3.604   1.904   2.139
 6481SOL    HW220343   3.578   2.064   2.125
 6482SOL     OW20344   6.573   0.918   6.274
 6482SOL    HW120345   6.663   0.951   6.302
 6482SOL    HW220346   6.503   0.982   6.304
 6483SOL     OW20347   1.079   6.258   1.963
 6483SOL    HW120348   1.015   6.333   1.944
 6483SOL    HW220349   1.112   6.221   1.876
 6484SOL     OW20350   3.394   7.015   1.022
 6484SOL    HW120351   3.381   0.025   0.929
 6484SOL    HW220352   3.307   7.022   1.072
 6485SOL     OW20353   1.814   5.090   3.656
 6485SOL    HW120354   1.873   5.080   3.575
 6485SOL    HW220355   1.851   5.160   3.716
 6486SOL     OW20356   2.458   4.556   3.431
 6486SOL    HW120357   2.388   4.611   3.385
 6486SOL    HW220358   2.548   4.598   3.415
 6487SOL     OW20359   0.483   6.438   5.043
 6487SOL    HW120360   0.537   6.379   5.103
 6487SOL    HW220361   0.460   6.522   5.092
 6488SOL     OW20362   3.478   6.432   4.551
 6488SOL    HW120363   3.479   6.350   4.494
 6488SOL    HW220364   3.422   6.415   4.633
 6489SOL     OW20365   3.424   2.529   6.509
 6489SOL    HW120366   3.510   2.478   6.511
 6489SOL    HW220367   3.405   2.568   6.599
 6490SOL     OW20368   4.092   0.556   6.895
 6490SOL    HW120369   4.064   0.481   6.835
 6490SOL    HW220370   4.170   0.604   6.854
 6491SOL     OW20371   4.151   0.966   0.525
 6491SOL    HW120372   4.101   0.889   0.564
 6491SOL    HW220373   4.175   1.031   0.598
 6492SOL     OW20374   4.020   5.177   0.097
 6492SOL    HW120375   4.028   5.080   0.073
 6492SOL    HW220376   3.923   5.204   0.095
 6493SOL     OW20377   1.045   5.080   5.250
 6493SOL    HW120378   1.117   5.058   5.184
 6493SOL    HW220379   0.992   4.997   5.271
 6494SOL     OW20380   0.103   0.558   3.716
 6494SOL    HW120381   0.108   0.510   3.628
 6494SOL    HW220382   0.189   0.607   3.732
 6495SOL     OW20383   5.356   0.321   4.418
 6495SOL    HW120384   5.358   0.420   4.412
 6495SOL    HW220385   5.377   0.293   4.512
 6496SOL     OW20386   6.642   0.569   3.201
 6496SOL    HW120387   6.721   0.589   3.142
 6496SOL    HW220388   6.591   0.654   3.218
 6497SOL     OW20389   1.478   1.739   0.964
 6497SOL    HW120390   1.482   1.649   1.007
 6497SOL    HW220391   1.383   1.770   0.960
 6498SOL     OW20392   1.961   3.691   3.662
 6498SOL    HW120393   2.015   3.695   3.746
 6498SOL    HW220394   1.987   3.609   3.610
 6499SOL     OW20395   5.148   3.019   4.996
 6499SOL    HW120396   5.073   2.958   4.972
 6499SOL    HW220397   5.184   3.063   4.913
 6500SOL     OW20398   6.989   4.165   3.751
 6500SOL    HW120399   0.018   4.079   3.750
 6500SOL    HW220400   6.940   4.174   3.837
 6501SOL     OW20401   6.555   1.808   6.705
 6501SOL    HW120402   6.461   1.843   6.701
 6501SOL    HW220403   6.614   1.875   6.750
 6502SOL     OW20404   6.711   2.058   1.306
 6502SOL    HW120405   6.627   2.107   1.282
 6502SOL    HW220406   6.721   2.055   1.405
 6503SOL     OW20407   4.974   1.157   3.342
 6503SOL    HW120408   5.036   1.207   3.403
 6503SOL    HW220409   5.004   1.169   3.247
 6504SOL     OW20410   4.151   6.048   5.568
 6504SOL    HW120411   4.124   5.989   5.493
 6504SOL    HW220412   4.222   6.112   5.537
 6505SOL     OW20413   5.702   6.009   0.326
 6505SOL    HW120414   5.738   6.007   0.419
 6505SOL    HW220415   5.715   5.919   0.283
 6506SOL     OW20416   6.522   2.360   2.628
 6506SOL    HW120417   6.558   2.298   2.697
 6506SOL    HW220418   6.472   2.435   2.673
 6507SOL     OW20419   2.159   5.051   5.721
 6507SOL    HW120420   2.196   5.073   5.630
 6507SOL    HW220421   2.059   5.055   5.718
 6508SOL     OW20422   1.493   0.487   2.749
 6508SOL    HW120423   1.579   0.506   2.796
 6508SOL    HW220424   1.441   0.418   2.799
 6509SOL     OW20425   3.539   1.925   4.518
 6509SOL    HW120426   3.484   2.008   4.507
 6509SOL    HW220427   3.599   1.934   4.598
 6510SOL     OW20428   6.684   5.621   0.094
 6510SOL    HW120429   6.664   5.555   0.022
 6510SOL    HW220430   6.780   5.612   0.122
 6511SOL     OW20431   4.481   1.586   4.153
 6511SOL    HW120432   4.578   1.575   4.128
 6511SOL    HW220433   4.462   1.683   4.168
 6512SOL     OW20434   4.678   6.419   1.726
 6512SOL    HW120435   4.629   6.460   1.803
 6512SOL    HW220436   4.613   6.395   1.654
 6513SOL     OW20437   2.795   5.287   2.882
 6513SOL    HW120438   2.886   5.272   2.844
 6513SOL    HW220439   2.730   5.307   2.807
 6514SOL     OW20440   6.319   1.261   4.053
 6514SOL    HW120441   6.389   1.222   3.993
 6514SOL    HW220442   6.283   1.345   4.013
 6515SOL     OW20443   0.244   4.160   4.257
 6515SOL    HW120444   0.146   4.156   4.241
 6515SOL    HW220445   0.263   4.225   4.331
 6516SOL     OW20446   0.539   3.460   1.527
 6516SOL    HW120447   0.476   3.450   1.450
 6516SOL    HW220448   0.633   3.454   1.494
 6517SOL     OW20449   6.684   0.610   0.781
 6517SOL    HW120450   6.720   0.658   0.701
 6517SOL    HW220451   6.745   0.536   0.806
 6518SOL     OW20452   6.880   0.652   6.851
 6518SOL    HW120453   6.868   0.748   6.875
 6518SOL    HW220454   6.968   0.620   6.886
 6519SOL     OW20455   1.513   1.922   3.114
 6519SOL    HW120456   1.556   1.924   3.204
 6519SOL    HW220457   1.581   1.901   3.045
 6520SOL     OW20458   5.490   5.621   2.309
 6520SOL    HW120459   5.444   5.551   2.364
 6520SOL    HW220460   5.501   5.704   2.363
 6521SOL     OW20461   1.904   2.561   4.059
 6521SOL    HW120462   1.902   2.588   4.155
 6521SOL    HW220463   1.985   2.601   4.015
 6522SOL     OW20464   3.572   5.251   6.450
 6522SOL    HW120465   3.511   5.226   6.525
 6522SOL    HW220466   3.661   5.208   6.465
 6523SOL     OW20467   4.234   1.099   6.235
 6523SOL    HW120468   4.239   1.000   6.225
 6523SOL    HW220469   4.316   1.141   6.196
 6524SOL     OW20470   2.826   4.074   1.521
 6524SOL    HW120471   2.797   3.980   1.503
 6524SOL    HW220472   2.885   4.106   1.446
 6525SOL     OW20473   2.489   5.028   2.783
 6525SOL    HW120474   2.561   4.969   2.820
 6525SOL    HW220475   2.439   5.071   2.858
 6526SOL     OW20476   2.291   6.916   6.681
 6526SOL    HW120477   2.203   6.952   6.652
 6526SOL    HW220478   2.306   6.826   6.640
 6527SOL     OW20479   0.981   2.346   4.464
 6527SOL    HW120480   0.958   2.258   4.424
 6527SOL    HW220481   1.079   2.349   4.485
 6528SOL     OW20482   6.894   0.908   5.331
 6528SOL    HW120483   6.962   0.980   5.344
 6528SOL    HW220484   6.846   0.891   5.417
 6529SOL     OW20485   1.314   1.152   2.568
 6529SOL    HW120486   1.271   1.118   2.484
 6529SOL    HW220487   1.272   1.109   2.647
 6530SOL     OW20488   6.419   3.969   0.316
 6530SOL    HW120489   6.515   3.983   0.292
 6530SOL    HW220490   6.372   3.924   0.239
 6531SOL     OW20491   5.554   3.141   5.172
 6531SOL    HW120492   5.518   3.050   5.190
 6531SOL    HW220493   5.641   3.134   5.124
 6532SOL     OW20494   0.010   1.024   0.381
 6532SOL    HW120495   6.993   1.042   0.471
 6532SOL    HW220496   0.090   1.083   0.367
 6533SOL     OW20497   4.687   6.986   1.370
 6533SOL    HW120498   4.602   7.000   1.318
 6533SOL    HW220499   4.736   0.050   1.376
 6534SOL     OW20500   3.427   4.584   1.392
 6534SOL    HW120501   3.468   4.653   1.451
 6534SOL    HW220502   3.337   4.558   1.427
 6535SOL     OW20503   5.904   4.025   4.148
 6535SOL    HW120504   5.926   4.109   4.097
 6535SOL    HW220505   5.874   4.049   4.240
 6536SOL     OW20506   1.062   1.320   5.405
 6536SOL    HW120507   1.005   1.268   5.341
 6536SOL    HW220508   1.148   1.346   5.360
 6537SOL     OW20509   6.537   5.446   0.267
 6537SOL    HW120510   6.562   5.537   0.233
 6537SOL    HW220511   6.596   5.377   0.226
 6538SOL     OW20512   2.491   4.032   6.997
 6538SOL    HW120513   2.549   3.985   0.041
 6538SOL    HW220514   2.532   4.026   6.906
 6539SOL     OW20515   3.795   0.552   5.619
 6539SOL    HW120516   3.890   0.531   5.643
 6539SOL    HW220517   3.741   0.468   5.622
 6540SOL     OW20518   4.579   1.937   5.816
 6540SOL    HW120519   4.495   1.944   5.869
 6540SOL    HW220520   4.641   1.871   5.859
 6541SOL     OW20521   4.870   1.977   4.989
 6541SOL    HW120522   4.957   1.948   4.948
 6541SOL    HW220523   4.884   2.000   5.085
 6542SOL     OW20524   5.793   3.886   3.927
 6542SOL    HW120525   5.856   3.881   3.849
 6542SOL    HW220526   5.830   3.946   3.997
 6543SOL     OW20527   5.799   3.234   5.740
 6543SOL    HW120528   5.817   3.241   5.642
 6543SOL    HW220529   5.821   3.142   5.772
 6544SOL     OW20530   0.464   6.261   3.006
 6544SOL    HW120531   0.494   6.201   2.931
 6544SOL    HW220532   0.517   6.346   3.003
 6545SOL     OW20533   4.174   2.267   0.799
 6545SOL    HW120534   4.245   2.234   0.737
 6545SOL    HW220535   4.084   2.251   0.759
 6546SOL     OW20536   3.069   4.651   0.138
 6546SOL    HW120537   3.027   4.562   0.154
 6546SOL    HW220538   3.049   4.712   0.214
 6547SOL     OW20539   4.943   1.336   5.602
 6547SOL    HW120540   4.857   1.339   5.551
 6547SOL    HW220541   4.946   1.411   5.667
 6548SOL     OW20542   1.255   3.772   0.228
 6548SOL    HW120543   1.187   3.698   0.226
 6548SOL    HW220544   1.245   3.829   0.146
 6549SOL     OW20545   4.780   0.906   1.773
 6549SOL    HW120546   4.867   0.888   1.820
 6549SOL    HW220547   4.783   0.996   1.731
 6550SOL     OW20548   0.316   6.703   4.152
 6550SOL    HW120549   0.286   6.608   4.139
 6550SOL    HW220550   0.271   6.741   4.233
 6551SOL     OW20551   2.057   5.052   2.717
 6551SOL    HW120552   2.050   4.952   2.717
 6551SOL    HW220553   1.970   5.090   2.684
 6552SOL     OW20554   1.939   6.574   6.431
 6552SOL    HW120555   1.927   6.671   6.455
 6552SOL    HW220556   1.930   6.563   6.332
 6553SOL     OW20557   0.569   2.517   3.738
 6553SOL    HW120558   0.499   2.447   3.752
 6553SOL    HW220559   0.540   2.578   3.664
 6554SOL     OW20560   0.080   1.370   4.997
 6554SOL    HW120561   0.175   1.394   5.017
 6554SOL    HW220562   0.028   1.365   5.083
 6555SOL     OW20563   6.604   2.120   2.787
 6555SOL    HW120564   6.550   2.066   2.723
 6555SOL    HW220565   6.588   2.086   2.880
 6556SOL     OW20566   5.623   4.381   4.760
 6556SOL    HW120567   5.651   4.447   4.690
 6556SOL    HW220568   5.603   4.430   4.845
 6557SOL     OW20569   3.199   6.688   2.077
 6557SOL    HW120570   3.126   6.753   2.058
 6557SOL    HW220571   3.221   6.690   2.175
 6558SOL     OW20572   6.733   4.855   6.580
 6558SOL    HW120573   6.812   4.914   6.565
 6558SOL    HW220574   6.750   4.765   6.542
 6559SOL     OW20575   1.165   3.809   6.140
 6559SOL    HW120576   1.211   3.782   6.225
 6559SOL    HW220577   1.134   3.727   6.092
 6560SOL     OW20578   4.561   5.274   1.137
 6560SOL    HW120579   4.504   5.324   1.202
 6560SOL    HW220580   4.651   5.258   1.177
 6561SOL     OW20581   3.942   3.860   1.553
 6561SOL    HW120582   4.008   3.904   1.614
 6561SOL    HW220583   3.854   3.906   1.560
 6562SOL     OW20584   6.070   3.837   1.036
 6562SOL    HW120585   6.104   3.930   1.024
 6562SOL    HW220586   6.144   3.778   1.065
 6563SOL     OW20587   5.932   6.607   0.537
 6563SOL    HW120588   5.836   6.633   0.547
 6563SOL    HW220589   5.961   6.623   0.443
 6564SOL     OW20590   6.770   4.535   3.248
 6564SOL    HW120591   6.822   4.466   3.299
 6564SOL    HW220592   6.825   4.618   3.238
 6565SOL     OW20593   6.509   2.536   3.666
 6565SOL    HW120594   6.581   2.605   3.661
 6565SOL    HW220595   6.521   2.471   3.590
 6566SOL     OW20596   3.430   6.348   2.457
 6566SOL    HW120597   3.349   6.385   2.501
 6566SOL    HW220598   3.504   6.339   2.524
 6567SOL     OW20599   4.068   1.190   2.125
 6567SOL    HW120600   4.075   1.288   2.104
 6567SOL    HW220601   3.973   1.169   2.151
 6568SOL     OW20602   3.975   1.437   3.617
 6568SOL    HW120603   3.959   1.390   3.530
 6568SOL    HW220604   4.074   1.449   3.630
 6569SOL     OW20605   2.920   3.844   6.546
 6569SOL    HW120606   2.894   3.801   6.460
 6569SOL    HW220607   2.864   3.925   6.562
 6570SOL     OW20608   3.480   0.275   2.153
 6570SOL    HW120609   3.484   0.375   2.150
 6570SOL    HW220610   3.506   0.244   2.245
 6571SOL     OW20611   2.810   5.994   1.776
 6571SOL    HW120612   2.720   5.995   1.732
 6571SOL    HW220613   2.803   5.950   1.866
 6572SOL     OW20614   6.433   4.845   6.161
 6572SOL    HW120615   6.364   4.835   6.232
 6572SOL    HW220616   6.522   4.862   6.204
 6573SOL     OW20617   2.294   1.368   2.435
 6573SOL    HW120618   2.325   1.285   2.388
 6573SOL    HW220619   2.360   1.442   2.420
 6574SOL     OW20620   3.119   5.770   2.915
 6574SOL    HW120621   3.210   5.747   2.881
 6574SOL    HW220622   3.111   5.869   2.925
 6575SOL     OW20623   1.146   0.167   2.622
 6575SOL    HW120624   1.241   0.182   2.597
 6575SOL    HW220625   1.117   0.077   2.588
 6576SOL     OW20626   2.796   5.756   6.170
 6576SOL    HW120627   2.883   5.803   6.154
 6576SOL    HW220628   2.799   5.710   6.259
 6577SOL     OW20629   0.653   0.754   4.139
 6577SOL    HW120630   0.575   0.753   4.076
 6577SOL    HW220631   0.628   0.707   4.224
 6578SOL     OW20632   1.509   4.993   3.256
 6578SOL    HW120633   1.479   4.941   3.176
 6578SOL    HW220634   1.453   5.074   3.266
 6579SOL     OW20635   6.596   3.800   5.211
 6579SOL    HW120636   6.497   3.794   5.215
 6579SOL    HW220637   6.633   3.718   5.167
 6580SOL     OW20638   0.284   2.022   0.500
 6580SOL    HW120639   0.213   2.055   0.562
 6580SOL    HW220640   0.374   2.040   0.540
 6581SOL     OW20641   2.713   1.044   0.022
 6581SOL    HW120642   2.629   1.080   7.005
 6581SOL    HW220643   2.692   0.959   0.071
 6582SOL     OW20644   1.241   1.607   2.198
 6582SOL    HW120645   1.241   1.639   2.103
 6582SOL    HW220646   1.178   1.664   2.251
 6583SOL     OW20647   4.154   0.733   5.102
 6583SOL    HW120648   4.182   0.767   5.191
 6583SOL    HW220649   4.202   0.784   5.030
 6584SOL     OW20650   4.679   1.875   0.673
 6584SOL    HW120651   4.656   1.894   0.578
 6584SOL    HW220652   4.613   1.921   0.733
 6585SOL     OW20653   6.126   0.028   0.119
 6585SOL    HW120654   6.135   0.006   0.022
 6585SOL    HW220655   6.094   0.122   0.129
 6586SOL     OW20656   0.288   1.774   5.842
 6586SOL    HW120657   0.299   1.677   5.819
 6586SOL    HW220658   0.191   1.796   5.847
 6587SOL     OW20659   2.187   6.342   5.001
 6587SOL    HW120660   2.230   6.399   5.071
 6587SOL    HW220661   2.227   6.251   5.003
 6588SOL     OW20662   0.649   3.867   1.548
 6588SOL    HW120663   0.693   3.800   1.609
 6588SOL    HW220664   0.711   3.891   1.474
 6589SOL     OW20665   4.720   0.699   0.397
 6589SOL    HW120666   4.657   0.722   0.471
 6589SOL    HW220667   4.800   0.652   0.434
 6590SOL     OW20668   0.898   0.854   5.388
 6590SOL    HW120669   0.817   0.890   5.342
 6590SOL    HW220670   0.921   0.911   5.466
 6591SOL     OW20671   5.545   5.591   2.047
 6591SOL    HW120672   5.528   5.578   2.145
 6591SOL    HW220673   5.522   5.507   1.998
 6592SOL     OW20674   6.511   0.287   3.883
 6592SOL    HW120675   6.417   0.268   3.912
 6592SOL    HW220676   6.517   0.279   3.784
 6593SOL     OW20677   2.536   2.059   2.060
 6593SOL    HW120678   2.547   1.965   2.095
 6593SOL    HW220679   2.510   2.119   2.135
 6594SOL     OW20680   3.389   2.343   6.904
 6594SOL    HW120681   3.445   2.298   6.973
 6594SOL    HW220682   3.293   2.336   6.930
 6595SOL     OW20683   0.603   3.754   0.020
 6595SOL    HW120684   0.572   3.666   0.055
 6595SOL    HW220685   0.524   3.813   0.003
 6596SOL     OW20686   2.859   6.484   4.489
 6596SOL    HW120687   2.821   6.415   4.427
 6596SOL    HW220688   2.815   6.572   4.471
 6597SOL     OW20689   2.006   5.309   1.740
 6597SOL    HW120690   2.044   5.299   1.648
 6597SOL    HW220691   2.075   5.283   1.807
 6598SOL     OW20692   1.449   6.414   4.447
 6598SOL    HW120693   1.458   6.349   4.522
 6598SOL    HW220694   1.440   6.365   4.360
 6599SOL     OW20695   4.680   6.450   5.759
 6599SOL    HW120696   4.615   6.498   5.701
 6599SOL    HW220697   4.631   6.397   5.828
 6600SOL     OW20698   5.410   5.133   5.680
 6600SOL    HW120699   5.367   5.191   5.749
 6600SOL    HW220700   5.472   5.069   5.724
 6601SOL     OW20701   0.767   1.674   4.820
 6601SOL    HW120702   0.848   1.733   4.831
 6601SOL    HW220703   0.723   1.661   4.909
 6602SOL     OW20704   0.425   1.157   2.396
 6602SOL    HW120705   0.352   1.089   2.393
 6602SOL    HW220706   0.438   1.187   2.491
 6603SOL     OW20707   7.008   2.601   3.995
 6603SOL    HW120708   6.962   2.689   4.003
 6603SOL    HW220709   6.956   2.531   4.044
 6604SOL     OW20710   2.082   0.080   1.728
 6604SOL    HW120711   2.178   0.062   1.705
 6604SOL    HW220712   2.077   0.139   1.808
 6605SOL     OW20713   5.891   3.753   1.363
 6605SOL    HW120714   5.855   3.661   1.350
 6605SOL    HW220715   5.855   3.813   1.293
 6606SOL     OW20716   6.810   5.929   1.874
 6606SOL    HW120717   6.824   6.025   1.895
 6606SOL    HW220718   6.750   5.920   1.795
 6607SOL     OW20719   1.644   3.291   2.243
 6607SOL    HW120720   1.587   3.276   2.163
 6607SOL    HW220721   1.590   3.335   2.315
 6608SOL     OW20722   6.294   6.168   1.237
 6608SOL    HW120723   6.197   6.191   1.238
 6608SOL    HW220724   6.326   6.166   1.142
 6609SOL     OW20725   4.322   0.931   5.711
 6609SOL    HW120726   4.404   0.989   5.708
 6609SOL    HW220727   4.336   0.856   5.776
 6610SOL     OW20728   2.984   0.501   6.868
 6610SOL    HW120729   2.922   0.470   6.796
 6610SOL    HW220730   3.024   0.589   6.842
 6611SOL     OW20731   5.820   3.120   3.700
 6611SOL    HW120732   5.904   3.082   3.737
 6611SOL    HW220733   5.782   3.058   3.631
 6612SOL     OW20734   6.323   2.109   6.531
 6612SOL    HW120735   6.345   2.202   6.501
 6612SOL    HW220736   6.309   2.051   6.451
 6613SOL     OW20737   6.781   6.088   4.986
 6613SOL    HW120738   6.867   6.132   5.010
 6613SOL    HW220739   6.795   6.026   4.909
 6614SOL     OW20740   5.139   6.617   0.802
 6614SOL    HW120741   5.052   6.609   0.851
 6614SOL    HW220742   5.139   6.556   0.723
 6615SOL     OW20743   1.533   5.164   2.596
 6615SOL    HW120744   1.624   5.130   2.621
 6615SOL    HW220745   1.464   5.112   2.645
 6616SOL     OW20746   4.052   1.264   5.724
 6616SOL    HW120747   4.088   1.276   5.632
 6616SOL    HW220748   4.104   1.191   5.770
 6617SOL     OW20749   4.183   5.209   3.079
 6617SOL    HW120750   4.108   5.274   3.087
 6617SOL    HW220751   4.189   5.154   3.163
 6618SOL     OW20752   1.388   3.059   2.277
 6618SOL    HW120753   1.305   3.003   2.273
 6618SOL    HW220754   1.408   3.083   2.372
 6619SOL     OW20755   6.241   0.175   3.848
 6619SOL    HW120756   6.186   0.195   3.767
 6619SOL    HW220757   6.181   0.142   3.921
 6620SOL     OW20758   1.793   2.933   5.209
 6620SOL    HW120759   1.817   2.861   5.274
 6620SOL    HW220760   1.698   2.961   5.223
 6621SOL     OW20761   2.392   2.907   6.095
 6621SOL    HW120762   2.469   2.906   6.160
 6621SOL    HW220763   2.401   2.985   6.034
 6622SOL     OW20764   6.090   6.888   1.351
 6622SOL    HW120765   6.035   6.908   1.432
 6622SOL    HW220766   6.031   6.852   1.279
 6623SOL     OW20767   2.931   2.982   6.253
 6623SOL    HW120768   2.900   2.952   6.163
 6623SOL    HW220769   3.019   2.940   6.274
 6624SOL     OW20770   1.066   5.317   5.698
 6624SOL    HW120771   0.973   5.355   5.702
 6624SOL    HW220772   1.077   5.266   5.613
 6625SOL     OW20773   4.843   2.332   5.623
 6625SOL    HW120774   4.912   2.286   5.567
 6625SOL    HW220775   4.876   2.422   5.651
 6626SOL     OW20776   4.874   5.337   5.588
 6626SOL    HW120777   4.926   5.404   5.641
 6626SOL    HW220778   4.878   5.360   5.491
 6627SOL     OW20779   2.169   6.664   4.734
 6627SOL    HW120780   2.100   6.612   4.783
 6627SOL    HW220781   2.152   6.658   4.635
 6628SOL     OW20782   4.576   4.448   4.805
 6628SOL    HW120783   4.596   4.501   4.723
 6628SOL    HW220784   4.490   4.478   4.845
 6629SOL     OW20785   4.375   5.960   0.085
 6629SOL    HW120786   4.427   5.954   0.170
 6629SOL    HW220787   4.301   5.893   0.086
 6630SOL     OW20788   4.062   0.814   1.775
 6630SOL    HW120789   4.130   0.847   1.710
 6630SOL    HW220790   4.103   0.745   1.835
 6631SOL     OW20791   2.728   5.838   3.354
 6631SOL    HW120792   2.714   5.832   3.453
 6631SOL    HW220793   2.803   5.902   3.335
 6632SOL     OW20794   0.226   6.403   1.380
 6632SOL    HW120795   0.291   6.406   1.455
 6632SOL    HW220796   0.155   6.472   1.394
 6633SOL     OW20797   0.642   4.247   6.536
 6633SOL    HW120798   0.705   4.185   6.488
 6633SOL    HW220799   0.693   4.324   6.573
 6634SOL     OW20800   5.575   2.448   3.939
 6634SOL    HW120801   5.605   2.484   4.027
 6634SOL    HW220802   5.487   2.488   3.914
 6635SOL     OW20803   4.301   4.666   3.019
 6635SOL    HW120804   4.323   4.757   3.052
 6635SOL    HW220805   4.284   4.668   2.921
 6636SOL     OW20806   4.746   2.750   5.790
 6636SOL    HW120807   4.654   2.725   5.823
 6636SOL    HW220808   4.799   2.788   5.866
 6637SOL     OW20809   1.536   7.010   6.547
 6637SOL    HW120810   1.436   7.017   6.540
 6637SOL    HW220811   1.575   6.990   6.458
 6638SOL     OW20812   3.268   3.592   4.177
 6638SOL    HW120813   3.212   3.563   4.254
 6638SOL    HW220814   3.322   3.515   4.144
 6639SOL     OW20815   5.424   4.641   6.689
 6639SOL    HW120816   5.487   4.566   6.710
 6639SOL    HW220817   5.455   4.688   6.606
 6640SOL     OW20818   1.287   1.547   5.062
 6640SOL    HW120819   1.235   1.534   5.146
 6640SOL    HW220820   1.381   1.517   5.076
 6641SOL     OW20821   2.027   1.786   7.013
 6641SOL    HW120822   2.069   1.711   0.040
 6641SOL    HW220823   1.933   1.798   0.022
 6642SOL     OW20824   2.827   5.373   6.596
 6642SOL    HW120825   2.907   5.314   6.608
 6642SOL    HW220826   2.840   5.457   6.648
 6643SOL     OW20827   6.089   5.405   0.063
 6643SOL    HW120828   5.999   5.438   0.035
 6643SOL    HW220829   6.081   5.350   0.146
 6644SOL     OW20830   2.472   5.261   2.164
 6644SOL    HW120831   2.556   5.313   2.152
 6644SOL    HW220832   2.415   5.304   2.235
 6645SOL     OW20833   6.666   5.203   0.220
 6645SOL    HW120834   6.678   5.209   0.319
 6645SOL    HW220835   6.754   5.185   0.176
 6646SOL     OW20836   4.160   0.031   5.021
 6646SOL    HW120837   4.253   0.052   4.988
 6646SOL    HW220838   4.160   6.963   5.063
 6647SOL     OW20839   4.458   0.854   1.790
 6647SOL    HW120840   4.555   0.843   1.809
 6647SOL    HW220841   4.423   0.934   1.838
 6648SOL     OW20842   4.315   6.661   3.127
 6648SOL    HW120843   4.249   6.596   3.088
 6648SOL    HW220844   4.393   6.670   3.065
 6649SOL     OW20845   5.205   0.793   6.806
 6649SOL    HW120846   5.191   0.761   6.712
 6649SOL    HW220847   5.116   0.809   6.849
 6650SOL     OW20848   3.229   1.723   5.393
 6650SOL    HW120849   3.142   1.769   5.377
 6650SOL    HW220850   3.215   1.624   5.396
 6651SOL     OW20851   2.110   1.824   5.635
 6651SOL    HW120852   2.110   1.923   5.620
 6651SOL    HW220853   2.032   1.783   5.587
 6652SOL     OW20854   0.564   4.269   0.679
 6652SOL    HW120855   0.653   4.296   0.717
 6652SOL    HW220856   0.512   4.351   0.655
 6653SOL     OW20857   2.941   3.237   2.702
 6653SOL    HW120858   2.971   3.142   2.706
 6653SOL    HW220859   2.930   3.265   2.607
 6654SOL     OW20860   1.435   3.893   1.427
 6654SOL    HW120861   1.509   3.926   1.485
 6654SOL    HW220862   1.454   3.918   1.332
 6655SOL     OW20863   1.123   7.005   3.261
 6655SOL    HW120864   1.156   6.914   3.236
 6655SOL    HW220865   1.029   7.016   3.229
 6656SOL     OW20866   5.843   1.740   3.575
 6656SOL    HW120867   5.932   1.699   3.555
 6656SOL    HW220868   5.770   1.677   3.549
 6657SOL     OW20869   5.944   6.029   6.148
 6657SOL    HW120870   5.865   6.088   6.132
 6657SOL    HW220871   5.990   6.058   6.232
 6658SOL     OW20872   6.618   1.033   5.031
 6658SOL    HW120873   6.644   0.937   5.027
 6658SOL    HW220874   6.601   1.059   5.126
 6659SOL     OW20875   2.228   2.260   0.396
 6659SOL    HW120876   2.188   2.280   0.485
 6659SOL    HW220877   2.275   2.172   0.399
 6660SOL     OW20878   1.063   5.131   1.183
 6660SOL    HW120879   1.113   5.077   1.250
 6660SOL    HW220880   0.988   5.180   1.227
 6661SOL     OW20881   0.873   6.431   5.214
 6661SOL    HW120882   0.878   6.475   5.124
 6661SOL    HW220883   0.901   6.497   5.285
 6662SOL     OW20884   1.272   1.225   0.146
 6662SOL    HW120885   1.357   1.175   0.132
 6662SOL    HW220886   1.197   1.160   0.159
 6663SOL     OW20887   6.999   4.845   4.152
 6663SOL    HW120888   6.979   4.862   4.056
 6663SOL    HW220889   6.914   4.825   4.201
 6664SOL     OW20890   2.502   6.275   0.041
 6664SOL    HW120891   2.567   6.243   6.995
 6664SOL    HW220892   2.411   6.238   0.022
 6665SOL     OW20893   1.884   6.387   4.118
 6665SOL    HW120894   1.960   6.452   4.108
 6665SOL    HW220895   1.808   6.432   4.165
 6666SOL     OW20896   6.028   6.668   5.397
 6666SOL    HW120897   5.974   6.592   5.433
 6666SOL    HW220898   5.990   6.699   5.310
 6667SOL     OW20899   6.644   5.999   6.716
 6667SOL    HW120900   6.689   5.928   6.770
 6667SOL    HW220901   6.555   5.966   6.685
 6668SOL     OW20902   6.853   5.631   1.338
 6668SOL    HW120903   6.949   5.618   1.359
 6668SOL    HW220904   6.810   5.542   1.321
 6669SOL     OW20905   1.472   3.083   3.557
 6669SOL    HW120906   1.522   3.160   3.597
 6669SOL    HW220907   1.429   3.030   3.630
 6670SOL     OW20908   3.515   2.163   5.255
 6670SOL    HW120909   3.551   2.240   5.307
 6670SOL    HW220910   3.429   2.189   5.211
 6671SOL     OW20911   6.080   5.675   0.654
 6671SOL    HW120912   6.010   5.610   0.626
 6671SOL    HW220913   6.101   5.737   0.578
 6672SOL     OW20914   6.597   1.475   6.351
 6672SOL    HW120915   6.540   1.461   6.432
 6672SOL    HW220916   6.680   1.525   6.376
 6673SOL     OW20917   5.772   5.510   4.280
 6673SOL    HW120918   5.682   5.526   4.239
 6673SOL    HW220919   5.825   5.595   4.277
 6674SOL     OW20920   0.867   5.082   6.128
 6674SOL    HW120921   0.807   5.159   6.105
 6674SOL    HW220922   0.933   5.111   6.197
 6675SOL     OW20923   4.787   3.626   1.631
 6675SOL    HW120924   4.716   3.686   1.595
 6675SOL    HW220925   4.877   3.660   1.602
 6676SOL     OW20926   6.897   3.635   5.648
 6676SOL    HW120927   6.974   3.696   5.665
 6676SOL    HW220928   6.919   3.573   5.572
 6677SOL     OW20929   1.212   1.740   6.571
 6677SOL    HW120930   1.277   1.807   6.535
 6677SOL    HW220931   1.159   1.782   6.646
 6678SOL     OW20932   3.246   3.428   6.798
 6678SOL    HW120933   3.326   3.369   6.803
 6678SOL    HW220934   3.238   3.465   6.705
 6679SOL     OW20935   2.511   1.388   4.053
 6679SOL    HW120936   2.571   1.308   4.043
 6679SOL    HW220937   2.537   1.457   3.986
 6680SOL     OW20938   4.397   6.826   6.878
 6680SOL    HW120939   4.321   6.891   6.882
 6680SOL    HW220940   4.414   6.788   6.969
 6681SOL     OW20941   4.326   5.801   1.466
 6681SOL    HW120942   4.414   5.785   1.511
 6681SOL    HW220943   4.253   5.757   1.518
 6682SOL     OW20944   0.556   4.407   2.737
 6682SOL    HW120945   0.636   4.464   2.716
 6682SOL    HW220946   0.583   4.311   2.740
 6683SOL     OW20947   5.842   2.637   5.699
 6683SOL    HW120948   5.910   2.586   5.750
 6683SOL    HW220949   5.878   2.659   5.608
 6684SOL     OW20950   2.803   0.105   1.868
 6684SOL    HW120951   2.838   0.096   1.775
 6684SOL    HW220952   2.725   0.168   1.868
 6685SOL     OW20953   6.178   3.563   5.760
 6685SOL    HW120954   6.185   3.652   5.714
 6685SOL    HW220955   6.241   3.560   5.838
 6686SOL     OW20956   5.131   6.004   4.121
 6686SOL    HW120957   5.196   5.939   4.160
 6686SOL    HW220958   5.174   6.056   4.048
 6687SOL     OW20959   1.078   3.284   0.015
 6687SOL    HW120960   1.121   3.366   7.000
 6687SOL    HW220961   1.090   3.282   0.114
 6688SOL     OW20962   0.310   3.900   2.515
 6688SOL    HW120963   0.212   3.886   2.529
 6688SOL    HW220964   0.349   3.943   2.597
 6689SOL     OW20965   4.819   2.632   0.149
 6689SOL    HW120966   4.879   2.626   0.070
 6689SOL    HW220967   4.874   2.637   0.233
 6690SOL     OW20968   2.059   0.572   0.711
 6690SOL    HW120969   2.146   0.530   0.688
 6690SOL    HW220970   2.041   0.559   0.809
 6691SOL     OW20971   2.680   6.468   1.123
 6691SOL    HW120972   2.777   6.450   1.140
 6691SOL    HW220973   2.648   6.540   1.185
 6692SOL     OW20974   3.820   4.177   5.078
 6692SOL    HW120975   3.833   4.131   4.990
 6692SOL    HW220976   3.723   4.180   5.100
 6693SOL     OW20977   4.240   3.929   5.297
 6693SOL    HW120978   4.235   3.838   5.338
 6693SOL    HW220979   4.158   3.946   5.243
 6694SOL     OW20980   3.967   5.805   0.976
 6694SOL    HW120981   4.005   5.856   0.899
 6694SOL    HW220982   3.934   5.868   1.045
 6695SOL     OW20983   3.564   1.575   0.141
 6695SOL    HW120984   3.528   1.588   0.049
 6695SOL    HW220985   3.487   1.561   0.205
 6696SOL     OW20986   1.916   3.037   5.650
 6696SOL    HW120987   1.821   3.029   5.621
 6696SOL    HW220988   1.977   3.020   5.572
 6697SOL     OW20989   4.368   2.173   2.164
 6697SOL    HW120990   4.385   2.080   2.132
 6697SOL    HW220991   4.271   2.196   2.153
 6698SOL     OW20992   3.089   2.916   1.281
 6698SOL    HW120993   3.165   2.891   1.220
 6698SOL    HW220994   3.075   3.015   1.278
 6699SOL     OW20995   2.696   5.081   6.327
 6699SOL    HW120996   2.672   4.983   6.326
 6699SOL    HW220997   2.710   5.110   6.422
 6700SOL     OW20998   6.905   6.684   0.641
 6700SOL    HW120999   6.909   6.723   0.732
 6700SOL    HW221000   6.944   6.748   0.575
 6701SOL     OW21001   5.834   2.937   1.427
 6701SOL    HW121002   5.850   2.922   1.330
 6701SOL    HW221003   5.922   2.936   1.476
 6702SOL     OW21004   2.814   1.531   1.922
 6702SOL    HW121005   2.787   1.485   1.837
 6702SOL    HW221006   2.851   1.621   1.900
 6703SOL     OW21007   6.295   2.283   6.876
 6703SOL    HW121008   6.250   2.300   6.788
 6703SOL    HW221009   6.394   2.283   6.864
 6704SOL     OW21010   3.511   2.047   3.127
 6704SOL    HW121011   3.530   2.087   3.037
 6704SOL    HW221012   3.581   2.077   3.192
 6705SOL     OW21013   6.495   2.740   1.183
 6705SOL    HW121014   6.587   2.721   1.149
 6705SOL    HW221015   6.473   2.676   1.256
 6706SOL     OW21016   1.224   4.139   1.939
 6706SOL    HW121017   1.298   4.128   2.005
 6706SOL    HW221018   1.151   4.073   1.958
 6707SOL     OW21019   6.689   6.031   3.790
 6707SOL    HW121020   6.768   5.982   3.753
 6707SOL    HW221021   6.622   6.047   3.718
 6708SOL     OW21022   6.878   5.350   1.732
 6708SOL    HW121023   6.857   5.302   1.647
 6708SOL    HW221024   6.956   5.410   1.718
 6709SOL     OW21025   2.981   6.983   2.903
 6709SOL    HW121026   2.952   6.895   2.867
 6709SOL    HW221027   2.936   7.000   2.990
 6710SOL     OW21028   3.860   1.083   6.182
 6710SOL    HW121029   3.864   0.989   6.148
 6710SOL    HW221030   3.917   1.091   6.264
 6711SOL     OW21031   4.959   5.466   6.394
 6711SOL    HW121032   4.934   5.412   6.314
 6711SOL    HW221033   5.013   5.545   6.366
 6712SOL     OW21034   4.681   4.649   0.060
 6712SOL    HW121035   4.581   4.653   0.070
 6712SOL    HW221036   4.713   4.731   0.012
 6713SOL     OW21037   2.196   0.699   2.521
 6713SOL    HW121038   2.227   0.674   2.613
 6713SOL    HW221039   2.135   0.778   2.528
 6714SOL     OW21040   5.973   1.181   6.223
 6714SOL    HW121041   5.986   1.219   6.132
 6714SOL    HW221042   6.053   1.198   6.279
 6715SOL     OW21043   6.700   6.992   6.348
 6715SOL    HW121044   6.776   6.958   6.294
 6715SOL    HW221045   6.723   6.988   6.445
 6716SOL     OW21046   0.403   5.853   1.657
 6716SOL    HW121047   0.391   5.889   1.564
 6716SOL    HW221048   0.314   5.838   1.699
 6717SOL     OW21049   4.188   2.560   6.659
 6717SOL    HW121050   4.104   2.614   6.661
 6717SOL    HW221051   4.203   2.526   6.566
 6718SOL     OW21052   5.359   6.949   6.798
 6718SOL    HW121053   5.458   6.934   6.805
 6718SOL    HW221054   5.322   6.895   6.722
 6719SOL     OW21055   1.917   0.047   6.925
 6719SOL    HW121056   1.867   0.054   6.839
 6719SOL    HW221057   1.881   0.114   6.990
 6720SOL     OW21058   0.571   6.699   3.733
 6720SOL    HW121059   0.535   6.785   3.695
 6720SOL    HW221060   0.554   6.625   3.669
 6721SOL     OW21061   6.737   0.365   6.174
 6721SOL    HW121062   6.684   0.388   6.256
 6721SOL    HW221063   6.725   0.268   6.153
 6722SOL     OW21064   7.013   3.387   0.970
 6722SOL    HW121065   6.976   3.294   0.980
 6722SOL    HW221066   7.012   3.432   1.059
 6723SOL     OW21067   2.536   6.985   3.227
 6723SOL    HW121068   2.621   6.934   3.237
 6723SOL    HW221069   2.469   6.951   3.293
 6724SOL     OW21070   1.592   3.687   5.922
 6724SOL    HW121071   1.679   3.717   5.882
 6724SOL    HW221072   1.578   3.734   6.010
 6725SOL     OW21073   0.772   3.605   1.314
 6725SOL    HW121074   0.759   3.676   1.383
 6725SOL    HW221075   0.799   3.520   1.359
 6726SOL     OW21076   0.770   1.924   5.177
 6726SOL    HW121077   0.764   1.971   5.089
 6726SOL    HW221078   0.702   1.963   5.240
 6727SOL     OW21079   6.309   3.847   5.780
 6727SOL    HW121080   6.367   3.928   5.777
 6727SOL    HW221081   6.215   3.871   5.756
 6728SOL     OW21082   4.246   1.298   3.253
 6728SOL    HW121083   4.255   1.200   3.236
 6728SOL    HW221084   4.216   1.343   3.170
 6729SOL     OW21085   0.295   1.461   2.511
 6729SOL    HW121086   0.328   1.456   2.416
 6729SOL    HW221087   0.368   1.497   2.570
 6730SOL     OW21088   2.672   6.179   6.870
 6730SOL    HW121089   2.635   6.087   6.885
 6730SOL    HW221090   2.749   6.194   6.932
 6731SOL     OW21091   0.795   6.084   1.897
 6731SOL    HW121092   0.873   6.022   1.888
 6731SOL    HW221093   0.710   6.035   1.878
 6732SOL     OW21094   5.437   4.728   5.660
 6732SOL    HW121095   5.494   4.733   5.578
 6732SOL    HW221096   5.492   4.750   5.741
 6733SOL     OW21097   3.962   4.698   6.951
 6733SOL    HW121098   3.889   4.723   6.886
 6733SOL    HW221099   4.023   4.632   6.908
 6734SOL     OW21100   6.426   2.162   5.177
 6734SOL    HW121101   6.502   2.159   5.113
 6734SOL    HW221102   6.340   2.176   5.128
 6735SOL     OW21103   6.999   4.161   4.234
 6735SOL    HW121104   7.012   4.249   4.280
 6735SOL    HW221105   6.937   4.104   4.288
 6736SOL     OW21106   3.577   3.815   6.630
 6736SOL    HW121107   3.556   3.901   6.583
 6736SOL    HW221108   3.496   3.784   6.680
 6737SOL     OW21109   2.175   2.432   0.643
 6737SOL    HW121110   2.210   2.424   0.736
 6737SOL    HW221111   2.076   2.428   0.644
 6738SOL     OW21112   1.790   5.097   2.723
 6738SOL    HW121113   1.773   5.020   2.660
 6738SOL    HW221114   1.795   5.063   2.817
 6739SOL     OW21115   3.872   5.789   5.630
 6739SOL    HW121116   3.910   5.816   5.719
 6739SOL    HW221117   3.826   5.701   5.639
 6740SOL     OW21118   1.684   1.162   4.221
 6740SOL    HW121119   1.619   1.234   4.246
 6740SOL    HW221120   1.746   1.195   4.150
 6741SOL     OW21121   4.194   1.178   5.334
 6741SOL    HW121122   4.177   1.269   5.371
 6741SOL    HW221123   4.145   1.109   5.387
 6742SOL     OW21124   6.487   6.063   2.824
 6742SOL    HW121125   6.581   6.093   2.840
 6742SOL    HW221126   6.485   5.964   2.809
 6743SOL     OW21127   4.200   4.928   0.303
 6743SOL    HW121128   4.103   4.937   0.324
 6743SOL    HW221129   4.216   4.954   0.208
 6744SOL     OW21130   5.365   5.602   6.042
 6744SOL    HW121131   5.279   5.651   6.027
 6744SOL    HW221132   5.434   5.665   6.079
 6745SOL     OW21133   0.397   0.544   2.806
 6745SOL    HW121134   0.344   0.538   2.891
 6745SOL    HW221135   0.470   0.611   2.817
 6746SOL     OW21136   1.207   1.284   2.999
 6746SOL    HW121137   1.285   1.267   3.060
 6746SOL    HW221138   1.125   1.239   3.037
 6747SOL     OW21139   5.255   0.649   5.429
 6747SOL    HW121140   5.244   0.627   5.332
 6747SOL    HW221141   5.350   0.671   5.448
 6748SOL     OW21142   1.412   0.459   3.456
 6748SOL    HW121143   1.320   0.492   3.478
 6748SOL    HW221144   1.409   0.400   3.375
 6749SOL     OW21145   2.629   6.055   0.226
 6749SOL    HW121146   2.607   6.129   0.162
 6749SOL    HW221147   2.628   5.968   0.177
 6750SOL     OW21148   4.326   2.021   5.578
 6750SOL    HW121149   4.270   2.091   5.534
 6750SOL    HW221150   4.398   2.064   5.631
 6751SOL     OW21151   4.505   0.494   3.759
 6751SOL    HW121152   4.483   0.408   3.805
 6751SOL    HW221153   4.541   0.475   3.668
 6752SOL     OW21154   0.332   2.857   3.062
 6752SOL    HW121155   0.305   2.938   3.009
 6752SOL    HW221156   0.254   2.825   3.116
 6753SOL     OW21157   4.209   0.842   6.100
 6753SOL    HW121158   4.285   0.808   6.044
 6753SOL    HW221159   4.178   0.769   6.161
 6754SOL     OW21160   0.020   1.469   6.858
 6754SOL    HW121161   0.006   1.408   6.936
 6754SOL    HW221162   0.016   1.564   6.888
 6755SOL     OW21163   4.279   0.669   3.356
 6755SOL    HW121164   4.273   0.580   3.402
 6755SOL    HW221165   4.238   0.739   3.414
 6756SOL     OW21166   3.965   5.076   4.794
 6756SOL    HW121167   3.877   5.107   4.830
 6756SOL    HW221168   3.978   5.112   4.701
 6757SOL     OW21169   4.527   0.487   1.262
 6757SOL    HW121170   4.459   0.524   1.199
 6757SOL    HW221171   4.527   0.387   1.256
 6758SOL     OW21172   0.046   2.968   0.882
 6758SOL    HW121173   6.980   2.925   0.902
 6758SOL    HW221174   0.105   2.902   0.835
 6759SOL     OW21175   0.792   4.967   4.239
 6759SOL    HW121176   0.743   4.911   4.172
 6759SOL    HW221177   0.746   5.055   4.248
 6760SOL     OW21178   6.811   4.932   3.476
 6760SOL    HW121179   6.805   4.914   3.574
 6760SOL    HW221180   6.797   5.029   3.459
 6761SOL     OW21181   6.034   1.823   6.405
 6761SOL    HW121182   5.984   1.756   6.350
 6761SOL    HW221183   6.114   1.855   6.353
 6762SOL     OW21184   6.807   5.591   3.230
 6762SOL    HW121185   6.848   5.510   3.272
 6762SOL    HW221186   6.869   5.626   3.159
 6763SOL     OW21187   0.198   5.284   3.656
 6763SOL    HW121188   0.099   5.298   3.657
 6763SOL    HW221189   0.238   5.329   3.736
 6764SOL     OW21190   2.883   5.065   6.691
 6764SOL    HW121191   2.794   5.075   6.647
 6764SOL    HW221192   2.902   4.968   6.707
 6765SOL     OW21193   4.909   4.865   4.448
 6765SOL    HW121194   4.948   4.812   4.523
 6765SOL    HW221195   4.809   4.859   4.452
 6766SOL     OW21196   4.809   6.573   6.336
 6766SOL    HW121197   4.875   6.498   6.337
 6766SOL    HW221198   4.767   6.580   6.246
 6767SOL     OW21199   0.756   2.388   0.440
 6767SOL    HW121200   0.817   2.397   0.519
 6767SOL    HW221201   0.689   2.463   0.442
 6768SOL     OW21202   0.112   6.586   3.518
 6768SOL    HW121203   0.087   6.513   3.581
 6768SOL    HW221204   0.151   6.547   3.435
 6769SOL     OW21205   2.958   0.037   5.572
 6769SOL    HW121206   3.003   0.011   5.658
 6769SOL    HW221207   3.003   0.118   5.535
 6770SOL     OW21208   5.996   2.072   3.148
 6770SOL    HW121209   6.094   2.055   3.153
 6770SOL    HW221210   5.976   2.131   3.070
 6771SOL     OW21211   3.497   1.192   2.232
 6771SOL    HW121212   3.457   1.151   2.150
 6771SOL    HW221213   3.503   1.123   2.305
 6772SOL     OW21214   4.624   1.823   2.436
 6772SOL    HW121215   4.573   1.760   2.378
 6772SOL    HW221216   4.563   1.896   2.468
 6773SOL     OW21217   0.237   6.385   1.811
 6773SOL    HW121218   0.256   6.420   1.719
 6773SOL    HW221219   0.165   6.440   1.853
 6774SOL     OW21220   1.970   2.500   4.331
 6774SOL    HW121221   2.042   2.431   4.330
 6774SOL    HW221222   1.914   2.489   4.413
 6775SOL     OW21223   0.768   2.030   3.334
 6775SOL    HW121224   0.682   2.063   3.294
 6775SOL    HW221225   0.826   2.108   3.358
 6776SOL     OW21226   4.382   3.445   1.441
 6776SOL    HW121227   4.304   3.388   1.416
 6776SOL    HW221228   4.354   3.511   1.511
 6777SOL     OW21229   4.384   5.798   0.597
 6777SOL    HW121230   4.408   5.702   0.608
 6777SOL    HW221231   4.467   5.854   0.597
 6778SOL     OW21232   6.155   3.722   2.130
 6778SOL    HW121233   6.090   3.672   2.188
 6778SOL    HW221234   6.111   3.804   2.094
 6779SOL     OW21235   5.349   4.793   6.069
 6779SOL    HW121236   5.251   4.809   6.061
 6779SOL    HW221237   5.398   4.859   6.010
 6780SOL     OW21238   1.190   3.718   2.742
 6780SOL    HW121239   1.267   3.751   2.687
 6780SOL    HW221240   1.224   3.688   2.832
 6781SOL     OW21241   6.712   1.868   3.877
 6781SOL    HW121242   6.715   1.929   3.798
 6781SOL    HW221243   6.726   1.922   3.960
 6782SOL     OW21244   0.874   1.337   2.891
 6782SOL    HW121245   0.780   1.348   2.923
 6782SOL    HW221246   0.934   1.401   2.940
 6783SOL     OW21247   1.010   3.311   5.584
 6783SOL    HW121248   1.094   3.319   5.637
 6783SOL    HW221249   0.967   3.401   5.575
 6784SOL     OW21250   2.016   4.627   1.343
 6784SOL    HW121251   1.975   4.595   1.428
 6784SOL    HW221252   2.099   4.680   1.363
 6785SOL     OW21253   5.803   4.881   5.531
 6785SOL    HW121254   5.815   4.943   5.608
 6785SOL    HW221255   5.820   4.787   5.561
 6786SOL     OW21256   0.159   3.442   6.401
 6786SOL    HW121257   0.208   3.477   6.321
 6786SOL    HW221258   0.065   3.420   6.375
 6787SOL     OW21259   3.429   1.997   1.475
 6787SOL    HW121260   3.451   2.094   1.465
 6787SOL    HW221261   3.511   1.942   1.458
 6788SOL     OW21262   0.714   3.905   2.511
 6788SOL    HW121263   0.757   3.985   2.471
 6788SOL    HW221264   0.776   3.864   2.578
 6789SOL     OW21265   0.115   4.581   3.869
 6789SOL    HW121266   0.144   4.598   3.963
 6789SOL    HW221267   0.141   4.658   3.811
 6790SOL     OW21268   0.320   4.693   6.959
 6790SOL    HW121269   0.234   4.740   6.980
 6790SOL    HW221270   0.371   4.746   6.891
 6791SOL     OW21271   4.464   2.065   2.495
 6791SOL    HW121272   4.372   2.061   2.535
 6791SOL    HW221273   4.472   2.148   2.440
 6792SOL     OW21274   5.130   0.143   5.195
 6792SOL    HW121275   5.126   0.178   5.288
 6792SOL    HW221276   5.078   0.057   5.189
 6793SOL     OW21277   3.367   0.861   6.810
 6793SOL    HW121278   3.431   0.810   6.867
 6793SOL    HW221279   3.415   0.899   6.731
 6794SOL     OW21280   5.025   1.038   5.355
 6794SOL    HW121281   5.086   1.096   5.408
 6794SOL    HW221282   4.946   1.091   5.325
 6795SOL     OW21283   0.828   6.896   0.322
 6795SOL    HW121284   0.927   6.880   0.331
 6795SOL    HW221285   0.780   6.808   0.323
 6796SOL     OW21286   5.658   0.400   2.682
 6796SOL    HW121287   5.627   0.449   2.763
 6796SOL    HW221288   5.696   0.466   2.616
 6797SOL     OW21289   6.092   1.497   0.768
 6797SOL    HW121290   6.004   1.497   0.721
 6797SOL    HW221291   6.160   1.542   0.712
 6798SOL     OW21292   6.420   0.326   1.161
 6798SOL    HW121293   6.390   0.238   1.197
 6798SOL    HW221294   6.385   0.338   1.069
 6799SOL     OW21295   5.421   0.231   2.591
 6799SOL    HW121296   5.491   0.235   2.662
 6799SOL    HW221297   5.403   0.323   2.556
 6800SOL     OW21298   2.204   2.457   1.699
 6800SOL    HW121299   2.139   2.448   1.624
 6800SOL    HW221300   2.156   2.480   1.783
 6801SOL     OW21301   0.516   6.427   3.621
 6801SOL    HW121302   0.612   6.410   3.598
 6801SOL    HW221303   0.471   6.340   3.641
 6802SOL     OW21304   3.711   6.050   1.283
 6802SOL    HW121305   3.613   6.035   1.265
 6802SOL    HW221306   3.722   6.111   1.362
 6803SOL     OW21307   4.194   4.291   6.681
 6803SOL    HW121308   4.110   4.315   6.632
 6803SOL    HW221309   4.267   4.274   6.615
 6804SOL     OW21310   3.513   5.100   2.994
 6804SOL    HW121311   3.446   5.153   3.045
 6804SOL    HW221312   3.467   5.039   2.930
 6805SOL     OW21313   0.691   4.992   6.563
 6805SOL    HW121314   0.603   4.986   6.514
 6805SOL    HW221315   0.687   5.069   6.628
 6806SOL     OW21316   6.670   0.996   4.363
 6806SOL    HW121317   6.610   1.073   4.343
 6806SOL    HW221318   6.765   1.028   4.367
 6807SOL     OW21319   3.938   3.966   3.286
 6807SOL    HW121320   4.029   4.007   3.281
 6807SOL    HW221321   3.945   3.867   3.278
 6808SOL     OW21322   5.678   1.161   4.992
 6808SOL    HW121323   5.696   1.105   5.073
 6808SOL    HW221324   5.757   1.158   4.931
 6809SOL     OW21325   6.399   3.584   0.750
 6809SOL    HW121326   6.460   3.507   0.732
 6809SOL    HW221327   6.415   3.618   0.842
 6810SOL     OW21328   3.238   1.037   2.432
 6810SOL    HW121329   3.250   1.065   2.337
 6810SOL    HW221330   3.160   0.975   2.440
 6811SOL     OW21331   6.080   3.032   2.524
 6811SOL    HW121332   6.077   2.941   2.564
 6811SOL    HW221333   6.054   3.028   2.428
 6812SOL     OW21334   3.442   3.886   5.164
 6812SOL    HW121335   3.362   3.860   5.110
 6812SOL    HW221336   3.438   3.843   5.254
 6813SOL     OW21337   5.401   3.460   2.440
 6813SOL    HW121338   5.366   3.544   2.482
 6813SOL    HW221339   5.500   3.456   2.448
 6814SOL     OW21340   4.537   1.645   6.747
 6814SOL    HW121341   4.634   1.646   6.768
 6814SOL    HW221342   4.499   1.555   6.768
 6815SOL     OW21343   2.538   6.109   6.539
 6815SOL    HW121344   2.473   6.036   6.559
 6815SOL    HW221345   2.630   6.079   6.566
 6816SOL     OW21346   6.652   1.566   5.296
 6816SOL    HW121347   6.724   1.630   5.269
 6816SOL    HW221348   6.668   1.478   5.251
 6817SOL     OW21349   2.396   2.758   4.033
 6817SOL    HW121350   2.364   2.731   3.943
 6817SOL    HW221351   2.355   2.845   4.058
 6818SOL     OW21352   2.027   6.905   0.368
 6818SOL    HW121353   2.072   6.836   0.425
 6818SOL    HW221354   2.092   6.980   0.351
 6819SOL     OW21355   4.444   1.029   2.914
 6819SOL    HW121356   4.497   1.048   2.997
 6819SOL    HW221357   4.494   1.063   2.835
 6820SOL     OW21358   0.923   5.732   1.653
 6820SOL    HW121359   0.955   5.798   1.721
 6820SOL    HW221360   0.845   5.681   1.690
 6821SOL     OW21361   4.574   3.055   5.705
 6821SOL    HW121362   4.585   3.021   5.798
 6821SOL    HW221363   4.660   3.043   5.654
 6822SOL     OW21364   6.529   2.692   6.257
 6822SOL    HW121365   6.431   2.710   6.255
 6822SOL    HW221366   6.572   2.729   6.174
 6823SOL     OW21367   5.488   4.216   6.754
 6823SOL    HW121368   5.441   4.194   6.669
 6823SOL    HW221369   5.530   4.306   6.747
 6824SOL     OW21370   1.895   1.714   0.451
 6824SOL    HW121371   1.813   1.732   0.397
 6824SOL    HW221372   1.893   1.620   0.485
 6825SOL     OW21373   6.454   0.401   0.386
 6825SOL    HW121374   6.421   0.325   0.329
 6825SOL    HW221375   6.505   0.465   0.329
 6826SOL     OW21376   1.067   3.769   3.947
 6826SOL    HW121377   1.016   3.854   3.930
 6826SOL    HW221378   1.026   3.721   4.024
 6827SOL     OW21379   5.100   5.736   5.695
 6827SOL    HW121380   5.193   5.771   5.683
 6827SOL    HW221381   5.034   5.810   5.675
 6828SOL     OW21382   3.891   1.504   2.662
 6828SOL    HW121383   3.813   1.441   2.662
 6828SOL    HW221384   3.896   1.551   2.574
 6829SOL     OW21385   5.026   6.450   5.497
 6829SOL    HW121386   4.993   6.388   5.568
 6829SOL    HW221387   5.001   6.544   5.521
 6830SOL     OW21388   5.869   0.701   3.417
 6830SOL    HW121389   5.799   0.751   3.467
 6830SOL    HW221390   5.833   0.671   3.329
 6831SOL     OW21391   1.497   1.169   5.820
 6831SOL    HW121392   1.461   1.098   5.880
 6831SOL    HW221393   1.431   1.187   5.746
 6832SOL     OW21394   2.506   4.121   0.330
 6832SOL    HW121395   2.603   4.139   0.316
 6832SOL    HW221396   2.494   4.055   0.404
 6833SOL     OW21397   2.643   4.618   6.608
 6833SOL    HW121398   2.684   4.683   6.671
 6833SOL    HW221399   2.711   4.588   6.542
 6834SOL     OW21400   5.635   0.319   1.523
 6834SOL    HW121401   5.596   0.249   1.583
 6834SOL    HW221402   5.679   0.275   1.445
 6835SOL     OW21403   3.741   1.265   4.473
 6835SOL    HW121404   3.680   1.329   4.519
 6835SOL    HW221405   3.794   1.314   4.404
 6836SOL     OW21406   2.129   4.049   6.455
 6836SOL    HW121407   2.093   4.009   6.540
 6836SOL    HW221408   2.175   4.135   6.476
 6837SOL     OW21409   0.642   2.058   2.807
 6837SOL    HW121410   0.663   2.020   2.717
 6837SOL    HW221411   0.660   2.157   2.806
 6838SOL     OW21412   2.792   4.088   6.263
 6838SOL    HW121413   2.792   4.174   6.213
 6838SOL    HW221414   2.886   4.063   6.287
 6839SOL     OW21415   5.261   1.512   4.250
 6839SOL    HW121416   5.306   1.425   4.270
 6839SOL    HW221417   5.330   1.577   4.216
 6840SOL     OW21418   2.896   6.493   5.318
 6840SOL    HW121419   2.910   6.527   5.411
 6840SOL    HW221420   2.832   6.416   5.319
 6841SOL     OW21421   4.134   5.003   0.807
 6841SOL    HW121422   4.091   5.030   0.893
 6841SOL    HW221423   4.091   4.920   0.771
 6842SOL     OW21424   2.172   2.760   6.801
 6842SOL    HW121425   2.106   2.835   6.788
 6842SOL    HW221426   2.147   2.709   6.883
 6843SOL     OW21427   5.043   0.443   2.702
 6843SOL    HW121428   4.972   0.439   2.772
 6843SOL    HW221429   5.010   0.497   2.624
 6844SOL     OW21430   5.914   5.973   3.858
 6844SOL    HW121431   5.903   6.069   3.834
 6844SOL    HW221432   5.865   5.916   3.792
 6845SOL     OW21433   4.911   4.530   2.386
 6845SOL    HW121434   4.983   4.557   2.450
 6845SOL    HW221435   4.951   4.513   2.296
 6846SOL     OW21436   4.073   3.243   1.551
 6846SOL    HW121437   4.058   3.324   1.494
 6846SOL    HW221438   4.061   3.161   1.495
 6847SOL     OW21439   0.070   3.953   1.861
 6847SOL    HW121440   0.154   3.903   1.841
 6847SOL    HW221441   7.020   3.923   1.798
 6848SOL     OW21442   2.823   6.351   3.492
 6848SOL    HW121443   2.748   6.323   3.432
 6848SOL    HW221444   2.858   6.271   3.540
 6849SOL     OW21445   2.642   5.606   4.715
 6849SOL    HW121446   2.664   5.695   4.754
 6849SOL    HW221447   2.668   5.534   4.779
 6850SOL     OW21448   5.185   3.317   2.409
 6850SOL    HW121449   5.192   3.272   2.497
 6850SOL    HW221450   5.264   3.377   2.396
 6851SOL     OW21451   1.558   2.756   4.292
 6851SOL    HW121452   1.655   2.781   4.297
 6851SOL    HW221453   1.512   2.811   4.223
 6852SOL     OW21454   1.172   4.563   1.300
 6852SOL    HW121455   1.120   4.492   1.252
 6852SOL    HW221456   1.204   4.631   1.234
 6853SOL     OW21457   6.549   3.468   6.528
 6853SOL    HW121458   6.471   3.429   6.480
 6853SOL    HW221459   6.518   3.545   6.584
 6854SOL     OW21460   5.897   1.747   5.933
 6854SOL    HW121461   5.979   1.802   5.916
 6854SOL    HW221462   5.825   1.772   5.868
 6855SOL     OW21463   3.257   6.038   2.642
 6855SOL    HW121464   3.303   6.002   2.723
 6855SOL    HW221465   3.295   5.995   2.560
 6856SOL     OW21466   5.190   4.649   5.293
 6856SOL    HW121467   5.153   4.732   5.251
 6856SOL    HW221468   5.150   4.637   5.384
 6857SOL     OW21469   3.778   1.948   6.781
 6857SOL    HW121470   3.714   2.007   6.732
 6857SOL    HW221471   3.733   1.911   6.863
 6858SOL     OW21472   4.162   3.389   4.393
 6858SOL    HW121473   4.158   3.406   4.491
 6858SOL    HW221474   4.070   3.372   4.358
 6859SOL     OW21475   1.610   6.341   1.545
 6859SOL    HW121476   1.688   6.291   1.505
 6859SOL    HW221477   1.634   6.438   1.552
 6860SOL     OW21478   5.611   5.460   1.412
 6860SOL    HW121479   5.660   5.402   1.477
 6860SOL    HW221480   5.522   5.486   1.450
 6861SOL     OW21481   6.032   4.484   0.867
 6861SOL    HW121482   5.951   4.500   0.811
 6861SOL    HW221483   6.097   4.428   0.816
 6862SOL     OW21484   2.159   4.475   4.327
 6862SOL    HW121485   2.195   4.382   4.337
 6862SOL    HW221486   2.229   4.541   4.355
 6863SOL     OW21487   5.539   1.472   4.537
 6863SOL    HW121488   5.494   1.485   4.626
 6863SOL    HW221489   5.504   1.389   4.494
 6864SOL     OW21490   3.526   6.176   3.723
 6864SOL    HW121491   3.593   6.225   3.778
 6864SOL    HW221492   3.538   6.077   3.735
 6865SOL     OW21493   6.266   5.665   2.599
 6865SOL    HW121494   6.286   5.665   2.501
 6865SOL    HW221495   6.199   5.737   2.619
 6866SOL     OW21496   6.243   4.635   2.210
 6866SOL    HW121497   6.150   4.669   2.223
 6866SOL    HW221498   6.243   4.535   2.215
 6867SOL     OW21499   1.226   4.655   1.655
 6867SOL    HW121500   1.148   4.635   1.714
 6867SOL    HW221501   1.219   4.600   1.571
 6868SOL     OW21502   1.826   5.375   5.576
 6868SOL    HW121503   1.874   5.393   5.662
 6868SOL    HW221504   1.728   5.395   5.588
 6869SOL     OW21505   5.623   2.255   5.423
 6869SOL    HW121506   5.527   2.246   5.395
 6869SOL    HW221507   5.669   2.320   5.363
 6870SOL     OW21508   0.069   4.717   2.289
 6870SOL    HW121509   0.060   4.704   2.388
 6870SOL    HW221510   7.016   4.672   2.242
 6871SOL     OW21511   5.569   5.334   1.957
 6871SOL    HW121512   5.626   5.272   1.901
 6871SOL    HW221513   5.505   5.280   2.011
 6872SOL     OW21514   1.274   3.537   0.562
 6872SOL    HW121515   1.201   3.503   0.621
 6872SOL    HW221516   1.253   3.630   0.532
 6873SOL     OW21517   5.944   3.932   4.933
 6873SOL    HW121518   5.845   3.926   4.947
 6873SOL    HW221519   5.990   3.935   5.022
 6874SOL     OW21520   0.677   4.891   2.832
 6874SOL    HW121521   0.760   4.921   2.785
 6874SOL    HW221522   0.702   4.831   2.908
 6875SOL     OW21523   1.200   2.567   3.563
 6875SOL    HW121524   1.177   2.635   3.493
 6875SOL    HW221525   1.134   2.573   3.639
 6876SOL     OW21526   4.182   5.847   5.081
 6876SOL    HW121527   4.117   5.896   5.023
 6876SOL    HW221528   4.245   5.912   5.123
 6877SOL     OW21529   2.554   4.298   6.405
 6877SOL    HW121530   2.497   4.254   6.475
 6877SOL    HW221531   2.649   4.300   6.436
 6878SOL     OW21532   2.841   2.726   5.353
 6878SOL    HW121533   2.891   2.688   5.430
 6878SOL    HW221534   2.786   2.654   5.310
 6879SOL     OW21535   0.723   2.076   0.061
 6879SOL    HW121536   0.664   2.120   0.128
 6879SOL    HW221537   0.806   2.130   0.049
 6880SOL     OW21538   1.982   3.453   5.134
 6880SOL    HW121539   1.974   3.357   5.106
 6880SOL    HW221540   2.039   3.460   5.215
 6881SOL     OW21541   0.516   3.772   2.386
 6881SOL    HW121542   0.589   3.817   2.437
 6881SOL    HW221543   0.427   3.804   2.419
 6882SOL     OW21544   3.170   0.295   5.895
 6882SOL    HW121545   3.256   0.297   5.947
 6882SOL    HW221546   3.135   0.388   5.884
 6883SOL     OW21547   3.999   1.661   1.009
 6883SOL    HW121548   4.069   1.610   0.960
 6883SOL    HW221549   4.025   1.758   1.014
 6884SOL     OW21550   1.576   3.558   4.544
 6884SOL    HW121551   1.623   3.547   4.457
 6884SOL    HW221552   1.490   3.506   4.543
 6885SOL     OW21553   3.961   5.914   4.872
 6885SOL    HW121554   3.881   5.951   4.823
 6885SOL    HW221555   4.030   5.885   4.806
 6886SOL     OW21556   0.053   0.852   3.299
 6886SOL    HW121557   0.042   0.855   3.398
 6886SOL    HW221558   0.023   0.939   3.259
 6887SOL     OW21559   5.103   6.541   5.862
 6887SOL    HW121560   5.016   6.492   5.866
 6887SOL    HW221561   5.139   6.553   5.954
 6888SOL     OW21562   5.286   6.394   6.665
 6888SOL    HW121563   5.281   6.410   6.763
 6888SOL    HW221564   5.215   6.329   6.638
 6889SOL     OW21565   1.909   2.271   5.436
 6889SOL    HW121566   1.810   2.281   5.450
 6889SOL    HW221567   1.934   2.309   5.347
 6890SOL     OW21568   3.567   6.485   1.583
 6890SOL    HW121569   3.644   6.511   1.526
 6890SOL    HW221570   3.589   6.403   1.635
 6891SOL     OW21571   2.128   4.021   4.427
 6891SOL    HW121572   2.165   3.999   4.517
 6891SOL    HW221573   2.111   3.937   4.376
 6892SOL     OW21574   3.478   0.940   3.213
 6892SOL    HW121575   3.578   0.940   3.223
 6892SOL    HW221576   3.455   0.957   3.117
 6893SOL     OW21577   5.355   5.666   0.255
 6893SOL    HW121578   5.273   5.623   0.218
 6893SOL    HW221579   5.342   5.765   0.257
 6894SOL     OW21580   6.304   5.414   6.893
 6894SOL    HW121581   6.286   5.405   6.991
 6894SOL    HW221582   6.332   5.325   6.856
 6895SOL     OW21583   2.844   5.461   6.288
 6895SOL    HW121584   2.928   5.480   6.237
 6895SOL    HW221585   2.867   5.435   6.381
 6896SOL     OW21586   2.124   0.036   3.938
 6896SOL    HW121587   2.114   0.030   4.037
 6896SOL    HW221588   2.076   0.117   3.904
 6897SOL     OW21589   2.876   3.310   6.927
 6897SOL    HW121590   2.776   3.317   6.938
 6897SOL    HW221591   2.900   3.326   6.831
 6898SOL     OW21592   4.092   1.659   2.309
 6898SOL    HW121593   4.155   1.729   2.342
 6898SOL    HW221594   4.006   1.664   2.361
 6899SOL     OW21595   4.890   6.850   0.950
 6899SOL    HW121596   4.853   6.876   1.039
 6899SOL    HW221597   4.874   6.752   0.935
 6900SOL     OW21598   6.449   0.820   5.645
 6900SOL    HW121599   6.488   0.775   5.565
 6900SOL    HW221600   6.414   0.910   5.619
 6901SOL     OW21601   0.512   6.812   6.216
 6901SOL    HW121602   0.544   6.906   6.218
 6901SOL    HW221603   0.419   6.808   6.179
 6902SOL     OW21604   6.380   6.622   0.726
 6902SOL    HW121605   6.396   6.718   0.700
 6902SOL    HW221606   6.360   6.568   0.644
 6903SOL     OW21607   4.436   5.051   4.626
 6903SOL    HW121608   4.370   5.001   4.682
 6903SOL    HW221609   4.513   4.991   4.604
 6904SOL     OW21610   5.802   1.974   4.080
 6904SOL    HW121611   5.729   2.031   4.040
 6904SOL    HW221612   5.824   1.900   4.017
 6905SOL     OW21613   5.711   6.826   0.139
 6905SOL    HW121614   5.638   6.859   0.198
 6905SOL    HW221615   5.800   6.845   0.181
 6906SOL     OW21616   4.399   0.662   4.117
 6906SOL    HW121617   4.365   0.592   4.055
 6906SOL    HW221618   4.328   0.688   4.182
 6907SOL     OW21619   4.817   1.611   1.213
 6907SOL    HW121620   4.803   1.692   1.156
 6907SOL    HW221621   4.801   1.635   1.309
 6908SOL     OW21622   1.136   6.725   5.612
 6908SOL    HW121623   1.196   6.691   5.685
 6908SOL    HW221624   1.053   6.764   5.653
 6909SOL     OW21625   5.519   4.197   1.449
 6909SOL    HW121626   5.570   4.114   1.426
 6909SOL    HW221627   5.499   4.248   1.366
 6910SOL     OW21628   6.880   2.158   3.787
 6910SOL    HW121629   6.915   2.094   3.856
 6910SOL    HW221630   6.833   2.107   3.715
 6911SOL     OW21631   4.287   6.704   3.505
 6911SOL    HW121632   4.228   6.785   3.507
 6911SOL    HW221633   4.285   6.663   3.414
 6912SOL     OW21634   4.260   5.212   0.193
 6912SOL    HW121635   4.165   5.224   0.168
 6912SOL    HW221636   4.267   5.192   0.291
 6913SOL     OW21637   5.743   4.446   6.294
 6913SOL    HW121638   5.696   4.364   6.326
 6913SOL    HW221639   5.796   4.424   6.212
 6914SOL     OW21640   5.994   4.975   6.963
 6914SOL    HW121641   6.028   4.943   6.874
 6914SOL    HW221642   5.969   5.072   6.956
 6915SOL     OW21643   5.803   4.630   1.575
 6915SOL    HW121644   5.851   4.577   1.645
 6915SOL    HW221645   5.851   4.622   1.487
 6916SOL     OW21646   5.883   3.648   0.438
 6916SOL    HW121647   5.953   3.718   0.421
 6916SOL    HW221648   5.914   3.560   0.403
 6917SOL     OW21649   3.284   5.885   0.743
 6917SOL    HW121650   3.260   5.814   0.809
 6917SOL    HW221651   3.371   5.927   0.769
 6918SOL     OW21652   1.284   3.160   4.657
 6918SOL    HW121653   1.343   3.091   4.616
 6918SOL    HW221654   1.291   3.154   4.757
 6919SOL     OW21655   0.574   6.490   3.195
 6919SOL    HW121656   0.628   6.466   3.114
 6919SOL    HW221657   0.546   6.586   3.188
 6920SOL     OW21658   4.515   5.695   5.713
 6920SOL    HW121659   4.500   5.709   5.811
 6920SOL    HW221660   4.436   5.730   5.663
 6921SOL     OW21661   4.924   5.982   3.044
 6921SOL    HW121662   4.832   6.021   3.056
 6921SOL    HW221663   4.926   5.889   3.080
 6922SOL     OW21664   2.370   5.898   6.537
 6922SOL    HW121665   2.345   5.955   6.459
 6922SOL    HW221666   2.303   5.824   6.546
 6923SOL     OW21667   4.683   5.566   3.777
 6923SOL    HW121668   4.705   5.530   3.686
 6923SOL    HW221669   4.743   5.643   3.797
 6924SOL     OW21670   1.192   4.473   0.151
 6924SOL    HW121671   1.288   4.454   0.172
 6924SOL    HW221672   1.186   4.520   0.063
 6925SOL     OW21673   4.157   5.772   4.529
 6925SOL    HW121674   4.092   5.739   4.461
 6925SOL    HW221675   4.227   5.702   4.546
 6926SOL     OW21676   3.140   3.116   2.506
 6926SOL    HW121677   3.179   3.084   2.420
 6926SOL    HW221678   3.067   3.182   2.488
 6927SOL     OW21679   5.036   3.558   5.539
 6927SOL    HW121680   5.026   3.596   5.631
 6927SOL    HW221681   5.099   3.480   5.541
 6928SOL     OW21682   6.701   6.454   1.333
 6928SOL    HW121683   6.604   6.428   1.325
 6928SOL    HW221684   6.739   6.468   1.242
 6929SOL     OW21685   4.820   5.315   1.212
 6929SOL    HW121686   4.831   5.342   1.307
 6929SOL    HW221687   4.833   5.394   1.153
 6930SOL     OW21688   0.130   0.261   1.880
 6930SOL    HW121689   0.053   0.283   1.820
 6930SOL    HW221690   0.209   0.317   1.855
 6931SOL     OW21691   1.438   0.832   2.462
 6931SOL    HW121692   1.402   0.744   2.492
 6931SOL    HW221693   1.536   0.825   2.446
 6932SOL     OW21694   4.168   0.306   1.070
 6932SOL    HW121695   4.158   0.322   0.972
 6932SOL    HW221696   4.237   0.368   1.107
 6933SOL     OW21697   3.053   5.864   5.263
 6933SOL    HW121698   3.064   5.846   5.165
 6933SOL    HW221699   3.075   5.960   5.281
 6934SOL     OW21700   5.299   4.284   6.269
 6934SOL    HW121701   5.286   4.360   6.205
 6934SOL    HW221702   5.381   4.232   6.243
 6935SOL     OW21703   4.722   6.046   3.897
 6935SOL    HW121704   4.669   6.034   3.981
 6935SOL    HW221705   4.759   5.957   3.869
 6936SOL     OW21706   6.490   2.873   3.113
 6936SOL    HW121707   6.580   2.860   3.155
 6936SOL    HW221708   6.422   2.888   3.186
 6937SOL     OW21709   6.406   6.075   0.240
 6937SOL    HW121710   6.396   6.134   0.320
 6937SOL    HW221711   6.349   6.110   0.166
 6938SOL     OW21712   4.786   3.601   5.417
 6938SOL    HW121713   4.766   3.573   5.324
 6938SOL    HW221714   4.882   3.583   5.438
 6939SOL     OW21715   0.054   4.201   1.291
 6939SOL    HW121716   0.032   4.255   1.210
 6939SOL    HW221717   0.062   4.261   1.370
 6940SOL     OW21718   5.195   0.717   0.422
 6940SOL    HW121719   5.253   0.714   0.341
 6940SOL    HW221720   5.221   0.795   0.479
 6941SOL     OW21721   3.130   2.986   3.281
 6941SOL    HW121722   3.183   2.945   3.355
 6941SOL    HW221723   3.184   2.987   3.198
 6942SOL     OW21724   6.571   2.689   0.779
 6942SOL    HW121725   6.518   2.773   0.769
 6942SOL    HW221726   6.629   2.677   0.699
 6943SOL     OW21727   5.279   6.521   6.929
 6943SOL    HW121728   5.228   6.604   6.910
 6943SOL    HW221729   5.252   6.485   7.019
 6944SOL     OW21730   1.792   4.107   5.990
 6944SOL    HW121731   1.831   4.016   5.976
 6944SOL    HW221732   1.825   4.144   6.076
 6945SOL     OW21733   5.858   3.280   6.255
 6945SOL    HW121734   5.793   3.259   6.328
 6945SOL    HW221735   5.817   3.260   6.166
 6946SOL     OW21736   6.395   6.758   1.794
 6946SOL    HW121737   6.332   6.825   1.754
 6946SOL    HW221738   6.391   6.764   1.894
 6947SOL     OW21739   3.238   6.662   5.925
 6947SOL    HW121740   3.233   6.722   5.845
 6947SOL    HW221741   3.330   6.623   5.932
 6948SOL     OW21742   5.482   0.786   6.525
 6948SOL    HW121743   5.570   0.788   6.478
 6948SOL    HW221744   5.490   0.725   6.605
 6949SOL     OW21745   5.165   6.718   4.039
 6949SOL    HW121746   5.107   6.800   4.034
 6949SOL    HW221747   5.211   6.716   4.128
 6950SOL     OW21748   1.742   0.575   4.041
 6950SOL    HW121749   1.820   0.637   4.039
 6950SOL    HW221750   1.657   0.627   4.031
 6951SOL     OW21751   6.317   6.328   6.284
 6951SOL    HW121752   6.376   6.278   6.222
 6951SOL    HW221753   6.338   6.425   6.280
 6952SOL     OW21754   6.978   5.603   4.244
 6952SOL    HW121755   0.001   5.570   4.161
 6952SOL    HW221756   6.933   5.690   4.225
 6953SOL     OW21757   4.447   0.248   6.529
 6953SOL    HW121758   4.521   0.286   6.474
 6953SOL    HW221759   4.409   0.319   6.588
 6954SOL     OW21760   0.507   3.939   4.077
 6954SOL    HW121761   0.599   3.950   4.038
 6954SOL    HW221762   0.449   4.015   4.048
 6955SOL     OW21763   6.663   0.920   2.681
 6955SOL    HW121764   6.612   0.893   2.763
 6955SOL    HW221765   6.703   1.010   2.694
 6956SOL     OW21766   4.681   6.095   3.023
 6956SOL    HW121767   4.619   6.160   3.068
 6956SOL    HW221768   4.637   6.005   3.019
 6957SOL     OW21769   5.876   4.776   0.718
 6957SOL    HW121770   5.828   4.817   0.796
 6957SOL    HW221771   5.809   4.738   0.654
 6958SOL     OW21772   2.801   3.808   5.236
 6958SOL    HW121773   2.865   3.762   5.297
 6958SOL    HW221774   2.827   3.792   5.141
 6959SOL     OW21775   2.847   1.239   4.692
 6959SOL    HW121776   2.808   1.323   4.730
 6959SOL    HW221777   2.792   1.161   4.720
 6960SOL     OW21778   1.250   5.447   1.334
 6960SOL    HW121779   1.330   5.386   1.331
 6960SOL    HW221780   1.190   5.419   1.409
 6961SOL     OW21781   6.528   2.738   4.234
 6961SOL    HW121782   6.600   2.725   4.303
 6961SOL    HW221783   6.469   2.658   4.232
 6962SOL     OW21784   5.504   6.270   2.121
 6962SOL    HW121785   5.490   6.172   2.138
 6962SOL    HW221786   5.453   6.298   2.040
 6963SOL     OW21787   6.918   5.132   0.803
 6963SOL    HW121788   6.828   5.091   0.816
 6963SOL    HW221789   6.972   5.122   0.887
 6964SOL     OW21790   3.637   5.456   4.957
 6964SOL    HW121791   3.691   5.523   4.907
 6964SOL    HW221792   3.544   5.453   4.919
 6965SOL     OW21793   0.574   3.555   6.718
 6965SOL    HW121794   0.531   3.559   6.808
 6965SOL    HW221795   0.561   3.464   6.679
 6966SOL     OW21796   0.069   2.360   3.550
 6966SOL    HW121797   0.138   2.431   3.535
 6966SOL    HW221798   0.010   2.387   3.626
 6967SOL     OW21799   1.691   0.769   5.432
 6967SOL    HW121800   1.682   0.835   5.507
 6967SOL    HW221801   1.787   0.765   5.404
 6968SOL     OW21802   4.128   6.500   3.009
 6968SOL    HW121803   4.106   6.433   2.938
 6968SOL    HW221804   4.046   6.519   3.063
 6969SOL     OW21805   3.082   2.054   1.070
 6969SOL    HW121806   3.036   2.108   1.141
 6969SOL    HW221807   3.181   2.053   1.088
 6970SOL     OW21808   4.112   4.029   6.739
 6970SOL    HW121809   4.151   4.115   6.708
 6970SOL    HW221810   4.071   4.042   6.830
 6971SOL     OW21811   6.654   4.349   1.348
 6971SOL    HW121812   6.641   4.335   1.250
 6971SOL    HW221813   6.671   4.445   1.366
 6972SOL     OW21814   5.268   4.756   3.827
 6972SOL    HW121815   5.290   4.754   3.925
 6972SOL    HW221816   5.341   4.712   3.776
 6973SOL     OW21817   1.294   3.769   5.523
 6973SOL    HW121818   1.315   3.743   5.617
 6973SOL    HW221819   1.380   3.781   5.473
 6974SOL     OW21820   3.680   2.911   3.171
 6974SOL    HW121821   3.740   2.980   3.131
 6974SOL    HW221822   3.608   2.887   3.106
 6975SOL     OW21823   2.068   5.946   5.734
 6975SOL    HW121824   1.983   5.896   5.720
 6975SOL    HW221825   2.140   5.882   5.763
 6976SOL     OW21826   4.335   5.375   5.099
 6976SOL    HW121827   4.417   5.394   5.044
 6976SOL    HW221828   4.257   5.423   5.061
 6977SOL     OW21829   4.415   2.553   1.827
 6977SOL    HW121830   4.376   2.590   1.742
 6977SOL    HW221831   4.509   2.523   1.810
 6978SOL     OW21832   4.920   1.503   2.017
 6978SOL    HW121833   4.888   1.597   2.029
 6978SOL    HW221834   4.956   1.491   1.925
 6979SOL     OW21835   1.157   4.561   0.847
 6979SOL    HW121836   1.225   4.634   0.847
 6979SOL    HW221837   1.203   4.473   0.832
 6980SOL     OW21838   1.084   1.396   3.557
 6980SOL    HW121839   1.119   1.307   3.588
 6980SOL    HW221840   1.149   1.438   3.494
 6981SOL     OW21841   3.070   3.397   6.382
 6981SOL    HW121842   3.080   3.403   6.283
 6981SOL    HW221843   2.996   3.333   6.404
 6982SOL     OW21844   1.485   1.024   4.521
 6982SOL    HW121845   1.459   0.963   4.446
 6982SOL    HW221846   1.453   1.116   4.501
 6983SOL     OW21847   5.099   2.006   3.855
 6983SOL    HW121848   5.026   1.958   3.902
 6983SOL    HW221849   5.082   2.003   3.756
 6984SOL     OW21850   2.386   1.941   4.154
 6984SOL    HW121851   2.335   1.872   4.207
 6984SOL    HW221852   2.422   2.010   4.216
 6985SOL     OW21853   4.244   5.281   1.449
 6985SOL    HW121854   4.332   5.322   1.424
 6985SOL    HW221855   4.173   5.351   1.449
 6986SOL     OW21856   2.132   6.343   6.337
 6986SOL    HW121857   2.151   6.432   6.295
 6986SOL    HW221858   2.185   6.334   6.422
 6987SOL     OW21859   0.492   1.808   6.041
 6987SOL    HW121860   0.462   1.849   6.127
 6987SOL    HW221861   0.413   1.792   5.982
 6988SOL     OW21862   6.656   1.074   5.304
 6988SOL    HW121863   6.698   0.984   5.309
 6988SOL    HW221864   6.690   1.131   5.379
 6989SOL     OW21865   0.632   3.551   4.403
 6989SOL    HW121866   0.696   3.613   4.450
 6989SOL    HW221867   0.681   3.504   4.329
 6990SOL     OW21868   5.009   2.076   1.597
 6990SOL    HW121869   5.016   2.134   1.516
 6990SOL    HW221870   5.034   2.129   1.678
 6991SOL     OW21871   3.321   4.966   4.131
 6991SOL    HW121872   3.419   4.957   4.112
 6991SOL    HW221873   3.309   4.987   4.228
 6992SOL     OW21874   5.268   6.650   5.412
 6992SOL    HW121875   5.218   6.604   5.339
 6992SOL    HW221876   5.324   6.723   5.374
 6993SOL     OW21877   0.211   1.331   3.098
 6993SOL    HW121878   0.180   1.246   3.055
 6993SOL    HW221879   0.178   1.334   3.192
 6994SOL     OW21880   0.613   3.168   4.663
 6994SOL    HW121881   0.576   3.084   4.623
 6994SOL    HW221882   0.698   3.193   4.617
 6995SOL     OW21883   6.552   4.565   6.084
 6995SOL    HW121884   6.542   4.664   6.073
 6995SOL    HW221885   6.506   4.518   6.009
 6996SOL     OW21886   2.551   0.518   6.753
 6996SOL    HW121887   2.549   0.618   6.748
 6996SOL    HW221888   2.499   0.487   6.832
 6997SOL     OW21889   5.860   6.509   5.510
 6997SOL    HW121890   5.859   6.457   5.596
 6997SOL    HW221891   5.766   6.533   5.485
 6998SOL     OW21892   1.994   2.016   0.796
 6998SOL    HW121893   2.094   2.020   0.789
 6998SOL    HW221894   1.965   2.052   0.884
 6999SOL     OW21895   2.789   2.685   5.853
 6999SOL    HW121896   2.826   2.703   5.762
 6999SOL    HW221897   2.713   2.620   5.847
 7000SOL     OW21898   6.345   6.137   1.574
 7000SOL    HW121899   6.396   6.071   1.518
 7000SOL    HW221900   6.406   6.213   1.598
 7001SOL     OW21901   2.341   3.042   5.415
 7001SOL    HW121902   2.388   3.039   5.326
 7001SOL    HW221903   2.383   2.975   5.477
 7002SOL     OW21904   2.664   4.909   3.565
 7002SOL    HW121905   2.581   4.921   3.620
 7002SOL    HW221906   2.664   4.974   3.490
 7003SOL     OW21907   4.163   5.625   6.895
 7003SOL    HW121908   4.217   5.627   6.811
 7003SOL    HW221909   4.147   5.530   6.922
 7004SOL     OW21910   2.010   4.977   1.915
 7004SOL    HW121911   1.976   4.974   1.821
 7004SOL    HW221912   2.066   5.060   1.927
 7005SOL     OW21913   1.680   6.611   0.082
 7005SOL    HW121914   1.607   6.652   0.029
 7005SOL    HW221915   1.754   6.580   0.021
 7006SOL     OW21916   4.980   4.667   4.636
 7006SOL    HW121917   4.930   4.590   4.676
 7006SOL    HW221918   5.054   4.694   4.698
 7007SOL     OW21919   4.458   6.524   4.121
 7007SOL    HW121920   4.448   6.449   4.055
 7007SOL    HW221921   4.517   6.495   4.196
 7008SOL     OW21922   1.382   4.636   4.930
 7008SOL    HW121923   1.394   4.575   4.852
 7008SOL    HW221924   1.418   4.726   4.908
 7009SOL     OW21925   6.501   5.552   2.386
 7009SOL    HW121926   6.567   5.600   2.444
 7009SOL    HW221927   6.524   5.567   2.290
 7010SOL     OW21928   5.171   4.774   5.559
 7010SOL    HW121929   5.173   4.851   5.495
 7010SOL    HW221930   5.264   4.752   5.587
 7011SOL     OW21931   3.550   6.617   5.969
 7011SOL    HW121932   3.547   6.709   6.008
 7011SOL    HW221933   3.618   6.614   5.896
 7012SOL     OW21934   1.823   1.276   2.608
 7012SOL    HW121935   1.875   1.208   2.660
 7012SOL    HW221936   1.836   1.366   2.650
 7013SOL     OW21937   0.716   0.694   0.853
 7013SOL    HW121938   0.677   0.713   0.943
 7013SOL    HW221939   0.746   0.599   0.849
 7014SOL     OW21940   4.530   3.217   1.502
 7014SOL    HW121941   4.579   3.264   1.576
 7014SOL    HW221942   4.477   3.284   1.450
 7015SOL     OW21943   5.771   4.679   2.105
 7015SOL    HW121944   5.813   4.685   2.014
 7015SOL    HW221945   5.682   4.725   2.104
 7016SOL     OW21946   3.540   4.749   1.580
 7016SOL    HW121947   3.586   4.729   1.666
 7016SOL    HW221948   3.502   4.841   1.582
 7017SOL     OW21949   2.331   6.666   2.675
 7017SOL    HW121950   2.332   6.617   2.762
 7017SOL    HW221951   2.401   6.737   2.676
 7018SOL     OW21952   6.086   4.428   4.005
 7018SOL    HW121953   6.092   4.527   3.994
 7018SOL    HW221954   6.130   4.401   4.092
 7019SOL     OW21955   2.463   3.834   6.483
 7019SOL    HW121956   2.551   3.878   6.464
 7019SOL    HW221957   2.437   3.851   6.578
 7020SOL     OW21958   6.166   6.990   6.815
 7020SOL    HW121959   6.071   6.999   6.785
 7020SOL    HW221960   6.226   6.984   6.735
 7021SOL     OW21961   1.535   1.417   5.979
 7021SOL    HW121962   1.579   1.394   6.066
 7021SOL    HW221963   1.519   1.334   5.926
 7022SOL     OW21964   4.642   5.941   0.611
 7022SOL    HW121965   4.717   5.885   0.645
 7022SOL    HW221966   4.653   6.035   0.644
 7023SOL     OW21967   0.672   1.774   3.369
 7023SOL    HW121968   0.717   1.860   3.342
 7023SOL    HW221969   0.723   1.697   3.330
 7024SOL     OW21970   1.596   3.952   5.142
 7024SOL    HW121971   1.654   3.947   5.061
 7024SOL    HW221972   1.505   3.984   5.117
 7025SOL     OW21973   2.555   0.770   0.039
 7025SOL    HW121974   2.600   0.683   0.056
 7025SOL    HW221975   2.485   0.786   0.109
 7026SOL     OW21976   3.189   1.903   2.329
 7026SOL    HW121977   3.144   1.815   2.337
 7026SOL    HW221978   3.134   1.965   2.274
 7027SOL     OW21979   2.411   5.053   3.995
 7027SOL    HW121980   2.344   5.126   3.994
 7027SOL    HW221981   2.486   5.077   4.056
 7028SOL     OW21982   4.914   0.041   4.287
 7028SOL    HW121983   4.831   0.091   4.263
 7028SOL    HW221984   4.994   0.098   4.267
 7029SOL     OW21985   5.116   5.447   6.019
 7029SOL    HW121986   5.134   5.527   6.076
 7029SOL    HW221987   5.034   5.400   6.051
 7030SOL     OW21988   0.234   1.653   4.848
 7030SOL    HW121989   0.200   1.576   4.795
 7030SOL    HW221990   0.332   1.666   4.831
 7031SOL     OW21991   1.813   6.165   5.078
 7031SOL    HW121992   1.785   6.259   5.061
 7031SOL    HW221993   1.882   6.163   5.150
 7032SOL     OW21994   3.406   0.365   3.675
 7032SOL    HW121995   3.385   0.272   3.704
 7032SOL    HW221996   3.340   0.394   3.606
 7033SOL     OW21997   1.456   2.320   3.605
 7033SOL    HW121998   1.514   2.242   3.580
 7033SOL    HW221999   1.461   2.390   3.534
 7034SOL     OW22000   6.662   0.169   3.257
 7034SOL    HW122001   6.706   0.132   3.339
 7034SOL    HW222002   6.689   0.115   3.177
 7035SOL     OW22003   1.688   6.027   1.444
 7035SOL    HW122004   1.752   6.067   1.509
 7035SOL    HW222005   1.595   6.056   1.467
 7036SOL     OW22006   0.361   0.871   3.020
 7036SOL    HW122007   0.444   0.873   2.963
 7036SOL    HW222008   0.339   0.776   3.043
 7037SOL     OW22009   1.850   0.525   6.641
 7037SOL    HW122010   1.866   0.539   6.738
 7037SOL    HW222011   1.766   0.572   6.613
 7038SOL     OW22012   1.457   3.030   4.473
 7038SOL    HW122013   1.441   2.932   4.459
 7038SOL    HW222014   1.471   3.074   4.384
 7039SOL     OW22015   2.782   4.760   1.407
 7039SOL    HW122016   2.726   4.693   1.359
 7039SOL    HW222017   2.723   4.835   1.439
 7040SOL     OW22018   6.501   1.920   4.981
 7040SOL    HW122019   6.454   1.981   4.917
 7040SOL    HW222020   6.476   1.825   4.961
 7041SOL     OW22021   0.812   2.375   1.573
 7041SOL    HW122022   0.908   2.371   1.599
 7041SOL    HW222023   0.755   2.383   1.655
 7042SOL     OW22024   5.560   5.771   6.164
 7042SOL    HW122025   5.544   5.778   6.262
 7042SOL    HW222026   5.652   5.738   6.147
 7043SOL     OW22027   2.137   3.629   2.388
 7043SOL    HW122028   2.134   3.574   2.471
 7043SOL    HW222029   2.095   3.579   2.312
 7044SOL     OW22030   4.576   5.181   3.267
 7044SOL    HW122031   4.525   5.177   3.352
 7044SOL    HW222032   4.539   5.253   3.209
 7045SOL     OW22033   5.112   5.729   2.788
 7045SOL    HW122034   5.108   5.641   2.741
 7045SOL    HW222035   5.024   5.748   2.830
 7046SOL     OW22036   3.237   1.735   2.990
 7046SOL    HW122037   3.194   1.810   2.940
 7046SOL    HW222038   3.332   1.760   3.011
 7047SOL     OW22039   1.041   2.332   1.861
 7047SOL    HW122040   0.977   2.309   1.934
 7047SOL    HW222041   1.006   2.410   1.809
 7048SOL     OW22042   6.735   6.234   2.872
 7048SOL    HW122043   6.819   6.194   2.836
 7048SOL    HW222044   6.705   6.309   2.812
 7049SOL     OW22045   3.359   1.639   0.783
 7049SOL    HW122046   3.263   1.614   0.785
 7049SOL    HW222047   3.391   1.644   0.688
 7050SOL     OW22048   3.870   4.030   2.395
 7050SOL    HW122049   3.798   3.992   2.338
 7050SOL    HW222050   3.957   4.030   2.344
 7051SOL     OW22051   0.160   0.404   1.214
 7051SOL    HW122052   0.098   0.426   1.138
 7051SOL    HW222053   0.248   0.448   1.199
 7052SOL     OW22054   5.669   2.930   3.566
 7052SOL    HW122055   5.654   2.831   3.570
 7052SOL    HW222056   5.703   2.956   3.476
 7053SOL     OW22057   0.814   3.747   5.049
 7053SOL    HW122058   0.779   3.691   4.974
 7053SOL    HW222059   0.741   3.804   5.086
 7054SOL     OW22060   0.679   6.256   0.467
 7054SOL    HW122061   0.770   6.214   0.475
 7054SOL    HW222062   0.689   6.356   0.465
 7055SOL     OW22063   3.537   6.037   5.231
 7055SOL    HW122064   3.561   5.946   5.196
 7055SOL    HW222065   3.520   6.031   5.329
 7056SOL     OW22066   5.797   5.705   2.439
 7056SOL    HW122067   5.788   5.606   2.427
 7056SOL    HW222068   5.893   5.731   2.437
 7057SOL     OW22069   1.009   5.979   3.514
 7057SOL    HW122070   0.981   6.019   3.427
 7057SOL    HW222071   0.997   5.880   3.510
 7058SOL     OW22072   7.005   6.025   6.137
 7058SOL    HW122073   0.042   6.002   6.214
 7058SOL    HW222074   6.971   6.119   6.148
 7059SOL     OW22075   6.469   0.967   4.111
 7059SOL    HW122076   6.544   0.902   4.098
 7059SOL    HW222077   6.502   1.044   4.166
 7060SOL     OW22078   4.059   0.068   1.678
 7060SOL    HW122079   4.081   0.137   1.747
 7060SOL    HW222080   3.997   0.108   1.610
 7061SOL     OW22081   0.830   3.235   3.831
 7061SOL    HW122082   0.770   3.255   3.909
 7061SOL    HW222083   0.896   3.309   3.820
 7062SOL     OW22084   5.155   1.233   5.491
 7062SOL    HW122085   5.084   1.272   5.549
 7062SOL    HW222086   5.227   1.300   5.477
 7063SOL     OW22087   0.664   0.549   1.508
 7063SOL    HW122088   0.708   0.624   1.459
 7063SOL    HW222089   0.734   0.490   1.548
 7064SOL     OW22090   4.089   2.048   1.706
 7064SOL    HW122091   3.997   2.087   1.697
 7064SOL    HW222092   4.084   1.949   1.697
 7065SOL     OW22093   3.845   4.019   6.277
 7065SOL    HW122094   3.943   4.010   6.263
 7065SOL    HW222095   3.798   4.024   6.189
 7066SOL     OW22096   4.534   6.875   0.754
 7066SOL    HW122097   4.439   6.848   0.734
 7066SOL    HW222098   4.539   6.912   0.846
 7067SOL     OW22099   1.771   2.041   5.331
 7067SOL    HW122100   1.722   2.070   5.413
 7067SOL    HW222101   1.845   2.106   5.312
 7068SOL     OW22102   0.329   4.139   4.015
 7068SOL    HW122103   0.292   4.202   3.946
 7068SOL    HW222104   0.285   4.158   4.103
 7069SOL     OW22105   5.705   1.743   4.237
 7069SOL    HW122106   5.757   1.829   4.238
 7069SOL    HW222107   5.712   1.702   4.146
 7070SOL     OW22108   6.243   6.564   4.844
 7070SOL    HW122109   6.335   6.582   4.878
 7070SOL    HW222110   6.187   6.526   4.917
 7071SOL     OW22111   1.907   6.190   6.395
 7071SOL    HW122112   1.989   6.247   6.397
 7071SOL    HW222113   1.931   6.097   6.425
 7072SOL     OW22114   1.016   6.490   0.058
 7072SOL    HW122115   1.003   6.415   7.016
 7072SOL    HW222116   0.979   6.464   0.147
 7073SOL     OW22117   5.288   6.962   4.585
 7073SOL    HW122118   5.253   6.965   4.492
 7073SOL    HW222119   5.316   0.031   4.613
 7074SOL     OW22120   4.585   1.904   1.986
 7074SOL    HW122121   4.628   1.994   1.996
 7074SOL    HW222122   4.492   1.908   2.023
 7075SOL     OW22123   1.777   5.150   4.980
 7075SOL    HW122124   1.762   5.124   5.076
 7075SOL    HW222125   1.865   5.195   4.971
 7076SOL     OW22126   5.497   2.286   7.012
 7076SOL    HW122127   5.571   2.353   7.020
 7076SOL    HW222128   5.512   2.212   0.055
 7077SOL     OW22129   2.293   4.247   4.408
 7077SOL    HW122130   2.258   4.300   4.484
 7077SOL    HW222131   2.266   4.151   4.419
 7078SOL     OW22132   0.215   6.802   1.309
 7078SOL    HW122133   0.131   6.775   1.262
 7078SOL    HW222134   0.216   6.763   1.400
 7079SOL     OW22135   6.553   6.551   4.689
 7079SOL    HW122136   6.522   6.615   4.760
 7079SOL    HW222137   6.520   6.581   4.600
 7080SOL     OW22138   2.719   2.413   3.894
 7080SOL    HW122139   2.806   2.365   3.902
 7080SOL    HW222140   2.698   2.459   3.981
 7081SOL     OW22141   3.122   0.732   6.782
 7081SOL    HW122142   3.212   0.774   6.775
 7081SOL    HW222143   3.052   0.803   6.771
 7082SOL     OW22144   5.852   4.786   6.618
 7082SOL    HW122145   5.941   4.831   6.629
 7082SOL    HW222146   5.791   4.814   6.692
 7083SOL     OW22147   2.757   0.555   0.654
 7083SOL    HW122148   2.710   0.594   0.575
 7083SOL    HW222149   2.697   0.489   0.699
 7084SOL     OW22150   0.455   6.604   5.731
 7084SOL    HW122151   0.373   6.550   5.749
 7084SOL    HW222152   0.535   6.556   5.767
 7085SOL     OW22153   1.203   2.085   1.861
 7085SOL    HW122154   1.160   2.170   1.888
 7085SOL    HW222155   1.218   2.084   1.762
 7086SOL     OW22156   5.274   1.136   5.246
 7086SOL    HW122157   5.220   1.162   5.326
 7086SOL    HW222158   5.323   1.051   5.265
 7087SOL     OW22159   6.299   3.208   3.892
 7087SOL    HW122160   6.295   3.290   3.949
 7087SOL    HW222161   6.208   3.188   3.856
 7088SOL     OW22162   5.291   2.579   2.980
 7088SOL    HW122163   5.251   2.492   3.006
 7088SOL    HW222164   5.325   2.574   2.886
 7089SOL     OW22165   3.140   2.153   4.756
 7089SOL    HW122166   3.141   2.208   4.840
 7089SOL    HW222167   3.073   2.192   4.692
 7090SOL     OW22168   2.562   0.769   6.799
 7090SOL    HW122169   2.552   0.804   6.892
 7090SOL    HW222170   2.622   0.829   6.747
 7091SOL     OW22171   0.624   1.595   6.849
 7091SOL    HW122172   0.667   1.592   6.759
 7091SOL    HW222173   0.628   1.688   6.885
 7092SOL     OW22174   4.466   2.634   6.034
 7092SOL    HW122175   4.488   2.684   6.118
 7092SOL    HW222176   4.394   2.683   5.985
 7093SOL     OW22177   3.094   3.944   3.669
 7093SOL    HW122178   3.071   3.899   3.755
 7093SOL    HW222179   3.177   3.999   3.681
 7094SOL     OW22180   0.818   5.993   6.057
 7094SOL    HW122181   0.853   5.974   5.965
 7094SOL    HW222182   0.839   5.916   6.118
 7095SOL     OW22183   3.032   3.677   6.089
 7095SOL    HW122184   3.100   3.749   6.104
 7095SOL    HW222185   2.980   3.697   6.006
 7096SOL     OW22186   6.432   1.060   3.867
 7096SOL    HW122187   6.515   1.050   3.812
 7096SOL    HW222188   6.445   1.016   3.956
 7097SOL     OW22189   5.979   1.301   0.952
 7097SOL    HW122190   6.019   1.376   0.899
 7097SOL    HW222191   5.880   1.300   0.939
 7098SOL     OW22192   1.237   0.083   5.013
 7098SOL    HW122193   1.164   0.040   4.959
 7098SOL    HW222194   1.323   0.081   4.961
 7099SOL     OW22195   2.864   0.894   5.223
 7099SOL    HW122196   2.802   0.919   5.297
 7099SOL    HW222197   2.904   0.805   5.243
 7100SOL     OW22198   5.446   2.377   1.244
 7100SOL    HW122199   5.386   2.329   1.308
 7100SOL    HW222200   5.506   2.312   1.199
 7101SOL     OW22201   2.303   1.322   4.823
 7101SOL    HW122202   2.207   1.322   4.795
 7101SOL    HW222203   2.308   1.328   4.923
 7102SOL     OW22204   4.452   0.378   0.860
 7102SOL    HW122205   4.472   0.453   0.924
 7102SOL    HW222206   4.508   0.390   0.778
 7103SOL     OW22207   4.689   4.931   1.895
 7103SOL    HW122208   4.781   4.962   1.872
 7103SOL    HW222209   4.687   4.899   1.989
 7104SOL     OW22210   0.746   2.808   4.420
 7104SOL    HW122211   0.694   2.799   4.505
 7104SOL    HW222212   0.810   2.731   4.412
 7105SOL     OW22213   2.947   2.965   5.291
 7105SOL    HW122214   2.980   2.984   5.383
 7105SOL    HW222215   2.901   2.876   5.290
 7106SOL     OW22216   3.062   3.784   2.727
 7106SOL    HW122217   3.107   3.699   2.755
 7106SOL    HW222218   3.067   3.851   2.802
 7107SOL     OW22219   3.750   1.594   0.365
 7107SOL    HW122220   3.840   1.623   0.333
 7107SOL    HW222221   3.689   1.582   0.286
 7108SOL     OW22222   4.525   5.964   2.446
 7108SOL    HW122223   4.548   6.052   2.489
 7108SOL    HW222224   4.540   5.970   2.347
 7109SOL     OW22225   2.459   0.705   5.743
 7109SOL    HW122226   2.455   0.695   5.843
 7109SOL    HW222227   2.385   0.652   5.702
 7110SOL     OW22228   3.395   5.827   4.613
 7110SOL    HW122229   3.327   5.771   4.659
 7110SOL    HW222230   3.446   5.880   4.681
 7111SOL     OW22231   1.307   1.823   4.120
 7111SOL    HW122232   1.214   1.822   4.157
 7111SOL    HW222233   1.371   1.793   4.191
 7112SOL     OW22234   1.282   5.885   4.295
 7112SOL    HW122235   1.239   5.860   4.382
 7112SOL    HW222236   1.257   5.979   4.272
 7113SOL     OW22237   3.587   4.105   5.240
 7113SOL    HW122238   3.554   4.014   5.214
 7113SOL    HW222239   3.511   4.169   5.241
 7114SOL     OW22240   3.727   6.806   1.579
 7114SOL    HW122241   3.723   6.866   1.499
 7114SOL    HW222242   3.634   6.792   1.614
 7115SOL     OW22243   5.552   3.328   1.633
 7115SOL    HW122244   5.471   3.279   1.601
 7115SOL    HW222245   5.634   3.282   1.601
 7116SOL     OW22246   6.222   4.259   2.989
 7116SOL    HW122247   6.291   4.188   2.977
 7116SOL    HW222248   6.167   4.266   2.905
 7117SOL     OW22249   0.009   6.165   5.010
 7117SOL    HW122250   0.089   6.225   5.012
 7117SOL    HW222251   0.034   6.076   5.047
 7118SOL     OW22252   2.892   3.507   1.038
 7118SOL    HW122253   2.823   3.434   1.036
 7118SOL    HW222254   2.946   3.500   1.122
 7119SOL     OW22255   5.354   2.112   2.762
 7119SOL    HW122256   5.432   2.132   2.704
 7119SOL    HW222257   5.288   2.056   2.712
 7120SOL     OW22258   3.605   1.784   2.514
 7120SOL    HW122259   3.552   1.702   2.494
 7120SOL    HW222260   3.551   1.845   2.573
 7121SOL     OW22261   2.092   6.839   3.051
 7121SOL    HW122262   2.110   6.793   3.139
 7121SOL    HW222263   2.058   6.772   2.985
 7122SOL     OW22264   0.921   6.969   5.962
 7122SOL    HW122265   0.838   6.919   5.942
 7122SOL    HW222266   0.922   0.032   5.910
 7123SOL     OW22267   2.144   4.559   3.060
 7123SOL    HW122268   2.109   4.524   3.146
 7123SOL    HW222269   2.135   4.659   3.058
 7124SOL     OW22270   0.173   2.088   0.751
 7124SOL    HW122271   0.165   1.989   0.767
 7124SOL    HW222272   0.210   2.132   0.833
 7125SOL     OW22273   0.246   6.825   0.788
 7125SOL    HW122274   0.201   6.796   0.703
 7125SOL    HW222275   0.335   6.864   0.766
 7126SOL     OW22276   3.085   5.330   0.262
 7126SOL    HW122277   3.183   5.342   0.250
 7126SOL    HW222278   3.047   5.407   0.313
 7127SOL     OW22279   1.406   5.502   5.273
 7127SOL    HW122280   1.370   5.433   5.336
 7127SOL    HW222281   1.474   5.558   5.321
 7128SOL     OW22282   3.175   4.611   0.885
 7128SOL    HW122283   3.172   4.597   0.984
 7128SOL    HW222284   3.088   4.652   0.854
 7129SOL     OW22285   2.194   1.511   6.875
 7129SOL    HW122286   2.198   1.524   6.975
 7129SOL    HW222287   2.287   1.506   6.839
 7130SOL     OW22288   4.059   5.825   5.371
 7130SOL    HW122289   3.970   5.782   5.356
 7130SOL    HW222290   4.096   5.854   5.283
 7131SOL     OW22291   2.793   0.731   1.003
 7131SOL    HW122292   2.825   0.650   0.955
 7131SOL    HW222293   2.716   0.771   0.953
 7132SOL     OW22294   3.748   4.097   6.831
 7132SOL    HW122295   3.770   4.072   6.737
 7132SOL    HW222296   3.748   4.196   6.841
 7133SOL     OW22297   5.589   5.561   5.739
 7133SOL    HW122298   5.595   5.650   5.694
 7133SOL    HW222299   5.495   5.527   5.734
 7134SOL     OW22300   5.715   6.693   1.822
 7134SOL    HW122301   5.637   6.707   1.883
 7134SOL    HW222302   5.684   6.658   1.734
 7135SOL     OW22303   1.118   3.464   3.463
 7135SOL    HW122304   1.118   3.475   3.364
 7135SOL    HW222305   1.162   3.377   3.487
 7136SOL     OW22306   2.314   2.658   0.982
 7136SOL    HW122307   2.264   2.586   0.934
 7136SOL    HW222308   2.381   2.617   1.044
 7137SOL     OW22309   3.740   0.108   6.864
 7137SOL    HW122310   3.827   0.137   6.903
 7137SOL    HW222311   3.679   0.188   6.858
 7138SOL     OW22312   1.478   2.441   6.923
 7138SOL    HW122313   1.425   2.457   7.006
 7138SOL    HW222314   1.424   2.467   6.843
 7139SOL     OW22315   5.509   3.608   1.622
 7139SOL    HW122316   5.534   3.512   1.611
 7139SOL    HW222317   5.496   3.629   1.718
 7140SOL     OW22318   5.604   4.398   3.816
 7140SOL    HW122319   5.613   4.331   3.890
 7140SOL    HW222320   5.660   4.478   3.838
 7141SOL     OW22321   3.294   6.165   2.051
 7141SOL    HW122322   3.341   6.247   2.019
 7141SOL    HW222323   3.250   6.119   1.973
 7142SOL     OW22324   4.566   0.464   3.496
 7142SOL    HW122325   4.467   0.454   3.489
 7142SOL    HW222326   4.592   0.556   3.465
 7143SOL     OW22327   1.365   2.345   6.229
 7143SOL    HW122328   1.461   2.330   6.252
 7143SOL    HW222329   1.345   2.303   6.141
 7144SOL     OW22330   2.147   2.485   1.975
 7144SOL    HW122331   2.157   2.576   2.015
 7144SOL    HW222332   2.151   2.416   2.047
 7145SOL     OW22333   4.137   6.919   0.057
 7145SOL    HW122334   4.223   6.930   0.106
 7145SOL    HW222335   4.096   6.831   0.082
 7146SOL     OW22336   2.080   0.226   1.466
 7146SOL    HW122337   2.066   0.162   1.542
 7146SOL    HW222338   2.109   0.175   1.385
 7147SOL     OW22339   0.459   0.157   3.540
 7147SOL    HW122340   0.462   0.121   3.447
 7147SOL    HW222341   0.537   0.217   3.555
 7148SOL     OW22342   1.075   6.088   0.710
 7148SOL    HW122343   1.150   6.143   0.745
 7148SOL    HW222344   1.055   6.015   0.776
 7149SOL     OW22345   6.175   6.955   2.937
 7149SOL    HW122346   6.243   6.903   2.989
 7149SOL    HW222347   6.138   6.898   2.864
 7150SOL     OW22348   3.443   2.028   2.424
 7150SOL    HW122349   3.498   2.007   2.344
 7150SOL    HW222350   3.353   1.985   2.414
 7151SOL     OW22351   2.001   6.133   0.759
 7151SOL    HW122352   1.993   6.056   0.823
 7151SOL    HW222353   2.043   6.211   0.804
 7152SOL     OW22354   0.946   0.813   5.035
 7152SOL    HW122355   1.020   0.836   4.971
 7152SOL    HW222356   0.973   0.733   5.089
 7153SOL     OW22357   3.274   5.112   2.048
 7153SOL    HW122358   3.201   5.102   2.116
 7153SOL    HW222359   3.320   5.199   2.062
 7154SOL     OW22360   3.686   0.416   3.614
 7154SOL    HW122361   3.709   0.500   3.565
 7154SOL    HW222362   3.587   0.401   3.612
 7155SOL     OW22363   1.769   3.516   1.518
 7155SOL    HW122364   1.797   3.518   1.422
 7155SOL    HW222365   1.780   3.607   1.558
 7156SOL     OW22366   0.201   3.459   4.397
 7156SOL    HW122367   0.132   3.431   4.464
 7156SOL    HW222368   0.292   3.435   4.430
 7157SOL     OW22369   6.523   3.786   1.591
 7157SOL    HW122370   6.489   3.847   1.663
 7157SOL    HW222371   6.594   3.726   1.629
 7158SOL     OW22372   1.231   6.779   3.149
 7158SOL    HW122373   1.313   6.776   3.092
 7158SOL    HW222374   1.154   6.740   3.098
 7159SOL     OW22375   0.588   4.903   2.347
 7159SOL    HW122376   0.615   4.971   2.416
 7159SOL    HW222377   0.505   4.934   2.301
 7160SOL     OW22378   5.442   6.807   2.938
 7160SOL    HW122379   5.379   6.879   2.908
 7160SOL    HW222380   5.403   6.758   3.016
 7161SOL     OW22381   3.151   3.560   4.449
 7161SOL    HW122382   3.109   3.647   4.424
 7161SOL    HW222383   3.206   3.571   4.532
 7162SOL     OW22384   1.435   5.387   6.466
 7162SOL    HW122385   1.516   5.407   6.521
 7162SOL    HW222386   1.407   5.470   6.417
 7163SOL     OW22387   2.602   6.257   3.269
 7163SOL    HW122388   2.529   6.200   3.232
 7163SOL    HW222389   2.565   6.347   3.293
 7164SOL     OW22390   1.745   0.752   3.378
 7164SOL    HW122391   1.650   0.754   3.412
 7164SOL    HW222392   1.788   0.666   3.405
 7165SOL     OW22393   6.859   1.308   2.104
 7165SOL    HW122394   6.953   1.293   2.073
 7165SOL    HW222395   6.832   1.235   2.167
 7166SOL     OW22396   6.125   2.837   0.520
 7166SOL    HW122397   6.177   2.764   0.475
 7166SOL    HW222398   6.070   2.798   0.594
 7167SOL     OW22399   5.275   3.475   3.836
 7167SOL    HW122400   5.349   3.539   3.852
 7167SOL    HW222401   5.189   3.513   3.871
 7168SOL     OW22402   1.760   2.752   3.342
 7168SOL    HW122403   1.794   2.660   3.326
 7168SOL    HW222404   1.708   2.783   3.262
 7169SOL     OW22405   0.039   2.503   4.952
 7169SOL    HW122406   0.065   2.438   4.881
 7169SOL    HW222407   0.038   2.596   4.914
 7170SOL     OW22408   5.052   6.126   3.676
 7170SOL    HW122409   4.991   6.200   3.707
 7170SOL    HW222410   5.061   6.130   3.576
 7171SOL     OW22411   4.931   3.499   6.968
 7171SOL    HW122412   5.012   3.539   6.925
 7171SOL    HW222413   4.959   3.444   0.024
 7172SOL     OW22414   1.293   0.115   5.273
 7172SOL    HW122415   1.339   0.203   5.258
 7172SOL    HW222416   1.262   0.079   5.185
 7173SOL     OW22417   0.061   4.139   6.108
 7173SOL    HW122418   0.135   4.184   6.157
 7173SOL    HW222419   0.099   4.070   6.046
 7174SOL     OW22420   0.640   4.566   0.265
 7174SOL    HW122421   0.711   4.532   0.326
 7174SOL    HW222422   0.669   4.652   0.224
 7175SOL     OW22423   5.345   2.613   6.771
 7175SOL    HW122424   5.251   2.579   6.779
 7175SOL    HW222425   5.408   2.536   6.776
 7176SOL     OW22426   0.732   0.099   2.903
 7176SOL    HW122427   0.662   0.029   2.920
 7176SOL    HW222428   0.820   0.069   2.939
 7177SOL     OW22429   1.697   5.799   4.616
 7177SOL    HW122430   1.792   5.828   4.627
 7177SOL    HW222431   1.637   5.879   4.621
 7178SOL     OW22432   2.357   2.290   5.773
 7178SOL    HW122433   2.334   2.254   5.683
 7178SOL    HW222434   2.453   2.271   5.793
 7179SOL     OW22435   1.957   3.832   4.269
 7179SOL    HW122436   2.037   3.795   4.222
 7179SOL    HW222437   1.893   3.869   4.202
 7180SOL     OW22438   2.544   5.167   0.225
 7180SOL    HW122439   2.468   5.120   0.271
 7180SOL    HW222440   2.628   5.151   0.275
 7181SOL     OW22441   2.055   6.362   0.041
 7181SOL    HW122442   2.070   6.415   0.125
 7181SOL    HW222443   1.967   6.386   0.002
 7182SOL     OW22444   1.285   2.825   4.986
 7182SOL    HW122445   1.381   2.811   5.011
 7182SOL    HW222446   1.268   2.785   4.896
 7183SOL     OW22447   2.409   5.941   0.485
 7183SOL    HW122448   2.488   6.000   0.500
 7183SOL    HW222449   2.347   5.947   0.564
 7184SOL     OW22450   6.514   1.164   3.286
 7184SOL    HW122451   6.464   1.117   3.358
 7184SOL    HW222452   6.586   1.221   3.327
 7185SOL     OW22453   5.379   0.491   5.016
 7185SOL    HW122454   5.309   0.547   5.061
 7185SOL    HW222455   5.341   0.402   4.993
 7186SOL     OW22456   6.564   0.966   6.560
 7186SOL    HW122457   6.634   0.901   6.590
 7186SOL    HW222458   6.594   1.059   6.583
 7187SOL     OW22459   3.402   4.924   6.582
 7187SOL    HW122460   3.465   5.000   6.595
 7187SOL    HW222461   3.310   4.951   6.611
 7188SOL     OW22462   6.657   0.200   0.550
 7188SOL    HW122463   6.660   0.266   0.475
 7188SOL    HW222464   6.562   0.178   0.571
 7189SOL     OW22465   0.307   1.289   5.939
 7189SOL    HW122466   0.297   1.193   5.964
 7189SOL    HW222467   0.346   1.340   6.016
 7190SOL     OW22468   0.130   3.558   2.999
 7190SOL    HW122469   0.058   3.498   3.032
 7190SOL    HW222470   0.089   3.645   2.970
 7191SOL     OW22471   0.697   4.116   2.925
 7191SOL    HW122472   0.721   4.029   2.968
 7191SOL    HW222473   0.666   4.181   2.995
 7192SOL     OW22474   3.419   4.747   5.606
 7192SOL    HW122475   3.437   4.755   5.508
 7192SOL    HW222476   3.321   4.735   5.622
 7193SOL     OW22477   1.967   2.703   1.926
 7193SOL    HW122478   1.969   2.605   1.907
 7193SOL    HW222479   1.954   2.719   2.023
 7194SOL     OW22480   2.770   1.852   0.253
 7194SOL    HW122481   2.842   1.846   0.185
 7194SOL    HW222482   2.689   1.894   0.213
 7195SOL     OW22483   0.025   4.302   0.091
 7195SOL    HW122484   0.032   4.283   7.015
 7195SOL    HW222485   0.017   4.216   0.141
 7196SOL     OW22486   3.721   4.227   1.084
 7196SOL    HW122487   3.632   4.245   1.041
 7196SOL    HW222488   3.714   4.148   1.144
 7197SOL     OW22489   0.840   2.746   5.614
 7197SOL    HW122490   0.803   2.782   5.699
 7197SOL    HW222491   0.780   2.675   5.579
 7198SOL     OW22492   0.506   0.449   0.192
 7198SOL    HW122493   0.526   0.529   0.248
 7198SOL    HW222494   0.407   0.436   0.185
 7199SOL     OW22495   2.211   0.874   2.904
 7199SOL    HW122496   2.132   0.833   2.859
 7199SOL    HW222497   2.253   0.807   2.965
 7200SOL     OW22498   2.675   2.064   6.972
 7200SOL    HW122499   2.657   2.065   6.874
 7200SOL    HW222500   2.745   2.132   6.994
 7201SOL     OW22501   1.157   5.744   4.087
 7201SOL    HW122502   1.104   5.701   4.160
 7201SOL    HW222503   1.197   5.829   4.121
 7202SOL     OW22504   4.324   0.430   5.901
 7202SOL    HW122505   4.268   0.348   5.886
 7202SOL    HW222506   4.412   0.403   5.941
 7203SOL     OW22507   0.228   1.776   1.077
 7203SOL    HW122508   0.261   1.800   1.169
 7203SOL    HW222509   0.145   1.720   1.086
 7204SOL     OW22510   0.608   0.147   5.499
 7204SOL    HW122511   0.558   0.068   5.465
 7204SOL    HW222512   0.577   0.229   5.452
 7205SOL     OW22513   0.844   5.337   3.630
 7205SOL    HW122514   0.861   5.257   3.689
 7205SOL    HW222515   0.794   5.406   3.681
 7206SOL     OW22516   1.597   0.269   1.306
 7206SOL    HW122517   1.681   0.315   1.335
 7206SOL    HW222518   1.525   0.336   1.291
 7207SOL     OW22519   3.616   0.474   2.740
 7207SOL    HW122520   3.554   0.546   2.772
 7207SOL    HW222521   3.653   0.425   2.818
 7208SOL     OW22522   3.855   6.855   3.280
 7208SOL    HW122523   3.948   6.869   3.246
 7208SOL    HW222524   3.796   6.823   3.205
 7209SOL     OW22525   2.849   3.657   2.427
 7209SOL    HW122526   2.749   3.661   2.428
 7209SOL    HW222527   2.886   3.749   2.420
 7210SOL     OW22528   4.848   0.622   3.733
 7210SOL    HW122529   4.872   0.627   3.636
 7210SOL    HW222530   4.798   0.538   3.750
 7211SOL     OW22531   2.838   6.225   4.055
 7211SOL    HW122532   2.893   6.152   4.097
 7211SOL    HW222533   2.779   6.266   4.124
 7212SOL     OW22534   0.264   6.257   5.042
 7212SOL    HW122535   0.334   6.317   5.002
 7212SOL    HW222536   0.308   6.182   5.090
 7213SOL     OW22537   5.308   6.966   0.497
 7213SOL    HW122538   5.353   6.920   0.574
 7213SOL    HW222539   5.357   6.946   0.413
 7214SOL     OW22540   6.728   5.069   5.529
 7214SOL    HW122541   6.660   5.120   5.475
 7214SOL    HW222542   6.819   5.104   5.509
 7215SOL     OW22543   7.007   3.488   5.410
 7215SOL    HW122544   0.020   3.525   5.324
 7215SOL    HW222545   0.060   3.453   5.465
 7216SOL     OW22546   3.535   6.389   6.563
 7216SOL    HW122547   3.446   6.348   6.584
 7216SOL    HW222548   3.599   6.318   6.535
 7217SOL     OW22549   2.864   4.803   3.034
 7217SOL    HW122550   2.823   4.717   3.005
 7217SOL    HW222551   2.876   4.803   3.133
 7218SOL     OW22552   4.939   2.451   5.320
 7218SOL    HW122553   4.896   2.468   5.232
 7218SOL    HW222554   4.950   2.537   5.369
 7219SOL     OW22555   5.004   0.025   4.579
 7219SOL    HW122556   4.986   0.008   4.482
 7219SOL    HW222557   5.079   6.989   4.610
 7220SOL     OW22558   0.771   5.274   5.034
 7220SOL    HW122559   0.746   5.188   5.078
 7220SOL    HW222560   0.869   5.289   5.042
 7221SOL     OW22561   4.019   5.681   4.323
 7221SOL    HW122562   3.992   5.773   4.292
 7221SOL    HW222563   4.060   5.631   4.247
 7222SOL     OW22564   5.901   0.336   2.917
 7222SOL    HW122565   5.887   0.370   2.825
 7222SOL    HW222566   5.817   0.290   2.949
 7223SOL     OW22567   2.755   1.789   1.329
 7223SOL    HW122568   2.817   1.720   1.293
 7223SOL    HW222569   2.728   1.851   1.256
 7224SOL     OW22570   5.516   1.990   3.749
 7224SOL    HW122571   5.516   1.890   3.743
 7224SOL    HW222572   5.555   2.018   3.837
 7225SOL     OW22573   0.690   5.658   0.475
 7225SOL    HW122574   0.774   5.692   0.518
 7225SOL    HW222575   0.671   5.566   0.507
 7226SOL     OW22576   6.985   1.095   1.147
 7226SOL    HW122577   6.944   1.004   1.155
 7226SOL    HW222578   0.031   1.106   1.220
 7227SOL     OW22579   1.605   1.990   0.999
 7227SOL    HW122580   1.575   1.895   0.999
 7227SOL    HW222581   1.562   2.038   0.922
 7228SOL     OW22582   0.494   1.582   2.324
 7228SOL    HW122583   0.572   1.623   2.277
 7228SOL    HW222584   0.419   1.648   2.326
 7229SOL     OW22585   1.666   6.131   5.658
 7229SOL    HW122586   1.623   6.050   5.618
 7229SOL    HW222587   1.618   6.157   5.741
 7230SOL     OW22588   4.693   5.021   4.175
 7230SOL    HW122589   4.688   4.930   4.135
 7230SOL    HW222590   4.764   5.074   4.130
 7231SOL     OW22591   4.828   0.396   0.126
 7231SOL    HW122592   4.841   0.354   0.216
 7231SOL    HW222593   4.818   0.325   0.056
 7232SOL     OW22594   5.222   5.688   3.038
 7232SOL    HW122595   5.149   5.656   3.098
 7232SOL    HW222596   5.189   5.696   2.944
 7233SOL     OW22597   0.431   2.708   4.312
 7233SOL    HW122598   0.424   2.808   4.308
 7233SOL    HW222599   0.357   2.668   4.258
 7234SOL     OW22600   5.408   3.120   3.206
 7234SOL    HW122601   5.505   3.129   3.181
 7234SOL    HW222602   5.376   3.028   3.183
 7235SOL     OW22603   6.730   4.111   2.179
 7235SOL    HW122604   6.648   4.143   2.226
 7235SOL    HW222605   6.709   4.030   2.125
 7236SOL     OW22606   2.141   2.222   2.153
 7236SOL    HW122607   2.231   2.233   2.196
 7236SOL    HW222608   2.152   2.186   2.061
 7237SOL     OW22609   5.169   1.130   4.754
 7237SOL    HW122610   5.198   1.075   4.833
 7237SOL    HW222611   5.083   1.176   4.775
 7238SOL     OW22612   3.112   1.510   0.825
 7238SOL    HW122613   3.082   1.566   0.902
 7238SOL    HW222614   3.159   1.429   0.859
 7239SOL     OW22615   1.793   2.477   2.366
 7239SOL    HW122616   1.860   2.549   2.353
 7239SOL    HW222617   1.820   2.396   2.314
 7240SOL     OW22618   2.758   4.801   6.021
 7240SOL    HW122619   2.733   4.897   6.003
 7240SOL    HW222620   2.857   4.794   6.033
 7241SOL     OW22621   2.377   0.888   0.626
 7241SOL    HW122622   2.319   0.966   0.604
 7241SOL    HW222623   2.437   0.867   0.549
 7242SOL     OW22624   6.743   5.752   0.488
 7242SOL    HW122625   6.811   5.757   0.414
 7242SOL    HW222626   6.651   5.752   0.448
 7243SOL     OW22627   6.282   4.922   5.916
 7243SOL    HW122628   6.347   4.890   5.984
 7243SOL    HW222629   6.325   4.923   5.826
 7244SOL     OW22630   5.996   0.553   1.019
 7244SOL    HW122631   5.945   0.545   1.105
 7244SOL    HW222632   6.036   0.644   1.011
 7245SOL     OW22633   0.914   2.048   4.960
 7245SOL    HW122634   0.820   2.067   4.932
 7245SOL    HW222635   0.967   2.132   4.960
 7246SOL     OW22636   6.283   0.556   4.069
 7246SOL    HW122637   6.198   0.606   4.083
 7246SOL    HW222638   6.269   0.459   4.091
 7247SOL     OW22639   3.072   0.020   4.198
 7247SOL    HW122640   3.161   0.055   4.225
 7247SOL    HW222641   3.045   0.059   4.110
 7248SOL     OW22642   3.359   1.376   3.841
 7248SOL    HW122643   3.357   1.409   3.746
 7248SOL    HW222644   3.437   1.415   3.889
 7249SOL     OW22645   5.912   4.347   2.024
 7249SOL    HW122646   5.825   4.393   2.037
 7249SOL    HW222647   5.926   4.280   2.096
 7250SOL     OW22648   3.753   6.595   6.603
 7250SOL    HW122649   3.683   6.526   6.585
 7250SOL    HW222650   3.820   6.559   6.667
 7251SOL     OW22651   0.377   7.007   5.464
 7251SOL    HW122652   0.368   0.023   5.372
 7251SOL    HW222653   0.287   6.986   5.501
 7252SOL     OW22654   3.047   3.367   2.927
 7252SOL    HW122655   3.008   3.330   2.842
 7252SOL    HW222656   3.030   3.304   3.002
 7253SOL     OW22657   2.829   6.007   6.431
 7253SOL    HW122658   2.781   5.936   6.483
 7253SOL    HW222659   2.861   6.078   6.493
 7254SOL     OW22660   4.351   5.578   4.560
 7254SOL    HW122661   4.425   5.569   4.493
 7254SOL    HW222662   4.315   5.487   4.583
 7255SOL     OW22663   4.000   4.025   1.257
 7255SOL    HW122664   3.948   3.993   1.337
 7255SOL    HW222665   3.993   3.958   1.184
 7256SOL     OW22666   4.133   4.847   4.393
 7256SOL    HW122667   4.184   4.930   4.371
 7256SOL    HW222668   4.131   4.834   4.492
 7257SOL     OW22669   4.883   3.310   3.979
 7257SOL    HW122670   4.870   3.218   4.016
 7257SOL    HW222671   4.853   3.377   4.046
 7258SOL     OW22672   4.201   0.637   2.746
 7258SOL    HW122673   4.269   0.685   2.800
 7258SOL    HW222674   4.122   0.696   2.731
 7259SOL     OW22675   3.158   3.439   1.169
 7259SOL    HW122676   3.168   3.435   1.070
 7259SOL    HW222677   3.198   3.524   1.203
 7260SOL     OW22678   2.880   2.221   2.554
 7260SOL    HW122679   2.971   2.206   2.591
 7260SOL    HW222680   2.877   2.192   2.458
 7261SOL     OW22681   1.748   3.036   1.464
 7261SOL    HW122682   1.843   3.056   1.439
 7261SOL    HW222683   1.720   3.097   1.537
 7262SOL     OW22684   5.409   1.810   4.789
 7262SOL    HW122685   5.389   1.856   4.703
 7262SOL    HW222686   5.507   1.811   4.806
 7263SOL     OW22687   0.754   6.597   1.921
 7263SOL    HW122688   0.744   6.692   1.891
 7263SOL    HW222689   0.845   6.583   1.959
 7264SOL     OW22690   6.017   1.256   6.719
 7264SOL    HW122691   5.919   1.272   6.708
 7264SOL    HW222692   6.068   1.333   6.681
 7265SOL     OW22693   5.199   5.806   5.965
 7265SOL    HW122694   5.274   5.872   5.969
 7265SOL    HW222695   5.167   5.797   5.871
 7266SOL     OW22696   4.791   0.487   1.393
 7266SOL    HW122697   4.700   0.525   1.373
 7266SOL    HW222698   4.792   0.451   1.486
 7267SOL     OW22699   6.981   5.781   5.319
 7267SOL    HW122700   6.892   5.794   5.363
 7267SOL    HW222701   0.008   5.707   5.365
 7268SOL     OW22702   4.184   4.732   2.731
 7268SOL    HW122703   4.262   4.682   2.693
 7268SOL    HW222704   4.116   4.746   2.659
 7269SOL     OW22705   6.820   6.203   1.038
 7269SOL    HW122706   6.885   6.187   1.113
 7269SOL    HW222707   6.780   6.294   1.048
 7270SOL     OW22708   1.091   3.409   4.848
 7270SOL    HW122709   1.054   3.316   4.853
 7270SOL    HW222710   1.186   3.409   4.878
 7271SOL     OW22711   0.457   5.247   4.234
 7271SOL    HW122712   0.555   5.246   4.253
 7271SOL    HW222713   0.415   5.326   4.278
 7272SOL     OW22714   5.480   4.755   2.271
 7272SOL    HW122715   5.415   4.678   2.278
 7272SOL    HW222716   5.503   4.769   2.174
 7273SOL     OW22717   4.843   4.631   2.079
 7273SOL    HW122718   4.744   4.617   2.077
 7273SOL    HW222719   4.878   4.638   1.985
 7274SOL     OW22720   0.871   6.360   0.245
 7274SOL    HW122721   0.901   6.342   0.339
 7274SOL    HW222722   0.874   6.276   0.192
 7275SOL     OW22723   6.967   0.951   2.362
 7275SOL    HW122724   7.006   1.027   2.415
 7275SOL    HW222725   7.007   0.865   2.394
 7276SOL     OW22726   3.742   1.193   3.083
 7276SOL    HW122727   3.739   1.096   3.109
 7276SOL    HW222728   3.722   1.249   3.163
 7277SOL     OW22729   5.023   1.180   4.327
 7277SOL    HW122730   5.007   1.273   4.296
 7277SOL    HW222731   5.022   1.177   4.427
 7278SOL     OW22732   3.182   2.106   1.803
 7278SOL    HW122733   3.269   2.079   1.844
 7278SOL    HW222734   3.108   2.053   1.844
 7279SOL     OW22735   4.142   2.835   6.166
 7279SOL    HW122736   4.052   2.879   6.162
 7279SOL    HW222737   4.158   2.799   6.258
 7280SOL     OW22738   6.858   1.985   4.079
 7280SOL    HW122739   6.946   2.019   4.112
 7280SOL    HW222740   6.784   2.035   4.124
 7281SOL     OW22741   2.012   0.649   0.440
 7281SOL    HW122742   2.080   0.597   0.389
 7281SOL    HW222743   1.997   0.607   0.529
 7282SOL     OW22744   6.511   6.509   0.326
 7282SOL    HW122745   6.546   6.594   0.288
 7282SOL    HW222746   6.587   6.445   0.338
 7283SOL     OW22747   3.283   0.080   2.082
 7283SOL    HW122748   3.280   0.081   1.982
 7283SOL    HW222749   3.334   0.160   2.114
 7284SOL     OW22750   0.005   2.760   4.875
 7284SOL    HW122751   6.930   2.776   4.866
 7284SOL    HW222752   0.052   2.848   4.888
 7285SOL     OW22753   5.808   3.756   1.602
 7285SOL    HW122754   5.724   3.716   1.639
 7285SOL    HW222755   5.816   3.734   1.505
 7286SOL     OW22756   0.804   0.140   1.479
 7286SOL    HW122757   0.795   0.163   1.383
 7286SOL    HW222758   0.847   0.050   1.488
 7287SOL     OW22759   6.695   3.200   4.535
 7287SOL    HW122760   6.707   3.299   4.546
 7287SOL    HW222761   6.728   3.172   4.445
 7288SOL     OW22762   0.806   2.093   1.644
 7288SOL    HW122763   0.802   2.163   1.573
 7288SOL    HW222764   0.898   2.053   1.646
 7289SOL     OW22765   6.516   1.764   3.198
 7289SOL    HW122766   6.516   1.715   3.286
 7289SOL    HW222767   6.503   1.698   3.124
 7290SOL     OW22768   3.011   0.811   5.788
 7290SOL    HW122769   2.925   0.794   5.742
 7290SOL    HW222770   3.041   0.728   5.835
 7291SOL     OW22771   2.447   6.879   1.274
 7291SOL    HW122772   2.497   6.794   1.284
 7291SOL    HW222773   2.510   6.956   1.281
 7292SOL     OW22774   2.898   0.218   2.817
 7292SOL    HW122775   2.930   0.124   2.832
 7292SOL    HW222776   2.804   0.226   2.850
 7293SOL     OW22777   1.881   0.756   6.236
 7293SOL    HW122778   1.926   0.839   6.203
 7293SOL    HW222779   1.813   0.726   6.169
 7294SOL     OW22780   3.152   4.007   0.642
 7294SOL    HW122781   3.118   3.957   0.721
 7294SOL    HW222782   3.189   3.942   0.575
 7295SOL     OW22783   6.619   4.566   1.513
 7295SOL    HW122784   6.538   4.611   1.548
 7295SOL    HW222785   6.695   4.577   1.578
 7296SOL     OW22786   4.689   5.269   2.706
 7296SOL    HW122787   4.747   5.241   2.630
 7296SOL    HW222788   4.663   5.365   2.695
 7297SOL     OW22789   2.648   6.917   1.964
 7297SOL    HW122790   2.711   6.985   1.927
 7297SOL    HW222791   2.555   6.953   1.961
 7298SOL     OW22792   5.027   5.809   6.786
 7298SOL    HW122793   5.081   5.741   6.736
 7298SOL    HW222794   5.088   5.863   6.844
 7299SOL     OW22795   0.547   1.848   0.436
 7299SOL    HW122796   0.551   1.947   0.447
 7299SOL    HW222797   0.506   1.825   0.348
 7300SOL     OW22798   0.340   5.834   2.543
 7300SOL    HW122799   0.385   5.922   2.526
 7300SOL    HW222800   0.293   5.837   2.631
 7301SOL     OW22801   6.346   2.260   5.911
 7301SOL    HW122802   6.390   2.306   5.834
 7301SOL    HW222803   6.251   2.239   5.886
 7302SOL     OW22804   0.413   2.207   5.838
 7302SOL    HW122805   0.413   2.260   5.754
 7302SOL    HW222806   0.323   2.212   5.881
 7303SOL     OW22807   3.530   0.718   6.961
 7303SOL    HW122808   3.617   0.670   6.968
 7303SOL    HW222809   3.457   0.660   6.998
 7304SOL     OW22810   2.567   5.532   1.623
 7304SOL    HW122811   2.573   5.570   1.715
 7304SOL    HW222812   2.493   5.577   1.573
 7305SOL     OW22813   5.885   1.727   1.309
 7305SOL    HW122814   5.870   1.826   1.319
 7305SOL    HW222815   5.960   1.712   1.244
 7306SOL     OW22816   3.510   1.505   1.651
 7306SOL    HW122817   3.481   1.601   1.664
 7306SOL    HW222818   3.609   1.501   1.644
 7307SOL     OW22819   4.132   0.147   2.125
 7307SOL    HW122820   4.195   0.160   2.201
 7307SOL    HW222821   4.119   0.049   2.108
 7308SOL     OW22822   6.362   1.311   3.735
 7308SOL    HW122823   6.303   1.372   3.789
 7308SOL    HW222824   6.404   1.244   3.796
 7309SOL     OW22825   2.915   0.093   1.624
 7309SOL    HW122826   2.920   0.063   1.528
 7309SOL    HW222827   2.988   0.158   1.642
 7310SOL     OW22828   1.823   3.380   6.485
 7310SOL    HW122829   1.902   3.407   6.431
 7310SOL    HW222830   1.829   3.282   6.507
 7311SOL     OW22831   1.088   0.499   0.214
 7311SOL    HW122832   1.178   0.525   0.180
 7311SOL    HW222833   1.069   0.546   0.300
 7312SOL     OW22834   1.013   1.658   4.567
 7312SOL    HW122835   1.109   1.652   4.542
 7312SOL    HW222836   1.001   1.727   4.639
 7313SOL     OW22837   2.265   1.360   0.943
 7313SOL    HW122838   2.309   1.348   1.032
 7313SOL    HW222839   2.335   1.370   0.872
 7314SOL     OW22840   0.159   4.016   5.889
 7314SOL    HW122841   0.248   4.062   5.884
 7314SOL    HW222842   0.130   3.990   5.797
 7315SOL     OW22843   5.326   5.858   2.159
 7315SOL    HW122844   5.259   5.862   2.086
 7315SOL    HW222845   5.345   5.763   2.182
 7316SOL     OW22846   3.445   2.787   6.356
 7316SOL    HW122847   3.523   2.819   6.302
 7316SOL    HW222848   3.470   2.704   6.405
 7317SOL     OW22849   3.632   1.631   1.971
 7317SOL    HW122850   3.672   1.719   1.998
 7317SOL    HW222851   3.540   1.645   1.937
 7318SOL     OW22852   3.174   6.599   3.359
 7318SOL    HW122853   3.248   6.548   3.315
 7318SOL    HW222854   3.183   6.696   3.337
 7319SOL     OW22855   5.970   3.075   6.402
 7319SOL    HW122856   5.945   3.119   6.489
 7319SOL    HW222857   5.950   3.137   6.327
 7320SOL     OW22858   0.452   3.499   6.969
 7320SOL    HW122859   0.370   3.552   6.946
 7320SOL    HW222860   0.426   3.403   6.981
 7321SOL     OW22861   2.249   6.801   6.000
 7321SOL    HW122862   2.252   6.865   6.077
 7321SOL    HW222863   2.242   6.851   5.914
 7322SOL     OW22864   0.118   2.916   2.680
 7322SOL    HW122865   0.061   2.841   2.647
 7322SOL    HW222866   0.116   2.917   2.780
 7323SOL     OW22867   2.715   2.978   1.398
 7323SOL    HW122868   2.626   2.967   1.355
 7323SOL    HW222869   2.721   2.921   1.480
 7324SOL     OW22870   6.052   4.815   2.484
 7324SOL    HW122871   5.994   4.800   2.404
 7324SOL    HW222872   6.021   4.896   2.533
 7325SOL     OW22873   2.724   0.045   5.208
 7325SOL    HW122874   2.635   0.049   5.163
 7325SOL    HW222875   2.732   0.121   5.273
 7326SOL     OW22876   3.396   0.282   6.070
 7326SOL    HW122877   3.401   0.292   6.169
 7326SOL    HW222878   3.414   0.187   6.045
 7327SOL     OW22879   5.672   3.061   3.958
 7327SOL    HW122880   5.726   3.060   3.874
 7327SOL    HW222881   5.733   3.060   4.037
 7328SOL     OW22882   4.343   6.506   5.449
 7328SOL    HW122883   4.309   6.497   5.543
 7328SOL    HW222884   4.442   6.489   5.447
 7329SOL     OW22885   1.318   2.847   0.564
 7329SOL    HW122886   1.322   2.947   0.555
 7329SOL    HW222887   1.408   2.813   0.593
 7330SOL     OW22888   2.344   2.906   1.072
 7330SOL    HW122889   2.331   2.969   0.995
 7330SOL    HW222890   2.333   2.812   1.041
 7331SOL     OW22891   5.362   6.381   1.920
 7331SOL    HW122892   5.288   6.431   1.965
 7331SOL    HW222893   5.353   6.392   1.821
 7332SOL     OW22894   3.673   4.413   6.911
 7332SOL    HW122895   3.702   4.507   6.929
 7332SOL    HW222896   3.594   4.390   6.968
 7333SOL     OW22897   5.791   3.159   2.627
 7333SOL    HW122898   5.707   3.191   2.671
 7333SOL    HW222899   5.870   3.206   2.668
 7334SOL     OW22900   2.607   5.389   5.554
 7334SOL    HW122901   2.563   5.325   5.617
 7334SOL    HW222902   2.556   5.391   5.468
 7335SOL     OW22903   0.189   2.610   3.486
 7335SOL    HW122904   0.241   2.605   3.400
 7335SOL    HW222905   0.114   2.674   3.475
 7336SOL     OW22906   2.240   6.634   1.596
 7336SOL    HW122907   2.164   6.623   1.661
 7336SOL    HW222908   2.215   6.704   1.528
 7337SOL     OW22909   2.030   2.984   1.138
 7337SOL    HW122910   2.016   2.984   1.237
 7337SOL    HW222911   2.128   2.986   1.119
 7338SOL     OW22912   5.754   1.513   1.711
 7338SOL    HW122913   5.679   1.491   1.648
 7338SOL    HW222914   5.836   1.535   1.658
 7339SOL     OW22915   6.715   0.541   5.248
 7339SOL    HW122916   6.809   0.574   5.238
 7339SOL    HW222917   6.706   0.492   5.334
 7340SOL     OW22918   3.679   2.415   6.698
 7340SOL    HW122919   3.768   2.426   6.742
 7340SOL    HW222920   3.607   2.444   6.762
 7341SOL     OW22921   1.423   5.279   5.449
 7341SOL    HW122922   1.471   5.198   5.416
 7341SOL    HW222923   1.441   5.292   5.546
 7342SOL     OW22924   6.051   6.444   6.909
 7342SOL    HW122925   6.027   6.503   6.831
 7342SOL    HW222926   5.968   6.410   6.952
 7343SOL     OW22927   5.752   3.389   1.919
 7343SOL    HW122928   5.713   3.480   1.910
 7343SOL    HW222929   5.752   3.344   1.830
 7344SOL     OW22930   2.298   6.969   6.201
 7344SOL    HW122931   2.329   0.030   6.157
 7344SOL    HW222932   2.361   6.943   6.274
 7345SOL     OW22933   5.539   6.031   5.567
 7345SOL    HW122934   5.628   6.059   5.531
 7345SOL    HW222935   5.511   6.093   5.640
 7346SOL     OW22936   3.478   4.269   0.999
 7346SOL    HW122937   3.418   4.245   0.923
 7346SOL    HW222938   3.423   4.281   1.082
 7347SOL     OW22939   6.530   2.990   1.270
 7347SOL    HW122940   6.433   3.015   1.260
 7347SOL    HW222941   6.546   2.901   1.226
 7348SOL     OW22942   1.533   3.547   3.660
 7348SOL    HW122943   1.593   3.580   3.733
 7348SOL    HW222944   1.548   3.602   3.578
 7349SOL     OW22945   3.831   1.643   1.352
 7349SOL    HW122946   3.919   1.600   1.373
 7349SOL    HW222947   3.799   1.613   1.263
 7350SOL     OW22948   1.563   3.715   4.082
 7350SOL    HW122949   1.644   3.699   4.026
 7350SOL    HW222950   1.481   3.713   4.025
 7351SOL     OW22951   3.997   5.443   5.957
 7351SOL    HW122952   3.908   5.481   5.932
 7351SOL    HW222953   4.032   5.387   5.881
 7352SOL     OW22954   1.520   3.342   2.899
 7352SOL    HW122955   1.493   3.249   2.925
 7352SOL    HW222956   1.502   3.404   2.975
 7353SOL     OW22957   0.340   0.449   5.795
 7353SOL    HW122958   0.367   0.376   5.858
 7353SOL    HW222959   0.417   0.511   5.781
 7354SOL     OW22960   0.847   1.562   6.189
 7354SOL    HW122961   0.905   1.480   6.194
 7354SOL    HW222962   0.867   1.612   6.105
 7355SOL     OW22963   1.594   0.527   0.351
 7355SOL    HW122964   1.624   0.437   0.318
 7355SOL    HW222965   1.624   0.598   0.287
 7356SOL     OW22966   4.997   2.760   6.462
 7356SOL    HW122967   5.090   2.724   6.466
 7356SOL    HW222968   4.948   2.735   6.546
 7357SOL     OW22969   4.267   0.928   1.623
 7357SOL    HW122970   4.341   0.902   1.684
 7357SOL    HW222971   4.296   1.007   1.568
 7358SOL     OW22972   1.861   2.262   2.190
 7358SOL    HW122973   1.960   2.254   2.184
 7358SOL    HW222974   1.824   2.293   2.102
 7359SOL     OW22975   2.918   2.861   0.650
 7359SOL    HW122976   3.008   2.846   0.610
 7359SOL    HW222977   2.905   2.800   0.729
 7360SOL     OW22978   3.458   2.528   5.704
 7360SOL    HW122979   3.489   2.596   5.638
 7360SOL    HW222980   3.537   2.487   5.749
 7361SOL     OW22981   4.376   0.062   1.645
 7361SOL    HW122982   4.307   0.015   1.700
 7361SOL    HW222983   4.331   0.119   1.576
 7362SOL     OW22984   0.647   6.654   4.771
 7362SOL    HW122985   0.599   6.567   4.781
 7362SOL    HW222986   0.651   6.700   4.860
 7363SOL     OW22987   3.774   1.973   1.140
 7363SOL    HW122988   3.810   1.914   1.068
 7363SOL    HW222989   3.709   1.923   1.196
 7364SOL     OW22990   4.320   0.303   1.474
 7364SOL    HW122991   4.410   0.342   1.455
 7364SOL    HW222992   4.283   0.344   1.557
 7365SOL     OW22993   1.617   6.128   2.156
 7365SOL    HW122994   1.639   6.225   2.149
 7365SOL    HW222995   1.649   6.081   2.074
 7366SOL     OW22996   1.499   5.450   0.469
 7366SOL    HW122997   1.470   5.429   0.376
 7366SOL    HW222998   1.420   5.446   0.530
 7367SOL     OW22999   5.009   4.292   1.162
 7367SOL    HW123000   5.067   4.371   1.183
 7367SOL    HW223001   4.930   4.291   1.222
 7368SOL     OW23002   3.859   2.956   4.078
 7368SOL    HW123003   3.940   2.916   4.119
 7368SOL    HW223004   3.869   3.055   4.072
 7369SOL     OW23005   4.506   3.037   0.772
 7369SOL    HW123006   4.465   3.013   0.860
 7369SOL    HW223007   4.566   2.963   0.742
 7370SOL     OW23008   2.305   0.573   5.109
 7370SOL    HW123009   2.376   0.644   5.115
 7370SOL    HW223010   2.255   0.583   5.023
 7371SOL     OW23011   2.031   6.408   3.785
 7371SOL    HW123012   1.939   6.377   3.809
 7371SOL    HW223013   2.090   6.404   3.866
 7372SOL     OW23014   2.587   1.290   5.571
 7372SOL    HW123015   2.489   1.283   5.556
 7372SOL    HW223016   2.620   1.379   5.537
 7373SOL     OW23017   5.694   1.602   4.006
 7373SOL    HW123018   5.725   1.520   3.957
 7373SOL    HW223019   5.614   1.641   3.960
 7374SOL     OW23020   2.952   2.320   5.322
 7374SOL    HW123021   3.041   2.343   5.282
 7374SOL    HW223022   2.884   2.385   5.288
 7375SOL     OW23023   1.538   2.836   3.494
 7375SOL    HW123024   1.629   2.829   3.454
 7375SOL    HW223025   1.516   2.933   3.510
 7376SOL     OW23026   4.323   1.665   0.216
 7376SOL    HW123027   4.402   1.688   0.271
 7376SOL    HW223028   4.284   1.749   0.177
 7377SOL     OW23029   5.627   5.697   1.732
 7377SOL    HW123030   5.716   5.665   1.764
 7377SOL    HW223031   5.555   5.641   1.772
 7378SOL     OW23032   0.055   1.744   5.037
 7378SOL    HW123033   0.107   1.694   4.968
 7378SOL    HW223034   6.982   1.750   5.010
 7379SOL     OW23035   4.027   2.110   3.196
 7379SOL    HW123036   4.057   2.195   3.239
 7379SOL    HW223037   4.101   2.043   3.200
 7380SOL     OW23038   6.673   3.209   5.226
 7380SOL    HW123039   6.768   3.242   5.227
 7380SOL    HW223040   6.662   3.141   5.154
 7381SOL     OW23041   5.263   4.214   2.175
 7381SOL    HW123042   5.231   4.157   2.251
 7381SOL    HW223043   5.185   4.246   2.122
 7382SOL     OW23044   0.150   5.688   6.119
 7382SOL    HW123045   0.104   5.632   6.050
 7382SOL    HW223046   0.086   5.707   6.194
 7383SOL     OW23047   0.719   6.606   1.395
 7383SOL    HW123048   0.705   6.674   1.466
 7383SOL    HW223049   0.640   6.606   1.333
 7384SOL     OW23050   5.979   0.793   2.408
 7384SOL    HW123051   5.967   0.715   2.347
 7384SOL    HW223052   5.939   0.874   2.367
 7385SOL     OW23053   4.028   5.979   2.047
 7385SOL    HW123054   4.124   6.006   2.052
 7385SOL    HW223055   3.974   6.054   2.010
 7386SOL     OW23056   7.002   2.325   5.748
 7386SOL    HW123057   6.978   2.287   5.659
 7386SOL    HW223058   6.920   2.336   5.803
 7387SOL     OW23059   4.282   6.366   4.476
 7387SOL    HW123060   4.221   6.400   4.548
 7387SOL    HW223061   4.234   6.298   4.421
 7388SOL     OW23062   0.484   4.926   3.232
 7388SOL    HW123063   0.479   5.007   3.174
 7388SOL    HW223064   0.417   4.933   3.306
 7389SOL     OW23065   0.981   4.264   6.746
 7389SOL    HW123066   0.922   4.187   6.768
 7389SOL    HW223067   0.936   4.323   6.678
 7390SOL     OW23068   1.990   1.315   6.949
 7390SOL    HW123069   1.995   1.234   6.890
 7390SOL    HW223070   2.021   1.395   6.898
 7391SOL     OW23071   5.190   4.076   4.834
 7391SOL    HW123072   5.178   4.089   4.932
 7391SOL    HW223073   5.234   4.157   4.794
 7392SOL     OW23074   2.890   6.080   0.287
 7392SOL    HW123075   2.912   6.107   0.194
 7392SOL    HW223076   2.791   6.087   0.301
 7393SOL     OW23077   5.439   4.945   1.241
 7393SOL    HW123078   5.518   4.885   1.248
 7393SOL    HW223079   5.365   4.910   1.297
 7394SOL     OW23080   3.309   2.448   5.958
 7394SOL    HW123081   3.253   2.373   5.922
 7394SOL    HW223082   3.252   2.529   5.970
 7395SOL     OW23083   2.489   1.761   6.995
 7395SOL    HW123084   2.569   1.779   6.937
 7395SOL    HW223085   2.495   1.668   0.009
 7396SOL     OW23086   1.136   6.769   0.238
 7396SOL    HW123087   1.102   6.759   0.144
 7396SOL    HW223088   1.224   6.723   0.247
 7397SOL     OW23089   5.437   5.209   5.378
 7397SOL    HW123090   5.400   5.186   5.468
 7397SOL    HW223091   5.401   5.145   5.310
 7398SOL     OW23092   3.011   5.202   4.249
 7398SOL    HW123093   2.951   5.130   4.215
 7398SOL    HW223094   2.958   5.287   4.260
 7399SOL     OW23095   1.038   3.424   5.320
 7399SOL    HW123096   1.130   3.409   5.283
 7399SOL    HW223097   1.033   3.388   5.413
 7400SOL     OW23098   2.868   3.224   6.363
 7400SOL    HW123099   2.808   3.283   6.309
 7400SOL    HW223100   2.884   3.139   6.314
 7401SOL     OW23101   0.822   0.897   3.912
 7401SOL    HW123102   0.801   0.842   3.830
 7401SOL    HW223103   0.896   0.854   3.963
 7402SOL     OW23104   2.720   5.048   5.419
 7402SOL    HW123105   2.811   5.006   5.421
 7402SOL    HW223106   2.706   5.099   5.504
 7403SOL     OW23107   1.729   4.023   3.096
 7403SOL    HW123108   1.812   4.001   3.148
 7403SOL    HW223109   1.685   3.938   3.068
 7404SOL     OW23110   2.925   5.541   1.166
 7404SOL    HW123111   2.941   5.601   1.245
 7404SOL    HW223112   2.959   5.449   1.187
 7405SOL     OW23113   2.905   4.818   4.333
 7405SOL    HW123114   2.931   4.825   4.429
 7405SOL    HW223115   2.819   4.768   4.325
 7406SOL     OW23116   1.046   3.027   3.499
 7406SOL    HW123117   0.966   3.074   3.535
 7406SOL    HW223118   1.071   2.951   3.560
 7407SOL     OW23119   0.073   5.871   4.845
 7407SOL    HW123120   0.082   5.797   4.778
 7407SOL    HW223121   0.018   5.945   4.806
 7408SOL     OW23122   1.314   3.412   5.875
 7408SOL    HW123123   1.411   3.400   5.896
 7408SOL    HW223124   1.270   3.323   5.868
 7409SOL     OW23125   0.607   1.242   5.070
 7409SOL    HW123126   0.703   1.219   5.059
 7409SOL    HW223127   0.586   1.254   5.167
 7410SOL     OW23128   0.337   5.005   1.526
 7410SOL    HW123129   0.264   4.937   1.523
 7410SOL    HW223130   0.408   4.976   1.590
 7411SOL     OW23131   2.909   6.762   4.324
 7411SOL    HW123132   2.916   6.789   4.228
 7411SOL    HW223133   2.958   6.827   4.381
 7412SOL     OW23134   3.981   0.256   2.557
 7412SOL    HW123135   3.996   0.220   2.649
 7412SOL    HW223136   4.033   0.341   2.545
 7413SOL     OW23137   4.991   5.064   4.746
 7413SOL    HW123138   5.065   4.997   4.760
 7413SOL    HW223139   4.912   5.038   4.802
 7414SOL     OW23140   6.941   6.780   4.163
 7414SOL    HW123141   6.940   6.747   4.069
 7414SOL    HW223142   6.956   6.879   4.164
 7415SOL     OW23143   1.598   3.776   2.996
 7415SOL    HW123144   1.556   3.686   3.000
 7415SOL    HW223145   1.549   3.834   2.931
 7416SOL     OW23146   3.246   0.902   3.714
 7416SOL    HW123147   3.306   0.979   3.735
 7416SOL    HW223148   3.159   0.914   3.761
 7417SOL     OW23149   2.091   0.313   5.708
 7417SOL    HW123150   2.034   0.291   5.787
 7417SOL    HW223151   2.033   0.334   5.630
 7418SOL     OW23152   3.312   5.393   0.468
 7418SOL    HW123153   3.307   5.470   0.405
 7418SOL    HW223154   3.264   5.415   0.553
 7419SOL     OW23155   6.235   2.477   5.214
 7419SOL    HW123156   6.318   2.458   5.266
 7419SOL    HW223157   6.155   2.453   5.270
 7420SOL     OW23158   0.029   6.562   1.902
 7420SOL    HW123159   7.005   6.510   1.973
 7420SOL    HW223160   0.054   6.652   1.938
 7421SOL     OW23161   3.338   3.629   1.308
 7421SOL    HW123162   3.419   3.570   1.318
 7421SOL    HW223163   3.296   3.644   1.397
 7422SOL     OW23164   6.969   3.039   2.299
 7422SOL    HW123165   6.905   3.037   2.376
 7422SOL    HW223166   0.021   3.103   2.318
 7423SOL     OW23167   6.749   4.580   5.693
 7423SOL    HW123168   6.821   4.582   5.624
 7423SOL    HW223169   6.768   4.648   5.763
 7424SOL     OW23170   6.976   0.341   4.882
 7424SOL    HW123171   6.876   0.335   4.883
 7424SOL    HW223172   7.004   0.421   4.829
 7425SOL     OW23173   4.682   5.923   6.171
 7425SOL    HW123174   4.589   5.906   6.203
 7425SOL    HW223175   4.686   5.907   6.072
 7426SOL     OW23176   1.363   1.529   6.696
 7426SOL    HW123177   1.317   1.610   6.658
 7426SOL    HW223178   1.452   1.518   6.651
 7427SOL     OW23179   3.324   6.261   3.935
 7427SOL    HW123180   3.262   6.284   3.860
 7427SOL    HW223181   3.413   6.233   3.898
 7428SOL     OW23182   3.999   1.296   6.001
 7428SOL    HW123183   3.907   1.325   6.027
 7428SOL    HW223184   4.009   1.198   6.020
 7429SOL     OW23185   5.641   6.926   3.681
 7429SOL    HW123186   5.650   6.831   3.710
 7429SOL    HW223187   5.668   6.934   3.585
 7430SOL     OW23188   0.334   3.885   6.093
 7430SOL    HW123189   0.256   3.892   6.031
 7430SOL    HW223190   0.416   3.864   6.040
 7431SOL     OW23191   0.400   2.989   2.540
 7431SOL    HW123192   0.305   2.975   2.564
 7431SOL    HW223193   0.426   3.084   2.558
 7432SOL     OW23194   0.205   0.086   3.661
 7432SOL    HW123195   0.169   0.069   3.569
 7432SOL    HW223196   0.289   0.140   3.655
 7433SOL     OW23197   5.804   5.417   0.081
 7433SOL    HW123198   5.824   5.398   0.177
 7433SOL    HW223199   5.705   5.425   0.069
 7434SOL     OW23200   4.606   0.494   5.994
 7434SOL    HW123201   4.593   0.579   5.944
 7434SOL    HW223202   4.566   0.503   6.086
 7435SOL     OW23203   3.881   5.621   0.690
 7435SOL    HW123204   3.927   5.539   0.723
 7435SOL    HW223205   3.870   5.616   0.591
 7436SOL     OW23206   5.688   3.205   6.458
 7436SOL    HW123207   5.751   3.172   6.529
 7436SOL    HW223208   5.614   3.256   6.502
 7437SOL     OW23209   0.257   6.095   0.455
 7437SOL    HW123210   0.178   6.146   0.420
 7437SOL    HW223211   0.249   6.087   0.555
 7438SOL     OW23212   0.639   5.093   0.982
 7438SOL    HW123213   0.584   5.169   0.947
 7438SOL    HW223214   0.651   5.102   1.080
 7439SOL     OW23215   1.500   6.307   4.966
 7439SOL    HW123216   1.547   6.362   5.035
 7439SOL    HW223217   1.494   6.212   4.998
 7440SOL     OW23218   0.821   3.265   4.527
 7440SOL    HW123219   0.859   3.351   4.561
 7440SOL    HW223220   0.896   3.209   4.490
 7441SOL     OW23221   4.408   5.815   4.709
 7441SOL    HW123222   4.382   5.746   4.642
 7441SOL    HW223223   4.353   5.897   4.695
 7442SOL     OW23224   0.785   0.977   6.307
 7442SOL    HW123225   0.691   0.986   6.342
 7442SOL    HW223226   0.805   0.881   6.289
 7443SOL     OW23227   0.301   1.009   1.492
 7443SOL    HW123228   0.396   1.037   1.478
 7443SOL    HW223229   0.297   0.914   1.522
 7444SOL     OW23230   6.728   3.140   4.885
 7444SOL    HW123231   6.661   3.098   4.825
 7444SOL    HW223232   6.690   3.223   4.926
 7445SOL     OW23233   3.470   1.166   1.163
 7445SOL    HW123234   3.416   1.250   1.155
 7445SOL    HW223235   3.521   1.168   1.249
 7446SOL     OW23236   5.542   4.088   0.906
 7446SOL    HW123237   5.604   4.011   0.887
 7446SOL    HW223238   5.448   4.054   0.912
 7447SOL     OW23239   1.299   3.405   5.264
 7447SOL    HW123240   1.343   3.399   5.354
 7447SOL    HW223241   1.320   3.494   5.223
 7448SOL     OW23242   5.606   6.917   5.454
 7448SOL    HW123243   5.598   6.934   5.553
 7448SOL    HW223244   5.516   6.925   5.412
 7449SOL     OW23245   6.432   2.489   1.890
 7449SOL    HW123246   6.460   2.528   1.802
 7449SOL    HW223247   6.430   2.561   1.959
 7450SOL     OW23248   5.191   2.213   4.450
 7450SOL    HW123249   5.275   2.208   4.503
 7450SOL    HW223250   5.159   2.308   4.445
 7451SOL     OW23251   1.047   6.451   2.921
 7451SOL    HW123252   1.128   6.408   2.882
 7451SOL    HW223253   1.023   6.532   2.868
 7452SOL     OW23254   0.329   6.530   5.395
 7452SOL    HW123255   0.379   6.453   5.436
 7452SOL    HW223256   0.379   6.614   5.411
 7453SOL     OW23257   4.495   6.040   5.529
 7453SOL    HW123258   4.453   5.950   5.520
 7453SOL    HW223259   4.447   6.105   5.470
 7454SOL     OW23260   1.105   2.362   1.517
 7454SOL    HW123261   1.204   2.368   1.521
 7454SOL    HW223262   1.067   2.449   1.486
 7455SOL     OW23263   6.993   2.237   2.038
 7455SOL    HW123264   7.006   2.327   2.079
 7455SOL    HW223265   6.897   2.225   2.013
 7456SOL     OW23266   0.793   2.041   4.358
 7456SOL    HW123267   0.815   2.026   4.454
 7456SOL    HW223268   0.877   2.033   4.303
 7457SOL     OW23269   3.636   0.865   5.098
 7457SOL    HW123270   3.550   0.916   5.092
 7457SOL    HW223271   3.674   0.874   5.190
 7458SOL     OW23272   2.571   0.079   6.488
 7458SOL    HW123273   2.652   0.069   6.546
 7458SOL    HW223274   2.498   0.123   6.539
 7459SOL     OW23275   4.780   0.987   0.954
 7459SOL    HW123276   4.754   1.050   0.881
 7459SOL    HW223277   4.837   0.914   0.917
 7460SOL     OW23278   1.646   4.249   1.192
 7460SOL    HW123279   1.573   4.315   1.175
 7460SOL    HW223280   1.720   4.264   1.127
 7461SOL     OW23281   6.036   1.454   6.373
 7461SOL    HW123282   5.938   1.457   6.393
 7461SOL    HW223283   6.057   1.518   6.298
 7462SOL     OW23284   1.460   3.939   2.825
 7462SOL    HW123285   1.489   4.033   2.809
 7462SOL    HW223286   1.428   3.899   2.739
 7463SOL     OW23287   2.887   4.774   0.821
 7463SOL    HW123288   2.832   4.698   0.856
 7463SOL    HW223289   2.827   4.842   0.778
 7464SOL     OW23290   4.029   0.445   6.492
 7464SOL    HW123291   3.973   0.413   6.569
 7464SOL    HW223292   4.060   0.539   6.509
 7465SOL     OW23293   1.484   6.757   6.962
 7465SOL    HW123294   1.459   6.733   6.868
 7465SOL    HW223295   1.442   6.845   6.986
 7466SOL     OW23296   0.074   0.260   6.454
 7466SOL    HW123297   0.136   0.277   6.531
 7466SOL    HW223298   0.038   0.347   6.421
 7467SOL     OW23299   6.870   1.529   0.474
 7467SOL    HW123300   6.907   1.438   0.456
 7467SOL    HW223301   6.865   1.544   0.573
 7468SOL     OW23302   6.412   2.854   2.612
 7468SOL    HW123303   6.441   2.945   2.581
 7468SOL    HW223304   6.395   2.857   2.711
 7469SOL     OW23305   6.792   0.508   0.049
 7469SOL    HW123306   6.814   0.564   6.991
 7469SOL    HW223307   6.877   0.480   0.094
 7470SOL     OW23308   0.116   2.850   4.269
 7470SOL    HW123309   0.120   2.870   4.367
 7470SOL    HW223310   0.097   2.934   4.219
 7471SOL     OW23311   6.357   6.314   5.555
 7471SOL    HW123312   6.390   6.221   5.537
 7471SOL    HW223313   6.265   6.324   5.516
 7472SOL     OW23314   6.027   6.920   4.277
 7472SOL    HW123315   6.026   6.844   4.342
 7472SOL    HW223316   5.947   6.979   4.293
 7473SOL     OW23317   6.599   4.939   2.567
 7473SOL    HW123318   6.655   4.857   2.566
 7473SOL    HW223319   6.511   4.920   2.523
 7474SOL     OW23320   2.525   1.493   5.384
 7474SOL    HW123321   2.440   1.490   5.436
 7474SOL    HW223322   2.515   1.556   5.307
 7475SOL     OW23323   3.762   1.084   2.501
 7475SOL    HW123324   3.683   1.039   2.459
 7475SOL    HW223325   3.800   1.151   2.436
 7476SOL     OW23326   3.952   5.309   3.860
 7476SOL    HW123327   4.041   5.306   3.905
 7476SOL    HW223328   3.922   5.405   3.853
 7477SOL     OW23329   6.448   1.486   4.776
 7477SOL    HW123330   6.361   1.508   4.732
 7477SOL    HW223331   6.445   1.394   4.814
 7478SOL     OW23332   4.571   5.021   6.764
 7478SOL    HW123333   4.644   5.060   6.821
 7478SOL    HW223334   4.610   4.990   6.677
 7479SOL     OW23335   4.101   2.403   1.633
 7479SOL    HW123336   4.049   2.486   1.653
 7479SOL    HW223337   4.125   2.402   1.536
 7480SOL     OW23338   6.733   3.663   1.727
 7480SOL    HW123339   6.810   3.728   1.729
 7480SOL    HW223340   6.766   3.573   1.699
 7481SOL     OW23341   6.111   5.752   1.914
 7481SOL    HW123342   6.033   5.690   1.905
 7481SOL    HW223343   6.184   5.707   1.966
 7482SOL     OW23344   4.971   1.969   3.213
 7482SOL    HW123345   4.921   2.039   3.263
 7482SOL    HW223346   5.010   1.903   3.278
 7483SOL     OW23347   4.414   2.401   5.300
 7483SOL    HW123348   4.482   2.404   5.373
 7483SOL    HW223349   4.413   2.489   5.252
 7484SOL     OW23350   0.487   1.152   3.636
 7484SOL    HW123351   0.498   1.082   3.706
 7484SOL    HW223352   0.576   1.188   3.610
 7485SOL     OW23353   3.281   0.120   4.407
 7485SOL    HW123354   3.247   0.131   4.500
 7485SOL    HW223355   3.351   0.188   4.388
 7486SOL     OW23356   2.636   0.416   5.642
 7486SOL    HW123357   2.642   0.485   5.570
 7486SOL    HW223358   2.657   0.458   5.731
 7487SOL     OW23359   2.735   6.162   2.680
 7487SOL    HW123360   2.676   6.224   2.731
 7487SOL    HW223361   2.827   6.164   2.717
 7488SOL     OW23362   2.070   6.942   4.516
 7488SOL    HW123363   2.082   0.008   4.560
 7488SOL    HW223364   2.158   6.895   4.513
 7489SOL     OW23365   5.381   2.209   4.660
 7489SOL    HW123366   5.447   2.168   4.722
 7489SOL    HW223367   5.352   2.298   4.696
 7490SOL     OW23368   0.696   1.211   1.234
 7490SOL    HW123369   0.643   1.199   1.150
 7490SOL    HW223370   0.740   1.301   1.233
 7491SOL     OW23371   5.989   3.508   6.157
 7491SOL    HW123372   5.942   3.445   6.219
 7491SOL    HW223373   5.981   3.475   6.063
 7492SOL     OW23374   2.013   0.574   4.235
 7492SOL    HW123375   2.061   0.526   4.162
 7492SOL    HW223376   1.977   0.661   4.200
 7493SOL     OW23377   6.220   3.936   6.759
 7493SOL    HW123378   6.292   3.998   6.791
 7493SOL    HW223379   6.238   3.844   6.793
 7494SOL     OW23380   5.559   0.500   2.936
 7494SOL    HW123381   5.515   0.429   2.992
 7494SOL    HW223382   5.540   0.590   2.976
 7495SOL     OW23383   2.352   0.805   0.231
 7495SOL    HW123384   2.385   0.735   0.294
 7495SOL    HW223385   2.307   0.878   0.284
 7496SOL     OW23386   0.366   3.488   6.202
 7496SOL    HW123387   0.460   3.467   6.227
 7496SOL    HW223388   0.341   3.439   6.119
 7497SOL     OW23389   2.355   4.704   0.382
 7497SOL    HW123390   2.425   4.649   0.426
 7497SOL    HW223391   2.398   4.782   0.336
 7498SOL     OW23392   2.300   1.260   5.523
 7498SOL    HW123393   2.271   1.165   5.536
 7498SOL    HW223394   2.223   1.314   5.489
 7499SOL     OW23395   3.777   1.944   2.953
 7499SOL    HW123396   3.842   1.897   2.894
 7499SOL    HW223397   3.802   1.928   3.049
 7500SOL     OW23398   3.936   5.375   4.502
 7500SOL    HW123399   3.875   5.297   4.511
 7500SOL    HW223400   3.898   5.453   4.551
 7501SOL     OW23401   6.216   4.122   3.633
 7501SOL    HW123402   6.185   4.201   3.686
 7501SOL    HW223403   6.310   4.100   3.658
 7502SOL     OW23404   1.694   6.893   4.623
 7502SOL    HW123405   1.724   6.983   4.589
 7502SOL    HW223406   1.608   6.868   4.579
 7503SOL     OW23407   2.865   1.548   0.674
 7503SOL    HW123408   2.821   1.464   0.703
 7503SOL    HW223409   2.886   1.605   0.754
 7504SOL     OW23410   1.943   6.999   2.889
 7504SOL    HW123411   2.025   6.965   2.935
 7504SOL    HW223412   1.968   0.006   2.796
 7505SOL     OW23413   2.285   1.873   5.865
 7505SOL    HW123414   2.218   1.875   5.938
 7505SOL    HW223415   2.243   1.904   5.780
 7506SOL     OW23416   5.000   6.936   2.957
 7506SOL    HW123417   5.012   6.931   2.858
 7506SOL    HW223418   4.935   6.866   2.986
 7507SOL     OW23419   0.947   0.379   2.344
 7507SOL    HW123420   0.917   0.342   2.256
 7507SOL    HW223421   0.873   0.370   2.411
 7508SOL     OW23422   0.117   6.789   2.007
 7508SOL    HW123423   0.093   6.786   2.104
 7508SOL    HW223424   0.094   6.879   1.970
 7509SOL     OW23425   5.894   4.422   0.439
 7509SOL    HW123426   5.944   4.337   0.422
 7509SOL    HW223427   5.839   4.445   0.359
 7510SOL     OW23428   3.179   4.399   5.318
 7510SOL    HW123429   3.197   4.496   5.332
 7510SOL    HW223430   3.080   4.384   5.314
 7511SOL     OW23431   1.962   6.801   3.485
 7511SOL    HW123432   1.991   6.705   3.476
 7511SOL    HW223433   1.960   6.825   3.582
 7512SOL     OW23434   2.495   5.040   7.006
 7512SOL    HW123435   2.437   5.073   6.932
 7512SOL    HW223436   2.506   5.113   0.052
 7513SOL     OW23437   2.213   1.106   1.768
 7513SOL    HW123438   2.304   1.133   1.798
 7513SOL    HW223439   2.206   1.006   1.769
 7514SOL     OW23440   2.406   5.253   1.780
 7514SOL    HW123441   2.428   5.221   1.687
 7514SOL    HW223442   2.485   5.301   1.818
 7515SOL     OW23443   0.067   5.271   1.985
 7515SOL    HW123444   0.031   5.197   1.929
 7515SOL    HW223445   7.017   5.305   2.046
 7516SOL     OW23446   6.641   5.854   5.037
 7516SOL    HW123447   6.713   5.923   5.043
 7516SOL    HW223448   6.673   5.777   4.982
 7517SOL     OW23449   0.065   3.098   0.190
 7517SOL    HW123450   7.016   3.064   0.130
 7517SOL    HW223451   0.025   3.135   0.274
 7518SOL     OW23452   4.413   5.365   3.130
 7518SOL    HW123453   4.378   5.276   3.101
 7518SOL    HW223454   4.383   5.435   3.066
 7519SOL     OW23455   6.304   6.885   4.182
 7519SOL    HW123456   6.209   6.884   4.213
 7519SOL    HW223457   6.324   6.799   4.135
 7520SOL     OW23458   3.388   6.883   2.218
 7520SOL    HW123459   3.336   6.964   2.190
 7520SOL    HW223460   3.478   6.912   2.251
 7521SOL     OW23461   4.919   4.660   6.011
 7521SOL    HW123462   4.910   4.641   5.914
 7521SOL    HW223463   4.874   4.587   6.063
 7522SOL     OW23464   2.724   0.030   6.261
 7522SOL    HW123465   2.662   0.075   6.325
 7522SOL    HW223466   2.819   0.051   6.286
 7523SOL     OW23467   5.284   0.064   5.989
 7523SOL    HW123468   5.292   0.113   5.903
 7523SOL    HW223469   5.245   0.124   6.059
 7524SOL     OW23470   1.460   1.939   5.851
 7524SOL    HW123471   1.515   2.021   5.869
 7524SOL    HW223472   1.482   1.869   5.919
 7525SOL     OW23473   3.036   0.749   6.172
 7525SOL    HW123474   3.039   0.847   6.187
 7525SOL    HW223475   3.119   0.706   6.209
 7526SOL     OW23476   3.199   3.450   1.808
 7526SOL    HW123477   3.225   3.509   1.885
 7526SOL    HW223478   3.251   3.365   1.813
 7527SOL     OW23479   4.197   5.789   3.019
 7527SOL    HW123480   4.236   5.878   3.043
 7527SOL    HW223481   4.184   5.734   3.101
 7528SOL     OW23482   5.195   1.536   6.638
 7528SOL    HW123483   5.102   1.503   6.626
 7528SOL    HW223484   5.252   1.464   6.678
 7529SOL     OW23485   5.942   0.335   4.097
 7529SOL    HW123486   5.977   0.387   4.019
 7529SOL    HW223487   5.993   0.249   4.106
 7530SOL     OW23488   0.301   3.815   1.791
 7530SOL    HW123489   0.362   3.738   1.771
 7530SOL    HW223490   0.255   3.844   1.707
 7531SOL     OW23491   4.678   2.371   4.107
 7531SOL    HW123492   4.734   2.313   4.047
 7531SOL    HW223493   4.583   2.343   4.101
 7532SOL     OW23494   5.487   4.498   1.422
 7532SOL    HW123495   5.544   4.423   1.456
 7532SOL    HW223496   5.491   4.500   1.322
 7533SOL     OW23497   2.555   1.835   2.477
 7533SOL    HW123498   2.475   1.895   2.484
 7533SOL    HW223499   2.530   1.743   2.506
 7534SOL     OW23500   4.817   5.891   5.371
 7534SOL    HW123501   4.858   5.800   5.380
 7534SOL    HW223502   4.824   5.940   5.457
 7535SOL     OW23503   2.716   0.004   5.741
 7535SOL    HW123504   2.636   0.054   5.707
 7535SOL    HW223505   2.786   0.000   5.670
 7536SOL     OW23506   4.610   4.544   4.534
 7536SOL    HW123507   4.522   4.539   4.487
 7536SOL    HW223508   4.684   4.540   4.467
 7537SOL     OW23509   2.953   5.506   3.458
 7537SOL    HW123510   2.930   5.583   3.517
 7537SOL    HW223511   3.032   5.457   3.496
 7538SOL     OW23512   2.994   2.980   1.790
 7538SOL    HW123513   3.060   2.972   1.865
 7538SOL    HW223514   3.043   3.004   1.706
 7539SOL     OW23515   1.140   2.947   4.266
 7539SOL    HW123516   1.054   2.915   4.227
 7539SOL    HW223517   1.206   2.964   4.192
 7540SOL     OW23518   3.973   6.830   5.238
 7540SOL    HW123519   3.877   6.848   5.219
 7540SOL    HW223520   4.006   6.894   5.307
 7541SOL     OW23521   6.882   4.182   3.994
 7541SOL    HW123522   6.924   4.169   4.084
 7541SOL    HW223523   6.789   4.216   4.005
 7542SOL     OW23524   0.792   5.873   0.194
 7542SOL    HW123525   0.887   5.843   0.194
 7542SOL    HW223526   0.763   5.889   0.288
 7543SOL     OW23527   3.354   1.972   0.795
 7543SOL    HW123528   3.315   1.982   0.704
 7543SOL    HW223529   3.350   1.876   0.824
 7544SOL     OW23530   0.228   2.536   3.195
 7544SOL    HW123531   0.253   2.439   3.194
 7544SOL    HW223532   0.129   2.546   3.203
 7545SOL     OW23533   6.249   5.957   1.809
 7545SOL    HW123534   6.203   5.881   1.855
 7545SOL    HW223535   6.190   6.038   1.812
 7546SOL     OW23536   2.993   1.206   2.186
 7546SOL    HW123537   3.029   1.261   2.111
 7546SOL    HW223538   3.001   1.109   2.163
 7547SOL     OW23539   4.777   0.881   0.208
 7547SOL    HW123540   4.733   0.969   0.223
 7547SOL    HW223541   4.750   0.817   0.280
 7548SOL     OW23542   3.562   2.110   0.466
 7548SOL    HW123543   3.556   2.127   0.368
 7548SOL    HW223544   3.617   2.028   0.482
 7549SOL     OW23545   6.136   1.965   1.236
 7549SOL    HW123546   6.132   1.985   1.138
 7549SOL    HW223547   6.046   1.979   1.276
 7550SOL     OW23548   2.387   4.652   2.517
 7550SOL    HW123549   2.437   4.711   2.454
 7550SOL    HW223550   2.335   4.707   2.581
 7551SOL     OW23551   4.893   3.947   6.742
 7551SOL    HW123552   4.941   4.012   6.683
 7551SOL    HW223553   4.887   3.858   6.696
 7552SOL     OW23554   1.180   5.609   3.520
 7552SOL    HW123555   1.102   5.672   3.520
 7552SOL    HW223556   1.150   5.518   3.491
 7553SOL     OW23557   4.834   5.451   5.207
 7553SOL    HW123558   4.748   5.407   5.236
 7553SOL    HW223559   4.849   5.434   5.110
 7554SOL     OW23560   4.174   1.519   1.617
 7554SOL    HW123561   4.263   1.543   1.656
 7554SOL    HW223562   4.161   1.420   1.622
 7555SOL     OW23563   1.828   4.703   5.456
 7555SOL    HW123564   1.892   4.780   5.457
 7555SOL    HW223565   1.837   4.653   5.370
 7556SOL     OW23566   0.938   3.150   5.865
 7556SOL    HW123567   0.938   3.173   5.962
 7556SOL    HW223568   0.863   3.200   5.819
 7557SOL     OW23569   4.979   2.193   6.442
 7557SOL    HW123570   5.051   2.245   6.488
 7557SOL    HW223571   5.004   2.096   6.439
 7558SOL     OW23572   1.585   2.362   4.409
 7558SOL    HW123573   1.584   2.368   4.310
 7558SOL    HW223574   1.552   2.448   4.449
 7559SOL     OW23575   6.279   4.734   6.882
 7559SOL    HW123576   6.359   4.681   6.912
 7559SOL    HW223577   6.213   4.739   6.956
 7560SOL     OW23578   4.850   6.602   0.908
 7560SOL    HW123579   4.856   6.578   1.005
 7560SOL    HW223580   4.869   6.521   0.852
 7561SOL     OW23581   1.073   3.220   6.771
 7561SOL    HW123582   1.061   3.218   6.870
 7561SOL    HW223583   1.117   3.136   6.740
 7562SOL     OW23584   6.293   5.907   4.938
 7562SOL    HW123585   6.335   5.867   4.857
 7562SOL    HW223586   6.226   5.843   4.976
 7563SOL     OW23587   2.312   6.195   0.616
 7563SOL    HW123588   2.365   6.261   0.670
 7563SOL    HW223589   2.220   6.231   0.601
 7564SOL     OW23590   5.198   1.703   3.162
 7564SOL    HW123591   5.163   1.758   3.237
 7564SOL    HW223592   5.137   1.626   3.145
 7565SOL     OW23593   5.913   3.284   0.767
 7565SOL    HW123594   5.823   3.316   0.796
 7565SOL    HW223595   5.914   3.184   0.765
 7566SOL     OW23596   0.095   4.814   3.131
 7566SOL    HW123597   0.131   4.906   3.118
 7566SOL    HW223598   0.106   4.762   3.046
 7567SOL     OW23599   1.573   1.744   5.114
 7567SOL    HW123600   1.520   1.829   5.113
 7567SOL    HW223601   1.660   1.761   5.159
 7568SOL     OW23602   5.374   6.682   3.189
 7568SOL    HW123603   5.420   6.703   3.275
 7568SOL    HW223604   5.292   6.738   3.181
 7569SOL     OW23605   3.801   5.831   6.592
 7569SOL    HW123606   3.781   5.858   6.498
 7569SOL    HW223607   3.720   5.789   6.633
 7570SOL     OW23608   5.792   4.217   5.106
 7570SOL    HW123609   5.704   4.222   5.059
 7570SOL    HW223610   5.805   4.125   5.143
 7571SOL     OW23611   5.117   5.500   3.268
 7571SOL    HW123612   5.025   5.527   3.299
 7571SOL    HW223613   5.112   5.412   3.221
 7572SOL     OW23614   3.927   0.781   2.189
 7572SOL    HW123615   4.026   0.780   2.197
 7572SOL    HW223616   3.899   0.720   2.115
 7573SOL     OW23617   0.171   6.189   4.739
 7573SOL    HW123618   0.173   6.209   4.837
 7573SOL    HW223619   0.241   6.121   4.717
 7574SOL     OW23620   6.049   0.801   4.959
 7574SOL    HW123621   6.127   0.818   4.898
 7574SOL    HW223622   5.978   0.753   4.907
 7575SOL     OW23623   3.713   0.243   5.653
 7575SOL    HW123624   3.617   0.261   5.633
 7575SOL    HW223625   3.759   0.210   5.571
 7576SOL     OW23626   5.217   4.679   6.883
 7576SOL    HW123627   5.129   4.695   6.838
 7576SOL    HW223628   5.288   4.668   6.814
 7577SOL     OW23629   6.951   6.932   6.238
 7577SOL    HW123630   6.976   0.006   6.241
 7577SOL    HW223631   6.935   6.905   6.143
 7578SOL     OW23632   2.476   5.851   2.339
 7578SOL    HW123633   2.405   5.815   2.279
 7578SOL    HW223634   2.498   5.945   2.312
 7579SOL     OW23635   6.475   1.711   2.021
 7579SOL    HW123636   6.424   1.662   2.092
 7579SOL    HW223637   6.493   1.650   1.944
 7580SOL     OW23638   1.301   4.221   4.481
 7580SOL    HW123639   1.209   4.245   4.451
 7580SOL    HW223640   1.297   4.184   4.574
 7581SOL     OW23641   6.817   0.601   1.201
 7581SOL    HW123642   6.777   0.510   1.218
 7581SOL    HW223643   6.892   0.616   1.265
 7582SOL     OW23644   2.731   0.876   0.643
 7582SOL    HW123645   2.684   0.810   0.584
 7582SOL    HW223646   2.822   0.894   0.607
 7583SOL     OW23647   6.546   2.957   0.491
 7583SOL    HW123648   6.633   2.982   0.533
 7583SOL    HW223649   6.478   2.939   0.562
 7584SOL     OW23650   2.352   0.046   1.598
 7584SOL    HW123651   2.452   0.053   1.594
 7584SOL    HW223652   2.323   6.983   1.556
 7585SOL     OW23653   1.872   2.286   6.080
 7585SOL    HW123654   1.863   2.383   6.062
 7585SOL    HW223655   1.962   2.268   6.120
 7586SOL     OW23656   3.613   1.432   3.624
 7586SOL    HW123657   3.649   1.524   3.609
 7586SOL    HW223658   3.678   1.378   3.677
 7587SOL     OW23659   2.737   1.811   6.876
 7587SOL    HW123660   2.711   1.904   6.902
 7587SOL    HW223661   2.818   1.783   6.927
 7588SOL     OW23662   1.430   3.385   2.593
 7588SOL    HW123663   1.453   3.417   2.501
 7588SOL    HW223664   1.498   3.418   2.658
 7589SOL     OW23665   0.492   0.006   1.917
 7589SOL    HW123666   0.537   6.944   1.948
 7589SOL    HW223667   0.461   0.058   1.997
 7590SOL     OW23668   4.382   1.877   6.712
 7590SOL    HW123669   4.432   1.791   6.719
 7590SOL    HW223670   4.290   1.860   6.676
 7591SOL     OW23671   0.116   3.987   0.354
 7591SOL    HW123672   0.169   4.041   0.419
 7591SOL    HW223673   0.145   4.010   0.261
 7592SOL     OW23674   6.615   3.916   5.903
 7592SOL    HW123675   6.637   3.962   5.989
 7592SOL    HW223676   6.621   3.817   5.916
 7593SOL     OW23677   6.179   2.777   1.162
 7593SOL    HW123678   6.235   2.701   1.127
 7593SOL    HW223679   6.087   2.744   1.182
 7594SOL     OW23680   0.716   5.424   2.176
 7594SOL    HW123681   0.772   5.435   2.094
 7594SOL    HW223682   0.655   5.345   2.165
 7595SOL     OW23683   0.034   2.568   5.629
 7595SOL    HW123684   0.019   2.480   5.673
 7595SOL    HW223685   0.023   2.641   5.696
 7596SOL     OW23686   4.674   5.535   4.118
 7596SOL    HW123687   4.610   5.611   4.103
 7596SOL    HW223688   4.678   5.479   4.035
 7597SOL     OW23689   3.828   6.306   2.847
 7597SOL    HW123690   3.844   6.339   2.940
 7597SOL    HW223691   3.894   6.234   2.826
 7598SOL     OW23692   6.766   1.840   3.434
 7598SOL    HW123693   6.786   1.857   3.337
 7598SOL    HW223694   6.699   1.766   3.441
 7599SOL     OW23695   5.852   1.741   2.457
 7599SOL    HW123696   5.930   1.686   2.426
 7599SOL    HW223697   5.840   1.728   2.555
 7600SOL     OW23698   2.032   1.778   2.471
 7600SOL    HW123699   2.039   1.837   2.391
 7600SOL    HW223700   2.043   1.682   2.443
 7601SOL     OW23701   2.413   5.568   3.308
 7601SOL    HW123702   2.511   5.549   3.309
 7601SOL    HW223703   2.399   5.667   3.311
 7602SOL     OW23704   0.424   4.648   6.475
 7602SOL    HW123705   0.342   4.704   6.464
 7602SOL    HW223706   0.465   4.666   6.565
 7603SOL     OW23707   1.971   4.975   6.212
 7603SOL    HW123708   1.962   5.049   6.278
 7603SOL    HW223709   1.900   4.906   6.228
 7604SOL     OW23710   1.486   4.919   4.232
 7604SOL    HW123711   1.523   4.830   4.260
 7604SOL    HW223712   1.545   4.959   4.162
 7605SOL     OW23713   0.329   6.889   1.077
 7605SOL    HW123714   0.274   6.899   1.160
 7605SOL    HW223715   0.270   6.861   1.001
 7606SOL     OW23716   6.275   3.433   4.183
 7606SOL    HW123717   6.256   3.499   4.255
 7606SOL    HW223718   6.326   3.477   4.109
 7607SOL     OW23719   3.976   4.917   0.079
 7607SOL    HW123720   3.969   4.827   0.034
 7607SOL    HW223721   3.942   4.909   0.173
 7608SOL     OW23722   3.805   3.945   2.913
 7608SOL    HW123723   3.880   3.887   2.882
 7608SOL    HW223724   3.772   4.001   2.837
 7609SOL     OW23725   1.059   3.387   4.228
 7609SOL    HW123726   1.081   3.304   4.279
 7609SOL    HW223727   1.137   3.450   4.231
 7610SOL     OW23728   5.622   6.173   0.139
 7610SOL    HW123729   5.652   6.101   0.202
 7610SOL    HW223730   5.682   6.175   0.060
 7611SOL     OW23731   0.193   1.835   0.817
 7611SOL    HW123732   0.224   1.821   0.911
 7611SOL    HW223733   0.201   1.749   0.766
 7612SOL     OW23734   5.278   3.122   4.790
 7612SOL    HW123735   5.241   3.208   4.756
 7612SOL    HW223736   5.371   3.135   4.823
 7613SOL     OW23737   6.756   3.582   1.405
 7613SOL    HW123738   6.788   3.515   1.472
 7613SOL    HW223739   6.668   3.552   1.368
 7614SOL     OW23740   4.882   3.611   0.971
 7614SOL    HW123741   4.821   3.649   0.901
 7614SOL    HW223742   4.889   3.675   1.048
 7615SOL     OW23743   3.556   4.396   6.609
 7615SOL    HW123744   3.617   4.464   6.649
 7615SOL    HW223745   3.506   4.349   6.682
 7616SOL     OW23746   6.219   5.147   5.355
 7616SOL    HW123747   6.153   5.124   5.284
 7616SOL    HW223748   6.196   5.235   5.396
 7617SOL     OW23749   3.580   5.470   2.875
 7617SOL    HW123750   3.506   5.536   2.889
 7617SOL    HW223751   3.608   5.472   2.779
 7618SOL     OW23752   0.268   1.503   5.792
 7618SOL    HW123753   0.200   1.497   5.718
 7618SOL    HW223754   0.288   1.411   5.827
 7619SOL     OW23755   5.774   2.788   5.290
 7619SOL    HW123756   5.754   2.884   5.311
 7619SOL    HW223757   5.763   2.773   5.192
 7620SOL     OW23758   4.145   5.808   0.743
 7620SOL    HW123759   4.067   5.755   0.711
 7620SOL    HW223760   4.228   5.776   0.697
 7621SOL     OW23761   0.216   1.568   0.713
 7621SOL    HW123762   0.285   1.518   0.766
 7621SOL    HW223763   0.250   1.584   0.621
 7622SOL     OW23764   4.997   5.565   1.501
 7622SOL    HW123765   5.083   5.532   1.461
 7622SOL    HW223766   4.924   5.500   1.480
 7623SOL     OW23767   4.765   4.476   6.737
 7623SOL    HW123768   4.852   4.430   6.756
 7623SOL    HW223769   4.698   4.449   6.805
 7624SOL     OW23770   0.486   3.207   4.992
 7624SOL    HW123771   0.566   3.148   4.987
 7624SOL    HW223772   0.429   3.193   4.911
 7625SOL     OW23773   4.651   0.819   1.537
 7625SOL    HW123774   4.702   0.800   1.621
 7625SOL    HW223775   4.653   0.917   1.518
 7626SOL     OW23776   6.126   0.071   4.081
 7626SOL    HW123777   6.057   0.044   4.148
 7626SOL    HW223778   6.180   7.014   4.055
 7627SOL     OW23779   5.330   2.496   0.182
 7627SOL    HW123780   5.356   2.402   0.205
 7627SOL    HW223781   5.396   2.534   0.117
 7628SOL     OW23782   3.689   1.322   2.601
 7628SOL    HW123783   3.638   1.322   2.687
 7628SOL    HW223784   3.746   1.240   2.595
 7629SOL     OW23785   6.570   6.443   3.251
 7629SOL    HW123786   6.662   6.477   3.233
 7629SOL    HW223787   6.522   6.506   3.312
 7630SOL     OW23788   6.595   6.580   1.738
 7630SOL    HW123789   6.584   6.491   1.696
 7630SOL    HW223790   6.506   6.626   1.742
 7631SOL     OW23791   0.987   1.355   6.048
 7631SOL    HW123792   0.964   1.375   5.953
 7631SOL    HW223793   1.084   1.334   6.056
 7632SOL     OW23794   3.174   2.975   1.985
 7632SOL    HW123795   3.268   2.996   2.014
 7632SOL    HW223796   3.170   2.883   1.947
 7633SOL     OW23797   4.930   1.092   1.467
 7633SOL    HW123798   4.998   1.032   1.508
 7633SOL    HW223799   4.960   1.119   1.375
 7634SOL     OW23800   1.332   1.775   2.793
 7634SOL    HW123801   1.408   1.775   2.728
 7634SOL    HW223802   1.304   1.681   2.812
 7635SOL     OW23803   3.790   5.240   5.018
 7635SOL    HW123804   3.749   5.326   4.987
 7635SOL    HW223805   3.786   5.235   5.117
 7636SOL     OW23806   1.315   2.177   4.236
 7636SOL    HW123807   1.320   2.204   4.140
 7636SOL    HW223808   1.386   2.108   4.254
 7637SOL     OW23809   2.679   5.203   2.425
 7637SOL    HW123810   2.673   5.115   2.474
 7637SOL    HW223811   2.707   5.186   2.331
 7638SOL     OW23812   3.116   6.360   0.726
 7638SOL    HW123813   3.144   6.288   0.789
 7638SOL    HW223814   3.074   6.435   0.778
 7639SOL     OW23815   1.396   2.201   0.881
 7639SOL    HW123816   1.378   2.182   0.784
 7639SOL    HW223817   1.314   2.181   0.935
 7640SOL     OW23818   3.354   2.061   6.643
 7640SOL    HW123819   3.447   2.091   6.664
 7640SOL    HW223820   3.307   2.133   6.592
 7641SOL     OW23821   1.631   4.654   1.957
 7641SOL    HW123822   1.648   4.744   1.917
 7641SOL    HW223823   1.592   4.594   1.887
 7642SOL     OW23824   3.962   0.783   2.711
 7642SOL    HW123825   3.902   0.736   2.645
 7642SOL    HW223826   3.933   0.878   2.720
 7643SOL     OW23827   4.856   3.481   4.205
 7643SOL    HW123828   4.884   3.563   4.255
 7643SOL    HW223829   4.831   3.409   4.270
 7644SOL     OW23830   5.695   2.446   2.088
 7644SOL    HW123831   5.737   2.536   2.101
 7644SOL    HW223832   5.725   2.384   2.161
 7645SOL     OW23833   3.916   4.254   5.558
 7645SOL    HW123834   4.005   4.218   5.529
 7645SOL    HW223835   3.845   4.187   5.537
 7646SOL     OW23836   1.293   3.966   3.056
 7646SOL    HW123837   1.301   3.956   3.155
 7646SOL    HW223838   1.383   3.952   3.014
 7647SOL     OW23839   6.646   3.516   3.072
 7647SOL    HW123840   6.607   3.497   3.162
 7647SOL    HW223841   6.603   3.456   3.004
 7648SOL     OW23842   2.504   1.524   3.304
 7648SOL    HW123843   2.580   1.579   3.268
 7648SOL    HW223844   2.540   1.447   3.356
 7649SOL     OW23845   1.358   0.353   3.159
 7649SOL    HW123846   1.381   0.318   3.069
 7649SOL    HW223847   1.391   0.447   3.168
 7650SOL     OW23848   5.203   2.167   0.904
 7650SOL    HW123849   5.170   2.139   0.814
 7650SOL    HW223850   5.126   2.176   0.966
 7651SOL     OW23851   2.191   0.994   4.654
 7651SOL    HW123852   2.113   1.055   4.641
 7651SOL    HW223853   2.266   1.023   4.593
 7652SOL     OW23854   6.235   3.154   4.512
 7652SOL    HW123855   6.283   3.087   4.454
 7652SOL    HW223856   6.281   3.161   4.600
 7653SOL     OW23857   1.817   2.145   6.954
 7653SOL    HW123858   1.728   2.147   6.909
 7653SOL    HW223859   1.826   2.060   7.005
 7654SOL     OW23860   4.915   2.871   3.506
 7654SOL    HW123861   4.998   2.859   3.451
 7654SOL    HW223862   4.921   2.955   3.559
 7655SOL     OW23863   4.572   0.157   3.012
 7655SOL    HW123864   4.650   0.150   3.075
 7655SOL    HW223865   4.544   0.065   2.984
 7656SOL     OW23866   2.300   4.823   5.803
 7656SOL    HW123867   2.284   4.915   5.769
 7656SOL    HW223868   2.263   4.814   5.896
 7657SOL     OW23869   1.820   2.810   4.254
 7657SOL    HW123870   1.872   2.865   4.319
 7657SOL    HW223871   1.858   2.822   4.162
 7658SOL     OW23872   3.468   0.024   5.839
 7658SOL    HW123873   3.461   0.041   5.740
 7658SOL    HW223874   3.396   6.983   5.867
 7659SOL     OW23875   5.575   5.389   6.719
 7659SOL    HW123876   5.671   5.370   6.696
 7659SOL    HW223877   5.516   5.339   6.655
 7660SOL     OW23878   0.436   5.828   3.856
 7660SOL    HW123879   0.491   5.898   3.811
 7660SOL    HW223880   0.475   5.809   3.946
 7661SOL     OW23881   6.122   2.675   4.608
 7661SOL    HW123882   6.048   2.741   4.596
 7661SOL    HW223883   6.135   2.624   4.523
 7662SOL     OW23884   1.074   3.151   2.515
 7662SOL    HW123885   1.026   3.237   2.500
 7662SOL    HW223886   1.169   3.169   2.540
 7663SOL     OW23887   1.437   5.604   6.288
 7663SOL    HW123888   1.357   5.653   6.323
 7663SOL    HW223889   1.412   5.555   6.205
 7664SOL     OW23890   3.736   0.265   1.234
 7664SOL    HW123891   3.794   0.240   1.156
 7664SOL    HW223892   3.718   0.364   1.231
 7665SOL     OW23893   4.943   0.229   5.016
 7665SOL    HW123894   5.022   0.231   5.078
 7665SOL    HW223895   4.868   0.280   5.057
 7666SOL     OW23896   0.098   6.003   1.391
 7666SOL    HW123897   0.111   6.037   1.485
 7666SOL    HW223898   0.187   5.987   1.349
 7667SOL     OW23899   4.906   5.974   2.651
 7667SOL    HW123900   4.845   5.908   2.607
 7667SOL    HW223901   4.998   5.936   2.658
 7668SOL     OW23902   3.335   4.954   0.651
 7668SOL    HW123903   3.257   4.951   0.714
 7668SOL    HW223904   3.413   4.996   0.696
 7669SOL     OW23905   5.054   1.842   5.823
 7669SOL    HW123906   5.024   1.856   5.917
 7669SOL    HW223907   5.031   1.923   5.768
 7670SOL     OW23908   0.981   5.397   6.857
 7670SOL    HW123909   1.009   5.454   6.934
 7670SOL    HW223910   0.939   5.454   6.787
 7671SOL     OW23911   4.214   1.014   3.057
 7671SOL    HW123912   4.130   1.059   3.026
 7671SOL    HW223913   4.288   1.032   2.992
 7672SOL     OW23914   0.574   6.929   2.981
 7672SOL    HW123915   0.507   6.907   2.909
 7672SOL    HW223916   0.597   6.846   3.031
 7673SOL     OW23917   1.641   5.625   0.059
 7673SOL    HW123918   1.644   5.654   6.986
 7673SOL    HW223919   1.546   5.623   0.091
 7674SOL     OW23920   5.686   1.291   3.337
 7674SOL    HW123921   5.716   1.277   3.243
 7674SOL    HW223922   5.680   1.389   3.356
 7675SOL     OW23923   6.116   6.853   2.262
 7675SOL    HW123924   6.071   6.942   2.272
 7675SOL    HW223925   6.105   6.820   2.168
 7676SOL     OW23926   1.848   1.746   1.021
 7676SOL    HW123927   1.928   1.692   0.997
 7676SOL    HW223928   1.790   1.759   0.940
 7677SOL     OW23929   0.546   5.197   2.181
 7677SOL    HW123930   0.450   5.222   2.165
 7677SOL    HW223931   0.567   5.114   2.129
 7678SOL     OW23932   1.829   2.052   4.912
 7678SOL    HW123933   1.787   2.054   4.821
 7678SOL    HW223934   1.759   2.068   4.981
 7679SOL     OW23935   2.423   5.460   6.769
 7679SOL    HW123936   2.421   5.501   6.678
 7679SOL    HW223937   2.403   5.530   6.838
 7680SOL     OW23938   1.954   1.510   0.854
 7680SOL    HW123939   1.873   1.459   0.884
 7680SOL    HW223940   1.929   1.572   0.780
 7681SOL     OW23941   2.135   0.109   1.226
 7681SOL    HW123942   2.036   0.095   1.229
 7681SOL    HW223943   2.177   0.044   1.163
 7682SOL     OW23944   3.507   6.899   2.736
 7682SOL    HW123945   3.520   6.814   2.685
 7682SOL    HW223946   3.592   6.953   2.734
 7683SOL     OW23947   5.553   1.306   3.577
 7683SOL    HW123948   5.627   1.313   3.509
 7683SOL    HW223949   5.465   1.303   3.529
 7684SOL     OW23950   3.760   2.032   1.846
 7684SOL    HW123951   3.707   2.091   1.908
 7684SOL    HW223952   3.824   2.088   1.793
 7685SOL     OW23953   3.394   2.578   6.774
 7685SOL    HW123954   3.379   2.494   6.827
 7685SOL    HW223955   3.418   2.652   6.837
 7686SOL     OW23956   6.745   6.686   3.033
 7686SOL    HW123957   6.651   6.673   3.002
 7686SOL    HW223958   6.746   6.749   3.111
 7687SOL     OW23959   5.869   4.845   3.952
 7687SOL    HW123960   5.787   4.893   3.985
 7687SOL    HW223961   5.890   4.876   3.860
 7688SOL     OW23962   1.671   6.033   6.208
 7688SOL    HW123963   1.588   5.984   6.183
 7688SOL    HW223964   1.649   6.128   6.228
 7689SOL     OW23965   5.833   6.583   3.050
 7689SOL    HW123966   5.736   6.563   3.037
 7689SOL    HW223967   5.883   6.557   2.968
 7690SOL     OW23968   5.652   5.164   0.520
 7690SOL    HW123969   5.660   5.073   0.478
 7690SOL    HW223970   5.571   5.167   0.579
 7691SOL     OW23971   5.499   2.874   5.177
 7691SOL    HW123972   5.571   2.805   5.178
 7691SOL    HW223973   5.432   2.853   5.248
 7692SOL     OW23974   0.259   6.611   2.229
 7692SOL    HW123975   0.200   6.647   2.157
 7692SOL    HW223976   0.317   6.538   2.192
 7693SOL     OW23977   4.249   0.045   1.124
 7693SOL    HW123978   4.253   0.003   1.033
 7693SOL    HW223979   4.209   0.136   1.117
 7694SOL     OW23980   0.255   4.593   5.375
 7694SOL    HW123981   0.172   4.648   5.384
 7694SOL    HW223982   0.250   4.539   5.290
 7695SOL     OW23983   4.396   0.107   0.859
 7695SOL    HW123984   4.307   0.083   0.820
 7695SOL    HW223985   4.393   0.201   0.893
 7696SOL     OW23986   6.691   0.765   4.841
 7696SOL    HW123987   6.789   0.758   4.819
 7696SOL    HW223988   6.645   0.818   4.770
 7697SOL     OW23989   3.310   6.602   2.592
 7697SOL    HW123990   3.295   6.622   2.496
 7697SOL    HW223991   3.408   6.611   2.613
 7698SOL     OW23992   6.333   1.975   3.726
 7698SOL    HW123993   6.237   1.977   3.756
 7698SOL    HW223994   6.338   1.937   3.633
 7699SOL     OW23995   3.486   5.891   0.007
 7699SOL    HW123996   3.553   5.824   6.997
 7699SOL    HW223997   3.394   5.857   7.011
 7700SOL     OW23998   5.336   6.284   4.343
 7700SOL    HW123999   5.324   6.273   4.244
 7700SOL    HW224000   5.252   6.317   4.384
 7701SOL     OW24001   6.563   1.306   0.023
 7701SOL    HW124002   6.635   1.316   0.092
 7701SOL    HW224003   6.596   1.342   6.959
 7702SOL     OW24004   3.727   6.433   5.351
 7702SOL    HW124005   3.757   6.483   5.433
 7702SOL    HW224006   3.632   6.405   5.361
 7703SOL     OW24007   5.952   0.533   6.169
 7703SOL    HW124008   6.037   0.552   6.218
 7703SOL    HW224009   5.952   0.581   6.082
 7704SOL     OW24010   6.000   5.442   4.895
 7704SOL    HW124011   6.057   5.362   4.912
 7704SOL    HW224012   5.909   5.428   4.935
 7705SOL     OW24013   3.745   5.524   6.643
 7705SOL    HW124014   3.811   5.568   6.703
 7705SOL    HW224015   3.698   5.593   6.588
 7706SOL     OW24016   4.309   3.198   5.293
 7706SOL    HW124017   4.399   3.218   5.331
 7706SOL    HW224018   4.289   3.100   5.304
 7707SOL     OW24019   0.418   5.700   6.230
 7707SOL    HW124020   0.321   5.693   6.209
 7707SOL    HW224021   0.469   5.717   6.145
 7708SOL     OW24022   6.953   0.190   5.409
 7708SOL    HW124023   6.871   0.171   5.463
 7708SOL    HW224024   0.012   0.177   5.466
 7709SOL     OW24025   6.230   4.397   1.630
 7709SOL    HW124026   6.314   4.356   1.596
 7709SOL    HW224027   6.178   4.436   1.554
 7710SOL     OW24028   2.811   0.881   0.266
 7710SOL    HW124029   2.868   0.887   0.348
 7710SOL    HW224030   2.853   0.818   0.200
 7711SOL     OW24031   6.620   6.474   5.884
 7711SOL    HW124032   6.700   6.524   5.850
 7711SOL    HW224033   6.549   6.540   5.909
 7712SOL     OW24034   5.577   6.084   2.482
 7712SOL    HW124035   5.655   6.129   2.438
 7712SOL    HW224036   5.496   6.095   2.425
 7713SOL     OW24037   1.393   4.251   0.539
 7713SOL    HW124038   1.476   4.234   0.592
 7713SOL    HW224039   1.382   4.178   0.471
 7714SOL     OW24040   6.201   4.194   5.819
 7714SOL    HW124041   6.213   4.220   5.915
 7714SOL    HW224042   6.288   4.159   5.784
 7715SOL     OW24043   4.147   2.055   0.476
 7715SOL    HW124044   4.159   2.151   0.449
 7715SOL    HW224045   4.084   2.011   0.413
 7716SOL     OW24046   6.187   4.628   2.978
 7716SOL    HW124047   6.283   4.605   2.964
 7716SOL    HW224048   6.131   4.547   2.959
 7717SOL     OW24049   1.593   1.083   4.950
 7717SOL    HW124050   1.639   1.129   5.026
 7717SOL    HW224051   1.500   1.058   4.977
 7718SOL     OW24052   1.379   2.942   3.272
 7718SOL    HW124053   1.473   2.949   3.307
 7718SOL    HW224054   1.375   2.872   3.201
 7719SOL     OW24055   6.727   4.463   4.826
 7719SOL    HW124056   6.688   4.415   4.748
 7719SOL    HW224057   6.801   4.408   4.865
 7720SOL     OW24058   0.700   1.453   0.098
 7720SOL    HW124059   0.785   1.461   0.151
 7720SOL    HW224060   0.714   1.493   0.008
 7721SOL     OW24061   0.340   5.520   2.754
 7721SOL    HW124062   0.283   5.602   2.752
 7721SOL    HW224063   0.290   5.443   2.714
 7722SOL     OW24064   1.118   5.375   3.337
 7722SOL    HW124065   1.137   5.360   3.240
 7722SOL    HW224066   1.111   5.288   3.384
 7723SOL     OW24067   4.794   2.921   6.915
 7723SOL    HW124068   4.720   2.861   6.946
 7723SOL    HW224069   4.824   2.978   6.991
 7724SOL     OW24070   3.057   3.868   0.875
 7724SOL    HW124071   2.969   3.822   0.883
 7724SOL    HW224072   3.081   3.910   0.963
 7725SOL     OW24073   6.496   2.105   3.442
 7725SOL    HW124074   6.462   2.010   3.439
 7725SOL    HW224075   6.420   2.166   3.463
 7726SOL     OW24076   1.916   5.801   5.380
 7726SOL    HW124077   1.905   5.704   5.400
 7726SOL    HW224078   1.837   5.833   5.329
 7727SOL     OW24079   6.992   0.973   2.834
 7727SOL    HW124080   0.004   0.985   2.927
 7727SOL    HW224081   6.921   1.041   2.816
 7728SOL     OW24082   1.162   4.704   3.403
 7728SOL    HW124083   1.065   4.725   3.418
 7728SOL    HW224084   1.218   4.762   3.463
 7729SOL     OW24085   5.921   2.625   1.164
 7729SOL    HW124086   5.870   2.577   1.092
 7729SOL    HW224087   5.875   2.610   1.252
 7730SOL     OW24088   5.831   5.924   0.827
 7730SOL    HW124089   5.917   5.973   0.810
 7730SOL    HW224090   5.821   5.910   0.926
 7731SOL     OW24091   6.350   0.697   6.640
 7731SOL    HW124092   6.312   0.643   6.714
 7731SOL    HW224093   6.313   0.790   6.644
 7732SOL     OW24094   4.314   6.364   0.686
 7732SOL    HW124095   4.401   6.379   0.735
 7732SOL    HW224096   4.333   6.340   0.591
 7733SOL     OW24097   4.722   6.219   2.248
 7733SOL    HW124098   4.765   6.268   2.173
 7733SOL    HW224099   4.779   6.227   2.330
 7734SOL     OW24100   2.744   5.119   3.396
 7734SOL    HW124101   2.729   5.183   3.471
 7734SOL    HW224102   2.764   5.169   3.312
 7735SOL     OW24103   4.739   6.414   6.874
 7735SOL    HW124104   4.744   6.317   6.897
 7735SOL    HW224105   4.643   6.442   6.868
 7736SOL     OW24106   3.345   3.698   0.033
 7736SOL    HW124107   3.274   3.650   0.085
 7736SOL    HW224108   3.343   3.795   0.056
 7737SOL     OW24109   3.124   0.013   2.490
 7737SOL    HW124110   3.121   6.960   2.425
 7737SOL    HW224111   3.034   0.027   2.530
 7738SOL     OW24112   2.561   5.952   6.975
 7738SOL    HW124113   2.538   5.933   6.880
 7738SOL    HW224114   2.489   5.916   0.012
 7739SOL     OW24115   0.612   2.673   1.056
 7739SOL    HW124116   0.542   2.737   1.088
 7739SOL    HW224117   0.673   2.720   0.992
 7740SOL     OW24118   2.354   1.091   2.769
 7740SOL    HW124119   2.407   1.042   2.699
 7740SOL    HW224120   2.290   1.027   2.811
 7741SOL     OW24121   1.193   4.937   6.276
 7741SOL    HW124122   1.132   4.872   6.230
 7741SOL    HW224123   1.279   4.892   6.298
 7742SOL     OW24124   4.909   2.101   3.444
 7742SOL    HW124125   4.845   2.025   3.458
 7742SOL    HW224126   4.863   2.188   3.465
 7743SOL     OW24127   6.300   1.323   0.526
 7743SOL    HW124128   6.330   1.255   0.459
 7743SOL    HW224129   6.233   1.283   0.588
 7744SOL     OW24130   0.991   6.551   3.639
 7744SOL    HW124131   0.960   6.574   3.731
 7744SOL    HW224132   1.013   6.634   3.589
 7745SOL     OW24133   3.714   1.225   6.643
 7745SOL    HW124134   3.704   1.324   6.651
 7745SOL    HW224135   3.781   1.193   6.710
 7746SOL     OW24136   2.262   6.682   0.285
 7746SOL    HW124137   2.202   6.648   0.357
 7746SOL    HW224138   2.306   6.605   0.239
 7747SOL     OW24139   5.448   5.800   1.165
 7747SOL    HW124140   5.434   5.852   1.081
 7747SOL    HW224141   5.474   5.861   1.239
 7748SOL     OW24142   3.011   3.939   4.630
 7748SOL    HW124143   2.952   4.009   4.669
 7748SOL    HW224144   2.985   3.849   4.666
 7749SOL     OW24145   2.562   2.540   5.942
 7749SOL    HW124146   2.471   2.523   5.903
 7749SOL    HW224147   2.554   2.551   6.041
 7750SOL     OW24148   0.175   6.070   1.670
 7750SOL    HW124149   0.162   6.159   1.713
 7750SOL    HW224150   0.193   6.001   1.739
 7751SOL     OW24151   1.251   2.487   1.960
 7751SOL    HW124152   1.324   2.446   1.904
 7751SOL    HW224153   1.168   2.432   1.950
 7752SOL     OW24154   5.382   6.889   6.109
 7752SOL    HW124155   5.468   6.875   6.059
 7752SOL    HW224156   5.347   6.981   6.091
 7753SOL     OW24157   2.608   1.588   3.885
 7753SOL    HW124158   2.545   1.578   3.809
 7753SOL    HW224159   2.698   1.616   3.850
 7754SOL     OW24160   3.328   6.417   1.090
 7754SOL    HW124161   3.278   6.461   1.164
 7754SOL    HW224162   3.266   6.362   1.035
 7755SOL     OW24163   2.295   2.170   5.510
 7755SOL    HW124164   2.376   2.114   5.528
 7755SOL    HW224165   2.323   2.254   5.464
 7756SOL     OW24166   2.674   6.491   2.957
 7756SOL    HW124167   2.694   6.497   2.859
 7756SOL    HW224168   2.672   6.395   2.985
 7757SOL     OW24169   5.709   4.921   0.405
 7757SOL    HW124170   5.719   4.832   0.447
 7757SOL    HW224171   5.794   4.945   0.357
 7758SOL     OW24172   2.292   0.162   5.827
 7758SOL    HW124173   2.281   0.073   5.783
 7758SOL    HW224174   2.215   0.221   5.805
 7759SOL     OW24175   1.815   2.021   5.707
 7759SOL    HW124176   1.780   1.929   5.723
 7759SOL    HW224177   1.903   2.015   5.660
 7760SOL     OW24178   6.025   3.657   2.531
 7760SOL    HW124179   6.106   3.599   2.524
 7760SOL    HW224180   5.984   3.668   2.440
 7761SOL     OW24181   6.356   6.898   4.992
 7761SOL    HW124182   6.333   6.977   4.935
 7761SOL    HW224183   6.274   6.865   5.039
 7762SOL     OW24184   2.180   0.293   4.333
 7762SOL    HW124185   2.179   0.376   4.277
 7762SOL    HW224186   2.117   0.303   4.410
 7763SOL     OW24187   2.145   0.106   0.048
 7763SOL    HW124188   2.183   0.014   0.055
 7763SOL    HW224189   2.066   0.105   7.010
 7764SOL     OW24190   3.732   3.430   5.199
 7764SOL    HW124191   3.753   3.452   5.294
 7764SOL    HW224192   3.784   3.490   5.138
 7765SOL     OW24193   5.964   3.422   4.843
 7765SOL    HW124194   5.982   3.364   4.764
 7765SOL    HW224195   6.023   3.503   4.840
 7766SOL     OW24196   6.722   4.070   6.971
 7766SOL    HW124197   6.671   4.115   0.022
 7766SOL    HW224198   6.727   4.130   6.891
 7767SOL     OW24199   4.738   5.808   2.506
 7767SOL    HW124200   4.655   5.861   2.487
 7767SOL    HW224201   4.713   5.721   2.548
 7768SOL     OW24202   4.478   4.481   2.860
 7768SOL    HW124203   4.420   4.488   2.941
 7768SOL    HW224204   4.534   4.398   2.866
 7769SOL     OW24205   4.538   1.709   3.753
 7769SOL    HW124206   4.560   1.704   3.851
 7769SOL    HW224207   4.443   1.738   3.742
 7770SOL     OW24208   1.518   3.651   4.794
 7770SOL    HW124209   1.476   3.742   4.788
 7770SOL    HW224210   1.557   3.626   4.705
 7771SOL     OW24211   3.413   1.871   5.266
 7771SOL    HW124212   3.337   1.820   5.305
 7771SOL    HW224213   3.380   1.960   5.234
 7772SOL     OW24214   4.759   6.846   1.973
 7772SOL    HW124215   4.704   6.865   1.891
 7772SOL    HW224216   4.823   6.921   1.987
 7773SOL     OW24217   2.133   5.138   5.209
 7773SOL    HW124218   2.188   5.150   5.291
 7773SOL    HW224219   2.128   5.040   5.186
 7774SOL     OW24220   4.991   2.087   4.558
 7774SOL    HW124221   5.022   1.999   4.594
 7774SOL    HW224222   5.068   2.136   4.518
 7775SOL     OW24223   4.388   6.801   0.390
 7775SOL    HW124224   4.358   6.849   0.308
 7775SOL    HW224225   4.484   6.773   0.379
 7776SOL     OW24226   0.642   5.926   6.884
 7776SOL    HW124227   0.587   5.966   6.811
 7776SOL    HW224228   0.657   5.993   6.956
 7777SOL     OW24229   6.204   5.405   3.967
 7777SOL    HW124230   6.280   5.340   3.965
 7777SOL    HW224231   6.173   5.423   3.874
 7778SOL     OW24232   5.618   3.742   1.089
 7778SOL    HW124233   5.565   3.686   1.151
 7778SOL    HW224234   5.633   3.693   1.003
 7779SOL     OW24235   2.370   1.817   1.225
 7779SOL    HW124236   2.330   1.903   1.254
 7779SOL    HW224237   2.355   1.805   1.126
 7780SOL     OW24238   0.748   4.858   6.046
 7780SOL    HW124239   0.773   4.950   6.078
 7780SOL    HW224240   0.790   4.789   6.104
 7781SOL     OW24241   2.168   4.594   1.677
 7781SOL    HW124242   2.113   4.630   1.753
 7781SOL    HW224243   2.164   4.494   1.678
 7782SOL     OW24244   5.328   4.982   4.587
 7782SOL    HW124245   5.353   5.024   4.674
 7782SOL    HW224246   5.276   5.048   4.532
 7783SOL     OW24247   0.761   0.014   5.670
 7783SOL    HW124248   0.721   0.000   5.761
 7783SOL    HW224249   0.704   0.077   5.618
 7784SOL     OW24250   3.442   2.837   2.059
 7784SOL    HW124251   3.457   2.739   2.043
 7784SOL    HW224252   3.530   2.881   2.074
 7785SOL     OW24253   1.969   6.034   4.869
 7785SOL    HW124254   1.969   6.125   4.829
 7785SOL    HW224255   1.922   6.036   4.957
 7786SOL     OW24256   3.467   0.147   0.489
 7786SOL    HW124257   3.425   0.059   0.513
 7786SOL    HW224258   3.395   0.214   0.473
 7787SOL     OW24259   2.333   3.226   0.018
 7787SOL    HW124260   2.297   3.178   6.961
 7787SOL    HW224261   2.273   3.301   0.042
 7788SOL     OW24262   1.826   5.102   1.448
 7788SOL    HW124263   1.734   5.141   1.449
 7788SOL    HW224264   1.824   5.012   1.405
 7789SOL     OW24265   2.807   0.453   6.634
 7789SOL    HW124266   2.727   0.498   6.674
 7789SOL    HW224267   2.798   0.450   6.534
 7790SOL     OW24268   5.387   5.656   2.655
 7790SOL    HW124269   5.466   5.707   2.622
 7790SOL    HW224270   5.350   5.600   2.581
 7791SOL     OW24271   2.058   5.389   3.123
 7791SOL    HW124272   2.052   5.301   3.076
 7791SOL    HW224273   2.003   5.386   3.206
 7792SOL     OW24274   2.104   5.588   4.271
 7792SOL    HW124275   2.092   5.601   4.369
 7792SOL    HW224276   2.015   5.595   4.225
 7793SOL     OW24277   3.791   0.924   0.219
 7793SOL    HW124278   3.739   0.961   0.297
 7793SOL    HW224279   3.743   0.947   0.134
 7794SOL     OW24280   0.092   4.033   2.368
 7794SOL    HW124281   0.067   3.947   2.325
 7794SOL    HW224282   0.190   4.034   2.387
 7795SOL     OW24283   2.222   4.617   5.375
 7795SOL    HW124284   2.157   4.545   5.352
 7795SOL    HW224285   2.215   4.639   5.472
 7796SOL     OW24286   3.614   2.973   5.082
 7796SOL    HW124287   3.596   2.931   4.993
 7796SOL    HW224288   3.602   3.072   5.075
 7797SOL     OW24289   1.015   5.896   1.893
 7797SOL    HW124290   1.105   5.877   1.855
 7797SOL    HW224291   1.025   5.948   1.978
 7798SOL     OW24292   0.924   2.924   3.277
 7798SOL    HW124293   0.879   2.839   3.301
 7798SOL    HW224294   0.965   2.965   3.358
 7799SOL     OW24295   1.949   5.328   2.550
 7799SOL    HW124296   1.981   5.309   2.643
 7799SOL    HW224297   1.887   5.406   2.551
 7800SOL     OW24298   0.940   5.356   2.849
 7800SOL    HW124299   0.864   5.375   2.910
 7800SOL    HW224300   0.969   5.440   2.803
 7801SOL     OW24301   1.713   1.862   2.415
 7801SOL    HW124302   1.752   1.943   2.459
 7801SOL    HW224303   1.617   1.853   2.442
 7802SOL     OW24304   6.574   2.698   0.349
 7802SOL    HW124305   6.538   2.782   0.390
 7802SOL    HW224306   6.547   2.693   0.253
 7803SOL     OW24307   4.454   2.258   0.062
 7803SOL    HW124308   4.481   2.317   7.008
 7803SOL    HW224309   4.523   2.265   0.135
 7804SOL     OW24310   4.457   1.943   5.098
 7804SOL    HW124311   4.436   2.025   5.044
 7804SOL    HW224312   4.431   1.960   5.193
 7805SOL     OW24313   5.187   3.421   1.874
 7805SOL    HW124314   5.122   3.355   1.912
 7805SOL    HW224315   5.267   3.427   1.934
 7806SOL     OW24316   5.693   1.791   5.739
 7806SOL    HW124317   5.613   1.776   5.797
 7806SOL    HW224318   5.675   1.753   5.648
 7807SOL     OW24319   1.086   4.714   6.147
 7807SOL    HW124320   1.000   4.697   6.195
 7807SOL    HW224321   1.101   4.641   6.080
 7808SOL     OW24322   5.903   3.396   3.664
 7808SOL    HW124323   5.873   3.321   3.724
 7808SOL    HW224324   5.882   3.374   3.569
 7809SOL     OW24325   5.336   4.969   5.246
 7809SOL    HW124326   5.330   4.951   5.148
 7809SOL    HW224327   5.408   4.911   5.286
 7810SOL     OW24328   3.570   6.454   4.921
 7810SOL    HW124329   3.601   6.360   4.910
 7810SOL    HW224330   3.647   6.516   4.906
 7811SOL     OW24331   1.461   5.023   2.022
 7811SOL    HW124332   1.466   4.975   2.110
 7811SOL    HW224333   1.441   5.120   2.039
 7812SOL     OW24334   1.248   2.403   4.429
 7812SOL    HW124335   1.305   2.328   4.397
 7812SOL    HW224336   1.259   2.483   4.369
 7813SOL     OW24337   4.203   2.014   1.298
 7813SOL    HW124338   4.136   2.070   1.346
 7813SOL    HW224339   4.219   1.930   1.348
 7814SOL     OW24340   6.689   3.231   3.473
 7814SOL    HW124341   6.608   3.184   3.507
 7814SOL    HW224342   6.692   3.324   3.512
 7815SOL     OW24343   5.832   2.065   3.704
 7815SOL    HW124344   5.772   2.143   3.716
 7815SOL    HW224345   5.788   1.983   3.740
 7816SOL     OW24346   1.379   2.236   6.653
 7816SOL    HW124347   1.300   2.229   6.714
 7816SOL    HW224348   1.352   2.284   6.569
 7817SOL     OW24349   4.803   4.246   4.459
 7817SOL    HW124350   4.757   4.238   4.547
 7817SOL    HW224351   4.814   4.343   4.437
 7818SOL     OW24352   4.806   0.388   2.843
 7818SOL    HW124353   4.851   0.299   2.830
 7818SOL    HW224354   4.708   0.378   2.824
 7819SOL     OW24355   0.255   3.654   4.059
 7819SOL    HW124356   0.300   3.649   3.970
 7819SOL    HW224357   0.320   3.629   4.130
 7820SOL     OW24358   1.816   1.436   5.560
 7820SOL    HW124359   1.801   1.377   5.639
 7820SOL    HW224360   1.853   1.382   5.484
 7821SOL     OW24361   5.603   5.572   0.467
 7821SOL    HW124362   5.625   5.665   0.436
 7821SOL    HW224363   5.533   5.577   0.538
 7822SOL     OW24364   0.941   1.338   6.800
 7822SOL    HW124365   1.004   1.369   6.871
 7822SOL    HW224366   0.939   1.238   6.799
 7823SOL     OW24367   2.844   3.720   6.308
 7823SOL    HW124368   2.765   3.757   6.259
 7823SOL    HW224369   2.917   3.702   6.242
 7824SOL     OW24370   5.635   0.983   3.874
 7824SOL    HW124371   5.582   0.991   3.789
 7824SOL    HW224372   5.662   1.074   3.905
 7825SOL     OW24373   1.032   3.454   0.696
 7825SOL    HW124374   1.067   3.484   0.785
 7825SOL    HW224375   0.933   3.446   0.700
 7826SOL     OW24376   5.617   1.680   6.554
 7826SOL    HW124377   5.707   1.690   6.596
 7826SOL    HW224378   5.594   1.583   6.546
 7827SOL     OW24379   2.429   4.612   1.006
 7827SOL    HW124380   2.394   4.693   1.053
 7827SOL    HW224381   2.444   4.539   1.072
 7828SOL     OW24382   0.713   5.221   1.335
 7828SOL    HW124383   0.704   5.188   1.429
 7828SOL    HW224384   0.771   5.302   1.333
 7829SOL     OW24385   2.291   2.874   0.239
 7829SOL    HW124386   2.260   2.780   0.223
 7829SOL    HW224387   2.213   2.936   0.233
 7830SOL     OW24388   4.169   3.918   5.931
 7830SOL    HW124389   4.215   4.001   5.900
 7830SOL    HW224390   4.079   3.912   5.888
 7831SOL     OW24391   1.217   5.338   1.054
 7831SOL    HW124392   1.174   5.261   1.102
 7831SOL    HW224393   1.218   5.418   1.113
 7832SOL     OW24394   3.526   1.092   4.238
 7832SOL    HW124395   3.580   1.141   4.169
 7832SOL    HW224396   3.569   1.004   4.258
 7833SOL     OW24397   0.897   0.371   0.025
 7833SOL    HW124398   0.824   0.318   0.067
 7833SOL    HW224399   0.965   0.395   0.095
 7834SOL     OW24400   0.073   1.574   3.475
 7834SOL    HW124401   0.092   1.646   3.409
 7834SOL    HW224402   0.026   1.613   3.554
 7835SOL     OW24403   2.586   2.353   4.711
 7835SOL    HW124404   2.579   2.451   4.693
 7835SOL    HW224405   2.510   2.324   4.770
 7836SOL     OW24406   3.430   2.761   5.292
 7836SOL    HW124407   3.371   2.684   5.314
 7836SOL    HW224408   3.387   2.817   5.221
 7837SOL     OW24409   6.751   5.393   1.260
 7837SOL    HW124410   6.723   5.315   1.316
 7837SOL    HW224411   6.782   5.361   1.171
 7838SOL     OW24412   4.332   6.276   0.438
 7838SOL    HW124413   4.406   6.319   0.386
 7838SOL    HW224414   4.336   6.177   0.427
 7839SOL     OW24415   5.911   4.414   5.238
 7839SOL    HW124416   5.878   4.331   5.192
 7839SOL    HW224417   5.833   4.471   5.263
 7840SOL     OW24418   4.897   3.255   4.363
 7840SOL    HW124419   4.993   3.270   4.336
 7840SOL    HW224420   4.894   3.220   4.457
 7841SOL     OW24421   4.928   1.437   6.660
 7841SOL    HW124422   4.906   1.340   6.669
 7841SOL    HW224423   4.873   1.491   6.723
 7842SOL     OW24424   1.990   1.860   2.742
 7842SOL    HW124425   1.974   1.841   2.645
 7842SOL    HW224426   2.045   1.786   2.781
 7843SOL     OW24427   4.782   4.178   2.103
 7843SOL    HW124428   4.688   4.209   2.090
 7843SOL    HW224429   4.795   4.153   2.199
 7844SOL     OW24430   4.758   0.308   3.553
 7844SOL    HW124431   4.778   0.328   3.649
 7844SOL    HW224432   4.691   0.373   3.518
 7845SOL     OW24433   6.110   1.684   4.204
 7845SOL    HW124434   6.072   1.593   4.221
 7845SOL    HW224435   6.145   1.689   4.111
 7846SOL     OW24436   1.597   1.209   1.987
 7846SOL    HW124437   1.596   1.274   1.911
 7846SOL    HW224438   1.679   1.153   1.982
 7847SOL     OW24439   6.548   1.890   2.370
 7847SOL    HW124440   6.496   1.805   2.370
 7847SOL    HW224441   6.571   1.915   2.276
 7848SOL     OW24442   3.358   3.199   1.113
 7848SOL    HW124443   3.288   3.249   1.062
 7848SOL    HW224444   3.421   3.154   1.049
 7849SOL     OW24445   5.161   3.579   3.094
 7849SOL    HW124446   5.094   3.643   3.056
 7849SOL    HW224447   5.147   3.489   3.055
 7850SOL     OW24448   0.659   1.680   3.671
 7850SOL    HW124449   0.713   1.764   3.661
 7850SOL    HW224450   0.703   1.606   3.620
 7851SOL     OW24451   0.068   6.552   0.853
 7851SOL    HW124452   0.071   6.644   0.892
 7851SOL    HW224453   0.073   6.557   0.753
 7852SOL     OW24454   2.594   0.207   5.381
 7852SOL    HW124455   2.517   0.266   5.359
 7852SOL    HW224456   2.604   0.201   5.481
 7853SOL     OW24457   3.722   1.231   1.916
 7853SOL    HW124458   3.629   1.265   1.900
 7853SOL    HW224459   3.717   1.139   1.954
 7854SOL     OW24460   2.760   3.703   0.555
 7854SOL    HW124461   2.815   3.773   0.509
 7854SOL    HW224462   2.678   3.684   0.501
 7855SOL     OW24463   2.972   5.852   5.665
 7855SOL    HW124464   2.953   5.933   5.720
 7855SOL    HW224465   2.893   5.790   5.668
 7856SOL     OW24466   5.666   5.270   4.662
 7856SOL    HW124467   5.741   5.253   4.598
 7856SOL    HW224468   5.619   5.354   4.637
 7857SOL     OW24469   6.192   2.837   5.488
 7857SOL    HW124470   6.257   2.808   5.558
 7857SOL    HW224471   6.242   2.863   5.405
 7858SOL     OW24472   4.751   5.157   3.595
 7858SOL    HW124473   4.807   5.183   3.517
 7858SOL    HW224474   4.735   5.058   3.594
 7859SOL     OW24475   6.341   3.844   5.204
 7859SOL    HW124476   6.241   3.852   5.193
 7859SOL    HW224477   6.378   3.934   5.229
 7860SOL     OW24478   4.247   6.968   2.618
 7860SOL    HW124479   4.221   6.880   2.658
 7860SOL    HW224480   4.318   6.954   2.550
 7861SOL     OW24481   3.850   5.211   1.619
 7861SOL    HW124482   3.794   5.221   1.537
 7861SOL    HW224483   3.885   5.300   1.646
 7862SOL     OW24484   2.975   4.702   1.658
 7862SOL    HW124485   2.945   4.656   1.742
 7862SOL    HW224486   2.902   4.698   1.590
 7863SOL     OW24487   6.653   6.399   4.116
 7863SOL    HW124488   6.690   6.352   4.036
 7863SOL    HW224489   6.611   6.485   4.087
 7864SOL     OW24490   6.968   6.689   5.346
 7864SOL    HW124491   7.018   6.616   5.298
 7864SOL    HW224492   6.974   6.774   5.294
 7865SOL     OW24493   5.238   6.880   4.869
 7865SOL    HW124494   5.155   6.936   4.871
 7865SOL    HW224495   5.268   6.869   4.774
 7866SOL     OW24496   2.322   2.480   6.960
 7866SOL    HW124497   2.364   2.570   6.946
 7866SOL    HW224498   2.379   2.427   0.001
 7867SOL     OW24499   5.429   6.633   2.390
 7867SOL    HW124500   5.383   6.712   2.431
 7867SOL    HW224501   5.516   6.662   2.351
 7868SOL     OW24502   5.888   6.611   2.198
 7868SOL    HW124503   5.894   6.553   2.116
 7868SOL    HW224504   5.979   6.625   2.236
 7869SOL     OW24505   5.242   3.335   6.973
 7869SOL    HW124506   5.268   3.425   6.938
 7869SOL    HW224507   5.175   3.346   0.024
 7870SOL     OW24508   4.607   4.832   4.701
 7870SOL    HW124509   4.681   4.850   4.765
 7870SOL    HW224510   4.646   4.801   4.613
 7871SOL     OW24511   5.377   3.879   2.495
 7871SOL    HW124512   5.405   3.840   2.407
 7871SOL    HW224513   5.375   3.807   2.564
 7872SOL     OW24514   2.248   4.171   2.703
 7872SOL    HW124515   2.324   4.128   2.752
 7872SOL    HW224516   2.220   4.254   2.751
 7873SOL     OW24517   5.034   0.798   5.503
 7873SOL    HW124518   5.030   0.875   5.438
 7873SOL    HW224519   5.113   0.740   5.480
 7874SOL     OW24520   4.903   1.727   0.745
 7874SOL    HW124521   4.934   1.664   0.674
 7874SOL    HW224522   4.818   1.771   0.716
 7875SOL     OW24523   4.624   2.319   6.736
 7875SOL    HW124524   4.650   2.337   6.641
 7875SOL    HW224525   4.529   2.347   6.750
 7876SOL     OW24526   6.706   6.751   5.200
 7876SOL    HW124527   6.722   6.654   5.179
 7876SOL    HW224528   6.707   6.804   5.116
 7877SOL     OW24529   6.656   3.105   3.002
 7877SOL    HW124530   6.689   3.082   2.911
 7877SOL    HW224531   6.591   3.036   3.033
 7878SOL     OW24532   5.012   5.200   3.976
 7878SOL    HW124533   5.065   5.135   4.031
 7878SOL    HW224534   4.929   5.156   3.944
 7879SOL     OW24535   4.924   5.857   3.466
 7879SOL    HW124536   4.833   5.895   3.485
 7879SOL    HW224537   4.981   5.866   3.548
 7880SOL     OW24538   1.378   5.237   0.842
 7880SOL    HW124539   1.346   5.289   0.922
 7880SOL    HW224540   1.373   5.139   0.863
 7881SOL     OW24541   5.486   3.435   4.919
 7881SOL    HW124542   5.581   3.458   4.943
 7881SOL    HW224543   5.479   3.337   4.901
 7882SOL     OW24544   1.717   3.517   2.637
 7882SOL    HW124545   1.743   3.502   2.732
 7882SOL    HW224546   1.754   3.443   2.580
 7883SOL     OW24547   1.458   6.885   1.236
 7883SOL    HW124548   1.475   6.936   1.320
 7883SOL    HW224549   1.404   6.940   1.173
 7884SOL     OW24550   2.125   3.500   3.949
 7884SOL    HW124551   2.128   3.493   4.049
 7884SOL    HW224552   2.144   3.594   3.922
 7885SOL     OW24553   6.091   6.457   1.775
 7885SOL    HW124554   6.161   6.448   1.846
 7885SOL    HW224555   6.002   6.471   1.819
 7886SOL     OW24556   4.017   5.077   1.023
 7886SOL    HW124557   4.076   5.077   1.104
 7886SOL    HW224558   3.941   5.141   1.037
 7887SOL     OW24559   3.266   2.565   5.360
 7887SOL    HW124560   3.242   2.531   5.451
 7887SOL    HW224561   3.228   2.504   5.290
 7888SOL     OW24562   0.241   0.534   5.150
 7888SOL    HW124563   0.168   0.590   5.190
 7888SOL    HW224564   0.207   0.442   5.132
 7889SOL     OW24565   0.670   4.768   6.957
 7889SOL    HW124566   0.725   4.688   6.981
 7889SOL    HW224567   0.727   4.850   6.960
 7890SOL     OW24568   0.422   3.232   4.184
 7890SOL    HW124569   0.364   3.308   4.154
 7890SOL    HW224570   0.509   3.236   4.135
 7891SOL     OW24571   1.800   4.291   5.076
 7891SOL    HW124572   1.809   4.265   5.172
 7891SOL    HW224573   1.871   4.357   5.053
 7892SOL     OW24574   1.955   1.994   3.881
 7892SOL    HW124575   2.027   1.934   3.845
 7892SOL    HW224576   1.995   2.081   3.909
 7893SOL     OW24577   6.355   0.234   1.902
 7893SOL    HW124578   6.321   0.328   1.912
 7893SOL    HW224579   6.289   0.170   1.943
 7894SOL     OW24580   3.477   0.744   0.932
 7894SOL    HW124581   3.507   0.839   0.935
 7894SOL    HW224582   3.550   0.687   0.894
 7895SOL     OW24583   5.118   0.231   4.356
 7895SOL    HW124584   5.067   0.299   4.304
 7895SOL    HW224585   5.205   0.270   4.386
 7896SOL     OW24586   4.510   2.875   1.259
 7896SOL    HW124587   4.482   2.787   1.220
 7896SOL    HW224588   4.456   2.894   1.341
 7897SOL     OW24589   3.515   2.283   1.484
 7897SOL    HW124590   3.460   2.309   1.563
 7897SOL    HW224591   3.471   2.315   1.400
 7898SOL     OW24592   3.896   0.221   3.631
 7898SOL    HW124593   3.908   0.189   3.537
 7898SOL    HW224594   3.811   0.274   3.639
 7899SOL     OW24595   5.672   6.592   1.566
 7899SOL    HW124596   5.715   6.525   1.506
 7899SOL    HW224597   5.573   6.592   1.550
 7900SOL     OW24598   0.907   5.296   1.670
 7900SOL    HW124599   0.984   5.359   1.667
 7900SOL    HW224600   0.865   5.299   1.761
 7901SOL     OW24601   4.385   0.968   6.896
 7901SOL    HW124602   4.317   0.974   6.969
 7901SOL    HW224603   4.427   1.057   6.881
 7902SOL     OW24604   5.796   6.212   2.395
 7902SOL    HW124605   5.892   6.196   2.421
 7902SOL    HW224606   5.782   6.184   2.300
 7903SOL     OW24607   4.980   1.512   3.163
 7903SOL    HW124608   4.883   1.534   3.148
 7903SOL    HW224609   5.002   1.425   3.118
 7904SOL     OW24610   5.675   6.742   2.299
 7904SOL    HW124611   5.653   6.825   2.247
 7904SOL    HW224612   5.761   6.704   2.265
 7905SOL     OW24613   6.078   2.435   0.499
 7905SOL    HW124614   5.986   2.454   0.533
 7905SOL    HW224615   6.106   2.344   0.529
 7906SOL     OW24616   0.696   4.996   0.749
 7906SOL    HW124617   0.695   5.032   0.843
 7906SOL    HW224618   0.620   5.036   0.698
 7907SOL     OW24619   6.068   1.979   3.820
 7907SOL    HW124620   5.985   2.025   3.788
 7907SOL    HW224621   6.073   1.987   3.920
 7908SOL     OW24622   1.522   0.644   6.336
 7908SOL    HW124623   1.597   0.664   6.400
 7908SOL    HW224624   1.540   0.558   6.289
 7909SOL     OW24625   5.168   4.281   3.810
 7909SOL    HW124626   5.253   4.233   3.831
 7909SOL    HW224627   5.118   4.298   3.895
 7910SOL     OW24628   2.266   3.182   0.541
 7910SOL    HW124629   2.336   3.114   0.518
 7910SOL    HW224630   2.299   3.273   0.513
 7911SOL     OW24631   1.038   4.847   0.445
 7911SOL    HW124632   1.027   4.802   0.533
 7911SOL    HW224633   1.077   4.938   0.459
 7912SOL     OW24634   5.833   4.510   1.063
 7912SOL    HW124635   5.914   4.504   1.004
 7912SOL    HW224636   5.779   4.426   1.053
 7913SOL     OW24637   1.427   3.983   1.796
 7913SOL    HW124638   1.333   4.016   1.799
 7913SOL    HW224639   1.429   3.884   1.811
 7914SOL     OW24640   0.008   4.518   0.523
 7914SOL    HW124641   7.006   4.435   0.574
 7914SOL    HW224642   0.097   4.550   0.554
 7915SOL     OW24643   5.157   2.165   2.063
 7915SOL    HW124644   5.248   2.205   2.054
 7915SOL    HW224645   5.130   2.164   2.159
 7916SOL     OW24646   6.838   6.585   5.564
 7916SOL    HW124647   6.891   6.616   5.485
 7916SOL    HW224648   6.815   6.489   5.554
 7917SOL     OW24649   3.908   2.981   5.538
 7917SOL    HW124650   3.827   2.970   5.480
 7917SOL    HW224651   3.887   2.951   5.631
 7918SOL     OW24652   6.412   1.110   4.513
 7918SOL    HW124653   6.372   1.055   4.440
 7918SOL    HW224654   6.465   1.185   4.473
 7919SOL     OW24655   1.786   4.908   3.259
 7919SOL    HW124656   1.792   4.819   3.305
 7919SOL    HW224657   1.693   4.944   3.271
 7920SOL     OW24658   6.396   0.133   0.251
 7920SOL    HW124659   6.333   0.087   0.188
 7920SOL    HW224660   6.484   0.086   0.250
 7921SOL     OW24661   6.222   6.442   2.018
 7921SOL    HW124662   6.291   6.383   1.975
 7921SOL    HW224663   6.190   6.400   2.102
 7922SOL     OW24664   0.468   6.146   0.292
 7922SOL    HW124665   0.537   6.169   0.360
 7922SOL    HW224666   0.395   6.092   0.335
 7923SOL     OW24667   4.048   0.610   6.119
 7923SOL    HW124668   4.095   0.560   6.192
 7923SOL    HW224669   3.991   0.547   6.066
 7924SOL     OW24670   5.121   0.269   2.338
 7924SOL    HW124671   5.029   0.301   2.315
 7924SOL    HW224672   5.119   0.222   2.426
 7925SOL     OW24673   0.774   0.125   0.395
 7925SOL    HW124674   0.867   0.163   0.394
 7925SOL    HW224675   0.777   0.030   0.364
 7926SOL     OW24676   4.312   1.917   6.285
 7926SOL    HW124677   4.395   1.970   6.267
 7926SOL    HW224678   4.266   1.954   6.366
 7927SOL     OW24679   4.459   5.770   2.691
 7927SOL    HW124680   4.469   5.840   2.620
 7927SOL    HW224681   4.364   5.738   2.693
 7928SOL     OW24682   1.189   1.528   3.793
 7928SOL    HW124683   1.116   1.517   3.860
 7928SOL    HW224684   1.170   1.471   3.713
 7929SOL     OW24685   4.090   3.812   5.579
 7929SOL    HW124686   4.149   3.732   5.589
 7929SOL    HW224687   3.996   3.784   5.562
 7930SOL     OW24688   4.633   5.274   5.317
 7930SOL    HW124689   4.536   5.279   5.342
 7930SOL    HW224690   4.676   5.198   5.366
 7931SOL     OW24691   3.153   3.459   0.034
 7931SOL    HW124692   3.175   3.475   6.960
 7931SOL    HW224693   3.054   3.449   0.045
 7932SOL     OW24694   1.126   6.148   6.491
 7932SOL    HW124695   1.223   6.130   6.506
 7932SOL    HW224696   1.072   6.082   6.542
 7933SOL     OW24697   6.679   0.100   6.041
 7933SOL    HW124698   6.609   0.070   5.976
 7933SOL    HW224699   6.685   0.035   6.116
 7934SOL     OW24700   1.477   5.053   6.587
 7934SOL    HW124701   1.461   4.962   6.624
 7934SOL    HW224702   1.396   5.110   6.601
 7935SOL     OW24703   5.937   6.172   1.017
 7935SOL    HW124704   5.993   6.111   0.961
 7935SOL    HW224705   5.947   6.266   0.985
 7936SOL     OW24706   2.738   5.884   2.024
 7936SOL    HW124707   2.747   5.970   2.074
 7936SOL    HW224708   2.815   5.824   2.048
 7937SOL     OW24709   6.697   5.993   4.044
 7937SOL    HW124710   6.695   6.004   3.944
 7937SOL    HW224711   6.605   5.972   4.077
 7938SOL     OW24712   6.316   5.996   4.385
 7938SOL    HW124713   6.400   5.997   4.330
 7938SOL    HW224714   6.237   6.008   4.325
 7939SOL     OW24715   1.932   2.207   5.153
 7939SOL    HW124716   1.871   2.261   5.094
 7939SOL    HW224717   2.003   2.165   5.096
 7940SOL     OW24718   1.897   3.165   1.864
 7940SOL    HW124719   1.841   3.149   1.946
 7940SOL    HW224720   1.910   3.079   1.815
 7941SOL     OW24721   6.102   6.167   1.687
 7941SOL    HW124722   6.088   6.263   1.715
 7941SOL    HW224723   6.193   6.157   1.647
 7942SOL     OW24724   0.089   4.893   2.666
 7942SOL    HW124725   0.083   4.974   2.723
 7942SOL    HW224726   0.158   4.831   2.702
 7943SOL     OW24727   0.714   3.992   6.348
 7943SOL    HW124728   0.754   3.909   6.387
 7943SOL    HW224729   0.754   4.009   6.258
 7944SOL     OW24730   0.628   2.658   0.430
 7944SOL    HW124731   0.720   2.693   0.449
 7944SOL    HW224732   0.561   2.705   0.488
 7945SOL     OW24733   6.547   5.468   1.043
 7945SOL    HW124734   6.585   5.405   0.975
 7945SOL    HW224735   6.594   5.454   1.131
 7946SOL     OW24736   3.672   0.012   5.416
 7946SOL    HW124737   3.596   0.003   5.480
 7946SOL    HW224738   3.653   6.982   5.333
 7947SOL     OW24739   3.033   1.522   5.617
 7947SOL    HW124740   3.093   1.534   5.696
 7947SOL    HW224741   3.088   1.513   5.534
 7948SOL     OW24742   1.094   6.021   1.241
 7948SOL    HW124743   1.033   6.051   1.168
 7948SOL    HW224744   1.075   5.925   1.263
 7949SOL     OW24745   5.015   3.966   5.259
 7949SOL    HW124746   4.942   3.989   5.324
 7949SOL    HW224747   5.037   3.869   5.267
 7950SOL     OW24748   4.939   5.521   4.228
 7950SOL    HW124749   4.844   5.520   4.197
 7950SOL    HW224750   5.000   5.508   4.150
 7951SOL     OW24751   2.397   4.989   2.203
 7951SOL    HW124752   2.417   5.075   2.156
 7951SOL    HW224753   2.309   4.995   2.250
 7952SOL     OW24754   6.823   3.385   6.561
 7952SOL    HW124755   6.871   3.467   6.593
 7952SOL    HW224756   6.734   3.411   6.524
 7953SOL     OW24757   3.629   2.145   2.908
 7953SOL    HW124758   3.617   2.165   2.811
 7953SOL    HW224759   3.709   2.085   2.920
 7954SOL     OW24760   3.220   4.367   6.199
 7954SOL    HW124761   3.232   4.276   6.159
 7954SOL    HW224762   3.309   4.400   6.232
 7955SOL     OW24763   2.734   1.297   6.507
 7955SOL    HW124764   2.803   1.317   6.577
 7955SOL    HW224765   2.770   1.322   6.417
 7956SOL     OW24766   4.910   6.685   2.148
 7956SOL    HW124767   4.980   6.751   2.176
 7956SOL    HW224768   4.852   6.727   2.079
 7957SOL     OW24769   1.185   0.557   0.931
 7957SOL    HW124770   1.271   0.580   0.884
 7957SOL    HW224771   1.108   0.571   0.868
 7958SOL     OW24772   4.143   5.155   5.918
 7958SOL    HW124773   4.224   5.150   5.976
 7958SOL    HW224774   4.083   5.077   5.937
 7959SOL     OW24775   5.298   6.200   0.941
 7959SOL    HW124776   5.305   6.183   1.040
 7959SOL    HW224777   5.383   6.241   0.908
 7960SOL     OW24778   1.820   0.860   5.893
 7960SOL    HW124779   1.894   0.917   5.928
 7960SOL    HW224780   1.809   0.779   5.951
 7961SOL     OW24781   0.061   0.791   0.226
 7961SOL    HW124782   0.054   0.879   0.274
 7961SOL    HW224783   0.049   0.717   0.292
 7962SOL     OW24784   1.442   0.962   5.984
 7962SOL    HW124785   1.511   0.897   5.954
 7962SOL    HW224786   1.462   0.994   6.077
 7963SOL     OW24787   6.254   6.503   4.281
 7963SOL    HW124788   6.266   6.427   4.345
 7963SOL    HW224789   6.336   6.512   4.224
 7964SOL     OW24790   7.012   4.153   2.901
 7964SOL    HW124791   6.983   4.248   2.909
 7964SOL    HW224792   0.018   4.135   2.807
 7965SOL     OW24793   4.305   2.232   6.117
 7965SOL    HW124794   4.312   2.135   6.140
 7965SOL    HW224795   4.392   2.277   6.136
 7966SOL     OW24796   2.671   2.519   5.637
 7966SOL    HW124797   2.768   2.535   5.616
 7966SOL    HW224798   2.643   2.431   5.597
 7967SOL     OW24799   3.565   6.254   2.248
 7967SOL    HW124800   3.499   6.278   2.319
 7967SOL    HW224801   3.550   6.313   2.168
 7968SOL     OW24802   0.723   2.191   3.781
 7968SOL    HW124803   0.720   2.110   3.839
 7968SOL    HW224804   0.760   2.268   3.832
 7969SOL     OW24805   5.270   6.350   0.298
 7969SOL    HW124806   5.194   6.410   0.276
 7969SOL    HW224807   5.356   6.393   0.272
 7970SOL     OW24808   6.693   2.839   2.195
 7970SOL    HW124809   6.651   2.849   2.284
 7970SOL    HW224810   6.782   2.793   2.205
 7971SOL     OW24811   3.162   1.741   1.280
 7971SOL    HW124812   3.136   1.820   1.336
 7971SOL    HW224813   3.254   1.755   1.244
 7972SOL     OW24814   2.495   3.202   0.223
 7972SOL    HW124815   2.550   3.122   0.199
 7972SOL    HW224816   2.417   3.209   0.160
 7973SOL     OW24817   4.071   4.843   4.673
 7973SOL    HW124818   4.155   4.798   4.704
 7973SOL    HW224819   4.028   4.890   4.749
 7974SOL     OW24820   5.846   0.503   5.625
 7974SOL    HW124821   5.751   0.499   5.596
 7974SOL    HW224822   5.876   0.412   5.652
 7975SOL     OW24823   6.567   0.866   1.736
 7975SOL    HW124824   6.662   0.878   1.708
 7975SOL    HW224825   6.509   0.854   1.654
 7976SOL     OW24826   0.889   0.457   6.080
 7976SOL    HW124827   0.850   0.397   6.150
 7976SOL    HW224828   0.973   0.499   6.116
 7977SOL     OW24829   4.570   5.817   2.973
 7977SOL    HW124830   4.542   5.807   2.878
 7977SOL    HW224831   4.538   5.738   3.026
 7978SOL     OW24832   6.067   2.439   6.727
 7978SOL    HW124833   5.983   2.488   6.748
 7978SOL    HW224834   6.096   2.461   6.634
 7979SOL     OW24835   3.702   5.461   5.972
 7979SOL    HW124836   3.672   5.525   6.043
 7979SOL    HW224837   3.749   5.383   6.014
 7980SOL     OW24838   2.881   5.553   6.953
 7980SOL    HW124839   2.785   5.526   6.947
 7980SOL    HW224840   2.937   5.473   6.976
 7981SOL     OW24841   0.767   5.286   1.897
 7981SOL    HW124842   0.806   5.196   1.915
 7981SOL    HW224843   0.668   5.278   1.884
 7982SOL     OW24844   1.728   1.287   0.317
 7982SOL    HW124845   1.809   1.313   0.264
 7982SOL    HW224846   1.757   1.238   0.399
 7983SOL     OW24847   6.526   2.045   1.040
 7983SOL    HW124848   6.462   1.980   1.081
 7983SOL    HW224849   6.590   1.996   0.981
 7984SOL     OW24850   1.344   0.949   0.868
 7984SOL    HW124851   1.340   0.884   0.792
 7984SOL    HW224852   1.278   0.921   0.938
 7985SOL     OW24853   2.720   0.895   4.010
 7985SOL    HW124854   2.737   0.855   3.920
 7985SOL    HW224855   2.740   0.828   4.081
 7986SOL     OW24856   2.992   1.033   6.217
 7986SOL    HW124857   3.055   1.101   6.254
 7986SOL    HW224858   2.900   1.071   6.213
 7987SOL     OW24859   1.996   2.581   6.449
 7987SOL    HW124860   2.017   2.607   6.355
 7987SOL    HW224861   2.029   2.489   6.467
 7988SOL     OW24862   0.901   2.317   3.040
 7988SOL    HW124863   0.835   2.268   2.982
 7988SOL    HW224864   0.993   2.286   3.018
 7989SOL     OW24865   2.518   3.251   6.824
 7989SOL    HW124866   2.510   3.351   6.817
 7989SOL    HW224867   2.452   3.217   6.890
 7990SOL     OW24868   1.133   4.457   4.329
 7990SOL    HW124869   1.198   4.485   4.399
 7990SOL    HW224870   1.104   4.362   4.346
 7991SOL     OW24871   5.912   0.284   3.200
 7991SOL    HW124872   5.838   0.349   3.218
 7991SOL    HW224873   5.916   0.264   3.102
 7992SOL     OW24874   1.039   0.516   0.517
 7992SOL    HW124875   1.010   0.599   0.565
 7992SOL    HW224876   0.958   0.459   0.499
 7993SOL     OW24877   0.444   6.740   0.458
 7993SOL    HW124878   0.477   6.698   0.543
 7993SOL    HW224879   0.452   6.674   0.384
 7994SOL     OW24880   4.020   0.152   3.859
 7994SOL    HW124881   3.967   0.189   3.783
 7994SOL    HW224882   3.970   0.166   3.945
 7995SOL     OW24883   6.091   5.591   3.664
 7995SOL    HW124884   6.056   5.497   3.662
 7995SOL    HW224885   6.157   5.604   3.590
 7996SOL     OW24886   2.467   0.087   4.845
 7996SOL    HW124887   2.443   0.047   4.933
 7996SOL    HW224888   2.566   0.098   4.839
 7997SOL     OW24889   0.234   1.192   1.262
 7997SOL    HW124890   0.253   1.231   1.171
 7997SOL    HW224891   0.195   1.263   1.320
 7998SOL     OW24892   2.771   0.075   0.285
 7998SOL    HW124893   2.728   7.008   0.276
 7998SOL    HW224894   2.870   0.067   0.270
 7999SOL     OW24895   1.058   0.833   6.037
 7999SOL    HW124896   1.073   0.886   5.954
 7999SOL    HW224897   1.143   0.831   6.091
 8000SOL     OW24898   4.796   0.147   6.657
 8000SOL    HW124899   4.734   0.150   6.735
 8000SOL    HW224900   4.842   0.058   6.654
 8001SOL     OW24901   4.160   6.112   1.700
 8001SOL    HW124902   4.113   6.197   1.721
 8001SOL    HW224903   4.245   6.107   1.751
 8002SOL     OW24904   2.255   0.720   6.208
 8002SOL    HW124905   2.255   0.742   6.306
 8002SOL    HW224906   2.305   0.635   6.193
 8003SOL     OW24907   2.625   5.422   1.917
 8003SOL    HW124908   2.551   5.489   1.924
 8003SOL    HW224909   2.713   5.470   1.913
 8004SOL     OW24910   2.365   2.785   2.519
 8004SOL    HW124911   2.320   2.700   2.545
 8004SOL    HW224912   2.305   2.862   2.539
 8005SOL     OW24913   3.070   1.511   2.961
 8005SOL    HW124914   3.125   1.591   2.982
 8005SOL    HW224915   2.992   1.538   2.905
 8006SOL     OW24916   2.104   6.376   5.829
 8006SOL    HW124917   2.033   6.311   5.800
 8006SOL    HW224918   2.194   6.333   5.820
 8007SOL     OW24919   6.114   1.577   5.894
 8007SOL    HW124920   6.167   1.544   5.816
 8007SOL    HW224921   6.017   1.582   5.869
 8008SOL     OW24922   4.386   5.951   6.428
 8008SOL    HW124923   4.426   6.036   6.462
 8008SOL    HW224924   4.287   5.957   6.433
 8009SOL     OW24925   5.953   0.783   1.483
 8009SOL    HW124926   5.991   0.857   1.429
 8009SOL    HW224927   5.934   0.705   1.424
 8010SOL     OW24928   1.931   1.050   5.521
 8010SOL    HW124929   1.899   1.136   5.479
 8010SOL    HW224930   1.856   1.008   5.572
 8011SOL     OW24931   3.601   2.303   1.078
 8011SOL    HW124932   3.628   2.207   1.069
 8011SOL    HW224933   3.531   2.311   1.149
 8012SOL     OW24934   2.021   3.775   0.105
 8012SOL    HW124935   2.112   3.746   0.076
 8012SOL    HW224936   2.016   3.775   0.205
 8013SOL     OW24937   1.557   5.210   3.654
 8013SOL    HW124938   1.650   5.174   3.645
 8013SOL    HW224939   1.556   5.284   3.721
 8014SOL     OW24940   1.016   6.453   4.879
 8014SOL    HW124941   1.071   6.403   4.947
 8014SOL    HW224942   0.973   6.532   4.923
 8015SOL     OW24943   2.758   0.530   5.879
 8015SOL    HW124944   2.786   0.594   5.951
 8015SOL    HW224945   2.782   0.437   5.907
 8016SOL     OW24946   4.376   0.165   5.616
 8016SOL    HW124947   4.453   0.136   5.559
 8016SOL    HW224948   4.316   0.224   5.563
 8017SOL     OW24949   5.662   0.002   0.580
 8017SOL    HW124950   5.707   0.087   0.605
 8017SOL    HW224951   5.565   0.019   0.561
 8018SOL     OW24952   2.940   2.163   6.596
 8018SOL    HW124953   3.039   2.164   6.584
 8018SOL    HW224954   2.908   2.256   6.616
 8019SOL     OW24955   2.647   4.722   0.598
 8019SOL    HW124956   2.603   4.757   0.681
 8019SOL    HW224957   2.610   4.632   0.577
 8020SOL     OW24958   6.063   0.251   6.848
 8020SOL    HW124959   6.161   0.232   6.840
 8020SOL    HW224960   6.012   0.165   6.848
 8021SOL     OW24961   1.645   2.213   0.799
 8021SOL    HW124962   1.549   2.226   0.824
 8021SOL    HW224963   1.692   2.301   0.796
 8022SOL     OW24964   5.713   0.127   2.651
 8022SOL    HW124965   5.718   0.225   2.672
 8022SOL    HW224966   5.797   0.082   2.681
 8023SOL     OW24967   6.021   5.178   2.823
 8023SOL    HW124968   6.049   5.083   2.833
 8023SOL    HW224969   6.099   5.239   2.840
 8024SOL     OW24970   1.358   4.589   6.118
 8024SOL    HW124971   1.313   4.509   6.080
 8024SOL    HW224972   1.292   4.665   6.123
 8025SOL     OW24973   2.040   5.950   0.058
 8025SOL    HW124974   2.017   5.929   0.152
 8025SOL    HW224975   2.117   6.015   0.056
 8026SOL     OW24976   6.850   4.469   6.991
 8026SOL    HW124977   6.906   4.414   0.030
 8026SOL    HW224978   6.822   4.553   0.014
 8027SOL     OW24979   4.389   0.291   5.146
 8027SOL    HW124980   4.395   0.193   5.123
 8027SOL    HW224981   4.354   0.341   5.067
 8028SOL     OW24982   4.229   5.869   5.825
 8028SOL    HW124983   4.148   5.837   5.873
 8028SOL    HW224984   4.202   5.921   5.744
 8029SOL     OW24985   4.903   2.774   1.005
 8029SOL    HW124986   4.929   2.728   1.089
 8029SOL    HW224987   4.865   2.864   1.026
 8030SOL     OW24988   4.511   4.749   0.406
 8030SOL    HW124989   4.458   4.746   0.321
 8030SOL    HW224990   4.547   4.658   0.427
 8031SOL     OW24991   6.184   6.371   2.291
 8031SOL    HW124992   6.128   6.437   2.340
 8031SOL    HW224993   6.278   6.378   2.323
 8032SOL     OW24994   6.659   4.062   1.728
 8032SOL    HW124995   6.564   4.050   1.699
 8032SOL    HW224996   6.679   3.998   1.803
 8033SOL     OW24997   4.803   1.999   6.551
 8033SOL    HW124998   4.847   2.079   6.511
 8033SOL    HW224999   4.848   1.916   6.518
 8034SOL     OW25000   4.712   1.085   4.962
 8034SOL    HW125001   4.779   1.155   4.938
 8034SOL    HW225002   4.654   1.065   4.883
 8035SOL     OW25003   5.515   1.713   3.668
 8035SOL    HW125004   5.416   1.703   3.681
 8035SOL    HW225005   5.560   1.626   3.687
 8036SOL     OW25006   6.533   4.083   3.882
 8036SOL    HW125007   6.455   4.139   3.910
 8036SOL    HW225008   6.536   4.076   3.782
 8037SOL     OW25009   1.582   3.282   6.926
 8037SOL    HW125010   1.674   3.280   6.888
 8037SOL    HW225011   1.546   3.189   6.932
 8038SOL     OW25012   4.590   0.177   2.537
 8038SOL    HW125013   4.621   0.092   2.578
 8038SOL    HW225014   4.501   0.202   2.575
 8039SOL     OW25015   0.262   1.812   5.379
 8039SOL    HW125016   0.321   1.809   5.460
 8039SOL    HW225017   0.292   1.744   5.313
 8040SOL     OW25018   1.549   5.339   0.217
 8040SOL    HW125019   1.549   5.370   0.122
 8040SOL    HW225020   1.484   5.264   0.227
 8041SOL     OW25021   3.042   1.221   2.656
 8041SOL    HW125022   2.989   1.202   2.573
 8041SOL    HW225023   2.982   1.220   2.736
 8042SOL     OW25024   3.408   3.095   4.744
 8042SOL    HW125025   3.366   3.028   4.805
 8042SOL    HW225026   3.447   3.170   4.798
 8043SOL     OW25027   3.573   6.260   1.069
 8043SOL    HW125028   3.495   6.323   1.072
 8043SOL    HW225029   3.540   6.167   1.053
 8044SOL     OW25030   4.323   2.578   1.271
 8044SOL    HW125031   4.357   2.585   1.364
 8044SOL    HW225032   4.389   2.527   1.215
 8045SOL     OW25033   6.042   2.723   3.107
 8045SOL    HW125034   5.956   2.706   3.156
 8045SOL    HW225035   6.087   2.635   3.089
 8046SOL     OW25036   0.639   4.464   1.701
 8046SOL    HW125037   0.717   4.430   1.649
 8046SOL    HW225038   0.639   4.422   1.792
 8047SOL     OW25039   4.454   5.764   5.965
 8047SOL    HW125040   4.361   5.791   5.939
 8047SOL    HW225041   4.456   5.739   6.062
 8048SOL     OW25042   4.806   2.093   6.792
 8048SOL    HW125043   4.803   2.059   6.698
 8048SOL    HW225044   4.722   2.144   6.812
 8049SOL     OW25045   0.842   0.037   0.065
 8049SOL    HW125046   0.777   0.109   0.088
 8049SOL    HW225047   0.825   6.980   0.123
 8050SOL     OW25048   2.099   3.481   3.524
 8050SOL    HW125049   2.145   3.408   3.574
 8050SOL    HW225050   2.018   3.444   3.478
 8051SOL     OW25051   4.572   5.561   4.360
 8051SOL    HW125052   4.620   5.516   4.285
 8051SOL    HW225053   4.588   5.512   4.445
 8052SOL     OW25054   3.056   1.362   0.584
 8052SOL    HW125055   3.010   1.378   0.497
 8052SOL    HW225056   3.033   1.435   0.648
 8053SOL     OW25057   3.205   3.077   4.294
 8053SOL    HW125058   3.133   3.144   4.314
 8053SOL    HW225059   3.244   3.096   4.204
 8054SOL     OW25060   6.292   4.989   5.023
 8054SOL    HW125061   6.198   5.005   5.053
 8054SOL    HW225062   6.316   5.055   4.953
 8055SOL     OW25063   0.360   0.337   5.344
 8055SOL    HW125064   0.323   0.270   5.280
 8055SOL    HW225065   0.288   0.401   5.372
 8056SOL     OW25066   2.258   1.056   3.625
 8056SOL    HW125067   2.263   0.979   3.688
 8056SOL    HW225068   2.192   1.035   3.552
 8057SOL     OW25069   3.119   2.129   2.929
 8057SOL    HW125070   3.140   2.223   2.958
 8057SOL    HW225071   3.021   2.121   2.909
 8058SOL     OW25072   3.804   0.087   3.371
 8058SOL    HW125073   3.707   0.095   3.391
 8058SOL    HW225074   3.823   7.018   3.335
 8059SOL     OW25075   2.555   1.822   4.439
 8059SOL    HW125076   2.500   1.748   4.400
 8059SOL    HW225077   2.643   1.826   4.393
 8060SOL     OW25078   6.283   2.013   6.280
 8060SOL    HW125079   6.364   2.039   6.228
 8060SOL    HW225080   6.201   2.045   6.232
 8061SOL     OW25081   0.220   0.328   2.750
 8061SOL    HW125082   0.186   0.364   2.663
 8061SOL    HW225083   0.309   0.370   2.770
 8062SOL     OW25084   3.464   4.924   4.571
 8062SOL    HW125085   3.376   4.942   4.527
 8062SOL    HW225086   3.475   4.985   4.650
 8063SOL     OW25087   2.249   2.551   2.611
 8063SOL    HW125088   2.176   2.582   2.672
 8063SOL    HW225089   2.314   2.495   2.662
 8064SOL     OW25090   6.504   2.521   0.988
 8064SOL    HW125091   6.578   2.521   1.055
 8064SOL    HW225092   6.523   2.589   0.918
 8065SOL     OW25093   2.789   5.769   4.255
 8065SOL    HW125094   2.726   5.746   4.181
 8065SOL    HW225095   2.755   5.730   4.341
 8066SOL     OW25096   0.475   1.348   5.327
 8066SOL    HW125097   0.401   1.296   5.369
 8066SOL    HW225098   0.477   1.441   5.364
 8067SOL     OW25099   4.983   2.442   2.717
 8067SOL    HW125100   4.924   2.371   2.680
 8067SOL    HW225101   4.974   2.445   2.817
 8068SOL     OW25102   6.968   4.630   1.563
 8068SOL    HW125103   6.888   4.615   1.622
 8068SOL    HW225104   7.017   4.544   1.549
 8069SOL     OW25105   2.058   5.549   0.958
 8069SOL    HW125106   2.131   5.562   0.890
 8069SOL    HW225107   1.972   5.532   0.911
 8070SOL     OW25108   4.259   3.604   1.134
 8070SOL    HW125109   4.233   3.583   1.228
 8070SOL    HW225110   4.223   3.694   1.109
 8071SOL     OW25111   3.209   6.891   4.774
 8071SOL    HW125112   3.196   6.811   4.715
 8071SOL    HW225113   3.195   6.864   4.870
 8072SOL     OW25114   4.193   1.508   0.885
 8072SOL    HW125115   4.155   1.441   0.948
 8072SOL    HW225116   4.284   1.478   0.856
 8073SOL     OW25117   2.986   5.023   5.196
 8073SOL    HW125118   2.994   4.967   5.113
 8073SOL    HW225119   2.996   4.965   5.276
 8074SOL     OW25120   3.093   2.569   1.017
 8074SOL    HW125121   3.170   2.624   0.986
 8074SOL    HW225122   3.112   2.534   1.109
 8075SOL     OW25123   6.894   6.940   0.300
 8075SOL    HW125124   6.955   6.862   0.285
 8075SOL    HW225125   6.934   7.022   0.258
 8076SOL     OW25126   6.095   0.576   5.616
 8076SOL    HW125127   6.145   0.595   5.701
 8076SOL    HW225128   5.999   0.559   5.636
 8077SOL     OW25129   3.184   6.354   2.706
 8077SOL    HW125130   3.094   6.358   2.664
 8077SOL    HW225131   3.230   6.442   2.695
 8078SOL     OW25132   0.082   1.812   0.464
 8078SOL    HW125133   0.136   1.731   0.441
 8078SOL    HW225134   0.138   1.894   0.454
 8079SOL     OW25135   6.211   1.450   3.890
 8079SOL    HW125136   6.144   1.387   3.853
 8079SOL    HW225137   6.168   1.539   3.905
 8080SOL     OW25138   1.252   2.772   1.916
 8080SOL    HW125139   1.264   2.682   1.957
 8080SOL    HW225140   1.318   2.836   1.955
 8081SOL     OW25141   6.417   5.396   5.951
 8081SOL    HW125142   6.409   5.374   5.854
 8081SOL    HW225143   6.405   5.313   6.006
 8082SOL     OW25144   4.269   0.218   2.341
 8082SOL    HW125145   4.257   0.315   2.320
 8082SOL    HW225146   4.313   0.208   2.430
 8083SOL     OW25147   4.958   2.643   3.065
 8083SOL    HW125148   4.989   2.640   2.969
 8083SOL    HW225149   4.952   2.550   3.100
 8084SOL     OW25150   3.757   6.399   0.234
 8084SOL    HW125151   3.671   6.369   0.193
 8084SOL    HW225152   3.833   6.353   0.187
 8085SOL     OW25153   6.418   6.638   2.066
 8085SOL    HW125154   6.354   6.562   2.051
 8085SOL    HW225155   6.504   6.618   2.017
 8086SOL     OW25156   6.079   0.897   2.666
 8086SOL    HW125157   6.077   0.874   2.569
 8086SOL    HW225158   5.993   0.868   2.709
 8087SOL     OW25159   2.426   0.598   0.425
 8087SOL    HW125160   2.380   0.569   0.509
 8087SOL    HW225161   2.517   0.555   0.421
 8088SOL     OW25162   6.212   1.474   1.493
 8088SOL    HW125163   6.243   1.381   1.514
 8088SOL    HW225164   6.261   1.539   1.551
 8089SOL     OW25165   5.832   2.980   0.688
 8089SOL    HW125166   5.777   2.948   0.765
 8089SOL    HW225167   5.915   2.924   0.681
 8090SOL     OW25168   4.615   1.719   0.004
 8090SOL    HW125169   4.647   1.680   6.940
 8090SOL    HW225170   4.541   1.784   7.009
 8091SOL     OW25171   2.085   4.166   4.939
 8091SOL    HW125172   2.016   4.105   4.900
 8091SOL    HW225173   2.175   4.124   4.931
 8092SOL     OW25174   5.564   2.460   4.939
 8092SOL    HW125175   5.550   2.361   4.939
 8092SOL    HW225176   5.621   2.485   4.861
 8093SOL     OW25177   4.019   4.845   2.990
 8093SOL    HW125178   3.972   4.831   2.903
 8093SOL    HW225179   4.069   4.761   3.015
 8094SOL     OW25180   0.928   2.953   4.773
 8094SOL    HW125181   0.961   3.013   4.701
 8094SOL    HW225182   0.963   2.984   4.862
 8095SOL     OW25183   0.218   4.555   4.417
 8095SOL    HW125184   0.202   4.624   4.488
 8095SOL    HW225185   0.306   4.571   4.374
 8096SOL     OW25186   1.821   6.821   3.261
 8096SOL    HW125187   1.845   6.912   3.226
 8096SOL    HW225188   1.885   6.795   3.333
 8097SOL     OW25189   4.429   6.763   4.217
 8097SOL    HW125190   4.378   6.785   4.300
 8097SOL    HW225191   4.420   6.666   4.196
 8098SOL     OW25192   1.945   6.537   3.157
 8098SOL    HW125193   1.892   6.453   3.168
 8098SOL    HW225194   1.927   6.599   3.233
 8099SOL     OW25195   3.819   5.989   4.634
 8099SOL    HW125196   3.784   5.985   4.541
 8099SOL    HW225197   3.882   6.066   4.643
 8100SOL     OW25198   0.098   0.641   7.005
 8100SOL    HW125199   0.134   0.548   7.002
 8100SOL    HW225200   0.099   0.674   0.077
 8101SOL     OW25201   2.056   5.962   2.388
 8101SOL    HW125202   2.073   5.916   2.475
 8101SOL    HW225203   2.025   6.056   2.405
 8102SOL     OW25204   0.858   4.349   3.619
 8102SOL    HW125205   0.770   4.313   3.649
 8102SOL    HW225206   0.928   4.327   3.687
 8103SOL     OW25207   2.633   7.013   1.579
 8103SOL    HW125208   2.661   6.917   1.572
 8103SOL    HW225209   2.714   0.047   1.594
 8104SOL     OW25210   2.169   0.579   5.794
 8104SOL    HW125211   2.169   0.556   5.891
 8104SOL    HW225212   2.133   0.502   5.742
 8105SOL     OW25213   0.713   3.278   3.402
 8105SOL    HW125214   0.749   3.196   3.447
 8105SOL    HW225215   0.662   3.333   3.469
 8106SOL     OW25216   3.051   6.554   3.092
 8106SOL    HW125217   3.083   6.472   3.045
 8106SOL    HW225218   3.122   6.586   3.154
 8107SOL     OW25219   1.251   5.193   4.628
 8107SOL    HW125220   1.338   5.242   4.619
 8107SOL    HW225221   1.229   5.183   4.725
 8108SOL     OW25222   6.087   3.076   5.529
 8108SOL    HW125223   6.118   3.153   5.474
 8108SOL    HW225224   6.157   3.005   5.529
 8109SOL     OW25225   0.541   4.117   4.786
 8109SOL    HW125226   0.553   4.086   4.881
 8109SOL    HW225227   0.507   4.041   4.731
 8110SOL     OW25228   3.994   6.014   1.478
 8110SOL    HW125229   3.904   5.979   1.500
 8110SOL    HW225230   4.020   6.085   1.544
 8111SOL     OW25231   5.386   1.274   4.687
 8111SOL    HW125232   5.322   1.203   4.715
 8111SOL    HW225233   5.366   1.358   4.737
 8112SOL     OW25234   2.554   1.847   3.953
 8112SOL    HW125235   2.473   1.878   4.004
 8112SOL    HW225236   2.562   1.748   3.960
 8113SOL     OW25237   1.651   3.818   0.371
 8113SOL    HW125238   1.689   3.774   0.290
 8113SOL    HW225239   1.649   3.917   0.358
 8114SOL     OW25240   1.584   4.211   3.231
 8114SOL    HW125241   1.641   4.131   3.215
 8114SOL    HW225242   1.491   4.194   3.197
 8115SOL     OW25243   3.658   0.414   0.236
 8115SOL    HW125244   3.622   0.503   0.264
 8115SOL    HW225245   3.661   0.410   0.136
 8116SOL     OW25246   4.483   4.745   6.053
 8116SOL    HW125247   4.572   4.785   6.075
 8116SOL    HW225248   4.448   4.785   5.968
 8117SOL     OW25249   2.122   0.087   3.371
 8117SOL    HW125250   2.082   0.049   3.288
 8117SOL    HW225251   2.050   0.116   3.433
 8118SOL     OW25252   5.156   4.517   6.652
 8118SOL    HW125253   5.101   4.601   6.661
 8118SOL    HW225254   5.253   4.540   6.658
 8119SOL     OW25255   5.491   5.914   6.409
 8119SOL    HW125256   5.471   5.984   6.340
 8119SOL    HW225257   5.437   5.931   6.491
 8120SOL     OW25258   3.113   4.957   0.845
 8120SOL    HW125259   3.059   4.991   0.768
 8120SOL    HW225260   3.057   4.955   0.928
 8121SOL     OW25261   6.927   4.968   2.273
 8121SOL    HW125262   7.006   5.011   2.230
 8121SOL    HW225263   6.922   4.872   2.246
 8122SOL     OW25264   0.412   5.429   3.312
 8122SOL    HW125265   0.478   5.441   3.238
 8122SOL    HW225266   0.324   5.467   3.284
 8123SOL     OW25267   0.129   1.773   6.548
 8123SOL    HW125268   0.139   1.797   6.452
 8123SOL    HW225269   0.033   1.780   6.576
 8124SOL     OW25270   5.808   6.413   1.426
 8124SOL    HW125271   5.859   6.341   1.379
 8124SOL    HW225272   5.872   6.482   1.460
 8125SOL     OW25273   1.675   1.376   3.327
 8125SOL    HW125274   1.740   1.325   3.385
 8125SOL    HW225275   1.646   1.459   3.375
 8126SOL     OW25276   4.369   4.605   2.356
 8126SOL    HW125277   4.446   4.575   2.299
 8126SOL    HW225278   4.380   4.567   2.448
 8127SOL     OW25279   2.486   4.425   6.155
 8127SOL    HW125280   2.472   4.522   6.176
 8127SOL    HW225281   2.506   4.376   6.240
 8128SOL     OW25282   2.498   1.533   1.784
 8128SOL    HW125283   2.544   1.592   1.718
 8128SOL    HW225284   2.457   1.589   1.856
 8129SOL     OW25285   4.064   0.215   6.292
 8129SOL    HW125286   4.047   0.275   6.370
 8129SOL    HW225287   4.034   0.259   6.208
 8130SOL     OW25288   0.398   3.360   6.519
 8130SOL    HW125289   0.415   3.263   6.500
 8130SOL    HW225290   0.315   3.388   6.470
 8131SOL     OW25291   2.685   1.831   0.982
 8131SOL    HW125292   2.767   1.875   0.947
 8131SOL    HW225293   2.705   1.736   1.004
 8132SOL     OW25294   5.940   6.757   6.137
 8132SOL    HW125295   5.969   6.851   6.119
 8132SOL    HW225296   5.876   6.756   6.214
 8133SOL     OW25297   3.092   5.514   1.586
 8133SOL    HW125298   3.073   5.452   1.662
 8133SOL    HW225299   3.014   5.516   1.524
 8134SOL     OW25300   6.689   2.764   6.013
 8134SOL    HW125301   6.759   2.699   6.042
 8134SOL    HW225302   6.704   2.789   5.918
 8135SOL     OW25303   2.850   6.766   1.522
 8135SOL    HW125304   2.916   6.700   1.487
 8135SOL    HW225305   2.879   6.797   1.613
 8136SOL     OW25306   4.539   5.644   3.202
 8136SOL    HW125307   4.630   5.684   3.207
 8136SOL    HW225308   4.543   5.549   3.233
 8137SOL     OW25309   3.287   2.031   5.063
 8137SOL    HW125310   3.229   1.950   5.066
 8137SOL    HW225311   3.231   2.113   5.072
 8138SOL     OW25312   5.247   1.008   0.500
 8138SOL    HW125313   5.242   1.074   0.425
 8138SOL    HW225314   5.180   1.032   0.570
 8139SOL     OW25315   7.006   1.441   2.441
 8139SOL    HW125316   7.007   1.399   2.350
 8139SOL    HW225317   7.021   1.539   2.433
 8140SOL     OW25318   4.885   0.333   0.383
 8140SOL    HW125319   4.887   0.427   0.415
 8140SOL    HW225320   4.943   0.276   0.441
 8141SOL     OW25321   4.611   6.044   4.757
 8141SOL    HW125322   4.581   5.958   4.716
 8141SOL    HW225323   4.543   6.115   4.739
 8142SOL     OW25324   1.059   5.557   0.038
 8142SOL    HW125325   1.045   5.654   0.018
 8142SOL    HW225326   1.035   5.539   0.134
 8143SOL     OW25327   5.897   4.309   1.334
 8143SOL    HW125328   5.989   4.271   1.332
 8143SOL    HW225329   5.902   4.408   1.348
 8144SOL     OW25330   6.195   5.984   6.396
 8144SOL    HW125331   6.198   6.063   6.458
 8144SOL    HW225332   6.258   5.999   6.320
 8145SOL     OW25333   5.788   5.658   1.487
 8145SOL    HW125334   5.748   5.579   1.440
 8145SOL    HW225335   5.801   5.638   1.583
 8146SOL     OW25336   4.684   0.529   4.603
 8146SOL    HW125337   4.614   0.519   4.673
 8146SOL    HW225338   4.775   0.520   4.645
 8147SOL     OW25339   6.078   1.708   1.120
 8147SOL    HW125340   6.042   1.773   1.053
 8147SOL    HW225341   6.129   1.636   1.073
 8148SOL     OW25342   5.195   4.506   1.149
 8148SOL    HW125343   5.164   4.486   1.056
 8148SOL    HW225344   5.281   4.457   1.167
 8149SOL     OW25345   3.080   6.459   2.359
 8149SOL    HW125346   3.046   6.429   2.270
 8149SOL    HW225347   3.122   6.382   2.407
 8150SOL     OW25348   1.437   3.764   0.796
 8150SOL    HW125349   1.442   3.673   0.754
 8150SOL    HW225350   1.524   3.811   0.781
 8151SOL     OW25351   5.755   2.461   1.341
 8151SOL    HW125352   5.663   2.432   1.314
 8151SOL    HW225353   5.823   2.401   1.299
 8152SOL     OW25354   6.738   1.887   2.554
 8152SOL    HW125355   6.678   1.865   2.477
 8152SOL    HW225356   6.789   1.970   2.534
 8153SOL     OW25357   2.187   0.372   3.489
 8153SOL    HW125358   2.270   0.425   3.475
 8153SOL    HW225359   2.200   0.280   3.453
 8154SOL     OW25360   3.063   5.120   2.217
 8154SOL    HW125361   3.054   5.024   2.242
 8154SOL    HW225362   2.974   5.165   2.222
 8155SOL     OW25363   1.770   3.716   1.767
 8155SOL    HW125364   1.678   3.724   1.806
 8155SOL    HW225365   1.832   3.780   1.813
 8156SOL     OW25366   5.032   0.174   1.111
 8156SOL    HW125367   4.946   0.187   1.062
 8156SOL    HW225368   5.109   0.186   1.049
 8157SOL     OW25369   0.134   5.543   6.562
 8157SOL    HW125370   0.126   5.643   6.562
 8157SOL    HW225371   0.147   5.510   6.469
 8158SOL     OW25372   4.936   5.215   0.713
 8158SOL    HW125373   4.922   5.284   0.642
 8158SOL    HW225374   4.995   5.143   0.678
 8159SOL     OW25375   3.073   5.843   2.242
 8159SOL    HW125376   3.024   5.765   2.278
 8159SOL    HW225377   3.076   5.838   2.142
 8160SOL     OW25378   5.362   0.847   3.578
 8160SOL    HW125379   5.315   0.811   3.659
 8160SOL    HW225380   5.307   0.827   3.497
 8161SOL     OW25381   5.338   1.758   6.567
 8161SOL    HW125382   5.423   1.751   6.516
 8161SOL    HW225383   5.301   1.666   6.583
 8162SOL     OW25384   6.206   6.043   6.029
 8162SOL    HW125385   6.217   5.953   6.069
 8162SOL    HW225386   6.116   6.080   6.053
 8163SOL     OW25387   2.382   3.988   5.401
 8163SOL    HW125388   2.425   3.910   5.446
 8163SOL    HW225389   2.393   3.980   5.302
 8164SOL     OW25390   4.936   3.326   0.421
 8164SOL    HW125391   4.967   3.392   0.490
 8164SOL    HW225392   4.846   3.292   0.447
 8165SOL     OW25393   1.169   4.007   6.394
 8165SOL    HW125394   1.096   3.972   6.452
 8165SOL    HW225395   1.202   3.933   6.334
 8166SOL     OW25396   1.604   0.272   2.372
 8166SOL    HW125397   1.692   0.228   2.353
 8166SOL    HW225398   1.596   0.356   2.319
 8167SOL     OW25399   6.036   0.138   4.519
 8167SOL    HW125400   5.954   0.110   4.470
 8167SOL    HW225401   6.011   0.167   4.612
 8168SOL     OW25402   2.290   1.680   3.413
 8168SOL    HW125403   2.380   1.636   3.410
 8168SOL    HW225404   2.219   1.611   3.423
 8169SOL     OW25405   5.114   2.229   1.226
 8169SOL    HW125406   5.132   2.132   1.239
 8169SOL    HW225407   5.015   2.245   1.228
 8170SOL     OW25408   1.468   5.272   2.838
 8170SOL    HW125409   1.457   5.296   2.742
 8170SOL    HW225410   1.438   5.178   2.852
 8171SOL     OW25411   1.494   1.536   6.958
 8171SOL    HW125412   1.446   1.552   6.872
 8171SOL    HW225413   1.528   1.624   6.993
 8172SOL     OW25414   0.757   2.090   1.900
 8172SOL    HW125415   0.657   2.098   1.903
 8172SOL    HW225416   0.789   2.109   1.807
 8173SOL     OW25417   4.676   1.062   2.048
 8173SOL    HW125418   4.596   1.078   1.990
 8173SOL    HW225419   4.682   1.134   2.117
 8174SOL     OW25420   6.177   2.959   0.833
 8174SOL    HW125421   6.141   3.042   0.875
 8174SOL    HW225422   6.103   2.892   0.824
 8175SOL     OW25423   6.887   3.204   6.354
 8175SOL    HW125424   6.875   3.286   6.410
 8175SOL    HW225425   6.917   3.231   6.262
 8176SOL     OW25426   2.890   5.485   2.191
 8176SOL    HW125427   2.795   5.454   2.194
 8176SOL    HW225428   2.899   5.570   2.243
 8177SOL     OW25429   2.701   6.112   3.844
 8177SOL    HW125430   2.765   6.166   3.899
 8177SOL    HW225431   2.610   6.118   3.885
 8178SOL     OW25432   2.956   5.624   6.707
 8178SOL    HW125433   2.926   5.617   6.802
 8178SOL    HW225434   3.054   5.605   6.701
 8179SOL     OW25435   4.784   2.315   5.922
 8179SOL    HW125436   4.771   2.306   5.824
 8179SOL    HW225437   4.698   2.345   5.965
 8180SOL     OW25438   6.261   0.091   4.874
 8180SOL    HW125439   6.298   0.126   4.788
 8180SOL    HW225440   6.289   0.150   4.949
 8181SOL     OW25441   2.021   1.269   1.649
 8181SOL    HW125442   2.065   1.356   1.630
 8181SOL    HW225443   2.090   1.202   1.676
 8182SOL     OW25444   3.935   3.030   6.052
 8182SOL    HW125445   3.898   2.939   6.034
 8182SOL    HW225446   3.876   3.099   6.010
 8183SOL     OW25447   0.216   2.651   4.523
 8183SOL    HW125448   0.284   2.712   4.481
 8183SOL    HW225449   0.186   2.584   4.457
 8184SOL     OW25450   5.270   2.315   5.970
 8184SOL    HW125451   5.183   2.342   6.010
 8184SOL    HW225452   5.254   2.258   5.889
 8185SOL     OW25453   2.430   6.478   0.205
 8185SOL    HW125454   2.437   6.404   0.138
 8185SOL    HW225455   2.466   6.446   0.293
 8186SOL     OW25456   3.502   5.795   6.414
 8186SOL    HW125457   3.414   5.811   6.459
 8186SOL    HW225458   3.525   5.697   6.420
 8187SOL     OW25459   1.605   2.129   5.558
 8187SOL    HW125460   1.677   2.106   5.623
 8187SOL    HW225461   1.537   2.188   5.603
 8188SOL     OW25462   5.751   2.717   2.062
 8188SOL    HW125463   5.841   2.725   2.020
 8188SOL    HW225464   5.707   2.807   2.065
 8189SOL     OW25465   4.461   4.944   2.875
 8189SOL    HW125466   4.381   4.923   2.820
 8189SOL    HW225467   4.534   4.978   2.815
 8190SOL     OW25468   4.128   5.157   4.041
 8190SOL    HW125469   4.123   5.212   4.125
 8190SOL    HW225470   4.064   5.081   4.048
 8191SOL     OW25471   3.213   6.303   2.978
 8191SOL    HW125472   3.182   6.307   2.883
 8191SOL    HW225473   3.313   6.302   2.980
 8192SOL     OW25474   3.497   5.604   0.648
 8192SOL    HW125475   3.561   5.562   0.583
 8192SOL    HW225476   3.440   5.670   0.600
 8193SOL     OW25477   6.549   6.666   4.456
 8193SOL    HW125478   6.461   6.712   4.443
 8193SOL    HW225479   6.620   6.713   4.404
 8194SOL     OW25480   5.849   2.512   0.833
 8194SOL    HW125481   5.902   2.457   0.898
 8194SOL    HW225482   5.770   2.552   0.881
 8195SOL     OW25483   1.113   0.198   0.830
 8195SOL    HW125484   1.207   0.200   0.862
 8195SOL    HW225485   1.096   0.113   0.780
 8196SOL     OW25486   3.630   0.472   5.354
 8196SOL    HW125487   3.654   0.553   5.408
 8196SOL    HW225488   3.603   0.501   5.262
 8197SOL     OW25489   4.441   1.243   6.130
 8197SOL    HW125490   4.416   1.265   6.036
 8197SOL    HW225491   4.532   1.280   6.150
 8198SOL     OW25492   3.347   5.985   3.390
 8198SOL    HW125493   3.279   6.017   3.455
 8198SOL    HW225494   3.437   6.021   3.414
 8199SOL     OW25495   6.485   3.170   6.194
 8199SOL    HW125496   6.405   3.154   6.252
 8199SOL    HW225497   6.466   3.244   6.130
 8200SOL     OW25498   4.313   3.903   1.588
 8200SOL    HW125499   4.318   4.001   1.574
 8200SOL    HW225500   4.246   3.883   1.660
 8201SOL     OW25501   6.066   1.212   4.380
 8201SOL    HW125502   6.075   1.165   4.292
 8201SOL    HW225503   5.970   1.235   4.396
 8202SOL     OW25504   0.627   5.472   4.490
 8202SOL    HW125505   0.529   5.480   4.473
 8202SOL    HW225506   0.676   5.538   4.433
 8203SOL     OW25507   4.916   2.180   0.937
 8203SOL    HW125508   4.890   2.269   0.899
 8203SOL    HW225509   4.852   2.155   1.009
 8204SOL     OW25510   2.959   5.556   0.914
 8204SOL    HW125511   2.970   5.546   1.013
 8204SOL    HW225512   2.880   5.504   0.884
 8205SOL     OW25513   0.122   4.757   1.225
 8205SOL    HW125514   0.145   4.660   1.220
 8205SOL    HW225515   0.094   4.790   1.135
 8206SOL     OW25516   4.157   3.004   5.764
 8206SOL    HW125517   4.100   2.923   5.751
 8206SOL    HW225518   4.178   3.045   5.675
 8207SOL     OW25519   3.862   4.358   5.300
 8207SOL    HW125520   3.832   4.282   5.358
 8207SOL    HW225521   3.848   4.334   5.204
 8208SOL     OW25522   2.010   6.825   1.700
 8208SOL    HW125523   1.918   6.828   1.662
 8208SOL    HW225524   2.056   6.913   1.682
 8209SOL     OW25525   0.982   1.505   5.824
 8209SOL    HW125526   1.043   1.578   5.856
 8209SOL    HW225527   0.974   1.510   5.725
 8210SOL     OW25528   3.017   1.071   1.617
 8210SOL    HW125529   3.072   1.009   1.673
 8210SOL    HW225530   3.014   1.038   1.523
 8211SOL     OW25531   3.450   3.783   3.467
 8211SOL    HW125532   3.492   3.709   3.519
 8211SOL    HW225533   3.510   3.864   3.471
 8212SOL     OW25534   3.461   1.588   1.019
 8212SOL    HW125535   3.421   1.600   0.928
 8212SOL    HW225536   3.559   1.606   1.015
 8213SOL     OW25537   5.088   4.672   2.174
 8213SOL    HW125538   4.996   4.665   2.137
 8213SOL    HW225539   5.091   4.742   2.245
 8214SOL     OW25540   1.611   5.732   4.049
 8214SOL    HW125541   1.562   5.794   3.987
 8214SOL    HW225542   1.570   5.641   4.044
 8215SOL     OW25543   3.735   5.292   6.772
 8215SOL    HW125544   3.824   5.254   6.749
 8215SOL    HW225545   3.725   5.383   6.731
 8216SOL     OW25546   4.484   6.297   3.122
 8216SOL    HW125547   4.471   6.365   3.049
 8216SOL    HW225548   4.547   6.334   3.190
 8217SOL     OW25549   2.102   3.864   2.222
 8217SOL    HW125550   2.092   3.798   2.148
 8217SOL    HW225551   2.104   3.816   2.310
 8218SOL     OW25552   1.146   6.970   4.066
 8218SOL    HW125553   1.152   6.877   4.101
 8218SOL    HW225554   1.129   0.011   4.141
 8219SOL     OW25555   3.726   4.003   1.571
 8219SOL    HW125556   3.666   3.971   1.645
 8219SOL    HW225557   3.671   4.038   1.496
 8220SOL     OW25558   3.083   3.907   5.449
 8220SOL    HW125559   3.070   3.948   5.359
 8220SOL    HW225560   3.046   3.968   5.520
 8221SOL     OW25561   6.161   5.244   3.449
 8221SOL    HW125562   6.246   5.247   3.396
 8221SOL    HW225563   6.083   5.259   3.388
 8222SOL     OW25564   5.118   1.964   1.296
 8222SOL    HW125565   5.181   1.911   1.353
 8222SOL    HW225566   5.103   1.916   1.209
 8223SOL     OW25567   0.276   4.617   6.129
 8223SOL    HW125568   0.242   4.540   6.076
 8223SOL    HW225569   0.326   4.679   6.068
 8224SOL     OW25570   5.295   1.619   1.581
 8224SOL    HW125571   5.365   1.622   1.510
 8224SOL    HW225572   5.245   1.705   1.582
 8225SOL     OW25573   3.350   1.363   1.501
 8225SOL    HW125574   3.411   1.291   1.469
 8225SOL    HW225575   3.403   1.434   1.547
 8226SOL     OW25576   3.261   0.271   0.374
 8226SOL    HW125577   3.191   0.271   0.446
 8226SOL    HW225578   3.244   0.348   0.312
 8227SOL     OW25579   0.236   1.700   2.281
 8227SOL    HW125580   0.196   1.746   2.202
 8227SOL    HW225581   0.166   1.690   2.352
 8228SOL     OW25582   0.972   1.562   5.565
 8228SOL    HW125583   1.002   1.485   5.510
 8228SOL    HW225584   0.899   1.611   5.518
 8229SOL     OW25585   3.640   4.378   1.418
 8229SOL    HW125586   3.585   4.459   1.439
 8229SOL    HW225587   3.616   4.345   1.327
 8230SOL     OW25588   3.930   6.813   5.590
 8230SOL    HW125589   3.849   6.866   5.614
 8230SOL    HW225590   4.011   6.872   5.593
 8231SOL     OW25591   3.415   2.326   1.731
 8231SOL    HW125592   3.498   2.316   1.786
 8231SOL    HW225593   3.346   2.262   1.763
 8232SOL     OW25594   5.812   2.006   1.794
 8232SOL    HW125595   5.911   1.993   1.789
 8232SOL    HW225596   5.792   2.097   1.831
 8233SOL     OW25597   1.564   6.581   6.364
 8233SOL    HW125598   1.616   6.607   6.282
 8233SOL    HW225599   1.491   6.647   6.380
 8234SOL     OW25600   2.751   3.663   0.132
 8234SOL    HW125601   2.810   3.689   0.056
 8234SOL    HW225602   2.678   3.603   0.099
 8235SOL     OW25603   0.229   3.659   6.867
 8235SOL    HW125604   0.199   3.742   6.820
 8235SOL    HW225605   0.214   3.579   6.808
 8236SOL     OW25606   0.456   5.009   6.431
 8236SOL    HW125607   0.473   5.106   6.414
 8236SOL    HW225608   0.389   4.975   6.366
 8237SOL     OW25609   4.577   6.401   6.369
 8237SOL    HW125610   4.668   6.441   6.355
 8237SOL    HW225611   4.507   6.465   6.338
 8238SOL     OW25612   0.303   6.041   6.930
 8238SOL    HW125613   0.226   6.031   6.993
 8238SOL    HW225614   0.290   6.123   6.875
 8239SOL     OW25615   0.864   1.116   4.737
 8239SOL    HW125616   0.864   1.153   4.830
 8239SOL    HW225617   0.771   1.085   4.714
 8240SOL     OW25618   3.171   4.016   3.361
 8240SOL    HW125619   3.269   4.036   3.357
 8240SOL    HW225620   3.143   4.006   3.456
 8241SOL     OW25621   2.432   4.696   6.174
 8241SOL    HW125622   2.513   4.740   6.212
 8241SOL    HW225623   2.367   4.766   6.144
 8242SOL     OW25624   0.549   3.778   4.857
 8242SOL    HW125625   0.542   3.771   4.957
 8242SOL    HW225626   0.516   3.694   4.816
 8243SOL     OW25627   6.723   3.736   0.811
 8243SOL    HW125628   6.803   3.683   0.838
 8243SOL    HW225629   6.707   3.725   0.713
 8244SOL     OW25630   0.385   0.227   4.468
 8244SOL    HW125631   0.389   0.129   4.489
 8244SOL    HW225632   0.301   0.265   4.506
 8245SOL     OW25633   3.934   1.665   2.875
 8245SOL    HW125634   3.919   1.632   2.781
 8245SOL    HW225635   3.854   1.642   2.931
 8246SOL     OW25636   0.319   4.896   6.621
 8246SOL    HW125637   0.388   4.918   6.552
 8246SOL    HW225638   0.361   4.899   6.712
 8247SOL     OW25639   2.315   6.665   3.635
 8247SOL    HW125640   2.262   6.675   3.719
 8247SOL    HW225641   2.360   6.751   3.613
 8248SOL     OW25642   0.621   4.979   5.381
 8248SOL    HW125643   0.663   4.991   5.291
 8248SOL    HW225644   0.537   4.926   5.372
 8249SOL     OW25645   2.026   1.099   5.802
 8249SOL    HW125646   2.089   1.169   5.769
 8249SOL    HW225647   2.000   1.039   5.727
 8250SOL     OW25648   3.369   2.328   1.226
 8250SOL    HW125649   3.331   2.263   1.160
 8250SOL    HW225650   3.298   2.392   1.254
 8251SOL     OW25651   5.389   1.263   4.339
 8251SOL    HW125652   5.389   1.212   4.253
 8251SOL    HW225653   5.326   1.219   4.403
 8252SOL     OW25654   4.006   2.027   6.937
 8252SOL    HW125655   3.953   2.045   7.020
 8252SOL    HW225656   3.945   1.995   6.864
 8253SOL     OW25657   3.595   5.715   0.290
 8253SOL    HW125658   3.667   5.775   0.325
 8253SOL    HW225659   3.589   5.725   0.190
 8254SOL     OW25660   5.043   4.239   5.635
 8254SOL    HW125661   5.029   4.153   5.586
 8254SOL    HW225662   5.054   4.221   5.733
 8255SOL     OW25663   1.289   0.177   6.091
 8255SOL    HW125664   1.308   0.088   6.134
 8255SOL    HW225665   1.262   0.243   6.161
 8256SOL     OW25666   6.892   6.432   3.044
 8256SOL    HW125667   6.863   6.368   2.973
 8256SOL    HW225668   6.841   6.517   3.035
 8257SOL     OW25669   5.604   4.253   4.072
 8257SOL    HW125670   5.698   4.230   4.045
 8257SOL    HW225671   5.589   4.222   4.166
 8258SOL     OW25672   4.751   2.908   1.497
 8258SOL    HW125673   4.682   2.894   1.426
 8258SOL    HW225674   4.736   2.843   1.571
 8259SOL     OW25675   3.901   2.075   5.436
 8259SOL    HW125676   3.834   2.003   5.454
 8259SOL    HW225677   3.911   2.132   5.517
 8260SOL     OW25678   1.850   6.111   1.645
 8260SOL    HW125679   1.857   6.014   1.664
 8260SOL    HW225680   1.833   6.161   1.730
 8261SOL     OW25681   5.302   6.231   3.310
 8261SOL    HW125682   5.392   6.271   3.324
 8261SOL    HW225683   5.310   6.135   3.287
 8262SOL     OW25684   0.645   4.553   0.629
 8262SOL    HW125685   0.724   4.537   0.570
 8262SOL    HW225686   0.568   4.587   0.575
 8263SOL     OW25687   6.486   3.258   6.727
 8263SOL    HW125688   6.556   3.190   6.747
 8263SOL    HW225689   6.526   3.333   6.675
 8264SOL     OW25690   0.949   6.832   1.719
 8264SOL    HW125691   0.853   6.848   1.741
 8264SOL    HW225692   0.971   6.736   1.737
 8265SOL     OW25693   5.099   0.598   2.217
 8265SOL    HW125694   5.133   0.506   2.240
 8265SOL    HW225695   5.103   0.610   2.118
 8266SOL     OW25696   2.299   0.761   4.493
 8266SOL    HW125697   2.381   0.707   4.512
 8266SOL    HW225698   2.320   0.858   4.505
 8267SOL     OW25699   1.476   4.528   1.774
 8267SOL    HW125700   1.466   4.448   1.831
 8267SOL    HW225701   1.388   4.575   1.764
 8268SOL     OW25702   3.503   5.220   6.022
 8268SOL    HW125703   3.474   5.158   6.094
 8268SOL    HW225704   3.560   5.293   6.062
 8269SOL     OW25705   4.267   2.354   2.620
 8269SOL    HW125706   4.212   2.373   2.701
 8269SOL    HW225707   4.352   2.407   2.624
 8270SOL     OW25708   3.285   5.976   5.677
 8270SOL    HW125709   3.221   5.922   5.623
 8270SOL    HW225710   3.373   5.929   5.680
 8271SOL     OW25711   6.328   6.653   3.663
 8271SOL    HW125712   6.245   6.602   3.642
 8271SOL    HW225713   6.330   6.676   3.760
 8272SOL     OW25714   6.826   1.160   2.732
 8272SOL    HW125715   6.830   1.219   2.812
 8272SOL    HW225716   6.888   1.194   2.662
 8273SOL     OW25717   3.190   1.079   6.870
 8273SOL    HW125718   3.231   0.992   6.844
 8273SOL    HW225719   3.097   1.084   6.834
 8274SOL     OW25720   4.281   4.815   5.550
 8274SOL    HW125721   4.245   4.905   5.575
 8274SOL    HW225722   4.213   4.745   5.568
 8275SOL     OW25723   5.779   0.358   4.466
 8275SOL    HW125724   5.869   0.370   4.510
 8275SOL    HW225725   5.740   0.448   4.447
 8276SOL     OW25726   6.535   2.387   5.739
 8276SOL    HW125727   6.601   2.455   5.707
 8276SOL    HW225728   6.514   2.323   5.665
 8277SOL     OW25729   1.984   5.752   4.886
 8277SOL    HW125730   1.889   5.723   4.879
 8277SOL    HW225731   1.988   5.852   4.885
 8278SOL     OW25732   3.346   1.852   6.486
 8278SOL    HW125733   3.367   1.933   6.540
 8278SOL    HW225734   3.360   1.872   6.389
 8279SOL     OW25735   6.598   5.872   5.906
 8279SOL    HW125736   6.567   5.789   5.859
 8279SOL    HW225737   6.698   5.874   5.908
 8280SOL     OW25738   4.227   2.547   0.767
 8280SOL    HW125739   4.241   2.449   0.761
 8280SOL    HW225740   4.153   2.575   0.706
 8281SOL     OW25741   2.128   4.518   2.100
 8281SOL    HW125742   2.155   4.434   2.148
 8281SOL    HW225743   2.159   4.598   2.152
 8282SOL     OW25744   2.535   3.485   0.069
 8282SOL    HW125745   2.460   3.540   0.034
 8282SOL    HW225746   2.499   3.398   0.103
 8283SOL     OW25747   1.260   4.953   4.411
 8283SOL    HW125748   1.330   4.967   4.341
 8283SOL    HW225749   1.241   5.039   4.457
 8284SOL     OW25750   1.304   3.988   2.184
 8284SOL    HW125751   1.347   4.037   2.260
 8284SOL    HW225752   1.370   3.925   2.143
 8285SOL     OW25753   3.952   3.263   5.624
 8285SOL    HW125754   3.870   3.207   5.604
 8285SOL    HW225755   4.033   3.213   5.595
 8286SOL     OW25756   5.600   2.102   4.806
 8286SOL    HW125757   5.661   2.028   4.776
 8286SOL    HW225758   5.605   2.110   4.906
 8287SOL     OW25759   1.248   5.871   3.854
 8287SOL    HW125760   1.193   5.829   3.926
 8287SOL    HW225761   1.197   5.948   3.815
 8288SOL     OW25762   0.797   2.387   2.533
 8288SOL    HW125763   0.842   2.454   2.475
 8288SOL    HW225764   0.706   2.422   2.559
 8289SOL     OW25765   5.753   0.603   6.362
 8289SOL    HW125766   5.765   0.563   6.453
 8289SOL    HW225767   5.815   0.558   6.297
 8290SOL     OW25768   4.750   1.593   1.746
 8290SOL    HW125769   4.653   1.612   1.727
 8290SOL    HW225770   4.781   1.648   1.824
 8291SOL     OW25771   5.733   5.789   6.556
 8291SOL    HW125772   5.670   5.712   6.564
 8291SOL    HW225773   5.772   5.790   6.464
 8292SOL     OW25774   2.585   5.939   6.099
 8292SOL    HW125775   2.651   6.014   6.103
 8292SOL    HW225776   2.619   5.862   6.152
 8293SOL     OW25777   1.623   4.045   1.619
 8293SOL    HW125778   1.551   4.002   1.674
 8293SOL    HW225779   1.697   3.979   1.604
 8294SOL     OW25780   6.425   3.268   4.677
 8294SOL    HW125781   6.407   3.364   4.654
 8294SOL    HW225782   6.499   3.233   4.620
 8295SOL     OW25783   5.161   3.154   2.822
 8295SOL    HW125784   5.063   3.169   2.827
 8295SOL    HW225785   5.179   3.057   2.803
 8296SOL     OW25786   3.480   5.001   0.248
 8296SOL    HW125787   3.446   5.069   0.313
 8296SOL    HW225788   3.436   4.913   0.266
 8297SOL     OW25789   6.469   3.119   2.462
 8297SOL    HW125790   6.399   3.156   2.523
 8297SOL    HW225791   6.438   3.125   2.368
 8298SOL     OW25792   0.198   0.371   0.225
 8298SOL    HW125793   0.196   0.288   0.282
 8298SOL    HW225794   0.236   0.447   0.278
 8299SOL     OW25795   0.483   2.778   0.691
 8299SOL    HW125796   0.501   2.870   0.725
 8299SOL    HW225797   0.431   2.727   0.760
 8300SOL     OW25798   6.554   6.477   5.049
 8300SOL    HW125799   6.644   6.446   5.078
 8300SOL    HW225800   6.557   6.576   5.031
 8301SOL     OW25801   4.354   0.659   6.782
 8301SOL    HW125802   4.431   0.634   6.841
 8301SOL    HW225803   4.332   0.756   6.796
 8302SOL     OW25804   4.644   0.046   5.434
 8302SOL    HW125805   4.707   0.116   5.399
 8302SOL    HW225806   4.599   0.001   5.356
 8303SOL     OW25807   0.043   0.455   3.225
 8303SOL    HW125808   7.021   0.388   3.284
 8303SOL    HW225809   6.997   0.515   3.184
 8304SOL     OW25810   5.301   5.007   1.626
 8304SOL    HW125811   5.253   5.094   1.611
 8304SOL    HW225812   5.352   5.011   1.712
 8305SOL     OW25813   4.149   4.726   4.131
 8305SOL    HW125814   4.143   4.755   4.226
 8305SOL    HW225815   4.092   4.785   4.074
 8306SOL     OW25816   6.533   1.558   2.983
 8306SOL    HW125817   6.446   1.517   2.959
 8306SOL    HW225818   6.603   1.531   2.916
 8307SOL     OW25819   3.326   5.422   1.483
 8307SOL    HW125820   3.308   5.428   1.385
 8307SOL    HW225821   3.251   5.466   1.533
 8308SOL     OW25822   1.979   4.392   0.371
 8308SOL    HW125823   1.932   4.361   0.288
 8308SOL    HW225824   2.077   4.377   0.362
 8309SOL     OW25825   5.746   5.154   2.915
 8309SOL    HW125826   5.745   5.123   3.010
 8309SOL    HW225827   5.840   5.165   2.885
 8310SOL     OW25828   1.061   5.479   0.857
 8310SOL    HW125829   1.041   5.406   0.792
 8310SOL    HW225830   1.160   5.489   0.866
 8311SOL     OW25831   5.383   0.634   4.771
 8311SOL    HW125832   5.291   0.626   4.734
 8311SOL    HW225833   5.394   0.572   4.848
 8312SOL     OW25834   5.664   1.131   0.183
 8312SOL    HW125835   5.574   1.088   0.170
 8312SOL    HW225836   5.717   1.078   0.249
 8313SOL     OW25837   4.677   0.361   5.771
 8313SOL    HW125838   4.627   0.404   5.845
 8313SOL    HW225839   4.640   0.391   5.683
 8314SOL     OW25840   5.936   0.010   6.471
 8314SOL    HW125841   6.009   0.050   6.415
 8314SOL    HW225842   5.872   6.983   6.413
 8315SOL     OW25843   4.114   3.275   3.065
 8315SOL    HW125844   4.161   3.363   3.056
 8315SOL    HW225845   4.109   3.250   3.162
 8316SOL     OW25846   1.667   3.292   0.538
 8316SOL    HW125847   1.666   3.390   0.556
 8316SOL    HW225848   1.623   3.273   0.450
 8317SOL     OW25849   2.417   2.131   3.254
 8317SOL    HW125850   2.384   2.204   3.194
 8317SOL    HW225851   2.340   2.071   3.277
 8318SOL     OW25852   4.196   1.415   5.501
 8318SOL    HW125853   4.149   1.502   5.486
 8318SOL    HW225854   4.295   1.431   5.507
 8319SOL     OW25855   1.709   0.283   0.320
 8319SOL    HW125856   1.806   0.280   0.293
 8319SOL    HW225857   1.701   0.257   0.416
 8320SOL     OW25858   3.577   4.176   3.626
 8320SOL    HW125859   3.625   4.179   3.714
 8320SOL    HW225860   3.479   4.169   3.643
 8321SOL     OW25861   7.011   0.159   6.198
 8321SOL    HW125862   0.034   0.201   6.277
 8321SOL    HW225863   6.944   0.223   6.160
 8322SOL     OW25864   0.379   1.566   6.992
 8322SOL    HW125865   0.466   1.560   6.944
 8322SOL    HW225866   0.334   1.476   6.989
 8323SOL     OW25867   3.404   5.073   1.525
 8323SOL    HW125868   3.407   5.156   1.580
 8323SOL    HW225869   3.315   5.030   1.534
 8324SOL     OW25870   5.175   0.411   0.614
 8324SOL    HW125871   5.161   0.348   0.538
 8324SOL    HW225872   5.269   0.445   0.613
 8325SOL     OW25873   0.664   4.214   5.328
 8325SOL    HW125874   0.676   4.273   5.408
 8325SOL    HW225875   0.721   4.247   5.253
 8326SOL     OW25876   4.228   3.797   6.691
 8326SOL    HW125877   4.325   3.825   6.692
 8326SOL    HW225878   4.170   3.878   6.705
 8327SOL     OW25879   0.939   0.322   5.504
 8327SOL    HW125880   0.888   0.295   5.587
 8327SOL    HW225881   0.874   0.344   5.431
 8328SOL     OW25882   2.708   6.708   6.336
 8328SOL    HW125883   2.675   6.660   6.256
 8328SOL    HW225884   2.695   6.652   6.417
 8329SOL     OW25885   0.367   2.264   5.238
 8329SOL    HW125886   0.372   2.257   5.139
 8329SOL    HW225887   0.286   2.316   5.264
 8330SOL     OW25888   3.647   1.515   6.526
 8330SOL    HW125889   3.662   1.504   6.428
 8330SOL    HW225890   3.666   1.609   6.553
 8331SOL     OW25891   3.130   0.876   0.763
 8331SOL    HW125892   3.132   0.960   0.709
 8331SOL    HW225893   3.115   0.797   0.704
 8332SOL     OW25894   5.457   5.029   1.865
 8332SOL    HW125895   5.402   5.088   1.924
 8332SOL    HW225896   5.551   5.064   1.862
 8333SOL     OW25897   1.898   4.950   0.101
 8333SOL    HW125898   1.993   4.973   0.122
 8333SOL    HW225899   1.839   5.028   0.123
 8334SOL     OW25900   2.809   2.506   6.127
 8334SOL    HW125901   2.798   2.407   6.132
 8334SOL    HW225902   2.817   2.534   6.032
 8335SOL     OW25903   3.603   2.282   0.050
 8335SOL    HW125904   3.606   2.375   0.088
 8335SOL    HW225905   3.697   2.247   0.042
 8336SOL     OW25906   1.077   4.001   2.880
 8336SOL    HW125907   1.173   4.014   2.905
 8336SOL    HW225908   1.024   3.985   2.963
 8337SOL     OW25909   0.192   0.046   4.224
 8337SOL    HW125910   0.153   0.132   4.257
 8337SOL    HW225911   0.201   0.050   4.124
 8338SOL     OW25912   3.499   5.635   2.091
 8338SOL    HW125913   3.419   5.694   2.103
 8338SOL    HW225914   3.554   5.635   2.174
 8339SOL     OW25915   0.155   1.238   1.544
 8339SOL    HW125916   0.195   1.147   1.529
 8339SOL    HW225917   0.085   1.232   1.616
 8340SOL     OW25918   5.500   4.336   0.496
 8340SOL    HW125919   5.488   4.333   0.595
 8340SOL    HW225920   5.420   4.297   0.451
 8341SOL     OW25921   3.728   0.520   7.014
 8341SOL    HW125922   3.762   0.441   6.963
 8341SOL    HW225923   3.804   0.564   0.039
 8342SOL     OW25924   4.262   6.822   0.630
 8342SOL    HW125925   4.314   6.825   0.545
 8342SOL    HW225926   4.235   6.728   0.651
 8343SOL     OW25927   6.701   5.377   3.776
 8343SOL    HW125928   6.624   5.387   3.713
 8343SOL    HW225929   6.732   5.467   3.806
 8344SOL     OW25930   6.701   4.538   4.353
 8344SOL    HW125931   6.754   4.622   4.356
 8344SOL    HW225932   6.607   4.557   4.381
 8345SOL     OW25933   4.369   2.020   3.525
 8345SOL    HW125934   4.343   1.924   3.519
 8345SOL    HW225935   4.361   2.051   3.620
 8346SOL     OW25936   3.791   3.485   6.328
 8346SOL    HW125937   3.808   3.542   6.408
 8346SOL    HW225938   3.797   3.541   6.245
 8347SOL     OW25939   3.341   0.037   6.211
 8347SOL    HW125940   3.298   6.970   6.203
 8347SOL    HW225941   3.333   0.069   6.306
 8348SOL     OW25942   2.264   0.569   1.868
 8348SOL    HW125943   2.261   0.503   1.793
 8348SOL    HW225944   2.221   0.529   1.949
 8349SOL     OW25945   1.433   6.332   1.753
 8349SOL    HW125946   1.476   6.322   1.663
 8349SOL    HW225947   1.348   6.279   1.756
 8350SOL     OW25948   2.970   6.794   6.372
 8350SOL    HW125949   2.872   6.776   6.367
 8350SOL    HW225950   2.985   6.893   6.375
 8351SOL     OW25951   5.790   5.255   4.156
 8351SOL    HW125952   5.877   5.207   4.169
 8351SOL    HW225953   5.780   5.326   4.226
 8352SOL     OW25954   1.723   6.869   2.795
 8352SOL    HW125955   1.789   6.933   2.835
 8352SOL    HW225956   1.655   6.920   2.742
 8353SOL     OW25957   0.871   3.855   0.507
 8353SOL    HW125958   0.895   3.802   0.588
 8353SOL    HW225959   0.786   3.905   0.525
 8354SOL     OW25960   3.214   0.284   4.150
 8354SOL    HW125961   3.223   0.225   4.230
 8354SOL    HW225962   3.267   0.368   4.164
 8355SOL     OW25963   1.861   1.263   5.361
 8355SOL    HW125964   1.770   1.238   5.330
 8355SOL    HW225965   1.912   1.306   5.286
 8356SOL     OW25966   0.929   5.806   1.384
 8356SOL    HW125967   0.919   5.778   1.479
 8356SOL    HW225968   0.838   5.813   1.342
 8357SOL     OW25969   3.962   6.580   5.477
 8357SOL    HW125970   3.982   6.526   5.559
 8357SOL    HW225971   3.955   6.676   5.502
 8358SOL     OW25972   1.226   2.777   4.474
 8358SOL    HW125973   1.196   2.850   4.412
 8358SOL    HW225974   1.274   2.707   4.422
 8359SOL     OW25975   2.528   1.736   4.885
 8359SOL    HW125976   2.561   1.806   4.821
 8359SOL    HW225977   2.469   1.672   4.836
 8360SOL     OW25978   4.823   0.215   1.315
 8360SOL    HW125979   4.812   0.311   1.340
 8360SOL    HW225980   4.908   0.203   1.264
 8361SOL     OW25981   3.606   0.675   0.256
 8361SOL    HW125982   3.675   0.747   0.257
 8361SOL    HW225983   3.515   0.717   0.264
 8362SOL     OW25984   5.645   1.772   1.024
 8362SOL    HW125985   5.641   1.802   0.929
 8362SOL    HW225986   5.603   1.841   1.082
 8363SOL     OW25987   5.069   1.637   0.487
 8363SOL    HW125988   5.144   1.660   0.549
 8363SOL    HW225989   5.084   1.546   0.449
 8364SOL     OW25990   0.489   3.003   4.311
 8364SOL    HW125991   0.584   3.008   4.340
 8364SOL    HW225992   0.463   3.088   4.266
 8365SOL     OW25993   1.494   2.377   2.737
 8365SOL    HW125994   1.421   2.407   2.675
 8365SOL    HW225995   1.582   2.405   2.700
 8366SOL     OW25996   3.359   5.446   0.838
 8366SOL    HW125997   3.420   5.391   0.894
 8366SOL    HW225998   3.405   5.472   0.754
 8367SOL     OW25999   3.623   5.381   5.250
 8367SOL    HW126000   3.610   5.383   5.151
 8367SOL    HW226001   3.534   5.387   5.295
 8368SOL     OW26002   0.922   5.856   0.572
 8368SOL    HW126003   0.937   5.949   0.606
 8368SOL    HW226004   0.892   5.797   0.647
 8369SOL     OW26005   0.615   1.046   6.661
 8369SOL    HW126006   0.633   0.986   6.739
 8369SOL    HW226007   0.575   0.992   6.586
 8370SOL     OW26008   2.294   1.062   5.959
 8370SOL    HW126009   2.274   1.154   5.923
 8370SOL    HW226010   2.300   0.998   5.882
 8371SOL     OW26011   2.209   3.423   6.821
 8371SOL    HW126012   2.173   3.431   6.914
 8371SOL    HW226013   2.216   3.327   6.796
 8372SOL     OW26014   1.660   5.763   1.357
 8372SOL    HW126015   1.592   5.745   1.287
 8372SOL    HW226016   1.659   5.860   1.381
 8373SOL     OW26017   1.548   0.302   5.180
 8373SOL    HW126018   1.619   0.244   5.220
 8373SOL    HW226019   1.517   0.262   5.094
 8374SOL     OW26020   0.118   0.126   4.910
 8374SOL    HW126021   0.050   0.199   4.900
 8374SOL    HW226022   0.072   0.037   4.903
 8375SOL     OW26023   3.462   6.348   5.988
 8375SOL    HW126024   3.496   6.437   6.018
 8375SOL    HW226025   3.524   6.311   5.918
 8376SOL     OW26026   1.431   1.195   4.050
 8376SOL    HW126027   1.521   1.182   4.091
 8376SOL    HW226028   1.441   1.212   3.952
 8377SOL     OW26029   5.817   6.278   0.341
 8377SOL    HW126030   5.737   6.224   0.314
 8377SOL    HW226031   5.825   6.358   0.281
 8378SOL     OW26032   4.178   4.981   3.756
 8378SOL    HW126033   4.136   4.901   3.715
 8378SOL    HW226034   4.187   4.967   3.855
 8379SOL     OW26035   4.940   2.324   2.036
 8379SOL    HW126036   5.024   2.268   2.035
 8379SOL    HW226037   4.949   2.396   2.105
 8380SOL     OW26038   0.468   0.000   0.047
 8380SOL    HW126039   0.536   0.072   0.063
 8380SOL    HW226040   0.509   6.933   0.065
 8381SOL     OW26041   7.016   2.728   3.341
 8381SOL    HW126042   7.005   2.755   3.245
 8381SOL    HW226043   6.952   2.781   3.397
 8382SOL     OW26044   2.223   6.885   1.437
 8382SOL    HW126045   2.151   6.829   1.397
 8382SOL    HW226046   2.299   6.894   1.373
 8383SOL     OW26047   2.933   6.687   5.855
 8383SOL    HW126048   3.014   6.688   5.913
 8383SOL    HW226049   2.878   6.769   5.873
 8384SOL     OW26050   6.962   1.586   0.774
 8384SOL    HW126051   0.038   1.581   0.788
 8384SOL    HW226052   6.940   1.667   0.720
 8385SOL     OW26053   4.425   2.210   0.665
 8385SOL    HW126054   4.425   2.214   0.565
 8385SOL    HW226055   4.512   2.171   0.697
 8386SOL     OW26056   2.177   5.386   1.355
 8386SOL    HW126057   2.217   5.295   1.360
 8386SOL    HW226058   2.077   5.378   1.359
 8387SOL     OW26059   1.461   2.078   1.325
 8387SOL    HW126060   1.466   1.979   1.309
 8387SOL    HW226061   1.519   2.125   1.258
 8388SOL     OW26062   1.688   6.439   1.223
 8388SOL    HW126063   1.635   6.425   1.139
 8388SOL    HW226064   1.779   6.398   1.212
 8389SOL     OW26065   0.338   3.130   4.765
 8389SOL    HW126066   0.295   3.106   4.678
 8389SOL    HW226067   0.437   3.121   4.758
 8390SOL     OW26068   3.721   6.617   6.953
 8390SOL    HW126069   3.793   6.575   6.897
 8390SOL    HW226070   3.637   6.565   6.944
 8391SOL     OW26071   4.808   4.942   1.177
 8391SOL    HW126072   4.727   4.915   1.126
 8391SOL    HW226073   4.873   4.866   1.180
 8392SOL     OW26074   6.691   5.405   5.844
 8392SOL    HW126075   6.632   5.479   5.811
 8392SOL    HW226076   6.643   5.318   5.837
 8393SOL     OW26077   6.720   6.844   3.852
 8393SOL    HW126078   6.735   6.891   3.939
 8393SOL    HW226079   6.627   6.807   3.849
 8394SOL     OW26080   6.926   2.991   1.616
 8394SOL    HW126081   6.970   3.073   1.652
 8394SOL    HW226082   6.995   2.927   1.583
 8395SOL     OW26083   1.499   6.166   4.259
 8395SOL    HW126084   1.547   6.081   4.281
 8395SOL    HW226085   1.405   6.145   4.232
 8396SOL     OW26086   4.299   4.767   2.019
 8396SOL    HW126087   4.227   4.789   2.084
 8396SOL    HW226088   4.276   4.684   1.969
 8397SOL     OW26089   2.460   0.930   3.394
 8397SOL    HW126090   2.489   0.953   3.487
 8397SOL    HW226091   2.535   0.950   3.331
 8398SOL     OW26092   4.264   2.479   6.414
 8398SOL    HW126093   4.362   2.484   6.397
 8398SOL    HW226094   4.215   2.480   6.326
 8399SOL     OW26095   6.515   0.412   6.944
 8399SOL    HW126096   6.541   0.466   6.864
 8399SOL    HW226097   6.596   0.393   6.999
 8400SOL     OW26098   1.091   0.423   3.813
 8400SOL    HW126099   1.149   0.474   3.876
 8400SOL    HW226100   1.122   0.439   3.719
 8401SOL     OW26101   3.705   2.051   5.995
 8401SOL    HW126102   3.625   2.067   6.053
 8401SOL    HW226103   3.748   1.964   6.021
 8402SOL     OW26104   4.164   1.810   5.663
 8402SOL    HW126105   4.165   1.750   5.583
 8402SOL    HW226106   4.224   1.889   5.647
 8403SOL     OW26107   1.128   1.834   3.128
 8403SOL    HW126108   1.159   1.899   3.059
 8403SOL    HW226109   1.178   1.748   3.117
 8404SOL     OW26110   4.655   5.650   6.669
 8404SOL    HW126111   4.562   5.687   6.675
 8404SOL    HW226112   4.714   5.715   6.622
 8405SOL     OW26113   2.515   0.946   6.069
 8405SOL    HW126114   2.498   0.930   6.166
 8405SOL    HW226115   2.437   0.996   6.030
 8406SOL     OW26116   4.670   0.139   0.323
 8406SOL    HW126117   4.620   0.118   0.407
 8406SOL    HW226118   4.744   0.203   0.343
 8407SOL     OW26119   4.890   6.389   3.543
 8407SOL    HW126120   4.811   6.328   3.545
 8407SOL    HW226121   4.961   6.351   3.484
 8408SOL     OW26122   5.048   2.817   2.328
 8408SOL    HW126123   5.003   2.900   2.297
 8408SOL    HW226124   5.017   2.794   2.420
 8409SOL     OW26125   6.238   3.577   3.193
 8409SOL    HW126126   6.329   3.545   3.217
 8409SOL    HW226127   6.185   3.595   3.276
 8410SOL     OW26128   4.961   0.654   1.727
 8410SOL    HW126129   4.906   0.570   1.721
 8410SOL    HW226130   4.955   0.704   1.641
 8411SOL     OW26131   1.633   5.092   5.737
 8411SOL    HW126132   1.534   5.098   5.748
 8411SOL    HW226133   1.654   5.048   5.650
 8412SOL     OW26134   4.331   1.910   2.072
 8412SOL    HW126135   4.233   1.915   2.094
 8412SOL    HW226136   4.345   1.844   1.998
 8413SOL     OW26137   4.416   4.678   0.142
 8413SOL    HW126138   4.336   4.636   0.185
 8413SOL    HW226139   4.387   4.742   0.071
 8414SOL     OW26140   4.255   5.504   2.941
 8414SOL    HW126141   4.258   5.483   2.843
 8414SOL    HW226142   4.255   5.603   2.954
 8415SOL     OW26143   6.533   5.436   4.055
 8415SOL    HW126144   6.502   5.346   4.084
 8415SOL    HW226145   6.593   5.428   3.976
 8416SOL     OW26146   5.235   4.154   2.861
 8416SOL    HW126147   5.160   4.094   2.833
 8416SOL    HW226148   5.323   4.108   2.845
 8417SOL     OW26149   1.421   4.799   6.318
 8417SOL    HW126150   1.511   4.839   6.339
 8417SOL    HW226151   1.433   4.716   6.264
 8418SOL     OW26152   6.319   5.197   1.291
 8418SOL    HW126153   6.394   5.252   1.327
 8418SOL    HW226154   6.351   5.147   1.210
 8419SOL     OW26155   5.592   1.772   2.989
 8419SOL    HW126156   5.514   1.822   2.954
 8419SOL    HW226157   5.662   1.836   3.019
 8420SOL     OW26158   4.061   6.833   1.058
 8420SOL    HW126159   4.131   6.782   1.008
 8420SOL    HW226160   4.103   6.913   1.101
 8421SOL     OW26161   2.930   6.131   0.854
 8421SOL    HW126162   2.973   6.083   0.778
 8421SOL    HW226163   2.832   6.115   0.852
 8422SOL     OW26164   4.292   0.736   1.416
 8422SOL    HW126165   4.378   0.751   1.367
 8422SOL    HW226166   4.275   0.811   1.479
 8423SOL     OW26167   4.070   4.770   5.768
 8423SOL    HW126168   4.054   4.739   5.674
 8423SOL    HW226169   3.991   4.822   5.800
 8424SOL     OW26170   2.549   2.421   2.752
 8424SOL    HW126171   2.554   2.463   2.661
 8424SOL    HW226172   2.547   2.321   2.742
 8425SOL     OW26173   5.804   6.065   0.595
 8425SOL    HW126174   5.795   6.014   0.680
 8425SOL    HW226175   5.812   6.162   0.614
 8426SOL     OW26176   3.072   3.299   4.357
 8426SOL    HW126177   3.138   3.368   4.389
 8426SOL    HW226178   3.003   3.343   4.300
 8427SOL     OW26179   2.501   3.775   5.557
 8427SOL    HW126180   2.554   3.712   5.500
 8427SOL    HW226181   2.499   3.740   5.651
 8428SOL     OW26182   6.874   3.885   1.668
 8428SOL    HW126183   6.940   3.868   1.594
 8428SOL    HW226184   6.828   3.973   1.651
 8429SOL     OW26185   2.211   4.148   3.629
 8429SOL    HW126186   2.260   4.163   3.716
 8429SOL    HW226187   2.114   4.165   3.643
 8430SOL     OW26188   3.658   6.142   4.072
 8430SOL    HW126189   3.721   6.161   3.996
 8430SOL    HW226190   3.680   6.053   4.112
 8431SOL     OW26191   2.745   5.417   0.810
 8431SOL    HW126192   2.745   5.449   0.715
 8431SOL    HW226193   2.656   5.435   0.851
 8432SOL     OW26194   5.606   7.021   6.229
 8432SOL    HW126195   5.524   6.963   6.239
 8432SOL    HW226196   5.664   6.985   6.156
 8433SOL     OW26197   6.494   1.974   0.661
 8433SOL    HW126198   6.567   2.012   0.604
 8433SOL    HW226199   6.533   1.906   0.723
 8434SOL     OW26200   3.209   6.539   5.434
 8434SOL    HW126201   3.163   6.494   5.357
 8434SOL    HW226202   3.191   6.488   5.518
 8435SOL     OW26203   5.392   0.357   1.258
 8435SOL    HW126204   5.335   0.426   1.304
 8435SOL    HW226205   5.435   0.398   1.178
 8436SOL     OW26206   3.169   0.097   4.645
 8436SOL    HW126207   3.183   0.005   4.682
 8436SOL    HW226208   3.174   0.164   4.718
 8437SOL     OW26209   1.511   0.078   3.334
 8437SOL    HW126210   1.508   0.028   3.421
 8437SOL    HW226211   1.468   0.022   3.262
 8438SOL     OW26212   2.767   5.124   2.186
 8438SOL    HW126213   2.755   5.184   2.108
 8438SOL    HW226214   2.787   5.031   2.154
 8439SOL     OW26215   6.491   5.342   1.434
 8439SOL    HW126216   6.509   5.352   1.532
 8439SOL    HW226217   6.556   5.398   1.383
 8440SOL     OW26218   0.830   1.881   3.639
 8440SOL    HW126219   0.793   1.898   3.548
 8440SOL    HW226220   0.894   1.953   3.664
 8441SOL     OW26221   5.833   6.525   0.204
 8441SOL    HW126222   5.796   6.616   0.219
 8441SOL    HW226223   5.807   6.493   0.112
 8442SOL     OW26224   3.198   2.529   5.642
 8442SOL    HW126225   3.207   2.628   5.641
 8442SOL    HW226226   3.273   2.490   5.697
 8443SOL     OW26227   1.333   6.333   3.629
 8443SOL    HW126228   1.309   6.243   3.592
 8443SOL    HW226229   1.331   6.401   3.555
 8444SOL     OW26230   3.338   5.707   4.090
 8444SOL    HW126231   3.284   5.715   4.007
 8444SOL    HW226232   3.327   5.790   4.145
 8445SOL     OW26233   3.585   5.401   1.611
 8445SOL    HW126234   3.566   5.436   1.703
 8445SOL    HW226235   3.499   5.396   1.560
 8446SOL     OW26236   3.986   5.471   0.267
 8446SOL    HW126237   3.995   5.481   0.168
 8446SOL    HW226238   3.940   5.385   0.288
 8447SOL     OW26239   5.552   2.443   1.857
 8447SOL    HW126240   5.468   2.496   1.863
 8447SOL    HW226241   5.606   2.456   1.940
 8448SOL     OW26242   5.575   4.935   4.217
 8448SOL    HW126243   5.597   4.961   4.123
 8448SOL    HW226244   5.656   4.949   4.275
 8449SOL     OW26245   6.206   3.001   4.198
 8449SOL    HW126246   6.208   2.922   4.137
 8449SOL    HW226247   6.299   3.032   4.216
 8450SOL     OW26248   1.366   5.884   2.132
 8450SOL    HW126249   1.399   5.920   2.219
 8450SOL    HW226250   1.420   5.805   2.105
 8451SOL     OW26251   4.840   2.457   0.927
 8451SOL    HW126252   4.880   2.548   0.927
 8451SOL    HW226253   4.757   2.456   0.871
 8452SOL     OW26254   6.743   1.116   2.267
 8452SOL    HW126255   6.809   1.051   2.305
 8452SOL    HW226256   6.691   1.158   2.341
 8453SOL     OW26257   6.840   4.199   6.721
 8453SOL    HW126258   6.919   4.239   6.766
 8453SOL    HW226259   6.867   4.162   6.632
 8454SOL     OW26260   0.544   6.117   0.829
 8454SOL    HW126261   0.611   6.156   0.766
 8454SOL    HW226262   0.548   6.167   0.916
 8455SOL     OW26263   5.625   1.945   1.477
 8455SOL    HW126264   5.680   2.017   1.519
 8455SOL    HW226265   5.544   1.928   1.533
 8456SOL     OW26266   4.443   4.896   3.152
 8456SOL    HW126267   4.525   4.928   3.201
 8456SOL    HW226268   4.450   4.920   3.055
 8457SOL     OW26269   0.110   6.501   5.258
 8457SOL    HW126270   0.199   6.527   5.296
 8457SOL    HW226271   0.107   6.524   5.161
 8458SOL     OW26272   2.788   1.291   6.937
 8458SOL    HW126273   2.776   1.202   6.980
 8458SOL    HW226274   2.714   1.307   6.872
 8459SOL     OW26275   2.962   6.351   1.882
 8459SOL    HW126276   3.021   6.407   1.824
 8459SOL    HW226277   2.870   6.345   1.842
 8460SOL     OW26278   4.589   2.550   5.638
 8460SOL    HW126279   4.657   2.478   5.652
 8460SOL    HW226280   4.614   2.604   5.558
 8461SOL     OW26281   0.700   3.842   2.967
 8461SOL    HW126282   0.736   3.811   3.055
 8461SOL    HW226283   0.603   3.817   2.961
 8462SOL     OW26284   3.538   2.277   0.687
 8462SOL    HW126285   3.539   2.235   0.596
 8462SOL    HW226286   3.568   2.210   0.755
 8463SOL     OW26287   6.244   0.524   6.827
 8463SOL    HW126288   6.156   0.542   6.871
 8463SOL    HW226289   6.307   0.487   6.896
 8464SOL     OW26290   5.696   3.714   5.737
 8464SOL    HW126291   5.604   3.677   5.736
 8464SOL    HW226292   5.755   3.661   5.676
 8465SOL     OW26293   2.254   2.372   0.888
 8465SOL    HW126294   2.343   2.363   0.933
 8465SOL    HW226295   2.185   2.323   0.942
 8466SOL     OW26296   6.923   6.935   5.239
 8466SOL    HW126297   6.940   0.011   5.242
 8466SOL    HW226298   6.825   6.919   5.226
 8467SOL     OW26299   3.968   0.484   1.258
 8467SOL    HW126300   3.994   0.531   1.343
 8467SOL    HW226301   4.004   0.391   1.259
 8468SOL     OW26302   4.591   2.435   0.817
 8468SOL    HW126303   4.493   2.457   0.812
 8468SOL    HW226304   4.604   2.348   0.864
 8469SOL     OW26305   2.969   1.837   5.439
 8469SOL    HW126306   2.890   1.789   5.402
 8469SOL    HW226307   2.959   1.849   5.537
 8470SOL     OW26308   0.587   4.969   0.124
 8470SOL    HW126309   0.512   4.907   0.148
 8470SOL    HW226310   0.672   4.918   0.121
 8471SOL     OW26311   4.201   0.415   4.339
 8471SOL    HW126312   4.286   0.434   4.389
 8471SOL    HW226313   4.180   0.317   4.345
 8472SOL     OW26314   6.460   0.360   5.706
 8472SOL    HW126315   6.362   0.373   5.692
 8472SOL    HW226316   6.478   0.264   5.725
 8473SOL     OW26317   6.330   5.871   0.943
 8473SOL    HW126318   6.402   5.836   0.883
 8473SOL    HW226319   6.278   5.795   0.981
 8474SOL     OW26320   3.451   3.648   2.718
 8474SOL    HW126321   3.533   3.635   2.661
 8474SOL    HW226322   3.370   3.621   2.666
 8475SOL     OW26323   0.031   2.514   2.909
 8475SOL    HW126324   0.006   2.501   2.813
 8475SOL    HW226325   0.028   2.426   2.957
 8476SOL     OW26326   6.585   1.620   1.061
 8476SOL    HW126327   6.663   1.634   1.123
 8476SOL    HW226328   6.578   1.523   1.037
 8477SOL     OW26329   5.157   6.583   2.658
 8477SOL    HW126330   5.135   6.504   2.601
 8477SOL    HW226331   5.235   6.631   2.620
 8478SOL     OW26332   1.634   6.969   6.292
 8478SOL    HW126333   1.543   6.972   6.250
 8478SOL    HW226334   1.686   6.894   6.254
 8479SOL     OW26335   0.784   2.462   0.945
 8479SOL    HW126336   0.744   2.417   0.865
 8479SOL    HW226337   0.716   2.525   0.984
 8480SOL     OW26338   5.311   2.914   0.527
 8480SOL    HW126339   5.289   2.841   0.462
 8480SOL    HW226340   5.311   2.877   0.620
 8481SOL     OW26341   4.979   2.765   4.928
 8481SOL    HW126342   4.896   2.811   4.894
 8481SOL    HW226343   5.006   2.694   4.863
 8482SOL     OW26344   4.544   6.349   2.690
 8482SOL    HW126345   4.616   6.282   2.708
 8482SOL    HW226346   4.585   6.430   2.648
 8483SOL     OW26347   3.656   6.284   1.771
 8483SOL    HW126348   3.630   6.312   1.863
 8483SOL    HW226349   3.726   6.213   1.776
 8484SOL     OW26350   6.918   5.900   3.677
 8484SOL    HW126351   6.945   5.874   3.584
 8484SOL    HW226352   6.983   5.966   3.714
 8485SOL     OW26353   3.402   2.742   0.387
 8485SOL    HW126354   3.354   2.725   0.302
 8485SOL    HW226355   3.390   2.837   0.415
 8486SOL     OW26356   2.149   2.035   2.334
 8486SOL    HW126357   2.118   2.091   2.258
 8486SOL    HW226358   2.148   2.090   2.418
 8487SOL     OW26359   5.634   1.605   5.524
 8487SOL    HW126360   5.604   1.654   5.443
 8487SOL    HW226361   5.615   1.507   5.513
 8488SOL     OW26362   5.423   6.586   0.815
 8488SOL    HW126363   5.327   6.605   0.800
 8488SOL    HW226364   5.440   6.488   0.803
 8489SOL     OW26365   6.540   1.759   1.682
 8489SOL    HW126366   6.525   1.661   1.701
 8489SOL    HW226367   6.526   1.776   1.584
 8490SOL     OW26368   4.275   6.726   5.005
 8490SOL    HW126369   4.348   6.683   4.952
 8490SOL    HW226370   4.302   6.731   5.101
 8491SOL     OW26371   2.513   6.029   1.646
 8491SOL    HW126372   2.495   5.983   1.560
 8491SOL    HW226373   2.455   5.992   1.718
 8492SOL     OW26374   5.932   3.754   5.438
 8492SOL    HW126375   5.904   3.682   5.501
 8492SOL    HW226376   5.851   3.805   5.408
 8493SOL     OW26377   2.269   2.520   5.862
 8493SOL    HW126378   2.181   2.535   5.816
 8493SOL    HW226379   2.311   2.436   5.826
 8494SOL     OW26380   4.249   5.053   1.251
 8494SOL    HW126381   4.267   5.128   1.314
 8494SOL    HW226382   4.318   4.981   1.265
 8495SOL     OW26383   6.177   4.789   1.952
 8495SOL    HW126384   6.233   4.871   1.937
 8495SOL    HW226385   6.236   4.714   1.981
 8496SOL     OW26386   1.401   2.102   2.498
 8496SOL    HW126387   1.321   2.152   2.466
 8496SOL    HW226388   1.483   2.137   2.454
 8497SOL     OW26389   0.028   0.819   3.599
 8497SOL    HW126390   0.027   0.733   3.651
 8497SOL    HW226391   0.095   0.881   3.639
 8498SOL     OW26392   6.313   6.002   3.115
 8498SOL    HW126393   6.348   6.078   3.170
 8498SOL    HW226394   6.233   5.964   3.160
 8499SOL     OW26395   2.241   3.883   6.817
 8499SOL    HW126396   2.228   3.981   6.831
 8499SOL    HW226397   2.172   3.850   6.752
 8500SOL     OW26398   1.599   5.894   5.520
 8500SOL    HW126399   1.662   5.919   5.447
 8500SOL    HW226400   1.577   5.797   5.515
 8501SOL     OW26401   0.370   2.162   6.675
 8501SOL    HW126402   0.396   2.258   6.667
 8501SOL    HW226403   0.427   2.107   6.615
 8502SOL     OW26404   0.438   3.659   0.874
 8502SOL    HW126405   0.471   3.639   0.782
 8502SOL    HW226406   0.502   3.620   0.941
 8503SOL     OW26407   1.168   5.471   4.658
 8503SOL    HW126408   1.179   5.382   4.615
 8503SOL    HW226409   1.215   5.471   4.746
 8504SOL     OW26410   2.380   4.995   3.071
 8504SOL    HW126411   2.479   5.008   3.080
 8504SOL    HW226412   2.332   5.070   3.117
 8505SOL     OW26413   6.489   3.543   3.301
 8505SOL    HW126414   6.453   3.454   3.327
 8505SOL    HW226415   6.556   3.574   3.369
 8506SOL     OW26416   0.769   1.052   6.993
 8506SOL    HW126417   0.830   0.980   0.003
 8506SOL    HW226418   0.805   1.091   6.908
 8507SOL     OW26419   4.109   0.621   4.685
 8507SOL    HW126420   4.207   0.637   4.673
 8507SOL    HW226421   4.088   0.607   4.782
 8508SOL     OW26422   5.124   1.881   4.685
 8508SOL    HW126423   5.096   1.790   4.714
 8508SOL    HW226424   5.192   1.873   4.612
 8509SOL     OW26425   4.522   0.778   3.736
 8509SOL    HW126426   4.427   0.807   3.736
 8509SOL    HW226427   4.528   0.680   3.753
 8510SOL     OW26428   5.640   4.660   2.491
 8510SOL    HW126429   5.604   4.700   2.407
 8510SOL    HW226430   5.650   4.732   2.561
 8511SOL     OW26431   6.185   4.275   2.276
 8511SOL    HW126432   6.127   4.319   2.344
 8511SOL    HW226433   6.139   4.193   2.241
 8512SOL     OW26434   2.590   1.339   2.658
 8512SOL    HW126435   2.505   1.338   2.711
 8512SOL    HW226436   2.591   1.261   2.596
 8513SOL     OW26437   6.796   5.199   0.539
 8513SOL    HW126438   6.754   5.288   0.553
 8513SOL    HW226439   6.851   5.174   0.619
 8514SOL     OW26440   2.029   2.270   4.018
 8514SOL    HW126441   2.018   2.280   3.919
 8514SOL    HW226442   1.957   2.321   4.065
 8515SOL     OW26443   4.720   2.088   1.136
 8515SOL    HW126444   4.737   2.118   1.229
 8515SOL    HW226445   4.697   1.990   1.136
 8516SOL     OW26446   0.044   2.095   2.287
 8516SOL    HW126447   0.033   2.155   2.207
 8516SOL    HW226448   0.043   2.000   2.258
 8517SOL     OW26449   0.556   2.521   6.200
 8517SOL    HW126450   0.570   2.502   6.297
 8517SOL    HW226451   0.514   2.441   6.156
 8518SOL     OW26452   4.231   4.038   0.035
 8518SOL    HW126453   4.133   4.039   0.017
 8518SOL    HW226454   4.261   3.944   0.051
 8519SOL     OW26455   1.720   5.028   2.214
 8519SOL    HW126456   1.729   5.092   2.137
 8519SOL    HW226457   1.623   5.014   2.234
 8520SOL     OW26458   3.608   2.076   0.859
 8520SOL    HW126459   3.668   2.002   0.889
 8520SOL    HW226460   3.514   2.042   0.852
 8521SOL     OW26461   1.773   4.735   5.776
 8521SOL    HW126462   1.700   4.674   5.807
 8521SOL    HW226463   1.769   4.744   5.677
 8522SOL     OW26464   1.420   5.535   1.963
 8522SOL    HW126465   1.418   5.450   2.015
 8522SOL    HW226466   1.327   5.569   1.951
 8523SOL     OW26467   3.346   0.371   6.358
 8523SOL    HW126468   3.339   0.276   6.387
 8523SOL    HW226469   3.411   0.420   6.416
 8524SOL     OW26470   1.255   1.798   4.935
 8524SOL    HW126471   1.280   1.718   4.990
 8524SOL    HW226472   1.308   1.877   4.965
 8525SOL     OW26473   6.374   4.347   2.663
 8525SOL    HW126474   6.387   4.421   2.597
 8525SOL    HW226475   6.280   4.347   2.695
 8526SOL     OW26476   3.392   4.765   0.381
 8526SOL    HW126477   3.322   4.750   0.450
 8526SOL    HW226478   3.480   4.779   0.425
 8527SOL     OW26479   3.140   0.446   5.144
 8527SOL    HW126480   3.136   0.544   5.162
 8527SOL    HW226481   3.063   0.420   5.086
 8528SOL     OW26482   4.977   2.637   6.210
 8528SOL    HW126483   4.886   2.642   6.167
 8528SOL    HW226484   4.977   2.693   6.293
 8529SOL     OW26485   1.044   0.167   0.335
 8529SOL    HW126486   1.099   0.087   0.361
 8529SOL    HW226487   1.105   0.245   0.321
 8530SOL     OW26488   2.391   4.022   5.703
 8530SOL    HW126489   2.350   4.001   5.614
 8530SOL    HW226490   2.411   4.120   5.709
 8531SOL     OW26491   6.396   4.056   1.655
 8531SOL    HW126492   6.367   4.106   1.737
 8531SOL    HW226493   6.324   4.062   1.586
 8532SOL     OW26494   4.303   5.064   4.375
 8532SOL    HW126495   4.370   5.058   4.449
 8532SOL    HW226496   4.337   5.126   4.305
 8533SOL     OW26497   1.873   0.151   6.140
 8533SOL    HW126498   1.891   0.215   6.215
 8533SOL    HW226499   1.920   0.065   6.158
 8534SOL     OW26500   6.709   3.498   4.036
 8534SOL    HW126501   6.809   3.501   4.031
 8534SOL    HW226502   6.678   3.529   4.126
 8535SOL     OW26503   0.575   2.072   5.296
 8535SOL    HW126504   0.499   2.138   5.286
 8535SOL    HW226505   0.656   2.120   5.329
 8536SOL     OW26506   5.973   1.762   5.086
 8536SOL    HW126507   6.007   1.693   5.022
 8536SOL    HW226508   6.030   1.763   5.168
 8537SOL     OW26509   5.727   1.224   2.395
 8537SOL    HW126510   5.667   1.293   2.435
 8537SOL    HW226511   5.793   1.194   2.464
 8538SOL     OW26512   0.771   1.464   5.291
 8538SOL    HW126513   0.708   1.498   5.220
 8538SOL    HW226514   0.781   1.533   5.362
 8539SOL     OW26515   6.728   1.881   1.831
 8539SOL    HW126516   6.780   1.840   1.906
 8539SOL    HW226517   6.660   1.816   1.798
 8540SOL     OW26518   3.908   1.948   0.352
 8540SOL    HW126519   3.921   1.876   0.283
 8540SOL    HW226520   3.847   1.915   0.423
 8541SOL     OW26521   3.325   2.077   4.292
 8541SOL    HW126522   3.258   2.138   4.250
 8541SOL    HW226523   3.352   2.006   4.227
 8542SOL     OW26524   2.424   4.468   5.482
 8542SOL    HW126525   2.514   4.510   5.468
 8542SOL    HW226526   2.355   4.517   5.429
 8543SOL     OW26527   3.280   1.269   6.562
 8543SOL    HW126528   3.330   1.215   6.494
 8543SOL    HW226529   3.344   1.320   6.619
 8544SOL     OW26530   5.266   2.899   4.432
 8544SOL    HW126531   5.294   2.995   4.422
 8544SOL    HW226532   5.257   2.858   4.341
 8545SOL     OW26533   4.433   0.029   4.955
 8545SOL    HW126534   4.486   6.986   5.010
 8545SOL    HW226535   4.495   0.085   4.901
 8546SOL     OW26536   0.875   0.331   2.079
 8546SOL    HW126537   0.780   0.308   2.096
 8546SOL    HW226538   0.920   0.255   2.030
 8547SOL     OW26539   0.981   6.912   6.358
 8547SOL    HW126540   0.986   6.827   6.304
 8547SOL    HW226541   0.945   6.891   6.449
 8548SOL     OW26542   6.826   3.272   5.718
 8548SOL    HW126543   6.821   3.352   5.658
 8548SOL    HW226544   6.904   3.282   5.780
 8549SOL     OW26545   0.657   2.175   4.129
 8549SOL    HW126546   0.682   2.129   4.215
 8549SOL    HW226547   0.640   2.106   4.058
 8550SOL     OW26548   1.578   4.972   0.427
 8550SOL    HW126549   1.518   4.930   0.495
 8550SOL    HW226550   1.523   5.022   0.360
 8551SOL     OW26551   2.707   2.744   0.205
 8551SOL    HW126552   2.714   2.842   0.188
 8551SOL    HW226553   2.709   2.728   0.304
 8552SOL     OW26554   1.984   0.398   2.845
 8552SOL    HW126555   2.055   0.347   2.893
 8552SOL    HW226556   1.899   0.347   2.848
 8553SOL     OW26557   4.020   4.574   6.303
 8553SOL    HW126558   3.978   4.652   6.257
 8553SOL    HW226559   4.068   4.517   6.236
 8554SOL     OW26560   0.418   5.815   0.666
 8554SOL    HW126561   0.464   5.865   0.739
 8554SOL    HW226562   0.360   5.878   0.615
 8555SOL     OW26563   3.351   1.149   3.339
 8555SOL    HW126564   3.370   1.069   3.282
 8555SOL    HW226565   3.414   1.151   3.417
 8556SOL     OW26566   2.349   6.130   4.981
 8556SOL    HW126567   2.411   6.084   4.918
 8556SOL    HW226568   2.320   6.067   5.053
 8557SOL     OW26569   6.500   0.359   2.456
 8557SOL    HW126570   6.476   0.334   2.363
 8557SOL    HW226571   6.589   0.319   2.479
 8558SOL     OW26572   2.287   5.855   3.246
 8558SOL    HW126573   2.374   5.840   3.199
 8558SOL    HW226574   2.251   5.945   3.220
 8559SOL     OW26575   2.106   6.781   2.503
 8559SOL    HW126576   2.184   6.748   2.556
 8559SOL    HW226577   2.044   6.705   2.483
 8560SOL     OW26578   1.445   5.276   2.353
 8560SOL    HW126579   1.417   5.372   2.350
 8560SOL    HW226580   1.480   5.254   2.444
 8561SOL     OW26581   3.369   0.304   2.838
 8561SOL    HW126582   3.351   0.260   2.751
 8561SOL    HW226583   3.453   0.266   2.878
 8562SOL     OW26584   3.443   6.122   6.864
 8562SOL    HW126585   3.470   6.057   6.935
 8562SOL    HW226586   3.472   6.087   6.775
 8563SOL     OW26587   1.142   4.919   2.317
 8563SOL    HW126588   1.185   4.912   2.227
 8563SOL    HW226589   1.061   4.977   2.311
 8564SOL     OW26590   2.993   6.952   5.167
 8564SOL    HW126591   2.903   6.991   5.185
 8564SOL    HW226592   2.986   6.886   5.092
 8565SOL     OW26593   3.361   5.070   1.026
 8565SOL    HW126594   3.382   4.997   0.961
 8565SOL    HW226595   3.295   5.038   1.094
 8566SOL     OW26596   1.173   6.981   1.642
 8566SOL    HW126597   1.089   6.928   1.653
 8566SOL    HW226598   1.183   7.007   1.546
 8567SOL     OW26599   0.326   2.221   2.134
 8567SOL    HW126600   0.302   2.177   2.220
 8567SOL    HW226601   0.385   2.300   2.152
 8568SOL     OW26602   5.573   2.083   0.152
 8568SOL    HW126603   5.615   2.131   0.229
 8568SOL    HW226604   5.645   2.046   0.093
 8569SOL     OW26605   5.180   2.125   5.184
 8569SOL    HW126606   5.174   2.200   5.118
 8569SOL    HW226607   5.265   2.075   5.169
 8570SOL     OW26608   0.760   1.518   3.939
 8570SOL    HW126609   0.769   1.530   3.840
 8570SOL    HW226610   0.685   1.455   3.959
 8571SOL     OW26611   0.804   6.195   5.492
 8571SOL    HW126612   0.850   6.179   5.405
 8571SOL    HW226613   0.867   6.175   5.568
 8572SOL     OW26614   1.811   4.011   5.585
 8572SOL    HW126615   1.810   3.977   5.491
 8572SOL    HW226616   1.903   4.043   5.608
 8573SOL     OW26617   3.187   5.974   6.296
 8573SOL    HW126618   3.099   5.995   6.253
 8573SOL    HW226619   3.250   6.051   6.281
 8574SOL     OW26620   6.154   0.352   6.406
 8574SOL    HW126621   6.072   0.341   6.463
 8574SOL    HW226622   6.163   0.448   6.381
 8575SOL     OW26623   2.280   2.382   3.400
 8575SOL    HW126624   2.274   2.482   3.394
 8575SOL    HW226625   2.376   2.354   3.399
 8576SOL     OW26626   1.561   4.813   4.541
 8576SOL    HW126627   1.583   4.734   4.484
 8576SOL    HW226628   1.480   4.793   4.596
 8577SOL     OW26629   1.289   0.356   5.800
 8577SOL    HW126630   1.298   0.304   5.885
 8577SOL    HW226631   1.342   0.310   5.728
 8578SOL     OW26632   6.731   5.641   4.904
 8578SOL    HW126633   6.720   5.549   4.943
 8578SOL    HW226634   6.751   5.634   4.806
 8579SOL     OW26635   1.613   6.452   1.905
 8579SOL    HW126636   1.541   6.397   1.862
 8579SOL    HW226637   1.629   6.534   1.850
 8580SOL     OW26638   1.769   5.522   0.446
 8580SOL    HW126639   1.791   5.505   0.350
 8580SOL    HW226640   1.692   5.463   0.473
 8581SOL     OW26641   3.269   4.252   1.482
 8581SOL    HW126642   3.230   4.323   1.541
 8581SOL    HW226643   3.267   4.165   1.530
 8582SOL     OW26644   4.860   4.295   5.322
 8582SOL    HW126645   4.884   4.227   5.391
 8582SOL    HW226646   4.761   4.303   5.315
 8583SOL     OW26647   3.873   0.182   4.084
 8583SOL    HW126648   3.847   0.254   4.019
 8583SOL    HW226649   3.815   0.187   4.165
 8584SOL     OW26650   0.982   6.186   5.701
 8584SOL    HW126651   1.006   6.250   5.775
 8584SOL    HW226652   0.931   6.109   5.740
 8585SOL     OW26653   6.218   1.568   0.533
 8585SOL    HW126654   6.245   1.476   0.506
 8585SOL    HW226655   6.187   1.619   0.453
 8586SOL     OW26656   3.324   6.507   1.923
 8586SOL    HW126657   3.282   6.505   1.833
 8586SOL    HW226658   3.285   6.582   1.977
 8587SOL     OW26659   0.882   0.667   4.419
 8587SOL    HW126660   0.892   0.604   4.342
 8587SOL    HW226661   0.813   0.631   4.483
 8588SOL     OW26662   4.285   1.296   6.861
 8588SOL    HW126663   4.359   1.249   6.908
 8588SOL    HW226664   4.273   1.387   6.901
 8589SOL     OW26665   5.946   2.716   5.476
 8589SOL    HW126666   5.882   2.753   5.410
 8589SOL    HW226667   6.025   2.777   5.485
 8590SOL     OW26668   0.194   0.598   2.516
 8590SOL    HW126669   0.207   0.640   2.606
 8590SOL    HW226670   0.264   0.529   2.501
 8591SOL     OW26671   0.246   4.429   6.701
 8591SOL    HW126672   0.283   4.422   6.794
 8591SOL    HW226673   0.318   4.411   6.634
 8592SOL     OW26674   5.648   1.966   6.868
 8592SOL    HW126675   5.560   1.941   6.827
 8592SOL    HW226676   5.668   2.062   6.847
 8593SOL     OW26677   3.451   1.167   6.954
 8593SOL    HW126678   3.428   1.257   6.991
 8593SOL    HW226679   3.367   1.122   6.923
 8594SOL     OW26680   5.581   2.491   5.640
 8594SOL    HW126681   5.614   2.548   5.715
 8594SOL    HW226682   5.639   2.410   5.631
 8595SOL     OW26683   0.061   1.131   3.559
 8595SOL    HW126684   0.103   1.122   3.650
 8595SOL    HW226685   6.988   1.158   3.570
 8596SOL     OW26686   1.173   4.626   3.116
 8596SOL    HW126687   1.163   4.591   3.209
 8596SOL    HW226688   1.200   4.722   3.119
 8597SOL     OW26689   5.169   1.433   2.203
 8597SOL    HW126690   5.158   1.386   2.290
 8597SOL    HW226691   5.081   1.434   2.155
 8598SOL     OW26692   5.913   0.271   6.524
 8598SOL    HW126693   5.832   0.296   6.577
 8598SOL    HW226694   5.934   0.174   6.538
 8599SOL     OW26695   1.816   2.186   4.406
 8599SOL    HW126696   1.724   2.220   4.426
 8599SOL    HW226697   1.820   2.152   4.312
 8600SOL     OW26698   5.130   3.662   6.817
 8600SOL    HW126699   5.204   3.687   6.755
 8600SOL    HW226700   5.048   3.641   6.764
 8601SOL     OW26701   0.846   1.454   3.657
 8601SOL    HW126702   0.779   1.434   3.586
 8601SOL    HW226703   0.938   1.439   3.621
 8602SOL     OW26704   3.168   6.702   2.803
 8602SOL    HW126705   3.200   6.786   2.847
 8602SOL    HW226706   3.234   6.674   2.733
 8603SOL     OW26707   5.167   6.436   1.226
 8603SOL    HW126708   5.234   6.374   1.184
 8603SOL    HW226709   5.090   6.383   1.260
 8604SOL     OW26710   1.082   2.424   5.568
 8604SOL    HW126711   0.999   2.471   5.597
 8604SOL    HW226712   1.162   2.470   5.609
 8605SOL     OW26713   2.499   5.481   4.355
 8605SOL    HW126714   2.428   5.410   4.354
 8605SOL    HW226715   2.487   5.542   4.277
 8606SOL     OW26716   1.875   2.761   6.578
 8606SOL    HW126717   1.927   2.686   6.535
 8606SOL    HW226718   1.870   2.745   6.676
 8607SOL     OW26719   3.094   4.839   6.327
 8607SOL    HW126720   3.084   4.807   6.421
 8607SOL    HW226721   3.080   4.762   6.264
 8608SOL     OW26722   2.670   4.697   2.690
 8608SOL    HW126723   2.670   4.694   2.790
 8608SOL    HW226724   2.576   4.687   2.657
 8609SOL     OW26725   5.074   0.401   3.273
 8609SOL    HW126726   4.980   0.420   3.244
 8609SOL    HW226727   5.079   0.308   3.309
 8610SOL     OW26728   0.975   1.265   2.650
 8610SOL    HW126729   0.935   1.293   2.737
 8610SOL    HW226730   0.902   1.254   2.582
 8611SOL     OW26731   2.901   1.874   4.543
 8611SOL    HW126732   2.864   1.848   4.454
 8611SOL    HW226733   2.901   1.974   4.551
 8612SOL     OW26734   2.732   2.916   1.028
 8612SOL    HW126735   2.796   2.993   1.018
 8612SOL    HW226736   2.676   2.930   1.109
 8613SOL     OW26737   2.864   1.837   2.117
 8613SOL    HW126738   2.921   1.914   2.088
 8613SOL    HW226739   2.915   1.752   2.105
 8614SOL     OW26740   1.225   3.155   3.917
 8614SOL    HW126741   1.243   3.234   3.859
 8614SOL    HW226742   1.144   3.107   3.884
 8615SOL     OW26743   4.248   2.131   5.074
 8615SOL    HW126744   4.208   2.141   4.984
 8615SOL    HW226745   4.193   2.067   5.129
 8616SOL     OW26746   3.081   4.785   1.941
 8616SOL    HW126747   3.148   4.726   1.984
 8616SOL    HW226748   2.996   4.784   1.994
 8617SOL     OW26749   5.402   1.082   4.953
 8617SOL    HW126750   5.484   1.111   4.904
 8617SOL    HW226751   5.388   1.140   5.033
 8618SOL     OW26752   6.551   4.803   1.272
 8618SOL    HW126753   6.573   4.853   1.188
 8618SOL    HW226754   6.580   4.708   1.263
 8619SOL     OW26755   4.019   5.146   1.884
 8619SOL    HW126756   4.087   5.171   1.815
 8619SOL    HW226757   4.063   5.099   1.960
 8620SOL     OW26758   2.223   6.313   3.166
 8620SOL    HW126759   2.134   6.344   3.201
 8620SOL    HW226760   2.265   6.386   3.113
 8621SOL     OW26761   5.409   2.221   1.986
 8621SOL    HW126762   5.430   2.131   1.949
 8621SOL    HW226763   5.438   2.292   1.921
 8622SOL     OW26764   5.109   4.015   1.252
 8622SOL    HW126765   5.056   4.090   1.213
 8622SOL    HW226766   5.130   4.034   1.348
 8623SOL     OW26767   1.237   4.191   5.398
 8623SOL    HW126768   1.285   4.184   5.310
 8623SOL    HW226769   1.181   4.109   5.413
 8624SOL     OW26770   2.157   3.804   4.939
 8624SOL    HW126771   2.221   3.746   4.888
 8624SOL    HW226772   2.194   3.896   4.945
 8625SOL     OW26773   4.785   1.168   5.778
 8625SOL    HW126774   4.848   1.179   5.701
 8625SOL    HW226775   4.798   1.078   5.820
 8626SOL     OW26776   3.989   2.693   6.930
 8626SOL    HW126777   4.022   2.756   7.000
 8626SOL    HW226778   3.997   2.735   6.840
 8627SOL     OW26779   1.674   1.442   2.175
 8627SOL    HW126780   1.656   1.417   2.080
 8627SOL    HW226781   1.587   1.452   2.224
 8628SOL     OW26782   6.152   6.671   0.368
 8628SOL    HW126783   6.179   6.583   0.408
 8628SOL    HW226784   6.147   6.662   0.268
 8629SOL     OW26785   1.739   6.428   5.071
 8629SOL    HW126786   1.742   6.471   5.161
 8629SOL    HW226787   1.713   6.496   5.002
 8630SOL     OW26788   4.795   2.982   3.926
 8630SOL    HW126789   4.781   3.010   4.021
 8630SOL    HW226790   4.889   3.005   3.898
 8631SOL     OW26791   1.031   5.434   6.382
 8631SOL    HW126792   1.047   5.346   6.338
 8631SOL    HW226793   0.935   5.441   6.409
 8632SOL     OW26794   3.673   4.925   5.253
 8632SOL    HW126795   3.672   5.010   5.306
 8632SOL    HW226796   3.757   4.920   5.200
 8633SOL     OW26797   5.728   2.407   6.267
 8633SOL    HW126798   5.640   2.417   6.221
 8633SOL    HW226799   5.798   2.380   6.201
 8634SOL     OW26800   5.274   4.226   6.957
 8634SOL    HW126801   5.343   4.220   6.885
 8634SOL    HW226802   5.199   4.286   6.926
 8635SOL     OW26803   4.994   3.024   6.489
 8635SOL    HW126804   4.980   2.926   6.477
 8635SOL    HW226805   4.987   3.048   6.586
 8636SOL     OW26806   5.518   5.919   0.911
 8636SOL    HW126807   5.556   6.003   0.952
 8636SOL    HW226808   5.438   5.942   0.855
 8637SOL     OW26809   2.563   1.275   6.731
 8637SOL    HW126810   2.588   1.256   6.636
 8637SOL    HW226811   2.518   1.364   6.736
 8638SOL     OW26812   3.526   2.142   4.860
 8638SOL    HW126813   3.441   2.103   4.893
 8638SOL    HW226814   3.509   2.192   4.775
 8639SOL     OW26815   5.475   2.982   0.113
 8639SOL    HW126816   5.450   2.917   0.185
 8639SOL    HW226817   5.539   3.049   0.150
 8640SOL     OW26818   4.149   3.221   6.723
 8640SOL    HW126819   4.177   3.199   6.629
 8640SOL    HW226820   4.193   3.306   6.752
 8641SOL     OW26821   4.284   4.633   3.865
 8641SOL    HW126822   4.272   4.638   3.964
 8641SOL    HW226823   4.379   4.651   3.842
 8642SOL     OW26824   1.095   6.533   4.371
 8642SOL    HW126825   1.095   6.583   4.457
 8642SOL    HW226826   1.007   6.488   4.358
 8643SOL     OW26827   2.248   1.221   6.217
 8643SOL    HW126828   2.268   1.184   6.127
 8643SOL    HW226829   2.323   1.279   6.248
 8644SOL     OW26830   5.529   2.374   6.045
 8644SOL    HW126831   5.440   2.348   6.007
 8644SOL    HW226832   5.602   2.325   5.997
 8645SOL     OW26833   4.429   4.644   1.154
 8645SOL    HW126834   4.387   4.558   1.182
 8645SOL    HW226835   4.362   4.699   1.103
 8646SOL     OW26836   0.450   1.824   6.935
 8646SOL    HW126837   0.396   1.740   6.928
 8646SOL    HW226838   0.400   1.900   6.892
 8647SOL     OW26839   2.262   4.849   6.712
 8647SOL    HW126840   2.327   4.783   6.750
 8647SOL    HW226841   2.224   4.813   6.627
 8648SOL     OW26842   6.924   0.402   2.509
 8648SOL    HW126843   6.930   0.497   2.478
 8648SOL    HW226844   7.013   0.358   2.497
 8649SOL     OW26845   5.187   5.670   6.601
 8649SOL    HW126846   5.218   5.579   6.571
 8649SOL    HW226847   5.262   5.735   6.590
 8650SOL     OW26848   1.275   5.633   5.056
 8650SOL    HW126849   1.321   5.549   5.085
 8650SOL    HW226850   1.200   5.654   5.119
 8651SOL     OW26851   4.508   1.115   0.534
 8651SOL    HW126852   4.501   1.017   0.554
 8651SOL    HW226853   4.428   1.145   0.483
 8652SOL     OW26854   2.059   5.041   3.552
 8652SOL    HW126855   2.098   4.965   3.605
 8652SOL    HW226856   2.119   5.121   3.560
 8653SOL     OW26857   6.855   1.007   5.951
 8653SOL    HW126858   6.905   0.927   5.981
 8653SOL    HW226859   6.862   1.079   6.020
 8654SOL     OW26860   0.479   4.518   2.094
 8654SOL    HW126861   0.406   4.527   2.027
 8654SOL    HW226862   0.466   4.586   2.166
 8655SOL     OW26863   6.010   0.597   4.086
 8655SOL    HW126864   5.976   0.685   4.119
 8655SOL    HW226865   5.954   0.523   4.124
 8656SOL     OW26866   6.272   0.748   1.865
 8656SOL    HW126867   6.342   0.819   1.882
 8656SOL    HW226868   6.274   0.722   1.769
 8657SOL     OW26869   5.166   5.991   6.978
 8657SOL    HW126870   5.261   5.976   7.005
 8657SOL    HW226871   5.154   6.087   6.950
 8658SOL     OW26872   6.303   6.482   0.511
 8658SOL    HW126873   6.371   6.464   0.439
 8658SOL    HW226874   6.263   6.395   0.540
 8659SOL     OW26875   4.742   2.169   1.945
 8659SOL    HW126876   4.813   2.233   1.976
 8659SOL    HW226877   4.750   2.157   1.846
 8660SOL     OW26878   0.143   3.479   1.923
 8660SOL    HW126879   0.230   3.527   1.912
 8660SOL    HW226880   0.161   3.382   1.941
 8661SOL     OW26881   0.096   3.904   1.273
 8661SOL    HW126882   0.027   3.832   1.282
 8661SOL    HW226883   0.052   3.994   1.280
 8662SOL     OW26884   4.431   5.570   1.870
 8662SOL    HW126885   4.423   5.569   1.970
 8662SOL    HW226886   4.419   5.664   1.837
 8663SOL     OW26887   2.869   5.536   2.578
 8663SOL    HW126888   2.889   5.534   2.676
 8663SOL    HW226889   2.783   5.488   2.560
 8664SOL     OW26890   2.228   5.128   1.422
 8664SOL    HW126891   2.181   5.094   1.341
 8664SOL    HW226892   2.244   5.052   1.485
 8665SOL     OW26893   5.708   5.370   4.963
 8665SOL    HW126894   5.719   5.320   4.877
 8665SOL    HW226895   5.654   5.453   4.947
 8666SOL     OW26896   5.496   1.056   3.649
 8666SOL    HW126897   5.434   0.986   3.614
 8666SOL    HW226898   5.530   1.111   3.573
 8667SOL     OW26899   4.301   1.898   4.318
 8667SOL    HW126900   4.281   1.848   4.403
 8667SOL    HW226901   4.386   1.949   4.329
 8668SOL     OW26902   5.325   3.848   3.035
 8668SOL    HW126903   5.268   3.839   3.117
 8668SOL    HW226904   5.382   3.767   3.025
 8669SOL     OW26905   0.519   6.389   6.839
 8669SOL    HW126906   0.473   6.347   6.917
 8669SOL    HW226907   0.570   6.318   6.790
 8670SOL     OW26908   4.045   5.321   6.216
 8670SOL    HW126909   4.048   5.344   6.119
 8670SOL    HW226910   4.000   5.394   6.266
 8671SOL     OW26911   6.587   1.622   3.442
 8671SOL    HW126912   6.527   1.602   3.519
 8671SOL    HW226913   6.611   1.537   3.395
 8672SOL     OW26914   0.614   5.468   3.716
 8672SOL    HW126915   0.556   5.548   3.700
 8672SOL    HW226916   0.587   5.394   3.655
 8673SOL     OW26917   5.837   1.953   0.195
 8673SOL    HW126918   5.875   1.902   0.118
 8673SOL    HW226919   5.903   2.022   0.226
 8674SOL     OW26920   5.582   5.432   2.690
 8674SOL    HW126921   5.579   5.478   2.601
 8674SOL    HW226922   5.637   5.485   2.753
 8675SOL     OW26923   4.272   1.870   4.876
 8675SOL    HW126924   4.240   1.776   4.865
 8675SOL    HW226925   4.356   1.871   4.931
 8676SOL     OW26926   5.890   6.775   3.247
 8676SOL    HW126927   5.879   6.852   3.183
 8676SOL    HW226928   5.879   6.689   3.197
 8677SOL     OW26929   2.247   5.508   6.504
 8677SOL    HW126930   2.201   5.421   6.488
 8677SOL    HW226931   2.299   5.535   6.423
 8678SOL     OW26932   0.895   0.244   0.964
 8678SOL    HW126933   0.971   0.212   0.907
 8678SOL    HW226934   0.884   0.182   1.042
 8679SOL     OW26935   0.806   1.174   3.355
 8679SOL    HW126936   0.786   1.189   3.451
 8679SOL    HW226937   0.737   1.220   3.299
 8680SOL     OW26938   6.070   3.803   0.344
 8680SOL    HW126939   6.144   3.737   0.341
 8680SOL    HW226940   6.108   3.895   0.354
 8681SOL     OW26941   4.823   5.342   1.485
 8681SOL    HW126942   4.886   5.266   1.503
 8681SOL    HW226943   4.756   5.348   1.559
 8682SOL     OW26944   6.314   0.269   2.976
 8682SOL    HW126945   6.224   0.240   3.010
 8682SOL    HW226946   6.372   0.294   3.053
 8683SOL     OW26947   1.615   2.353   5.309
 8683SOL    HW126948   1.529   2.323   5.269
 8683SOL    HW226949   1.645   2.437   5.264
 8684SOL     OW26950   5.968   3.055   4.401
 8684SOL    HW126951   5.912   3.111   4.340
 8684SOL    HW226952   6.057   3.038   4.359
 8685SOL     OW26953   5.419   2.254   6.477
 8685SOL    HW126954   5.404   2.326   6.545
 8685SOL    HW226955   5.495   2.196   6.507
 8686SOL     OW26956   6.764   0.699   2.268
 8686SOL    HW126957   6.851   0.683   2.314
 8686SOL    HW226958   6.688   0.678   2.331
 8687SOL     OW26959   5.066   5.116   2.453
 8687SOL    HW126960   5.075   5.158   2.543
 8687SOL    HW226961   4.999   5.167   2.399
 8688SOL     OW26962   1.177   5.177   6.516
 8688SOL    HW126963   1.227   5.232   6.450
 8688SOL    HW226964   1.225   5.176   6.603
 8689SOL     OW26965   4.025   2.356   1.024
 8689SOL    HW126966   4.073   2.315   0.945
 8689SOL    HW226967   3.961   2.426   0.991
 8690SOL     OW26968   1.375   3.798   4.287
 8690SOL    HW126969   1.438   3.767   4.215
 8690SOL    HW226970   1.404   3.888   4.319
 8691SOL     OW26971   3.802   1.767   6.586
 8691SOL    HW126972   3.793   1.824   6.668
 8691SOL    HW226973   3.794   1.826   6.505
 8692SOL     OW26974   3.197   1.565   4.299
 8692SOL    HW126975   3.264   1.604   4.363
 8692SOL    HW226976   3.204   1.611   4.211
 8693SOL     OW26977   5.957   6.890   0.255
 8693SOL    HW126978   5.954   6.936   0.344
 8693SOL    HW226979   6.021   6.938   0.195
 8694SOL     OW26980   5.347   1.510   4.805
 8694SOL    HW126981   5.319   1.606   4.799
 8694SOL    HW226982   5.375   1.490   4.899
 8695SOL     OW26983   4.513   3.727   6.342
 8695SOL    HW126984   4.426   3.691   6.376
 8695SOL    HW226985   4.529   3.695   6.249
 8696SOL     OW26986   2.641   5.212   5.218
 8696SOL    HW126987   2.665   5.143   5.287
 8696SOL    HW226988   2.631   5.167   5.129
 8697SOL     OW26989   0.411   4.364   6.487
 8697SOL    HW126990   0.494   4.314   6.509
 8697SOL    HW226991   0.435   4.457   6.458
 8698SOL     OW26992   4.970   5.743   4.921
 8698SOL    HW126993   4.933   5.798   4.846
 8698SOL    HW226994   5.045   5.686   4.886
 8699SOL     OW26995   1.668   2.834   4.568
 8699SOL    HW126996   1.732   2.894   4.618
 8699SOL    HW226997   1.663   2.863   4.473
 8700SOL     OW26998   0.993   0.415   4.916
 8700SOL    HW126999   1.049   0.378   4.991
 8700SOL    HW227000   0.914   0.463   4.954
 8701SOL     OW27001   1.619   1.522   0.181
 8701SOL    HW127002   1.614   1.443   0.243
 8701SOL    HW227003   1.575   1.499   0.094
 8702SOL     OW27004   5.142   4.872   1.980
 8702SOL    HW127005   5.141   4.785   2.029
 8702SOL    HW227006   5.160   4.946   2.045
 8703SOL     OW27007   2.765   4.967   6.948
 8703SOL    HW127008   2.837   5.036   6.956
 8703SOL    HW227009   2.676   5.012   6.954
 8704SOL     OW27010   0.868   4.295   3.355
 8704SOL    HW127011   0.782   4.249   3.338
 8704SOL    HW227012   0.874   4.319   3.452
 8705SOL     OW27013   5.154   1.702   6.248
 8705SOL    HW127014   5.240   1.662   6.279
 8705SOL    HW227015   5.172   1.791   6.205
 8706SOL     OW27016   4.906   2.191   0.331
 8706SOL    HW127017   4.929   2.164   0.425
 8706SOL    HW227018   4.970   2.261   0.300
 8707SOL     OW27019   0.642   1.651   5.124
 8707SOL    HW127020   0.542   1.655   5.137
 8707SOL    HW227021   0.680   1.743   5.128
 8708SOL     OW27022   4.266   1.779   3.746
 8708SOL    HW127023   4.207   1.787   3.666
 8708SOL    HW227024   4.217   1.814   3.826
 8709SOL     OW27025   6.518   0.078   6.834
 8709SOL    HW127026   6.565   0.110   6.752
 8709SOL    HW227027   6.495   0.156   6.892
 8710SOL     OW27028   1.689   2.945   3.067
 8710SOL    HW127029   1.626   2.998   3.010
 8710SOL    HW227030   1.708   2.996   3.151
 8711SOL     OW27031   2.051   6.550   2.895
 8711SOL    HW127032   2.016   6.545   2.988
 8711SOL    HW227033   2.147   6.519   2.894
 8712SOL     OW27034   3.588   1.854   4.269
 8712SOL    HW127035   3.513   1.792   4.249
 8712SOL    HW227036   3.587   1.877   4.366
 8713SOL     OW27037   6.966   3.362   2.143
 8713SOL    HW127038   6.932   3.377   2.236
 8713SOL    HW227039   6.908   3.413   2.078
 8714SOL     OW27040   1.434   0.278   5.572
 8714SOL    HW127041   1.339   0.258   5.550
 8714SOL    HW227042   1.468   0.350   5.511
 8715SOL     OW27043   4.176   1.189   0.691
 8715SOL    HW127044   4.108   1.262   0.688
 8715SOL    HW227045   4.253   1.217   0.748
 8716SOL     OW27046   0.329   6.412   0.644
 8716SOL    HW127047   0.282   6.395   0.557
 8716SOL    HW227048   0.294   6.350   0.714
 8717SOL     OW27049   2.609   3.633   5.367
 8717SOL    HW127050   2.671   3.706   5.337
 8717SOL    HW227051   2.636   3.547   5.324
 8718SOL     OW27052   1.397   2.349   5.620
 8718SOL    HW127053   1.374   2.343   5.523
 8718SOL    HW227054   1.354   2.430   5.659
 8719SOL     OW27055   3.867   0.233   0.347
 8719SOL    HW127056   3.882   0.145   0.303
 8719SOL    HW227057   3.807   0.289   0.290
 8720SOL     OW27058   1.128   6.294   6.143
 8720SOL    HW127059   1.145   6.389   6.169
 8720SOL    HW227060   1.045   6.261   6.188
 8721SOL     OW27061   6.952   2.121   1.090
 8721SOL    HW127062   0.017   2.127   1.138
 8721SOL    HW227063   6.877   2.124   1.156
 8722SOL     OW27064   3.352   1.400   1.204
 8722SOL    HW127065   3.348   1.409   1.304
 8722SOL    HW227066   3.343   1.490   1.162
 8723SOL     OW27067   4.972   6.672   1.757
 8723SOL    HW127068   4.912   6.708   1.685
 8723SOL    HW227069   4.936   6.696   1.847
 8724SOL     OW27070   5.620   6.569   4.280
 8724SOL    HW127071   5.584   6.522   4.199
 8724SOL    HW227072   5.592   6.520   4.363
 8725SOL     OW27073   2.023   5.442   5.799
 8725SOL    HW127074   2.109   5.424   5.847
 8725SOL    HW227075   1.985   5.529   5.830
 8726SOL     OW27076   0.249   0.629   3.054
 8726SOL    HW127077   0.249   0.581   3.142
 8726SOL    HW227078   0.160   0.619   3.011
 8727SOL     OW27079   6.444   0.127   1.457
 8727SOL    HW127080   6.438   0.103   1.360
 8727SOL    HW227081   6.419   0.048   1.513
 8728SOL     OW27082   6.007   0.808   1.881
 8728SOL    HW127083   6.071   0.732   1.895
 8728SOL    HW227084   5.989   0.818   1.784
 8729SOL     OW27085   3.240   5.006   5.675
 8729SOL    HW127086   3.286   5.000   5.586
 8729SOL    HW227087   3.181   4.926   5.687
 8730SOL     OW27088   5.162   3.999   2.344
 8730SOL    HW127089   5.254   3.975   2.373
 8730SOL    HW227090   5.133   4.082   2.392
 8731SOL     OW27091   0.751   3.727   3.235
 8731SOL    HW127092   0.812   3.772   3.300
 8731SOL    HW227093   0.757   3.628   3.245
 8732SOL     OW27094   5.553   4.794   2.011
 8732SOL    HW127095   5.535   4.880   1.962
 8732SOL    HW227096   5.566   4.720   1.944
 8733SOL     OW27097   1.063   5.709   1.160
 8733SOL    HW127098   1.013   5.755   1.234
 8733SOL    HW227099   1.013   5.628   1.132
 8734SOL     OW27100   1.023   3.270   3.138
 8734SOL    HW127101   1.039   3.249   3.042
 8734SOL    HW227102   1.048   3.191   3.194
 8735SOL     OW27103   0.414   3.004   6.326
 8735SOL    HW127104   0.342   3.014   6.396
 8735SOL    HW227105   0.492   2.956   6.365
 8736SOL     OW27106   0.300   5.746   2.043
 8736SOL    HW127107   0.340   5.835   2.066
 8736SOL    HW227108   0.362   5.673   2.071
 8737SOL     OW27109   1.630   6.375   0.237
 8737SOL    HW127110   1.606   6.332   0.150
 8737SOL    HW227111   1.705   6.439   0.223
 8738SOL     OW27112   2.619   5.708   4.006
 8738SOL    HW127113   2.683   5.697   3.929
 8738SOL    HW227114   2.549   5.775   3.981
 8739SOL     OW27115   5.964   5.806   5.894
 8739SOL    HW127116   5.961   5.897   5.934
 8739SOL    HW227117   6.059   5.777   5.884
 8740SOL     OW27118   4.171   1.175   3.677
 8740SOL    HW127119   4.097   1.171   3.609
 8740SOL    HW227120   4.248   1.227   3.640
 8741SOL     OW27121   2.445   0.922   3.073
 8741SOL    HW127122   2.520   0.978   3.109
 8741SOL    HW227123   2.471   0.887   2.983
 8742SOL     OW27124   4.804   0.426   1.663
 8742SOL    HW127125   4.900   0.402   1.676
 8742SOL    HW227126   4.746   0.358   1.709
 8743SOL     OW27127   1.216   0.227   1.392
 8743SOL    HW127128   1.181   0.289   1.461
 8743SOL    HW227129   1.311   0.252   1.369
 8744SOL     OW27130   4.262   2.785   0.460
 8744SOL    HW127131   4.173   2.814   0.425
 8744SOL    HW227132   4.313   2.865   0.493
 8745SOL     OW27133   5.870   1.619   6.622
 8745SOL    HW127134   5.928   1.696   6.595
 8745SOL    HW227135   5.844   1.630   6.718
 8746SOL     OW27136   5.263   5.723   4.471
 8746SOL    HW127137   5.352   5.767   4.487
 8746SOL    HW227138   5.259   5.638   4.523
 8747SOL     OW27139   0.126   1.539   2.700
 8747SOL    HW127140   0.148   1.636   2.713
 8747SOL    HW227141   0.175   1.503   2.621
 8748SOL     OW27142   0.348   1.657   5.162
 8748SOL    HW127143   0.357   1.736   5.102
 8748SOL    HW227144   0.345   1.574   5.108
 8749SOL     OW27145   1.950   0.621   5.472
 8749SOL    HW127146   2.035   0.627   5.419
 8749SOL    HW227147   1.958   0.678   5.554
 8750SOL     OW27148   3.575   3.893   5.869
 8750SOL    HW127149   3.568   3.992   5.877
 8750SOL    HW227150   3.564   3.852   5.960
 8751SOL     OW27151   6.585   1.932   2.102
 8751SOL    HW127152   6.547   1.842   2.080
 8751SOL    HW227153   6.526   2.003   2.064
 8752SOL     OW27154   3.363   2.953   6.589
 8752SOL    HW127155   3.390   2.875   6.533
 8752SOL    HW227156   3.330   3.027   6.530
 8753SOL     OW27157   3.036   1.882   6.193
 8753SOL    HW127158   3.082   1.796   6.215
 8753SOL    HW227159   3.001   1.924   6.276
 8754SOL     OW27160   1.733   4.518   5.248
 8754SOL    HW127161   1.636   4.509   5.227
 8754SOL    HW227162   1.773   4.427   5.259
 8755SOL     OW27163   2.117   0.689   1.099
 8755SOL    HW127164   2.069   0.613   1.055
 8755SOL    HW227165   2.081   0.776   1.064
 8756SOL     OW27166   2.115   3.242   3.178
 8756SOL    HW127167   2.160   3.211   3.262
 8756SOL    HW227168   2.158   3.326   3.145
 8757SOL     OW27169   4.456   5.526   6.840
 8757SOL    HW127170   4.419   5.433   6.843
 8757SOL    HW227171   4.554   5.523   6.823
 8758SOL     OW27172   4.176   6.337   2.762
 8758SOL    HW127173   4.170   6.275   2.840
 8758SOL    HW227174   4.245   6.303   2.698
 8759SOL     OW27175   5.186   3.104   6.826
 8759SOL    HW127176   5.243   3.028   6.856
 8759SOL    HW227177   5.201   3.183   6.885
 8760SOL     OW27178   2.680   1.013   4.703
 8760SOL    HW127179   2.600   1.015   4.763
 8760SOL    HW227180   2.649   1.003   4.608
 8761SOL     OW27181   6.241   2.212   1.290
 8761SOL    HW127182   6.209   2.118   1.301
 8761SOL    HW227183   6.162   2.274   1.295
 8762SOL     OW27184   0.758   5.068   4.717
 8762SOL    HW127185   0.667   5.076   4.757
 8762SOL    HW227186   0.799   5.158   4.709
 8763SOL     OW27187   5.981   7.009   5.968
 8763SOL    HW127188   5.909   0.007   5.901
 8763SOL    HW227189   5.999   0.069   6.022
 8764SOL     OW27190   4.234   6.963   5.382
 8764SOL    HW127191   4.211   6.962   5.480
 8764SOL    HW227192   4.186   0.016   5.337
 8765SOL     OW27193   4.969   0.324   4.121
 8765SOL    HW127194   4.998   0.266   4.045
 8765SOL    HW227195   4.869   0.331   4.122
 8766SOL     OW27196   4.519   4.527   5.195
 8766SOL    HW127197   4.426   4.558   5.173
 8766SOL    HW227198   4.577   4.540   5.115
 8767SOL     OW27199   5.817   6.560   2.744
 8767SOL    HW127200   5.790   6.641   2.794
 8767SOL    HW227201   5.738   6.524   2.694
 8768SOL     OW27202   1.056   2.678   0.252
 8768SOL    HW127203   1.005   2.712   0.331
 8768SOL    HW227204   1.150   2.714   0.255
 8769SOL     OW27205   6.969   1.114   3.238
 8769SOL    HW127206   6.962   1.176   3.160
 8769SOL    HW227207   0.013   1.150   3.304
 8770SOL     OW27208   4.545   4.467   2.210
 8770SOL    HW127209   4.537   4.396   2.139
 8770SOL    HW227210   4.580   4.426   2.294
 8771SOL     OW27211   1.400   2.121   6.076
 8771SOL    HW127212   1.369   2.139   5.982
 8771SOL    HW227213   1.357   2.037   6.109
 8772SOL     OW27214   4.455   0.439   6.213
 8772SOL    HW127215   4.441   0.341   6.227
 8772SOL    HW227216   4.387   0.490   6.266
 8773SOL     OW27217   5.818   2.756   3.284
 8773SOL    HW127218   5.743   2.720   3.228
 8773SOL    HW227219   5.808   2.723   3.378
 8774SOL     OW27220   1.350   0.623   0.180
 8774SOL    HW127221   1.386   0.634   0.088
 8774SOL    HW227222   1.420   0.582   0.239
 8775SOL     OW27223   5.375   1.235   6.027
 8775SOL    HW127224   5.329   1.321   6.009
 8775SOL    HW227225   5.323   1.182   6.094
 8776SOL     OW27226   4.438   3.563   0.942
 8776SOL    HW127227   4.459   3.466   0.931
 8776SOL    HW227228   4.367   3.575   1.012
 8777SOL     OW27229   6.410   4.339   3.427
 8777SOL    HW127230   6.319   4.298   3.430
 8777SOL    HW227231   6.450   4.325   3.336
 8778SOL     OW27232   5.066   2.952   5.535
 8778SOL    HW127233   5.069   2.915   5.442
 8778SOL    HW227234   5.144   2.916   5.587
 8779SOL     OW27235   2.586   5.645   2.471
 8779SOL    HW127236   2.531   5.713   2.423
 8779SOL    HW227237   2.546   5.626   2.561
 8780SOL     OW27238   6.959   0.071   3.188
 8780SOL    HW127239   0.031   0.074   3.155
 8780SOL    HW227240   6.943   0.147   3.251
 8781SOL     OW27241   5.205   0.713   3.769
 8781SOL    HW127242   5.277   0.644   3.776
 8781SOL    HW227243   5.144   0.705   3.847
 8782SOL     OW27244   6.826   0.887   1.623
 8782SOL    HW127245   6.840   0.966   1.563
 8782SOL    HW227246   6.859   0.805   1.577
 8783SOL     OW27247   6.518   4.361   3.147
 8783SOL    HW127248   6.501   4.302   3.069
 8783SOL    HW227249   6.595   4.422   3.126
 8784SOL     OW27250   0.383   6.579   6.357
 8784SOL    HW127251   0.302   6.549   6.307
 8784SOL    HW227252   0.419   6.662   6.315
 8785SOL     OW27253   6.082   4.918   6.709
 8785SOL    HW127254   6.106   4.991   6.645
 8785SOL    HW227255   6.138   4.838   6.691
 8786SOL     OW27256   2.917   1.025   0.897
 8786SOL    HW127257   2.969   0.965   0.836
 8786SOL    HW227258   2.852   1.079   0.843
 8787SOL     OW27259   2.771   1.359   2.132
 8787SOL    HW127260   2.839   1.336   2.202
 8787SOL    HW227261   2.814   1.417   2.062
 8788SOL     OW27262   0.105   1.118   5.259
 8788SOL    HW127263   0.056   1.190   5.209
 8788SOL    HW227264   0.167   1.070   5.198
 8789SOL     OW27265   6.600   5.246   5.351
 8789SOL    HW127266   6.547   5.181   5.297
 8789SOL    HW227267   6.538   5.315   5.390
 8790SOL     OW27268   5.865   0.941   6.294
 8790SOL    HW127269   5.813   0.907   6.216
 8790SOL    HW227270   5.908   1.028   6.271
 8791SOL     OW27271   5.216   6.709   5.076
 8791SOL    HW127272   5.241   6.766   4.998
 8791SOL    HW227273   5.200   6.616   5.045
 8792SOL     OW27274   3.212   4.891   3.106
 8792SOL    HW127275   3.295   4.902   3.160
 8792SOL    HW227276   3.164   4.808   3.135
 8793SOL     OW27277   0.512   4.792   2.634
 8793SOL    HW127278   0.560   4.765   2.550
 8793SOL    HW227279   0.579   4.818   2.704
 8794SOL     OW27280   5.280   0.578   3.315
 8794SOL    HW127281   5.378   0.560   3.324
 8794SOL    HW227282   5.232   0.492   3.299
 8795SOL     OW27283   1.209   4.783   5.438
 8795SOL    HW127284   1.273   4.849   5.475
 8795SOL    HW227285   1.180   4.720   5.510
 8796SOL     OW27286   4.979   2.371   3.012
 8796SOL    HW127287   4.904   2.304   3.007
 8796SOL    HW227288   5.061   2.326   3.049
 8797SOL     OW27289   0.213   0.099   6.060
 8797SOL    HW127290   0.125   0.126   6.099
 8797SOL    HW227291   0.219   7.022   6.054
 8798SOL     OW27292   4.468   6.201   6.552
 8798SOL    HW127293   4.405   6.248   6.614
 8798SOL    HW227294   4.522   6.268   6.503
 8799SOL     OW27295   2.415   5.031   3.665
 8799SOL    HW127296   2.434   5.129   3.675
 8799SOL    HW227297   2.440   4.984   3.749
 8800SOL     OW27298   5.468   5.097   5.998
 8800SOL    HW127299   5.532   5.057   5.933
 8800SOL    HW227300   5.515   5.167   6.051
 8801SOL     OW27301   6.105   1.614   4.889
 8801SOL    HW127302   6.095   1.516   4.908
 8801SOL    HW227303   6.031   1.644   4.828
 8802SOL     OW27304   1.847   5.981   5.972
 8802SOL    HW127305   1.820   5.947   5.882
 8802SOL    HW227306   1.771   5.968   6.037
 8803SOL     OW27307   0.002   6.943   0.543
 8803SOL    HW127308   6.975   6.959   0.458
 8803SOL    HW227309   0.049   0.004   0.571
 8804SOL     OW27310   2.196   6.006   1.395
 8804SOL    HW127311   2.131   6.069   1.352
 8804SOL    HW227312   2.146   5.928   1.433
 8805SOL     OW27313   3.729   5.884   3.444
 8805SOL    HW127314   3.693   5.957   3.502
 8805SOL    HW227315   3.677   5.800   3.462
 8806SOL     OW27316   2.708   4.567   0.952
 8806SOL    HW127317   2.711   4.582   1.051
 8806SOL    HW227318   2.614   4.575   0.920
 8807SOL     OW27319   4.961   1.371   0.384
 8807SOL    HW127320   4.890   1.399   0.320
 8807SOL    HW227321   4.921   1.359   0.475
 8808SOL     OW27322   6.298   2.461   6.083
 8808SOL    HW127323   6.329   2.454   6.178
 8808SOL    HW227324   6.352   2.400   6.026
 8809SOL     OW27325   3.192   5.197   4.056
 8809SOL    HW127326   3.238   5.113   4.082
 8809SOL    HW227327   3.131   5.226   4.129
 8810SOL     OW27328   6.042   0.203   5.220
 8810SOL    HW127329   5.980   0.272   5.183
 8810SOL    HW227330   6.013   0.178   5.312
 8811SOL     OW27331   3.219   0.776   3.034
 8811SOL    HW127332   3.212   0.680   3.061
 8811SOL    HW227333   3.312   0.794   3.001
 8812SOL     OW27334   2.329   0.452   0.646
 8812SOL    HW127335   2.280   0.366   0.629
 8812SOL    HW227336   2.318   0.478   0.741
 8813SOL     OW27337   2.076   5.932   3.629
 8813SOL    HW127338   2.113   6.013   3.676
 8813SOL    HW227339   2.151   5.873   3.599
 8814SOL     OW27340   5.961   0.034   0.465
 8814SOL    HW127341   6.027   0.107   0.455
 8814SOL    HW227342   5.940   0.020   0.561
 8815SOL     OW27343   5.363   6.913   1.410
 8815SOL    HW127344   5.290   6.975   1.438
 8815SOL    HW227345   5.328   6.848   1.343
 8816SOL     OW27346   1.010   6.550   6.686
 8816SOL    HW127347   1.059   6.600   6.758
 8816SOL    HW227348   0.949   6.482   6.728
 8817SOL     OW27349   0.184   3.792   3.641
 8817SOL    HW127350   0.223   3.706   3.672
 8817SOL    HW227351   0.257   3.861   3.634
 8818SOL     OW27352   1.354   5.801   3.621
 8818SOL    HW127353   1.313   5.831   3.707
 8818SOL    HW227354   1.313   5.714   3.593
 8819SOL     OW27355   5.891   4.881   5.198
 8819SOL    HW127356   5.942   4.964   5.179
 8819SOL    HW227357   5.874   4.874   5.296
 8820SOL     OW27358   2.682   0.835   5.725
 8820SOL    HW127359   2.610   0.765   5.726
 8820SOL    HW227360   2.673   0.892   5.807
 8821SOL     OW27361   1.319   5.666   0.826
 8821SOL    HW127362   1.383   5.741   0.842
 8821SOL    HW227363   1.369   5.581   0.814
 8822SOL     OW27364   0.715   0.895   3.322
 8822SOL    HW127365   0.746   0.990   3.328
 8822SOL    HW227366   0.615   0.893   3.313
 8823SOL     OW27367   2.273   0.958   2.405
 8823SOL    HW127368   2.338   1.034   2.401
 8823SOL    HW227369   2.323   0.871   2.400
 8824SOL     OW27370   1.497   1.284   0.509
 8824SOL    HW127371   1.535   1.276   0.417
 8824SOL    HW227372   1.494   1.194   0.552
 8825SOL     OW27373   1.081   1.234   1.931
 8825SOL    HW127374   1.172   1.197   1.915
 8825SOL    HW227375   1.079   1.331   1.904
 8826SOL     OW27376   0.993   3.767   0.757
 8826SOL    HW127377   1.025   3.701   0.825
 8826SOL    HW227378   1.039   3.855   0.771
 8827SOL     OW27379   3.970   0.213   2.828
 8827SOL    HW127380   3.914   0.253   2.900
 8827SOL    HW227381   4.009   0.127   2.861
 8828SOL     OW27382   4.133   4.899   6.652
 8828SOL    HW127383   4.221   4.925   6.612
 8828SOL    HW227384   4.092   4.826   6.597
 8829SOL     OW27385   5.363   1.723   1.148
 8829SOL    HW127386   5.288   1.676   1.195
 8829SOL    HW227387   5.445   1.720   1.204
 8830SOL     OW27388   2.311   1.942   2.526
 8830SOL    HW127389   2.287   1.850   2.559
 8830SOL    HW227390   2.245   1.972   2.458
 8831SOL     OW27391   5.387   2.533   2.735
 8831SOL    HW127392   5.393   2.451   2.679
 8831SOL    HW227393   5.479   2.571   2.748
 8832SOL     OW27394   6.519   6.407   3.634
 8832SOL    HW127395   6.450   6.457   3.686
 8832SOL    HW227396   6.514   6.432   3.537
 8833SOL     OW27397   3.074   4.733   6.581
 8833SOL    HW127398   2.979   4.735   6.611
 8833SOL    HW227399   3.114   4.643   6.600
 8834SOL     OW27400   5.742   3.647   4.306
 8834SOL    HW127401   5.772   3.572   4.364
 8834SOL    HW227402   5.814   3.669   4.240
 8835SOL     OW27403   5.079   1.091   5.813
 8835SOL    HW127404   5.128   1.003   5.820
 8835SOL    HW227405   5.116   1.144   5.737
 8836SOL     OW27406   5.051   1.585   0.910
 8836SOL    HW127407   5.046   1.602   1.009
 8836SOL    HW227408   4.991   1.649   0.862
 8837SOL     OW27409   0.126   0.081   2.853
 8837SOL    HW127410   0.160   0.170   2.824
 8837SOL    HW227411   0.161   0.060   2.944
 8838SOL     OW27412   1.737   4.426   3.898
 8838SOL    HW127413   1.716   4.515   3.938
 8838SOL    HW227414   1.836   4.409   3.906
 8839SOL     OW27415   4.379   6.116   1.866
 8839SOL    HW127416   4.475   6.142   1.856
 8839SOL    HW227417   4.344   6.148   1.954
 8840SOL     OW27418   6.395   0.799   2.566
 8840SOL    HW127419   6.359   0.717   2.610
 8840SOL    HW227420   6.495   0.794   2.563
 8841SOL     OW27421   6.705   1.464   4.324
 8841SOL    HW127422   6.799   1.479   4.354
 8841SOL    HW227423   6.669   1.547   4.282
 8842SOL     OW27424   3.193   3.735   3.495
 8842SOL    HW127425   3.284   3.751   3.457
 8842SOL    HW227426   3.171   3.807   3.560
 8843SOL     OW27427   2.092   3.209   3.973
 8843SOL    HW127428   2.124   3.302   3.958
 8843SOL    HW227429   2.026   3.209   4.048
 8844SOL     OW27430   6.803   1.729   5.013
 8844SOL    HW127431   6.776   1.825   5.028
 8844SOL    HW227432   6.727   1.669   5.039
 8845SOL     OW27433   2.370   3.651   0.965
 8845SOL    HW127434   2.330   3.592   0.895
 8845SOL    HW227435   2.364   3.746   0.935
 8846SOL     OW27436   3.605   4.904   4.323
 8846SOL    HW127437   3.543   4.895   4.402
 8846SOL    HW227438   3.695   4.870   4.348
 8847SOL     OW27439   2.660   0.837   2.893
 8847SOL    HW127440   2.727   0.906   2.922
 8847SOL    HW227441   2.649   0.842   2.793
 8848SOL     OW27442   3.090   2.161   2.222
 8848SOL    HW127443   3.167   2.213   2.258
 8848SOL    HW227444   3.004   2.204   2.249
 8849SOL     OW27445   3.704   5.485   3.320
 8849SOL    HW127446   3.683   5.525   3.410
 8849SOL    HW227447   3.684   5.387   3.322
 8850SOL     OW27448   2.288   1.020   6.929
 8850SOL    HW127449   2.222   1.035   7.002
 8850SOL    HW227450   2.269   0.932   6.885
 8851SOL     OW27451   0.870   5.023   1.970
 8851SOL    HW127452   0.858   4.926   1.950
 8851SOL    HW227453   0.864   5.038   2.068
 8852SOL     OW27454   4.302   4.134   5.795
 8852SOL    HW127455   4.384   4.168   5.840
 8852SOL    HW227456   4.276   4.197   5.721
 8853SOL     OW27457   3.443   0.623   5.870
 8853SOL    HW127458   3.503   0.548   5.843
 8853SOL    HW227459   3.490   0.681   5.936
 8854SOL     OW27460   3.157   1.609   6.228
 8854SOL    HW127461   3.254   1.628   6.240
 8854SOL    HW227462   3.146   1.523   6.177
 8855SOL     OW27463   6.804   6.046   0.394
 8855SOL    HW127464   6.726   6.065   0.336
 8855SOL    HW227465   6.773   6.003   0.479
 8856SOL     OW27466   6.214   0.937   6.042
 8856SOL    HW127467   6.305   0.902   6.021
 8856SOL    HW227468   6.221   1.013   6.107
 8857SOL     OW27469   6.655   2.152   4.228
 8857SOL    HW127470   6.597   2.197   4.160
 8857SOL    HW227471   6.703   2.221   4.282
 8858SOL     OW27472   1.428   2.598   5.315
 8858SOL    HW127473   1.526   2.616   5.308
 8858SOL    HW227474   1.384   2.675   5.362
 8859SOL     OW27475   6.288   0.947   4.321
 8859SOL    HW127476   6.287   0.869   4.383
 8859SOL    HW227477   6.354   0.931   4.248
 8860SOL     OW27478   1.243   3.464   3.164
 8860SOL    HW127479   1.226   3.554   3.125
 8860SOL    HW227480   1.164   3.404   3.146
 8861SOL     OW27481   3.783   1.820   6.154
 8861SOL    HW127482   3.720   1.753   6.115
 8861SOL    HW227483   3.831   1.780   6.232
 8862SOL     OW27484   6.116   0.397   3.340
 8862SOL    HW127485   6.067   0.405   3.427
 8862SOL    HW227486   6.061   0.344   3.275
 8863SOL     OW27487   1.144   5.481   3.889
 8863SOL    HW127488   1.104   5.431   3.965
 8863SOL    HW227489   1.172   5.572   3.919
 8864SOL     OW27490   2.650   2.994   6.228
 8864SOL    HW127491   2.725   3.021   6.288
 8864SOL    HW227492   2.687   2.960   6.141
 8865SOL     OW27493   2.920   1.813   5.717
 8865SOL    HW127494   2.828   1.850   5.706
 8865SOL    HW227495   2.913   1.718   5.750
 8866SOL     OW27496   5.107   6.644   3.591
 8866SOL    HW127497   5.134   6.579   3.519
 8866SOL    HW227498   5.127   6.604   3.680
 8867SOL     OW27499   5.180   3.619   2.092
 8867SOL    HW127500   5.194   3.580   2.001
 8867SOL    HW227501   5.097   3.674   2.093
 8868SOL     OW27502   6.469   3.248   0.488
 8868SOL    HW127503   6.419   3.163   0.469
 8868SOL    HW227504   6.516   3.278   0.405
 8869SOL     OW27505   3.900   6.130   4.349
 8869SOL    HW127506   3.818   6.105   4.401
 8869SOL    HW227507   3.902   6.229   4.335
 8870SOL     OW27508   4.424   0.189   0.206
 8870SOL    HW127509   4.370   0.207   0.289
 8870SOL    HW227510   4.521   0.190   0.229
 8871SOL     OW27511   1.149   0.475   3.523
 8871SOL    HW127512   1.080   0.407   3.496
 8871SOL    HW227513   1.111   0.567   3.509
 8872SOL     OW27514   1.747   4.942   5.198
 8872SOL    HW127515   1.668   4.890   5.165
 8872SOL    HW227516   1.832   4.896   5.169
 8873SOL     OW27517   0.808   5.477   2.497
 8873SOL    HW127518   0.775   5.527   2.418
 8873SOL    HW227519   0.791   5.380   2.485
 8874SOL     OW27520   2.711   6.266   1.809
 8874SOL    HW127521   2.758   6.178   1.801
 8874SOL    HW227522   2.691   6.301   1.717
 8875SOL     OW27523   6.088   3.838   4.179
 8875SOL    HW127524   6.031   3.915   4.151
 8875SOL    HW227525   6.072   3.818   4.276
 8876SOL     OW27526   1.769   0.051   4.386
 8876SOL    HW127527   1.776   0.018   4.291
 8876SOL    HW227528   1.841   0.117   4.404
 8877SOL     OW27529   2.843   1.327   4.007
 8877SOL    HW127530   2.777   1.254   3.990
 8877SOL    HW227531   2.935   1.294   3.984
 8878SOL     OW27532   0.003   5.380   0.406
 8878SOL    HW127533   6.951   5.315   0.393
 8878SOL    HW227534   0.043   5.369   0.497
 8879SOL     OW27535   5.168   4.450   1.589
 8879SOL    HW127536   5.190   4.503   1.671
 8879SOL    HW227537   5.216   4.362   1.593
 8880SOL     OW27538   5.898   5.243   4.511
 8880SOL    HW127539   5.914   5.336   4.542
 8880SOL    HW227540   5.970   5.216   4.447
 8881SOL     OW27541   6.289   6.767   4.491
 8881SOL    HW127542   6.252   6.811   4.573
 8881SOL    HW227543   6.236   6.685   4.471
 8882SOL     OW27544   5.702   1.285   1.008
 8882SOL    HW127545   5.626   1.276   0.945
 8882SOL    HW227546   5.675   1.340   1.087
 8883SOL     OW27547   1.946   6.983   5.705
 8883SOL    HW127548   1.917   6.962   5.798
 8883SOL    HW227549   1.904   0.046   5.675
 8884SOL     OW27550   5.928   4.026   6.908
 8884SOL    HW127551   5.956   4.119   6.932
 8884SOL    HW227552   5.842   4.005   6.955
 8885SOL     OW27553   0.693   3.407   0.391
 8885SOL    HW127554   0.686   3.319   0.344
 8885SOL    HW227555   0.615   3.417   0.454
 8886SOL     OW27556   3.700   6.209   4.944
 8886SOL    HW127557   3.659   6.128   4.903
 8886SOL    HW227558   3.732   6.188   5.036
 8887SOL     OW27559   3.147   1.750   1.664
 8887SOL    HW127560   3.154   1.801   1.577
 8887SOL    HW227561   3.115   1.657   1.645
 8888SOL     OW27562   1.171   1.557   0.142
 8888SOL    HW127563   1.252   1.547   0.200
 8888SOL    HW227564   1.166   1.481   0.077
 8889SOL     OW27565   5.630   0.456   5.092
 8889SOL    HW127566   5.656   0.367   5.130
 8889SOL    HW227567   5.531   0.458   5.077
 8890SOL     OW27568   6.354   5.628   4.151
 8890SOL    HW127569   6.430   5.566   4.129
 8890SOL    HW227570   6.294   5.635   4.072
 8891SOL     OW27571   5.254   3.359   5.617
 8891SOL    HW127572   5.331   3.305   5.652
 8891SOL    HW227573   5.172   3.302   5.615
 8892SOL     OW27574   4.166   5.624   3.234
 8892SOL    HW127575   4.265   5.608   3.239
 8892SOL    HW227576   4.121   5.540   3.203
 8893SOL     OW27577   0.946   6.701   3.085
 8893SOL    HW127578   0.916   6.666   3.174
 8893SOL    HW227579   0.885   6.666   3.014
 8894SOL     OW27580   4.304   2.489   5.651
 8894SOL    HW127581   4.271   2.551   5.580
 8894SOL    HW227582   4.403   2.480   5.645
 8895SOL     OW27583   6.761   1.619   2.185
 8895SOL    HW127584   6.794   1.570   2.266
 8895SOL    HW227585   6.702   1.559   2.132
 8896SOL     OW27586   1.696   3.344   5.639
 8896SOL    HW127587   1.659   3.267   5.588
 8896SOL    HW227588   1.750   3.402   5.579
 8897SOL     OW27589   1.635   3.045   3.336
 8897SOL    HW127590   1.727   3.065   3.370
 8897SOL    HW227591   1.567   3.077   3.403
 8898SOL     OW27592   5.471   3.816   3.368
 8898SOL    HW127593   5.453   3.727   3.327
 8898SOL    HW227594   5.569   3.824   3.387
 8899SOL     OW27595   1.926   4.896   0.697
 8899SOL    HW127596   2.000   4.831   0.678
 8899SOL    HW227597   1.845   4.847   0.729
 8900SOL     OW27598   5.986   3.075   2.114
 8900SOL    HW127599   5.953   3.157   2.161
 8900SOL    HW227600   5.959   2.994   2.165
 8901SOL     OW27601   1.412   1.279   4.500
 8901SOL    HW127602   1.365   1.251   4.583
 8901SOL    HW227603   1.427   1.378   4.502
 8902SOL     OW27604   2.629   6.675   0.853
 8902SOL    HW127605   2.710   6.622   0.874
 8902SOL    HW227606   2.655   6.768   0.828
 8903SOL     OW27607   0.595   1.162   4.695
 8903SOL    HW127608   0.532   1.240   4.700
 8903SOL    HW227609   0.544   1.080   4.668
 8904SOL     OW27610   6.234   5.980   3.960
 8904SOL    HW127611   6.244   5.932   3.873
 8904SOL    HW227612   6.139   6.009   3.972
 8905SOL     OW27613   1.848   4.676   4.181
 8905SOL    HW127614   1.862   4.766   4.223
 8905SOL    HW227615   1.927   4.654   4.123
 8906SOL     OW27616   6.777   6.465   6.773
 8906SOL    HW127617   6.706   6.395   6.768
 8906SOL    HW227618   6.786   6.498   6.867
 8907SOL     OW27619   3.015   2.218   4.469
 8907SOL    HW127620   2.921   2.240   4.441
 8907SOL    HW227621   3.078   2.249   4.398
 8908SOL     OW27622   1.139   3.737   6.818
 8908SOL    HW127623   1.151   3.639   6.837
 8908SOL    HW227624   1.042   3.761   6.826
 8909SOL     OW27625   2.192   0.656   5.341
 8909SOL    HW127626   2.243   0.604   5.273
 8909SOL    HW227627   2.256   0.701   5.403
 8910SOL     OW27628   0.509   2.903   5.764
 8910SOL    HW127629   0.522   2.995   5.800
 8910SOL    HW227630   0.424   2.864   5.800
 8911SOL     OW27631   4.435   2.392   4.845
 8911SOL    HW127632   4.500   2.454   4.889
 8911SOL    HW227633   4.347   2.397   4.893
 8912SOL     OW27634   3.803   2.842   0.777
 8912SOL    HW127635   3.732   2.780   0.745
 8912SOL    HW227636   3.799   2.850   0.876
 8913SOL     OW27637   4.743   4.969   6.529
 8913SOL    HW127638   4.788   4.939   6.444
 8913SOL    HW227639   4.812   4.977   6.602
 8914SOL     OW27640   3.625   0.495   4.062
 8914SOL    HW127641   3.690   0.557   4.108
 8914SOL    HW227642   3.676   0.429   4.007
 8915SOL     OW27643   0.807   2.799   3.957
 8915SOL    HW127644   0.774   2.721   4.010
 8915SOL    HW227645   0.812   2.773   3.860
 8916SOL     OW27646   0.078   3.576   0.433
 8916SOL    HW127647   0.080   3.620   0.343
 8916SOL    HW227648   0.024   3.633   0.496
 8917SOL     OW27649   6.593   4.214   6.614
 8917SOL    HW127650   6.522   4.214   6.685
 8917SOL    HW227651   6.681   4.189   6.654
 8918SOL     OW27652   6.936   3.734   1.265
 8918SOL    HW127653   6.874   3.710   1.339
 8918SOL    HW227654   6.971   3.650   1.223
 8919SOL     OW27655   4.001   4.103   0.589
 8919SOL    HW127656   4.027   4.189   0.633
 8919SOL    HW227657   4.071   4.078   0.522
 8920SOL     OW27658   1.125   7.015   0.036
 8920SOL    HW127659   1.037   0.029   0.068
 8920SOL    HW227660   1.111   6.927   7.015
 8921SOL     OW27661   2.609   2.194   2.604
 8921SOL    HW127662   2.616   2.141   2.688
 8921SOL    HW227663   2.700   2.207   2.565
 8922SOL     OW27664   3.541   5.015   1.277
 8922SOL    HW127665   3.470   5.023   1.207
 8922SOL    HW227666   3.503   5.038   1.366
 8923SOL     OW27667   1.259   3.139   6.145
 8923SOL    HW127668   1.330   3.200   6.180
 8923SOL    HW227669   1.296   3.047   6.134
 8924SOL     OW27670   3.116   6.123   5.807
 8924SOL    HW127671   3.203   6.080   5.783
 8924SOL    HW227672   3.126   6.223   5.805
 8925SOL     OW27673   0.698   1.066   2.745
 8925SOL    HW127674   0.718   0.982   2.796
 8925SOL    HW227675   0.753   1.068   2.661
 8926SOL     OW27676   6.169   3.984   6.062
 8926SOL    HW127677   6.250   3.932   6.086
 8926SOL    HW227678   6.106   3.926   6.010
 8927SOL     OW27679   0.927   1.607   4.286
 8927SOL    HW127680   0.916   1.577   4.380
 8927SOL    HW227681   0.847   1.662   4.259
 8928SOL     OW27682   6.945   0.696   6.001
 8928SOL    HW127683   7.005   0.639   5.945
 8928SOL    HW227684   6.850   0.682   5.974
 8929SOL     OW27685   6.725   3.560   4.300
 8929SOL    HW127686   6.672   3.607   4.371
 8929SOL    HW227687   6.822   3.561   4.326
 8930SOL     OW27688   1.648   3.904   4.571
 8930SOL    HW127689   1.592   3.891   4.653
 8930SOL    HW227690   1.637   3.825   4.511
 8931SOL     OW27691   3.084   3.217   1.345
 8931SOL    HW127692   3.122   3.265   1.266
 8931SOL    HW227693   3.153   3.212   1.418
 8932SOL     OW27694   5.435   0.234   0.732
 8932SOL    HW127695   5.464   0.190   0.818
 8932SOL    HW227696   5.515   0.270   0.684
 8933SOL     OW27697   1.799   2.856   6.037
 8933SOL    HW127698   1.806   2.804   5.952
 8933SOL    HW227699   1.810   2.795   6.115
 8934SOL     OW27700   2.950   5.247   4.566
 8934SOL    HW127701   2.867   5.250   4.621
 8934SOL    HW227702   2.964   5.336   4.522
 8935SOL     OW27703   6.175   3.792   1.385
 8935SOL    HW127704   6.078   3.770   1.398
 8935SOL    HW227705   6.231   3.724   1.433
 8936SOL     OW27706   1.327   3.383   1.271
 8936SOL    HW127707   1.394   3.350   1.205
 8936SOL    HW227708   1.363   3.371   1.364
 8937SOL     OW27709   0.150   6.770   4.640
 8937SOL    HW127710   0.216   6.770   4.565
 8937SOL    HW227711   0.065   6.728   4.611
 8938SOL     OW27712   6.904   0.875   6.984
 8938SOL    HW127713   6.971   0.844   0.029
 8938SOL    HW227714   6.827   0.917   0.008
 8939SOL     OW27715   5.639   3.873   4.409
 8939SOL    HW127716   5.545   3.904   4.396
 8939SOL    HW227717   5.655   3.791   4.354
 8940SOL     OW27718   5.668   1.160   1.579
 8940SOL    HW127719   5.768   1.162   1.593
 8940SOL    HW227720   5.624   1.127   1.663
 8941SOL     OW27721   6.295   2.866   3.316
 8941SOL    HW127722   6.210   2.917   3.303
 8941SOL    HW227723   6.274   2.773   3.346
 8942SOL     OW27724   0.839   5.464   5.688
 8942SOL    HW127725   0.784   5.430   5.612
 8942SOL    HW227726   0.870   5.557   5.668
 8943SOL     OW27727   3.342   5.695   0.425
 8943SOL    HW127728   3.431   5.720   0.387
 8943SOL    HW227729   3.273   5.700   0.353
 8944SOL     OW27730   5.280   6.019   4.441
 8944SOL    HW127731   5.308   6.103   4.393
 8944SOL    HW227732   5.361   5.971   4.473
 8945SOL     OW27733   0.001   2.158   4.295
 8945SOL    HW127734   0.090   2.117   4.273
 8945SOL    HW227735   6.975   2.098   4.359
 8946SOL     OW27736   4.008   0.513   4.144
 8946SOL    HW127737   3.928   0.559   4.182
 8946SOL    HW227738   4.074   0.494   4.217
 8947SOL     OW27739   2.094   3.199   5.983
 8947SOL    HW127740   2.018   3.208   5.919
 8947SOL    HW227741   2.059   3.193   6.076
 8948SOL     OW27742   6.274   5.797   3.765
 8948SOL    HW127743   6.368   5.775   3.740
 8948SOL    HW227744   6.215   5.719   3.744
 8949SOL     OW27745   3.823   5.805   0.424
 8949SOL    HW127746   3.911   5.833   0.386
 8949SOL    HW227747   3.806   5.858   0.508
 8950SOL     OW27748   3.791   3.171   1.110
 8950SOL    HW127749   3.871   3.115   1.132
 8950SOL    HW227750   3.778   3.173   1.011
 8951SOL     OW27751   1.987   0.897   5.280
 8951SOL    HW127752   1.957   0.967   5.345
 8951SOL    HW227753   2.060   0.842   5.320
 8952SOL     OW27754   0.849   5.098   3.783
 8952SOL    HW127755   0.764   5.081   3.734
 8952SOL    HW227756   0.904   5.014   3.785
 8953SOL     OW27757   0.319   4.506   0.852
 8953SOL    HW127758   0.313   4.595   0.808
 8953SOL    HW227759   0.403   4.499   0.905
 8954SOL     OW27760   0.012   0.303   4.363
 8954SOL    HW127761   7.007   0.336   4.272
 8954SOL    HW227762   0.032   0.381   4.422
 8955SOL     OW27763   6.860   4.786   3.251
 8955SOL    HW127764   6.951   4.814   3.219
 8955SOL    HW227765   6.838   4.836   3.334
 8956SOL     OW27766   1.798   1.292   5.789
 8956SOL    HW127767   1.856   1.221   5.749
 8956SOL    HW227768   1.732   1.251   5.851
 8957SOL     OW27769   1.959   4.922   1.624
 8957SOL    HW127770   1.925   4.833   1.596
 8957SOL    HW227771   1.921   4.993   1.565
 8958SOL     OW27772   1.041   2.233   5.340
 8958SOL    HW127773   1.043   2.296   5.417
 8958SOL    HW227774   1.083   2.146   5.367
 8959SOL     OW27775   2.009   4.180   3.014
 8959SOL    HW127776   1.984   4.166   3.110
 8959SOL    HW227777   2.083   4.116   2.990
 8960SOL     OW27778   5.341   5.375   4.096
 8960SOL    HW127779   5.316   5.305   4.162
 8960SOL    HW227780   5.258   5.409   4.051
 8961SOL     OW27781   3.805   1.280   3.748
 8961SOL    HW127782   3.860   1.203   3.780
 8961SOL    HW227783   3.865   1.348   3.704
 8962SOL     OW27784   6.051   5.335   1.998
 8962SOL    HW127785   6.048   5.253   2.055
 8962SOL    HW227786   5.966   5.387   2.009
 8963SOL     OW27787   3.659   6.976   4.935
 8963SOL    HW127788   3.603   6.969   4.852
 8963SOL    HW227789   3.693   0.047   4.945
 8964SOL     OW27790   6.062   2.878   2.878
 8964SOL    HW127791   6.021   2.828   2.801
 8964SOL    HW227792   6.059   2.822   2.960
 8965SOL     OW27793   2.542   5.445   0.172
 8965SOL    HW127794   2.564   5.352   0.201
 8965SOL    HW227795   2.444   5.461   0.183
 8966SOL     OW27796   6.597   4.230   0.493
 8966SOL    HW127797   6.679   4.230   0.551
 8966SOL    HW227798   6.521   4.188   0.543
 8967SOL     OW27799   3.810   0.574   1.997
 8967SOL    HW127800   3.795   0.508   2.071
 8967SOL    HW227801   3.836   0.524   1.914
 8968SOL     OW27802   4.069   5.660   2.352
 8968SOL    HW127803   4.013   5.714   2.289
 8968SOL    HW227804   4.011   5.622   2.424
 8969SOL     OW27805   0.214   0.114   3.943
 8969SOL    HW127806   0.188   0.087   3.850
 8969SOL    HW227807   0.260   0.203   3.940
 8970SOL     OW27808   2.369   2.437   6.434
 8970SOL    HW127809   2.271   2.430   6.420
 8970SOL    HW227810   2.388   2.509   6.501
 8971SOL     OW27811   5.581   5.454   0.947
 8971SOL    HW127812   5.584   5.534   0.888
 8971SOL    HW227813   5.592   5.482   1.043
 8972SOL     OW27814   4.618   4.122   0.846
 8972SOL    HW127815   4.672   4.106   0.929
 8972SOL    HW227816   4.533   4.070   0.851
 8973SOL     OW27817   6.814   3.225   3.216
 8973SOL    HW127818   6.765   3.201   3.300
 8973SOL    HW227819   6.785   3.164   3.142
 8974SOL     OW27820   1.611   3.165   4.014
 8974SOL    HW127821   1.529   3.221   4.006
 8974SOL    HW227822   1.610   3.117   4.102
 8975SOL     OW27823   0.674   6.243   6.676
 8975SOL    HW127824   0.718   6.264   6.589
 8975SOL    HW227825   0.616   6.162   6.666
 8976SOL     OW27826   6.873   5.440   6.995
 8976SOL    HW127827   6.933   5.453   6.916
 8976SOL    HW227828   6.907   5.496   0.049
 8977SOL     OW27829   6.383   3.719   6.611
 8977SOL    HW127830   6.393   3.717   6.512
 8977SOL    HW227831   6.474   3.717   6.654
 8978SOL     OW27832   5.575   0.038   4.511
 8978SOL    HW127833   5.561   6.961   4.512
 8978SOL    HW227834   5.642   0.063   4.581
 8979SOL     OW27835   1.526   4.592   6.541
 8979SOL    HW127836   1.585   4.601   6.461
 8979SOL    HW227837   1.557   4.516   6.598
 8980SOL     OW27838   4.803   2.937   5.606
 8980SOL    HW127839   4.900   2.927   5.584
 8980SOL    HW227840   4.772   2.860   5.661
 8981SOL     OW27841   4.751   1.752   5.881
 8981SOL    HW127842   4.804   1.766   5.965
 8981SOL    HW227843   4.744   1.654   5.862
 8982SOL     OW27844   0.502   1.714   1.021
 8982SOL    HW127845   0.405   1.717   1.043
 8982SOL    HW227846   0.555   1.752   1.097
 8983SOL     OW27847   0.483   5.304   0.890
 8983SOL    HW127848   0.387   5.295   0.863
 8983SOL    HW227849   0.490   5.367   0.967
 8984SOL     OW27850   6.319   6.209   4.072
 8984SOL    HW127851   6.405   6.181   4.114
 8984SOL    HW227852   6.279   6.131   4.024
 8985SOL     OW27853   2.489   1.514   0.817
 8985SOL    HW127854   2.511   1.509   0.719
 8985SOL    HW227855   2.573   1.525   0.869
 8986SOL     OW27856   3.995   5.009   2.646
 8986SOL    HW127857   4.067   5.063   2.688
 8986SOL    HW227858   3.920   4.996   2.712
 8987SOL     OW27859   3.002   0.336   1.328
 8987SOL    HW127860   3.057   0.303   1.404
 8987SOL    HW227861   3.054   0.402   1.274
 8988SOL     OW27862   2.156   4.674   0.634
 8988SOL    HW127863   2.062   4.641   0.625
 8988SOL    HW227864   2.188   4.708   0.545
 8989SOL     OW27865   4.938   3.925   2.200
 8989SOL    HW127866   4.920   3.928   2.101
 8989SOL    HW227867   5.029   3.962   2.218
 8990SOL     OW27868   2.165   5.185   1.911
 8990SOL    HW127869   2.255   5.177   1.867
 8990SOL    HW227870   2.168   5.258   1.979
 8991SOL     OW27871   2.115   1.063   0.577
 8991SOL    HW127872   2.109   1.154   0.617
 8991SOL    HW227873   2.085   0.995   0.643
 8992SOL     OW27874   6.829   2.341   6.711
 8992SOL    HW127875   6.924   2.330   6.681
 8992SOL    HW227876   6.827   2.397   6.794
 8993SOL     OW27877   4.609   2.484   2.483
 8993SOL    HW127878   4.590   2.412   2.415
 8993SOL    HW227879   4.675   2.549   2.446
 8994SOL     OW27880   0.954   6.100   4.375
 8994SOL    HW127881   0.901   6.170   4.423
 8994SOL    HW227882   0.899   6.062   4.300
 8995SOL     OW27883   1.275   2.572   5.697
 8995SOL    HW127884   1.232   2.651   5.653
 8995SOL    HW227885   1.328   2.604   5.776
 8996SOL     OW27886   0.053   4.421   1.961
 8996SOL    HW127887   0.103   4.416   2.048
 8996SOL    HW227888   7.012   4.344   1.955
 8997SOL     OW27889   4.310   1.369   6.362
 8997SOL    HW127890   4.297   1.297   6.295
 8997SOL    HW227891   4.330   1.455   6.315
 8998SOL     OW27892   0.705   2.516   4.283
 8998SOL    HW127893   0.709   2.543   4.380
 8998SOL    HW227894   0.651   2.583   4.232
 8999SOL     OW27895   4.103   0.265   6.726
 8999SOL    HW127896   4.058   0.212   6.654
 8999SOL    HW227897   4.180   0.315   6.687
 9000SOL     OW27898   2.269   4.273   6.459
 9000SOL    HW127899   2.282   4.306   6.366
 9000SOL    HW227900   2.254   4.350   6.521
 9001SOL     OW27901   1.458   5.495   3.000
 9001SOL    HW127902   1.480   5.486   3.097
 9001SOL    HW227903   1.464   5.406   2.956
 9002SOL     OW27904   0.742   4.966   5.113
 9002SOL    HW127905   0.838   4.945   5.095
 9002SOL    HW227906   0.686   4.929   5.039
 9003SOL     OW27907   5.168   2.575   0.832
 9003SOL    HW127908   5.227   2.504   0.871
 9003SOL    HW227909   5.140   2.638   0.904
 9004SOL     OW27910   4.293   6.600   1.877
 9004SOL    HW127911   4.299   6.586   1.778
 9004SOL    HW227912   4.367   6.660   1.907
 9005SOL     OW27913   5.950   2.306   4.321
 9005SOL    HW127914   5.928   2.224   4.375
 9005SOL    HW227915   5.875   2.325   4.258
 9006SOL     OW27916   1.686   5.711   0.764
 9006SOL    HW127917   1.715   5.740   0.673
 9006SOL    HW227918   1.712   5.782   0.831
 9007SOL     OW27919   3.529   6.350   4.160
 9007SOL    HW127920   3.431   6.333   4.174
 9007SOL    HW227921   3.572   6.267   4.125
 9008SOL     OW27922   6.385   5.151   2.615
 9008SOL    HW127923   6.335   5.168   2.700
 9008SOL    HW227924   6.473   5.108   2.635
 9009SOL     OW27925   2.303   0.006   0.769
 9009SOL    HW127926   2.310   6.991   0.861
 9009SOL    HW227927   2.359   6.974   0.707
 9010SOL     OW27928   0.989   6.917   4.741
 9010SOL    HW127929   0.981   7.007   4.699
 9010SOL    HW227930   0.938   6.915   4.827
 9011SOL     OW27931   4.227   1.714   1.905
 9011SOL    HW127932   4.174   1.648   1.958
 9011SOL    HW227933   4.168   1.756   1.836
 9012SOL     OW27934   2.387   4.334   1.148
 9012SOL    HW127935   2.343   4.252   1.184
 9012SOL    HW227936   2.449   4.309   1.073
 9013SOL     OW27937   6.279   6.261   4.394
 9013SOL    HW127938   6.289   6.283   4.491
 9013SOL    HW227939   6.278   6.162   4.382
 9014SOL     OW27940   1.528   1.128   0.145
 9014SOL    HW127941   1.530   1.078   0.232
 9014SOL    HW227942   1.618   1.167   0.127
 9015SOL     OW27943   6.412   0.867   0.640
 9015SOL    HW127944   6.415   0.767   0.637
 9015SOL    HW227945   6.489   0.900   0.696
 9016SOL     OW27946   0.329   6.136   6.477
 9016SOL    HW127947   0.230   6.135   6.488
 9016SOL    HW227948   0.362   6.231   6.477
 9017SOL     OW27949   4.968   2.559   2.170
 9017SOL    HW127950   4.902   2.611   2.116
 9017SOL    HW227951   5.018   2.621   2.231
 9018SOL     OW27952   4.140   1.446   5.198
 9018SOL    HW127953   4.041   1.443   5.214
 9018SOL    HW227954   4.169   1.540   5.184
 9019SOL     OW27955   0.805   0.450   1.156
 9019SOL    HW127956   0.752   0.414   1.232
 9019SOL    HW227957   0.825   0.377   1.091
 9020SOL     OW27958   1.430   3.702   1.794
 9020SOL    HW127959   1.432   3.712   1.695
 9020SOL    HW227960   1.442   3.606   1.818
 9021SOL     OW27961   6.256   0.570   3.720
 9021SOL    HW127962   6.340   0.580   3.774
 9021SOL    HW227963   6.274   0.510   3.642
 9022SOL     OW27964   2.867   0.941   1.164
 9022SOL    HW127965   2.883   1.028   1.116
 9022SOL    HW227966   2.842   0.870   1.097
 9023SOL     OW27967   3.472   2.900   2.984
 9023SOL    HW127968   3.375   2.912   3.008
 9023SOL    HW227969   3.479   2.859   2.894
 9024SOL     OW27970   1.075   5.586   6.184
 9024SOL    HW127971   1.064   5.534   6.268
 9024SOL    HW227972   1.127   5.533   6.118
 9025SOL     OW27973   6.990   5.574   0.757
 9025SOL    HW127974   6.924   5.524   0.813
 9025SOL    HW227975   6.951   5.663   0.732
 9026SOL     OW27976   3.613   3.578   2.523
 9026SOL    HW127977   3.601   3.541   2.430
 9026SOL    HW227978   3.710   3.595   2.540
 9027SOL     OW27979   2.225   1.931   3.264
 9027SOL    HW127980   2.130   1.918   3.235
 9027SOL    HW227981   2.247   1.866   3.337
 9028SOL     OW27982   2.663   3.881   6.182
 9028SOL    HW127983   2.711   3.963   6.214
 9028SOL    HW227984   2.568   3.905   6.158
 9029SOL     OW27985   3.192   5.426   5.307
 9029SOL    HW127986   3.111   5.470   5.346
 9029SOL    HW227987   3.209   5.462   5.216
 9030SOL     OW27988   1.717   0.757   3.030
 9030SOL    HW127989   1.747   0.763   2.935
 9030SOL    HW227990   1.719   0.847   3.072
 9031SOL     OW27991   5.155   5.402   5.494
 9031SOL    HW127992   5.130   5.306   5.483
 9031SOL    HW227993   5.165   5.444   5.404
 9032SOL     OW27994   3.721   3.201   0.853
 9032SOL    HW127995   3.806   3.253   0.856
 9032SOL    HW227996   3.666   3.229   0.774
 9033SOL     OW27997   2.265   4.135   3.376
 9033SOL    HW127998   2.285   4.141   3.474
 9033SOL    HW227999   2.312   4.210   3.329
 9034SOL     OW28000   3.175   0.482   4.622
 9034SOL    HW128001   3.253   0.421   4.610
 9034SOL    HW228002   3.208   0.572   4.651
 9035SOL     OW28003   1.328   6.626   5.818
 9035SOL    HW128004   1.333   6.553   5.750
 9035SOL    HW228005   1.375   6.597   5.902
 9036SOL     OW28006   1.322   0.820   4.835
 9036SOL    HW128007   1.263   0.800   4.757
 9036SOL    HW228008   1.278   0.891   4.892
 9037SOL     OW28009   1.264   4.289   6.078
 9037SOL    HW128010   1.305   4.281   6.169
 9037SOL    HW228011   1.300   4.216   6.019
 9038SOL     OW28012   4.418   0.792   5.264
 9038SOL    HW128013   4.464   0.842   5.338
 9038SOL    HW228014   4.423   0.694   5.283
 9039SOL     OW28015   1.689   4.466   4.884
 9039SOL    HW128016   1.705   4.564   4.895
 9039SOL    HW228017   1.743   4.416   4.952
 9040SOL     OW28018   2.814   1.816   3.341
 9040SOL    HW128019   2.768   1.904   3.356
 9040SOL    HW228020   2.776   1.773   3.259
 9041SOL     OW28021   0.724   2.502   1.923
 9041SOL    HW128022   0.760   2.431   1.983
 9041SOL    HW228023   0.649   2.465   1.869
 9042SOL     OW28024   3.260   6.727   3.804
 9042SOL    HW128025   3.187   6.715   3.737
 9042SOL    HW228026   3.219   6.742   3.895
 9043SOL     OW28027   2.017   0.993   6.053
 9043SOL    HW128028   2.005   1.046   5.969
 9043SOL    HW228029   2.114   0.971   6.064
 9044SOL     OW28030   6.534   1.192   1.365
 9044SOL    HW128031   6.564   1.212   1.271
 9044SOL    HW228032   6.518   1.094   1.375
 9045SOL     OW28033   3.435   1.892   2.739
 9045SOL    HW128034   3.343   1.856   2.727
 9045SOL    HW228035   3.486   1.834   2.802
 9046SOL     OW28036   3.434   3.366   4.242
 9046SOL    HW128037   3.425   3.286   4.301
 9046SOL    HW228038   3.530   3.387   4.230
 9047SOL     OW28039   1.677   3.541   5.057
 9047SOL    HW128040   1.673   3.486   5.140
 9047SOL    HW228041   1.692   3.481   4.978
 9048SOL     OW28042   5.866   2.610   6.388
 9048SOL    HW128043   5.885   2.678   6.318
 9048SOL    HW228044   5.783   2.560   6.364
 9049SOL     OW28045   4.147   6.821   6.521
 9049SOL    HW128046   4.061   6.796   6.476
 9049SOL    HW228047   4.133   6.903   6.576
 9050SOL     OW28048   0.462   4.850   5.968
 9050SOL    HW128049   0.473   4.847   5.868
 9050SOL    HW228050   0.549   4.874   6.010
 9051SOL     OW28051   4.589   5.923   0.928
 9051SOL    HW128052   4.502   5.965   0.901
 9051SOL    HW228053   4.665   5.974   0.888
 9052SOL     OW28054   1.886   3.074   3.492
 9052SOL    HW128055   1.868   3.070   3.591
 9052SOL    HW228056   1.945   2.998   3.466
 9053SOL     OW28057   2.314   1.450   3.089
 9053SOL    HW128058   2.384   1.493   3.146
 9053SOL    HW228059   2.236   1.425   3.147
 9054SOL     OW28060   1.345   6.838   2.599
 9054SOL    HW128061   1.302   6.895   2.669
 9054SOL    HW228062   1.358   6.745   2.634
 9055SOL     OW28063   6.821   3.920   3.235
 9055SOL    HW128064   6.830   3.825   3.266
 9055SOL    HW228065   6.899   3.973   3.266
 9056SOL     OW28066   6.151   6.955   1.778
 9056SOL    HW128067   6.127   0.027   1.799
 9056SOL    HW228068   6.069   6.905   1.748
 9057SOL     OW28069   5.805   5.325   6.315
 9057SOL    HW128070   5.839   5.395   6.253
 9057SOL    HW228071   5.789   5.240   6.265
 9058SOL     OW28072   1.931   2.115   3.341
 9058SOL    HW128073   1.974   2.196   3.301
 9058SOL    HW228074   1.951   2.035   3.285
 9059SOL     OW28075   0.493   1.348   4.374
 9059SOL    HW128076   0.536   1.260   4.359
 9059SOL    HW228077   0.532   1.392   4.454
 9060SOL     OW28078   0.458   3.001   1.690
 9060SOL    HW128079   0.524   2.969   1.758
 9060SOL    HW228080   0.491   3.088   1.652
 9061SOL     OW28081   3.651   5.561   2.317
 9061SOL    HW128082   3.744   5.587   2.346
 9061SOL    HW228083   3.602   5.521   2.395
 9062SOL     OW28084   1.988   5.170   2.334
 9062SOL    HW128085   1.988   5.233   2.412
 9062SOL    HW228086   1.900   5.124   2.328
 9063SOL     OW28087   2.500   0.060   2.591
 9063SOL    HW128088   2.518   0.077   2.494
 9063SOL    HW228089   2.512   6.986   2.611
 9064SOL     OW28090   5.786   3.508   4.543
 9064SOL    HW128091   5.706   3.459   4.577
 9064SOL    HW228092   5.796   3.595   4.593
 9065SOL     OW28093   3.298   5.623   6.745
 9065SOL    HW128094   3.274   5.672   6.661
 9065SOL    HW228095   3.274   5.527   6.735
 9066SOL     OW28096   5.799   0.637   0.130
 9066SOL    HW128097   5.812   0.693   0.212
 9066SOL    HW228098   5.761   0.549   0.156
 9067SOL     OW28099   5.992   0.198   4.826
 9067SOL    HW128100   5.965   0.285   4.868
 9067SOL    HW228101   6.072   0.162   4.874
 9068SOL     OW28102   3.107   0.702   5.177
 9068SOL    HW128103   3.178   0.704   5.107
 9068SOL    HW228104   3.150   0.703   5.268
 9069SOL     OW28105   3.091   2.346   1.698
 9069SOL    HW128106   3.113   2.255   1.731
 9069SOL    HW228107   3.039   2.396   1.768
 9070SOL     OW28108   0.927   3.596   5.572
 9070SOL    HW128109   0.940   3.690   5.604
 9070SOL    HW228110   0.903   3.597   5.475
 9071SOL     OW28111   5.052   6.905   0.462
 9071SOL    HW128112   5.003   6.926   0.547
 9071SOL    HW228113   5.150   6.918   0.475
 9072SOL     OW28114   6.200   0.971   1.519
 9072SOL    HW128115   6.180   0.950   1.424
 9072SOL    HW228116   6.211   0.886   1.571
 9073SOL     OW28117   3.598   6.293   0.803
 9073SOL    HW128118   3.589   6.290   0.903
 9073SOL    HW228119   3.686   6.334   0.779
 9074SOL     OW28120   1.830   0.699   1.949
 9074SOL    HW128121   1.918   0.711   1.994
 9074SOL    HW228122   1.845   0.669   1.855
 9075SOL     OW28123   0.395   0.549   1.223
 9075SOL    HW128124   0.477   0.525   1.276
 9075SOL    HW228125   0.401   0.644   1.194
 9076SOL     OW28126   5.379   1.357   5.088
 9076SOL    HW128127   5.353   1.284   5.151
 9076SOL    HW228128   5.479   1.361   5.082
 9077SOL     OW28129   5.819   0.956   6.826
 9077SOL    HW128130   5.813   0.941   6.727
 9077SOL    HW228131   5.776   0.879   6.874
 9078SOL     OW28132   4.918   3.795   0.229
 9078SOL    HW128133   4.844   3.750   0.179
 9078SOL    HW228134   4.974   3.848   0.165
 9079SOL     OW28135   2.247   6.139   4.536
 9079SOL    HW128136   2.330   6.194   4.533
 9079SOL    HW228137   2.187   6.174   4.608
 9080SOL     OW28138   5.799   2.286   0.297
 9080SOL    HW128139   5.792   2.362   0.362
 9080SOL    HW228140   5.889   2.243   0.304
 9081SOL     OW28141   3.647   6.969   2.351
 9081SOL    HW128142   3.589   0.027   2.362
 9081SOL    HW228143   3.725   6.976   2.413
 9082SOL     OW28144   2.559   6.865   5.349
 9082SOL    HW128145   2.465   6.865   5.381
 9082SOL    HW228146   2.601   6.954   5.368
 9083SOL     OW28147   3.857   4.498   5.963
 9083SOL    HW128148   3.796   4.447   6.023
 9083SOL    HW228149   3.813   4.511   5.874
 9084SOL     OW28150   2.772   3.323   6.115
 9084SOL    HW128151   2.733   3.401   6.067
 9084SOL    HW228152   2.779   3.245   6.053
 9085SOL     OW28153   1.413   4.864   0.631
 9085SOL    HW128154   1.353   4.943   0.645
 9085SOL    HW228155   1.457   4.839   0.718
 9086SOL     OW28156   0.005   4.327   0.718
 9086SOL    HW128157   6.971   4.345   0.798
 9086SOL    HW228158   0.097   4.302   0.747
 9087SOL     OW28159   4.647   2.485   1.730
 9087SOL    HW128160   4.648   2.585   1.725
 9087SOL    HW228161   4.741   2.451   1.734
 9088SOL     OW28162   6.377   6.145   0.961
 9088SOL    HW128163   6.473   6.151   0.934
 9088SOL    HW228164   6.350   6.049   0.969
 9089SOL     OW28165   5.128   5.998   4.909
 9089SOL    HW128166   5.125   6.033   5.002
 9089SOL    HW228167   5.115   5.899   4.910
 9090SOL     OW28168   6.727   6.322   3.806
 9090SOL    HW128169   6.741   6.223   3.806
 9090SOL    HW228170   6.645   6.344   3.752
 9091SOL     OW28171   2.602   3.921   0.951
 9091SOL    HW128172   2.657   3.967   1.020
 9091SOL    HW228173   2.655   3.845   0.911
 9092SOL     OW28174   7.001   1.115   0.636
 9092SOL    HW128175   6.969   1.155   0.722
 9092SOL    HW228176   0.071   1.080   0.648
 9093SOL     OW28177   1.595   6.257   6.314
 9093SOL    HW128178   1.608   6.342   6.262
 9093SOL    HW228179   1.637   6.266   6.404
 9094SOL     OW28180   5.974   5.112   2.562
 9094SOL    HW128181   5.970   5.162   2.648
 9094SOL    HW228182   5.883   5.111   2.520
 9095SOL     OW28183   4.491   3.891   6.629
 9095SOL    HW128184   4.525   3.985   6.628
 9095SOL    HW228185   4.523   3.843   6.547
 9096SOL     OW28186   5.751   4.022   1.638
 9096SOL    HW128187   5.733   4.065   1.549
 9096SOL    HW228188   5.774   3.925   1.624
 9097SOL     OW28189   1.124   2.444   6.730
 9097SOL    HW128190   1.168   2.407   6.649
 9097SOL    HW228191   1.074   2.372   6.777
 9098SOL     OW28192   3.500   2.790   6.908
 9098SOL    HW128193   3.527   2.820   6.816
 9098SOL    HW228194   3.461   2.867   6.958
 9099SOL     OW28195   2.919   3.176   0.110
 9099SOL    HW128196   2.990   3.105   0.113
 9099SOL    HW228197   2.921   3.220   0.020
 9100SOL     OW28198   1.081   3.901   4.319
 9100SOL    HW128199   1.097   3.999   4.328
 9100SOL    HW228200   1.169   3.853   4.310
 9101SOL     OW28201   2.555   2.342   3.011
 9101SOL    HW128202   2.516   2.258   2.972
 9101SOL    HW228203   2.578   2.405   2.937
 9102SOL     OW28204   2.893   0.357   2.133
 9102SOL    HW128205   2.876   0.367   2.231
 9102SOL    HW228206   2.805   0.362   2.084
 9103SOL     OW28207   6.291   3.366   6.480
 9103SOL    HW128208   6.242   3.381   6.565
 9103SOL    HW228209   6.312   3.269   6.470
 9104SOL     OW28210   6.114   6.617   2.374
 9104SOL    HW128211   6.142   6.703   2.331
 9104SOL    HW228212   6.109   6.630   2.473
 9105SOL     OW28213   1.768   1.660   6.732
 9105SOL    HW128214   1.723   1.710   6.806
 9105SOL    HW228215   1.866   1.650   6.753
 9106SOL     OW28216   6.967   3.921   6.934
 9106SOL    HW128217   6.997   3.955   6.845
 9106SOL    HW228218   6.882   3.966   6.960
 9107SOL     OW28219   3.369   0.995   6.110
 9107SOL    HW128220   3.272   0.976   6.093
 9107SOL    HW228221   3.422   0.976   6.027
 9108SOL     OW28222   4.489   3.903   5.665
 9108SOL    HW128223   4.420   3.961   5.709
 9108SOL    HW228224   4.490   3.920   5.567
 9109SOL     OW28225   0.649   2.846   2.416
 9109SOL    HW128226   0.666   2.759   2.462
 9109SOL    HW228227   0.584   2.900   2.471
 9110SOL     OW28228   2.151   3.764   3.850
 9110SOL    HW128229   2.097   3.848   3.846
 9110SOL    HW228230   2.215   3.762   3.773
 9111SOL     OW28231   4.641   1.496   0.815
 9111SOL    HW128232   4.660   1.448   0.901
 9111SOL    HW228233   4.553   1.465   0.778
 9112SOL     OW28234   0.491   4.836   3.671
 9112SOL    HW128235   0.459   4.816   3.763
 9112SOL    HW228236   0.534   4.754   3.632
 9113SOL     OW28237   5.315   1.179   2.501
 9113SOL    HW128238   5.385   1.113   2.529
 9113SOL    HW228239   5.293   1.165   2.404
 9114SOL     OW28240   0.596   4.267   2.165
 9114SOL    HW128241   0.677   4.262   2.223
 9114SOL    HW228242   0.567   4.362   2.156
 9115SOL     OW28243   7.019   4.905   4.977
 9115SOL    HW128244   0.019   4.976   4.910
 9115SOL    HW228245   6.966   4.833   4.933
 9116SOL     OW28246   6.994   1.162   1.777
 9116SOL    HW128247   6.911   1.200   1.739
 9116SOL    HW228248   6.974   1.073   1.820
 9117SOL     OW28249   5.955   3.060   0.400
 9117SOL    HW128250   5.863   3.025   0.388
 9117SOL    HW228251   6.015   2.987   0.433
 9118SOL     OW28252   6.786   3.712   0.254
 9118SOL    HW128253   6.697   3.714   0.209
 9118SOL    HW228254   6.830   3.624   0.235
 9119SOL     OW28255   5.145   0.357   2.019
 9119SOL    HW128256   5.165   0.271   2.066
 9119SOL    HW228257   5.077   0.340   1.948
 9120SOL     OW28258   6.120   2.022   5.927
 9120SOL    HW128259   6.063   2.025   5.845
 9120SOL    HW228260   6.069   2.059   6.005
 9121SOL     OW28261   3.710   1.167   4.931
 9121SOL    HW128262   3.756   1.143   5.016
 9121SOL    HW228263   3.670   1.258   4.939
 9122SOL     OW28264   1.722   4.134   2.337
 9122SOL    HW128265   1.661   4.200   2.294
 9122SOL    HW228266   1.749   4.065   2.270
 9123SOL     OW28267   2.263   0.846   3.770
 9123SOL    HW128268   2.172   0.810   3.790
 9123SOL    HW228269   2.326   0.819   3.843
 9124SOL     OW28270   5.556   6.628   6.947
 9124SOL    HW128271   5.579   6.722   6.971
 9124SOL    HW228272   5.457   6.616   6.947
 9125SOL     OW28273   4.757   3.690   0.757
 9125SOL    HW128274   4.768   3.712   0.660
 9125SOL    HW228275   4.662   3.705   0.784
 9126SOL     OW28276   6.457   3.587   1.300
 9126SOL    HW128277   6.461   3.676   1.256
 9126SOL    HW228278   6.410   3.595   1.387
 9127SOL     OW28279   6.952   2.159   6.168
 9127SOL    HW128280   6.860   2.137   6.201
 9127SOL    HW228281   7.000   2.212   6.238
 9128SOL     OW28282   5.116   1.835   5.423
 9128SOL    HW128283   5.038   1.793   5.470
 9128SOL    HW228284   5.153   1.771   5.356
 9129SOL     OW28285   0.479   2.523   0.232
 9129SOL    HW128286   0.387   2.491   0.254
 9129SOL    HW228287   0.521   2.563   0.313
 9130SOL     OW28288   0.012   3.688   6.356
 9130SOL    HW128289   0.064   3.755   6.304
 9130SOL    HW228290   7.007   3.613   6.296
 9131SOL     OW28291   5.677   2.716   5.013
 9131SOL    HW128292   5.651   2.798   4.963
 9131SOL    HW228293   5.620   2.639   4.984
 9132SOL     OW28294   1.002   5.594   4.248
 9132SOL    HW128295   0.983   5.628   4.340
 9132SOL    HW228296   1.052   5.508   4.254
 9133SOL     OW28297   3.316   6.342   1.590
 9133SOL    HW128298   3.262   6.419   1.624
 9133SOL    HW228299   3.410   6.372   1.574
 9134SOL     OW28300   4.536   5.681   1.206
 9134SOL    HW128301   4.488   5.756   1.251
 9134SOL    HW228302   4.496   5.666   1.116
 9135SOL     OW28303   6.689   6.837   1.612
 9135SOL    HW128304   6.702   6.831   1.513
 9135SOL    HW228305   6.664   6.747   1.648
 9136SOL     OW28306   4.956   6.528   0.043
 9136SOL    HW128307   4.937   6.551   6.970
 9136SOL    HW228308   5.035   6.580   0.075
 9137SOL     OW28309   5.406   1.014   0.176
 9137SOL    HW128310   5.397   1.018   0.077
 9137SOL    HW228311   5.319   1.037   0.219
 9138SOL     OW28312   0.509   6.000   6.627
 9138SOL    HW128313   0.442   6.042   6.566
 9138SOL    HW228314   0.480   5.907   6.649
 9139SOL     OW28315   2.329   1.850   3.025
 9139SOL    HW128316   2.421   1.835   2.990
 9139SOL    HW228317   2.332   1.850   3.125
 9140SOL     OW28318   6.997   3.260   2.784
 9140SOL    HW128319   6.993   3.337   2.848
 9140SOL    HW228320   6.994   3.296   2.690
 9141SOL     OW28321   5.423   0.425   0.437
 9141SOL    HW128322   5.428   0.325   0.434
 9141SOL    HW228323   5.510   0.462   0.470
 9142SOL     OW28324   0.854   2.788   0.874
 9142SOL    HW128325   0.875   2.856   0.803
 9142SOL    HW228326   0.859   2.831   0.964
 9143SOL     OW28327   6.630   3.473   6.933
 9143SOL    HW128328   6.630   3.512   0.003
 9143SOL    HW228329   6.536   3.467   6.900
 9144SOL     OW28330   2.432   5.032   4.530
 9144SOL    HW128331   2.474   5.100   4.470
 9144SOL    HW228332   2.337   5.058   4.549
 9145SOL     OW28333   0.342   5.771   7.000
 9145SOL    HW128334   0.332   5.867   6.975
 9145SOL    HW228335   0.436   5.754   0.008
 9146SOL     OW28336   5.090   3.107   3.595
 9146SOL    HW128337   5.051   3.110   3.687
 9146SOL    HW228338   5.164   3.173   3.587
 9147SOL     OW28339   5.822   0.046   5.355
 9147SOL    HW128340   5.752   7.003   5.385
 9147SOL    HW228341   5.889   0.059   5.428
 9148SOL     OW28342   5.357   6.244   1.205
 9148SOL    HW128343   5.336   6.181   1.280
 9148SOL    HW228344   5.439   6.296   1.228
 9149SOL     OW28345   5.626   4.244   2.611
 9149SOL    HW128346   5.705   4.202   2.567
 9149SOL    HW228347   5.655   4.325   2.662
 9150SOL     OW28348   3.751   5.368   1.377
 9150SOL    HW128349   3.683   5.400   1.443
 9150SOL    HW228350   3.714   5.377   1.284
 9151SOL     OW28351   2.322   4.360   3.228
 9151SOL    HW128352   2.229   4.391   3.210
 9151SOL    HW228353   2.368   4.424   3.290
 9152SOL     OW28354   1.850   4.500   4.621
 9152SOL    HW128355   1.820   4.445   4.543
 9152SOL    HW228356   1.811   4.464   4.705
 9153SOL     OW28357   0.237   2.888   0.024
 9153SOL    HW128358   0.201   2.917   0.113
 9153SOL    HW228359   0.227   2.963   6.981
 9154SOL     OW28360   4.980   4.714   6.716
 9154SOL    HW128361   4.966   4.809   6.689
 9154SOL    HW228362   4.904   4.658   6.681
 9155SOL     OW28363   1.458   3.787   2.090
 9155SOL    HW128364   1.541   3.740   2.121
 9155SOL    HW228365   1.427   3.747   2.004
 9156SOL     OW28366   1.093   2.198   0.455
 9156SOL    HW128367   1.034   2.161   0.383
 9156SOL    HW228368   1.039   2.258   0.515
 9157SOL     OW28369   1.714   3.704   6.459
 9157SOL    HW128370   1.687   3.628   6.518
 9157SOL    HW228371   1.812   3.699   6.441
 9158SOL     OW28372   6.242   3.650   4.400
 9158SOL    HW128373   6.148   3.677   4.418
 9158SOL    HW228374   6.293   3.729   4.366
 9159SOL     OW28375   1.464   1.211   2.229
 9159SOL    HW128376   1.529   1.230   2.155
 9159SOL    HW228377   1.442   1.296   2.276
 9160SOL     OW28378   6.925   6.556   5.828
 9160SOL    HW128379   6.920   6.563   5.729
 9160SOL    HW228380   6.938   6.647   5.867
 9161SOL     OW28381   5.667   5.047   3.996
 9161SOL    HW128382   5.642   5.063   3.900
 9161SOL    HW228383   5.712   5.128   4.032
 9162SOL     OW28384   4.181   0.875   3.504
 9162SOL    HW128385   4.232   0.933   3.440
 9162SOL    HW228386   4.235   0.862   3.587
 9163SOL     OW28387   0.776   2.436   4.665
 9163SOL    HW128388   0.820   2.504   4.725
 9163SOL    HW228389   0.830   2.427   4.581
 9164SOL     OW28390   2.721   0.545   0.067
 9164SOL    HW128391   2.787   0.613   0.036
 9164SOL    HW228392   2.733   0.460   0.015
 9165SOL     OW28393   6.087   0.898   5.583
 9165SOL    HW128394   6.164   0.961   5.585
 9165SOL    HW228395   6.112   0.812   5.628
 9166SOL     OW28396   4.547   5.997   1.214
 9166SOL    HW128397   4.561   5.925   1.145
 9166SOL    HW228398   4.475   6.059   1.184
 9167SOL     OW28399   2.182   1.951   6.295
 9167SOL    HW128400   2.259   1.931   6.355
 9167SOL    HW228401   2.099   1.962   6.350
 9168SOL     OW28402   7.003   6.069   5.794
 9168SOL    HW128403   6.964   6.004   5.859
 9168SOL    HW228404   0.060   6.029   5.749
 9169SOL     OW28405   6.442   0.390   6.290
 9169SOL    HW128406   6.349   0.354   6.304
 9169SOL    HW228407   6.446   0.484   6.325
 9170SOL     OW28408   1.963   0.271   6.585
 9170SOL    HW128409   1.915   0.186   6.610
 9170SOL    HW228410   1.926   0.347   6.639
 9171SOL     OW28411   3.686   5.507   0.473
 9171SOL    HW128412   3.720   5.431   0.419
 9171SOL    HW228413   3.709   5.593   0.428
 9172SOL     OW28414   5.025   0.924   2.684
 9172SOL    HW128415   5.079   0.876   2.753
 9172SOL    HW228416   4.954   0.862   2.649
 9173SOL     OW28417   5.877   4.374   6.069
 9173SOL    HW128418   5.916   4.456   6.029
 9173SOL    HW228419   5.861   4.306   5.997
 9174SOL     OW28420   6.785   4.216   0.666
 9174SOL    HW128421   6.766   4.118   0.678
 9174SOL    HW228422   6.883   4.231   0.669
 9175SOL     OW28423   1.383   6.045   6.434
 9175SOL    HW128424   1.413   6.122   6.378
 9175SOL    HW228425   1.385   5.962   6.379
 9176SOL     OW28426   2.318   1.144   3.209
 9176SOL    HW128427   2.388   1.197   3.257
 9176SOL    HW228428   2.360   1.065   3.165
 9177SOL     OW28429   0.678   4.706   4.074
 9177SOL    HW128430   0.775   4.710   4.047
 9177SOL    HW228431   0.656   4.612   4.101
 9178SOL     OW28432   1.612   5.341   1.070
 9178SOL    HW128433   1.691   5.381   1.117
 9178SOL    HW228434   1.605   5.381   0.979
 9179SOL     OW28435   2.289   5.308   3.964
 9179SOL    HW128436   2.298   5.327   4.062
 9179SOL    HW228437   2.195   5.327   3.935
 9180SOL     OW28438   6.813   2.905   3.441
 9180SOL    HW128439   6.832   3.000   3.465
 9180SOL    HW228440   6.807   2.850   3.525
 9181SOL     OW28441   5.729   2.646   4.256
 9181SOL    HW128442   5.782   2.685   4.331
 9181SOL    HW228443   5.681   2.719   4.208
 9182SOL     OW28444   2.819   0.056   3.119
 9182SOL    HW128445   2.751   7.006   3.113
 9182SOL    HW228446   2.796   0.129   3.055
 9183SOL     OW28447   4.605   4.309   6.901
 9183SOL    HW128448   4.662   4.273   6.975
 9183SOL    HW228449   4.509   4.293   6.922
 9184SOL     OW28450   4.593   1.828   1.361
 9184SOL    HW128451   4.566   1.733   1.380
 9184SOL    HW228452   4.632   1.868   1.444
 9185SOL     OW28453   5.765   6.410   5.196
 9185SOL    HW128454   5.774   6.371   5.288
 9185SOL    HW228455   5.744   6.338   5.131
 9186SOL     OW28456   5.821   0.099   4.362
 9186SOL    HW128457   5.807   0.198   4.374
 9186SOL    HW228458   5.737   0.050   4.384
 9187SOL     OW28459   3.374   2.340   0.325
 9187SOL    HW128460   3.397   2.417   0.265
 9187SOL    HW228461   3.336   2.266   0.270
 9188SOL     OW28462   2.222   0.413   2.107
 9188SOL    HW128463   2.258   0.342   2.168
 9188SOL    HW228464   2.184   0.487   2.162
 9189SOL     OW28465   2.983   5.772   1.948
 9189SOL    HW128466   2.941   5.720   1.873
 9189SOL    HW228467   3.068   5.813   1.916
 9190SOL     OW28468   1.398   3.429   5.531
 9190SOL    HW128469   1.399   3.513   5.585
 9190SOL    HW228470   1.444   3.356   5.582
 9191SOL     OW28471   5.956   1.008   0.235
 9191SOL    HW128472   5.983   0.996   0.140
 9191SOL    HW228473   5.971   1.103   0.263
 9192SOL     OW28474   0.037   2.359   6.337
 9192SOL    HW128475   6.980   2.394   6.386
 9192SOL    HW228476   0.094   2.436   6.306
 9193SOL     OW28477   4.071   3.756   5.016
 9193SOL    HW128478   4.130   3.697   5.070
 9193SOL    HW228479   4.081   3.735   4.919
 9194SOL     OW28480   2.977   0.862   2.644
 9194SOL    HW128481   2.964   0.925   2.720
 9194SOL    HW228482   3.057   0.804   2.662
 9195SOL     OW28483   1.287   3.918   3.320
 9195SOL    HW128484   1.286   3.841   3.384
 9195SOL    HW228485   1.253   4.000   3.365
 9196SOL     OW28486   5.532   6.587   3.602
 9196SOL    HW128487   5.492   6.668   3.560
 9196SOL    HW228488   5.620   6.566   3.559
 9197SOL     OW28489   3.159   4.474   1.274
 9197SOL    HW128490   3.077   4.439   1.228
 9197SOL    HW228491   3.233   4.408   1.264
 9198SOL     OW28492   6.412   4.500   6.344
 9198SOL    HW128493   6.425   4.563   6.267
 9198SOL    HW228494   6.495   4.497   6.399
 9199SOL     OW28495   6.799   2.991   5.636
 9199SOL    HW128496   6.812   3.076   5.686
 9199SOL    HW228497   6.868   2.985   5.563
 9200SOL     OW28498   3.196   6.375   5.813
 9200SOL    HW128499   3.287   6.336   5.819
 9200SOL    HW228500   3.189   6.454   5.874
 9201SOL     OW28501   6.887   3.653   6.987
 9201SOL    HW128502   6.800   3.692   7.017
 9201SOL    HW228503   6.949   3.726   6.960
 9202SOL     OW28504   0.792   6.377   3.563
 9202SOL    HW128505   0.878   6.428   3.554
 9202SOL    HW228506   0.763   6.343   3.474
 9203SOL     OW28507   6.081   3.127   6.025
 9203SOL    HW128508   6.068   3.226   6.019
 9203SOL    HW228509   6.118   3.093   5.938
 9204SOL     OW28510   5.027   3.698   4.409
 9204SOL    HW128511   5.004   3.614   4.458
 9204SOL    HW228512   4.948   3.759   4.406
 9205SOL     OW28513   5.196   5.614   3.510
 9205SOL    HW128514   5.147   5.701   3.515
 9205SOL    HW228515   5.179   5.570   3.422
 9206SOL     OW28516   3.428   5.599   3.233
 9206SOL    HW128517   3.517   5.557   3.219
 9206SOL    HW228518   3.363   5.563   3.166
 9207SOL     OW28519   4.497   3.823   0.381
 9207SOL    HW128520   4.512   3.855   0.288
 9207SOL    HW228521   4.563   3.867   0.443
 9208SOL     OW28522   5.713   4.495   2.703
 9208SOL    HW128523   5.634   4.530   2.753
 9208SOL    HW228524   5.719   4.541   2.614
 9209SOL     OW28525   4.698   1.147   0.260
 9209SOL    HW128526   4.761   1.132   0.335
 9209SOL    HW228527   4.635   1.221   0.284
 9210SOL     OW28528   0.826   1.743   1.479
 9210SOL    HW128529   0.827   1.690   1.563
 9210SOL    HW228530   0.910   1.727   1.428
 9211SOL     OW28531   6.055   2.571   6.099
 9211SOL    HW128532   6.151   2.547   6.091
 9211SOL    HW228533   6.046   2.671   6.098
 9212SOL     OW28534   5.083   4.964   3.774
 9212SOL    HW128535   5.094   5.015   3.859
 9212SOL    HW228536   5.114   4.870   3.787
 9213SOL     OW28537   5.142   4.807   4.782
 9213SOL    HW128538   5.241   4.799   4.774
 9213SOL    HW228539   5.112   4.768   4.868
 9214SOL     OW28540   6.850   2.825   5.307
 9214SOL    HW128541   6.848   2.725   5.319
 9214SOL    HW228542   6.920   2.864   5.366
 9215SOL     OW28543   1.808   3.991   2.117
 9215SOL    HW128544   1.775   3.898   2.135
 9215SOL    HW228545   1.887   3.986   2.055
 9216SOL     OW28546   2.734   6.797   3.318
 9216SOL    HW128547   2.776   6.847   3.393
 9216SOL    HW228548   2.757   6.700   3.326
 9217SOL     OW28549   6.129   3.694   6.595
 9217SOL    HW128550   6.109   3.598   6.617
 9217SOL    HW228551   6.226   3.712   6.610
 9218SOL     OW28552   3.645   0.976   7.011
 9218SOL    HW128553   3.575   1.045   6.991
 9218SOL    HW228554   3.607   0.885   6.995
 9219SOL     OW28555   5.026   4.185   6.265
 9219SOL    HW128556   4.996   4.098   6.304
 9219SOL    HW228557   5.125   4.194   6.273
 9220SOL     OW28558   1.010   5.948   2.431
 9220SOL    HW128559   0.935   5.965   2.495
 9220SOL    HW228560   1.075   6.024   2.435
 9221SOL     OW28561   1.759   0.331   3.137
 9221SOL    HW128562   1.808   0.417   3.123
 9221SOL    HW228563   1.745   0.316   3.235
 9222SOL     OW28564   2.686   5.666   5.553
 9222SOL    HW128565   2.671   5.569   5.572
 9222SOL    HW228566   2.727   5.676   5.463
 9223SOL     OW28567   1.513   2.006   4.249
 9223SOL    HW128568   1.503   1.910   4.274
 9223SOL    HW228569   1.600   2.020   4.201
 9224SOL     OW28570   0.655   5.373   3.970
 9224SOL    HW128571   0.649   5.421   3.882
 9224SOL    HW228572   0.603   5.288   3.965
 9225SOL     OW28573   2.821   6.121   6.176
 9225SOL    HW128574   2.857   6.061   6.248
 9225SOL    HW228575   2.896   6.168   6.131
 9226SOL     OW28576   0.180   6.706   1.586
 9226SOL    HW128577   0.251   6.695   1.655
 9226SOL    HW228578   0.107   6.639   1.602
 9227SOL     OW28579   1.857   5.488   1.135
 9227SOL    HW128580   1.859   5.410   1.198
 9227SOL    HW228581   1.948   5.500   1.095
 9228SOL     OW28582   3.045   1.156   6.496
 9228SOL    HW128583   3.132   1.189   6.532
 9228SOL    HW228584   2.997   1.230   6.450
 9229SOL     OW28585   0.785   5.123   5.580
 9229SOL    HW128586   0.862   5.076   5.624
 9229SOL    HW228587   0.747   5.065   5.509
 9230SOL     OW28588   4.798   3.188   3.688
 9230SOL    HW128589   4.829   3.249   3.761
 9230SOL    HW228590   4.729   3.125   3.724
 9231SOL     OW28591   1.109   3.701   4.814
 9231SOL    HW128592   1.111   3.605   4.842
 9231SOL    HW228593   1.029   3.746   4.855
 9232SOL     OW28594   3.483   5.209   6.697
 9232SOL    HW128595   3.422   5.159   6.758
 9232SOL    HW228596   3.552   5.257   6.752
 9233SOL     OW28597   5.918   6.091   1.514
 9233SOL    HW128598   5.847   6.038   1.561
 9233SOL    HW228599   5.983   6.126   1.580
 9234SOL     OW28600   2.982   5.547   0.383
 9234SOL    HW128601   2.986   5.601   0.299
 9234SOL    HW228602   3.034   5.593   0.455
 9235SOL     OW28603   1.955   2.819   3.523
 9235SOL    HW128604   1.932   2.804   3.427
 9235SOL    HW228605   1.929   2.739   3.576
 9236SOL     OW28606   2.070   4.187   6.761
 9236SOL    HW128607   2.165   4.220   6.765
 9236SOL    HW228608   2.016   4.235   6.831
 9237SOL     OW28609   0.140   5.846   3.253
 9237SOL    HW128610   0.162   5.874   3.346
 9237SOL    HW228611   0.209   5.880   3.190
 9238SOL     OW28612   1.796   2.639   6.236
 9238SOL    HW128613   1.789   2.682   6.325
 9238SOL    HW228614   1.891   2.609   6.221
 9239SOL     OW28615   0.362   3.735   6.334
 9239SOL    HW128616   0.382   3.649   6.288
 9239SOL    HW228617   0.320   3.798   6.269
 9240SOL     OW28618   5.291   2.921   2.209
 9240SOL    HW128619   5.250   3.002   2.166
 9240SOL    HW228620   5.219   2.868   2.255
 9241SOL     OW28621   0.883   5.149   6.470
 9241SOL    HW128622   0.827   5.066   6.474
 9241SOL    HW228623   0.979   5.123   6.462
 9242SOL     OW28624   1.174   4.414   0.512
 9242SOL    HW128625   1.214   4.505   0.507
 9242SOL    HW228626   1.247   4.346   0.522
 9243SOL     OW28627   0.612   0.269   1.260
 9243SOL    HW128628   0.594   0.184   1.211
 9243SOL    HW228629   0.555   0.273   1.342
 9244SOL     OW28630   3.478   4.981   5.873
 9244SOL    HW128631   3.429   4.984   5.785
 9244SOL    HW228632   3.486   5.073   5.910
 9245SOL     OW28633   0.796   5.628   4.062
 9245SOL    HW128634   0.767   5.548   4.010
 9245SOL    HW228635   0.859   5.599   4.135
 9246SOL     OW28636   6.533   6.711   2.454
 9246SOL    HW128637   6.601   6.720   2.382
 9246SOL    HW228638   6.458   6.775   2.436
 9247SOL     OW28639   2.419   6.133   3.141
 9247SOL    HW128640   2.387   6.077   3.064
 9247SOL    HW228641   2.348   6.200   3.164
 9248SOL     OW28642   3.110   2.214   4.151
 9248SOL    HW128643   3.114   2.221   4.051
 9248SOL    HW228644   3.024   2.253   4.184
 9249SOL     OW28645   3.563   4.619   1.096
 9249SOL    HW128646   3.564   4.713   1.060
 9249SOL    HW228647   3.504   4.615   1.176
 9250SOL     OW28648   5.870   2.937   4.117
 9250SOL    HW128649   5.913   2.874   4.182
 9250SOL    HW228650   5.877   2.898   4.025
 9251SOL     OW28651   3.852   1.836   3.201
 9251SOL    HW128652   3.830   1.751   3.248
 9251SOL    HW228653   3.883   1.904   3.267
 9252SOL     OW28654   5.075   0.776   4.046
 9252SOL    HW128655   5.121   0.864   4.059
 9252SOL    HW228656   4.979   0.792   4.023
 9253SOL     OW28657   5.715   5.412   5.448
 9253SOL    HW128658   5.739   5.375   5.538
 9253SOL    HW228659   5.652   5.488   5.459
 9254SOL     OW28660   5.614   4.958   3.343
 9254SOL    HW128661   5.536   5.015   3.369
 9254SOL    HW228662   5.698   5.012   3.348
 9255SOL     OW28663   4.426   4.281   0.684
 9255SOL    HW128664   4.480   4.232   0.753
 9255SOL    HW228665   4.332   4.293   0.718
 9256SOL     OW28666   3.001   0.470   2.765
 9256SOL    HW128667   2.995   0.372   2.787
 9256SOL    HW228668   2.910   0.505   2.743
 9257SOL     OW28669   0.512   4.375   3.423
 9257SOL    HW128670   0.488   4.432   3.345
 9257SOL    HW228671   0.522   4.280   3.394
 9258SOL     OW28672   3.350   4.183   2.850
 9258SOL    HW128673   3.402   4.265   2.876
 9258SOL    HW228674   3.345   4.121   2.928
 9259SOL     OW28675   0.251   2.000   0.216
 9259SOL    HW128676   0.291   2.031   0.302
 9259SOL    HW228677   0.256   2.074   0.149
 9260SOL     OW28678   5.942   1.716   5.578
 9260SOL    HW128679   5.871   1.764   5.527
 9260SOL    HW228680   6.028   1.766   5.569
 9261SOL     OW28681   2.894   1.170   0.214
 9261SOL    HW128682   2.989   1.140   0.223
 9261SOL    HW228683   2.839   1.095   0.178
 9262SOL     OW28684   6.881   4.671   4.940
 9262SOL    HW128685   6.828   4.698   5.020
 9262SOL    HW228686   6.823   4.620   4.877
 9263SOL     OW28687   5.057   0.343   1.732
 9263SOL    HW128688   5.014   0.257   1.705
 9263SOL    HW228689   5.151   0.346   1.699
 9264SOL     OW28690   4.959   4.495   0.448
 9264SOL    HW128691   4.996   4.433   0.379
 9264SOL    HW228692   4.945   4.585   0.408
 9265SOL     OW28693   4.387   2.361   0.363
 9265SOL    HW128694   4.414   2.447   0.319
 9265SOL    HW228695   4.301   2.374   0.413
 9266SOL     OW28696   1.418   6.695   0.947
 9266SOL    HW128697   1.354   6.714   1.021
 9266SOL    HW228698   1.401   6.604   0.910
 9267SOL     OW28699   0.006   2.305   4.765
 9267SOL    HW128700   7.011   2.210   4.739
 9267SOL    HW228701   6.941   2.355   4.768
 9268SOL     OW28702   0.922   4.928   2.695
 9268SOL    HW128703   0.906   4.864   2.620
 9268SOL    HW228704   0.996   4.990   2.672
 9269SOL     OW28705   4.006   1.108   6.410
 9269SOL    HW128706   4.075   1.141   6.346
 9269SOL    HW228707   4.048   1.044   6.475
 9270SOL     OW28708   4.182   6.796   6.130
 9270SOL    HW128709   4.157   6.699   6.142
 9270SOL    HW228710   4.145   6.849   6.207
 9271SOL     OW28711   5.929   0.179   1.274
 9271SOL    HW128712   5.878   0.119   1.335
 9271SOL    HW228713   6.027   0.171   1.292
 9272SOL     OW28714   0.899   5.911   5.216
 9272SOL    HW128715   0.940   6.002   5.221
 9272SOL    HW228716   0.865   5.884   5.306
 9273SOL     OW28717   5.881   6.817   2.528
 9273SOL    HW128718   5.931   6.785   2.447
 9273SOL    HW228719   5.839   6.739   2.574
 9274SOL     OW28720   6.405   1.141   0.363
 9274SOL    HW128721   6.419   1.050   0.402
 9274SOL    HW228722   6.487   1.169   0.312
 9275SOL     OW28723   6.592   0.937   0.415
 9275SOL    HW128724   6.549   0.893   0.494
 9275SOL    HW228725   6.691   0.929   0.422
 9276SOL     OW28726   1.500   3.605   1.480
 9276SOL    HW128727   1.586   3.557   1.495
 9276SOL    HW228728   1.486   3.618   1.382
 9277SOL     OW28729   4.448   4.340   0.315
 9277SOL    HW128730   4.353   4.310   0.305
 9277SOL    HW228731   4.460   4.384   0.404
 9278SOL     OW28732   1.909   0.353   6.315
 9278SOL    HW128733   1.974   0.429   6.312
 9278SOL    HW228734   1.925   0.298   6.396
 9279SOL     OW28735   3.539   0.926   2.454
 9279SOL    HW128736   3.579   0.835   2.461
 9279SOL    HW228737   3.478   0.941   2.532
 9280SOL     OW28738   2.131   1.687   2.911
 9280SOL    HW128739   2.168   1.601   2.945
 9280SOL    HW228740   2.174   1.763   2.960
 9281SOL     OW28741   2.461   3.566   6.441
 9281SOL    HW128742   2.477   3.664   6.445
 9281SOL    HW228743   2.424   3.541   6.351
 9282SOL     OW28744   5.941   0.470   3.564
 9282SOL    HW128745   5.875   0.497   3.634
 9282SOL    HW228746   5.954   0.545   3.500
 9283SOL     OW28747   5.397   0.847   4.130
 9283SOL    HW128748   5.479   0.807   4.088
 9283SOL    HW228749   5.316   0.807   4.087
 9284SOL     OW28750   2.865   3.370   5.576
 9284SOL    HW128751   2.953   3.399   5.540
 9284SOL    HW228752   2.833   3.290   5.526
 9285SOL     OW28753   4.876   2.368   1.198
 9285SOL    HW128754   4.847   2.358   1.103
 9285SOL    HW228755   4.819   2.311   1.257
 9286SOL     OW28756   5.651   5.705   0.796
 9286SOL    HW128757   5.615   5.785   0.843
 9286SOL    HW228758   5.735   5.730   0.747
 9287SOL     OW28759   3.060   5.047   0.362
 9287SOL    HW128760   3.108   5.125   0.324
 9287SOL    HW228761   3.059   5.054   0.462
 9288SOL     OW28762   4.451   1.399   2.962
 9288SOL    HW128763   4.503   1.337   2.903
 9288SOL    HW228764   4.498   1.488   2.966
 9289SOL     OW28765   3.861   0.325   1.827
 9289SOL    HW128766   3.770   0.291   1.849
 9289SOL    HW228767   3.861   0.364   1.735
 9290SOL     OW28768   5.753   1.264   3.070
 9290SOL    HW128769   5.739   1.169   3.096
 9290SOL    HW228770   5.675   1.297   3.016
 9291SOL     OW28771   1.202   5.685   5.428
 9291SOL    HW128772   1.142   5.682   5.348
 9291SOL    HW228773   1.276   5.750   5.411
 9292SOL     OW28774   2.125   3.398   6.448
 9292SOL    HW128775   2.213   3.367   6.483
 9292SOL    HW228776   2.137   3.437   6.357
 9293SOL     OW28777   5.594   3.002   6.308
 9293SOL    HW128778   5.637   3.081   6.353
 9293SOL    HW228779   5.506   3.029   6.270
 9294SOL     OW28780   4.452   6.868   6.075
 9294SOL    HW128781   4.447   6.965   6.049
 9294SOL    HW228782   4.365   6.840   6.115
 9295SOL     OW28783   5.835   0.980   5.164
 9295SOL    HW128784   5.823   0.890   5.122
 9295SOL    HW228785   5.930   0.989   5.196
 9296SOL     OW28786   1.703   5.776   6.844
 9296SOL    HW128787   1.732   5.840   6.915
 9296SOL    HW228788   1.649   5.824   6.775
 9297SOL     OW28789   0.859   6.985   3.141
 9297SOL    HW128790   0.787   6.969   3.209
 9297SOL    HW228791   0.895   6.898   3.109
 9298SOL     OW28792   0.843   6.266   6.438
 9298SOL    HW128793   0.794   6.248   6.353
 9298SOL    HW228794   0.938   6.235   6.428
 9299SOL     OW28795   0.775   2.365   4.954
 9299SOL    HW128796   0.722   2.336   4.874
 9299SOL    HW228797   0.870   2.336   4.944
 9300SOL     OW28798   0.513   4.396   5.981
 9300SOL    HW128799   0.543   4.346   6.062
 9300SOL    HW228800   0.593   4.425   5.928
 9301SOL     OW28801   5.559   5.494   4.539
 9301SOL    HW128802   5.610   5.540   4.611
 9301SOL    HW228803   5.607   5.506   4.452
 9302SOL     OW28804   2.587   2.548   4.101
 9302SOL    HW128805   2.502   2.497   4.098
 9302SOL    HW228806   2.579   2.631   4.046
 9303SOL     OW28807   2.495   4.208   0.890
 9303SOL    HW128808   2.502   4.231   0.793
 9303SOL    HW228809   2.568   4.145   0.915
 9304SOL     OW28810   4.217   4.589   1.832
 9304SOL    HW128811   4.161   4.574   1.751
 9304SOL    HW228812   4.310   4.555   1.815
 9305SOL     OW28813   3.391   1.012   0.779
 9305SOL    HW128814   3.470   0.982   0.831
 9305SOL    HW228815   3.328   1.061   0.838
 9306SOL     OW28816   0.532   4.833   5.688
 9306SOL    HW128817   0.486   4.757   5.643
 9306SOL    HW228818   0.566   4.897   5.620
 9307SOL     OW28819   0.883   3.731   1.090
 9307SOL    HW128820   0.952   3.779   1.144
 9307SOL    HW228821   0.815   3.690   1.150
 9308SOL     OW28822   1.909   3.277   0.388
 9308SOL    HW128823   1.838   3.208   0.398
 9308SOL    HW228824   1.876   3.364   0.424
 9309SOL     OW28825   3.631   4.783   6.039
 9309SOL    HW128826   3.612   4.828   5.952
 9309SOL    HW228827   3.583   4.830   6.112
 9310SOL     OW28828   5.886   5.604   5.723
 9310SOL    HW128829   5.921   5.684   5.773
 9310SOL    HW228830   5.786   5.607   5.724
 9311SOL     OW28831   4.905   4.447   1.557
 9311SOL    HW128832   5.005   4.451   1.558
 9311SOL    HW228833   4.873   4.401   1.640
 9312SOL     OW28834   1.071   3.580   0.962
 9312SOL    HW128835   1.140   3.568   1.034
 9312SOL    HW228836   0.981   3.590   1.004
 9313SOL     OW28837   6.937   0.038   1.007
 9313SOL    HW128838   0.000   0.062   1.052
 9313SOL    HW228839   6.874   0.115   1.011
 9314SOL     OW28840   5.872   4.492   7.017
 9314SOL    HW128841   5.850   4.409   0.047
 9314SOL    HW228842   5.933   4.468   6.942
 9315SOL     OW28843   6.692   6.948   5.686
 9315SOL    HW128844   6.663   6.856   5.659
 9315SOL    HW228845   6.787   6.945   5.716
 9316SOL     OW28846   5.384   6.548   5.766
 9316SOL    HW128847   5.388   6.495   5.682
 9316SOL    HW228848   5.305   6.518   5.820
 9317SOL     OW28849   5.520   5.288   3.860
 9317SOL    HW128850   5.505   5.220   3.789
 9317SOL    HW228851   5.442   5.289   3.923
 9318SOL     OW28852   5.790   1.406   6.201
 9318SOL    HW128853   5.800   1.307   6.205
 9318SOL    HW228854   5.771   1.441   6.292
 9319SOL     OW28855   2.610   2.628   6.665
 9319SOL    HW128856   2.630   2.696   6.735
 9319SOL    HW228857   2.511   2.622   6.652
 9320SOL     OW28858   3.545   0.571   5.109
 9320SOL    HW128859   3.596   0.643   5.062
 9320SOL    HW228860   3.505   0.509   5.042
 9321SOL     OW28861   0.561   0.280   4.951
 9321SOL    HW128862   0.529   0.373   4.972
 9321SOL    HW228863   0.651   0.266   4.992
 9322SOL     OW28864   6.913   3.467   6.208
 9322SOL    HW128865   6.827   3.516   6.222
 9322SOL    HW228866   6.898   3.390   6.146
 9323SOL     OW28867   1.274   0.807   5.355
 9323SOL    HW128868   1.352   0.756   5.321
 9323SOL    HW228869   1.238   0.763   5.437
 9324SOL     OW28870   1.532   4.253   1.857
 9324SOL    HW128871   1.496   4.285   1.945
 9324SOL    HW228872   1.503   4.159   1.842
 9325SOL     OW28873   5.900   1.630   0.233
 9325SOL    HW128874   5.833   1.619   0.159
 9325SOL    HW228875   5.977   1.684   0.200
 9326SOL     OW28876   2.747   4.888   0.373
 9326SOL    HW128877   2.706   4.848   0.456
 9326SOL    HW228878   2.827   4.834   0.347
 9327SOL     OW28879   4.527   0.127   2.236
 9327SOL    HW128880   4.539   0.149   2.332
 9327SOL    HW228881   4.430   0.112   2.216
 9328SOL     OW28882   2.456   1.062   4.848
 9328SOL    HW128883   2.420   1.020   4.932
 9328SOL    HW228884   2.389   1.128   4.813
 9329SOL     OW28885   6.106   3.712   0.794
 9329SOL    HW128886   6.096   3.760   0.881
 9329SOL    HW228887   6.134   3.617   0.811
 9330SOL     OW28888   6.276   0.030   5.695
 9330SOL    HW128889   6.216   0.049   5.617
 9330SOL    HW228890   6.247   6.966   5.738
 9331SOL     OW28891   2.308   1.051   6.416
 9331SOL    HW128892   2.268   1.107   6.343
 9331SOL    HW228893   2.280   0.955   6.403
 9332SOL     OW28894   4.180   4.754   0.554
 9332SOL    HW128895   4.188   4.757   0.455
 9332SOL    HW228896   4.266   4.787   0.595
 9333SOL     OW28897   3.415   4.710   6.864
 9333SOL    HW128898   3.402   4.685   6.960
 9333SOL    HW228899   3.358   4.652   6.806
 9334SOL     OW28900   4.999   6.346   4.114
 9334SOL    HW128901   4.968   6.280   4.182
 9334SOL    HW228902   4.949   6.432   4.124
 9335SOL     OW28903   1.241   0.833   6.735
 9335SOL    HW128904   1.221   0.736   6.748
 9335SOL    HW228905   1.192   0.868   6.655
 9336SOL     OW28906   3.840   6.550   5.091
 9336SOL    HW128907   3.775   6.496   5.143
 9336SOL    HW228908   3.791   6.606   5.024
 9337SOL     OW28909   4.128   1.137   5.043
 9337SOL    HW128910   4.173   1.168   5.126
 9337SOL    HW228911   4.036   1.105   5.066
 9338SOL     OW28912   6.296   6.928   1.542
 9338SOL    HW128913   6.238   6.918   1.461
 9338SOL    HW228914   6.239   6.925   1.624
 9339SOL     OW28915   6.109   6.581   0.757
 9339SOL    HW128916   6.206   6.603   0.747
 9339SOL    HW228917   6.061   6.603   0.672
 9340SOL     OW28918   4.662   4.905   3.568
 9340SOL    HW128919   4.724   4.832   3.597
 9340SOL    HW228920   4.590   4.916   3.636
 9341SOL     OW28921   6.646   5.011   0.775
 9341SOL    HW128922   6.561   4.983   0.730
 9341SOL    HW228923   6.669   4.944   0.846
 9342SOL     OW28924   3.045   0.144   3.969
 9342SOL    HW128925   3.009   0.155   3.877
 9342SOL    HW228926   3.068   0.234   4.007
 9343SOL     OW28927   5.049   3.800   1.818
 9343SOL    HW128928   5.054   3.897   1.795
 9343SOL    HW228929   4.953   3.774   1.829
 9344SOL     OW28930   5.293   6.362   1.629
 9344SOL    HW128931   5.368   6.410   1.585
 9344SOL    HW228932   5.207   6.385   1.584
 9345SOL     OW28933   6.966   5.647   1.702
 9345SOL    HW128934   6.882   5.669   1.652
 9345SOL    HW228935   6.945   5.638   1.800
 9346SOL     OW28936   5.344   1.206   1.766
 9346SOL    HW128937   5.400   1.251   1.835
 9346SOL    HW228938   5.313   1.117   1.800
 9347SOL     OW28939   3.584   4.153   0.730
 9347SOL    HW128940   3.635   4.238   0.734
 9347SOL    HW228941   3.623   4.094   0.659
 9348SOL     OW28942   2.452   6.326   2.667
 9348SOL    HW128943   2.409   6.243   2.631
 9348SOL    HW228944   2.478   6.386   2.592
 9349SOL     OW28945   5.702   5.119   1.884
 9349SOL    HW128946   5.754   5.138   1.967
 9349SOL    HW228947   5.763   5.082   1.814
 9350SOL     OW28948   6.692   2.568   5.551
 9350SOL    HW128949   6.765   2.530   5.495
 9350SOL    HW228950   6.616   2.596   5.493
 9351SOL     OW28951   3.282   0.626   6.236
 9351SOL    HW128952   3.297   0.652   6.332
 9351SOL    HW228953   3.308   0.530   6.224
 9352SOL     OW28954   3.626   1.414   6.271
 9352SOL    HW128955   3.686   1.417   6.192
 9352SOL    HW228956   3.583   1.324   6.277
 9353SOL     OW28957   0.227   4.249   0.848
 9353SOL    HW128958   0.288   4.174   0.873
 9353SOL    HW228959   0.276   4.336   0.853
 9354SOL     OW28960   0.136   2.220   5.956
 9354SOL    HW128961   0.106   2.270   5.875
 9354SOL    HW228962   0.056   2.186   6.006
 9355SOL     OW28963   0.010   1.731   4.621
 9355SOL    HW128964   6.987   1.656   4.669
 9355SOL    HW228965   0.103   1.742   4.656
 9356SOL     OW28966   4.544   6.015   2.149
 9356SOL    HW128967   4.606   6.076   2.101
 9356SOL    HW228968   4.452   6.023   2.111
 9357SOL     OW28969   1.297   3.038   6.719
 9357SOL    HW128970   1.280   2.990   6.633
 9357SOL    HW228971   1.321   2.972   6.790
 9358SOL     OW28972   6.693   2.975   2.497
 9358SOL    HW128973   6.679   2.876   2.492
 9358SOL    HW228974   6.608   3.022   2.471
 9359SOL     OW28975   1.788   3.756   5.417
 9359SOL    HW128976   1.862   3.733   5.480
 9359SOL    HW228977   1.812   3.838   5.365
 9360SOL     OW28978   1.356   5.506   6.931
 9360SOL    HW128979   1.430   5.439   6.944
 9360SOL    HW228980   1.319   5.531   7.021
 9361SOL     OW28981   1.772   5.541   2.574
 9361SOL    HW128982   1.674   5.542   2.595
 9361SOL    HW228983   1.823   5.580   2.650
 9362SOL     OW28984   2.083   3.461   2.620
 9362SOL    HW128985   2.130   3.391   2.566
 9362SOL    HW228986   2.004   3.421   2.666
 9363SOL     OW28987   3.546   6.413   2.042
 9363SOL    HW128988   3.622   6.476   2.050
 9363SOL    HW228989   3.469   6.458   1.997
 9364SOL     OW28990   3.599   3.281   6.396
 9364SOL    HW128991   3.662   3.358   6.384
 9364SOL    HW228992   3.540   3.275   6.315
 9365SOL     OW28993   2.299   1.686   4.299
 9365SOL    HW128994   2.217   1.690   4.355
 9365SOL    HW228995   2.307   1.595   4.258
 9366SOL     OW28996   3.529   6.010   6.625
 9366SOL    HW128997   3.534   5.911   6.636
 9366SOL    HW228998   3.438   6.035   6.592
 9367SOL     OW28999   0.196   6.807   3.133
 9367SOL    HW129000   0.203   6.737   3.062
 9367SOL    HW229001   0.139   6.773   3.207
 9368SOL     OW29002   2.910   0.957   2.895
 9368SOL    HW129003   2.915   1.056   2.913
 9368SOL    HW229004   2.985   0.911   2.942
 9369SOL     OW29005   6.587   6.260   4.764
 9369SOL    HW129006   6.658   6.245   4.833
 9369SOL    HW229007   6.550   6.353   4.774
 9370SOL     OW29008   5.607   0.176   3.770
 9370SOL    HW129009   5.622   0.084   3.733
 9370SOL    HW229010   5.621   0.175   3.869
 9371SOL     OW29011   2.824   5.157   0.847
 9371SOL    HW129012   2.828   5.257   0.853
 9371SOL    HW229013   2.729   5.127   0.848
 9372SOL     OW29014   5.130   0.187   2.593
 9372SOL    HW129015   5.226   0.202   2.613
 9372SOL    HW229016   5.077   0.268   2.619
 9373SOL     OW29017   4.995   1.629   2.491
 9373SOL    HW129018   5.093   1.640   2.508
 9373SOL    HW229019   4.968   1.690   2.416
 9374SOL     OW29020   0.385   3.889   0.101
 9374SOL    HW129021   0.360   3.946   0.179
 9374SOL    HW229022   0.338   3.801   0.108
 9375SOL     OW29023   0.417   1.304   1.631
 9375SOL    HW129024   0.325   1.268   1.622
 9375SOL    HW229025   0.473   1.240   1.684
 9376SOL     OW29026   2.339   4.321   1.511
 9376SOL    HW129027   2.425   4.273   1.526
 9376SOL    HW229028   2.279   4.305   1.590
 9377SOL     OW29029   1.929   5.681   3.906
 9377SOL    HW129030   1.858   5.684   3.977
 9377SOL    HW229031   1.971   5.772   3.898
 9378SOL     OW29032   1.877   1.243   4.016
 9378SOL    HW129033   1.922   1.331   4.009
 9378SOL    HW229034   1.907   1.184   3.941
 9379SOL     OW29035   4.881   6.299   5.691
 9379SOL    HW129036   4.935   6.310   5.774
 9379SOL    HW229037   4.807   6.366   5.690
 9380SOL     OW29038   4.716   5.657   5.048
 9380SOL    HW129039   4.802   5.697   5.018
 9380SOL    HW229040   4.712   5.656   5.148
 9381SOL     OW29041   4.109   3.234   5.983
 9381SOL    HW129042   4.012   3.252   6.001
 9381SOL    HW229043   4.119   3.148   5.933
 9382SOL     OW29044   3.420   0.860   4.004
 9382SOL    HW129045   3.441   0.911   3.920
 9382SOL    HW229046   3.322   0.862   4.021
 9383SOL     OW29047   0.064   5.872   4.503
 9383SOL    HW129048   0.122   5.835   4.576
 9383SOL    HW229049   0.071   5.815   4.422
 9384SOL     OW29050   4.319   0.458   2.007
 9384SOL    HW129051   4.246   0.390   1.997
 9384SOL    HW229052   4.394   0.435   1.945
 9385SOL     OW29053   3.932   1.291   3.380
 9385SOL    HW129054   3.841   1.309   3.342
 9385SOL    HW229055   3.989   1.246   3.310
 9386SOL     OW29056   2.735   5.881   4.777
 9386SOL    HW129057   2.653   5.920   4.819
 9386SOL    HW229058   2.816   5.918   4.823
 9387SOL     OW29059   2.959   1.843   0.027
 9387SOL    HW129060   3.036   1.783   0.006
 9387SOL    HW229061   2.983   1.938   0.004
 9388SOL     OW29062   2.976   6.082   3.310
 9388SOL    HW129063   3.064   6.122   3.335
 9388SOL    HW229064   2.904   6.119   3.368
 9389SOL     OW29065   2.048   0.753   3.508
 9389SOL    HW129066   2.118   0.766   3.439
 9389SOL    HW229067   1.995   0.670   3.489
 9390SOL     OW29068   5.287   4.830   6.346
 9390SOL    HW129069   5.261   4.922   6.317
 9390SOL    HW229070   5.315   4.777   6.266
 9391SOL     OW29071   1.627   1.216   5.197
 9391SOL    HW129072   1.587   1.305   5.177
 9391SOL    HW229073   1.558   1.157   5.238
 9392SOL     OW29074   5.986   5.280   5.477
 9392SOL    HW129075   5.952   5.187   5.470
 9392SOL    HW229076   5.933   5.340   5.417
 9393SOL     OW29077   3.104   6.868   6.729
 9393SOL    HW129078   3.015   6.892   6.689
 9393SOL    HW229079   3.147   6.797   6.674
 9394SOL     OW29080   6.648   0.618   1.819
 9394SOL    HW129081   6.635   0.584   1.726
 9394SOL    HW229082   6.619   0.714   1.824
 9395SOL     OW29083   3.431   1.804   1.206
 9395SOL    HW129084   3.480   1.745   1.142
 9395SOL    HW229085   3.483   1.813   1.291
 9396SOL     OW29086   2.209   4.052   4.088
 9396SOL    HW129087   2.184   3.998   4.168
 9396SOL    HW229088   2.142   4.036   4.015
 9397SOL     OW29089   3.773   6.414   6.188
 9397SOL    HW129090   3.740   6.499   6.228
 9397SOL    HW229091   3.750   6.338   6.249
 9398SOL     OW29092   5.934   1.125   4.835
 9398SOL    HW129093   5.991   1.084   4.907
 9398SOL    HW229094   5.983   1.122   4.748
 9399SOL     OW29095   1.255   3.135   5.157
 9399SOL    HW129096   1.244   3.220   5.208
 9399SOL    HW229097   1.171   3.116   5.106
 9400SOL     OW29098   4.672   1.118   1.426
 9400SOL    HW129099   4.771   1.115   1.439
 9400SOL    HW229100   4.649   1.078   1.337
 9401SOL     OW29101   6.584   0.829   3.295
 9401SOL    HW129102   6.663   0.788   3.341
 9401SOL    HW229103   6.525   0.872   3.364
 9402SOL     OW29104   1.113   5.184   2.707
 9402SOL    HW129105   1.037   5.231   2.752
 9402SOL    HW229106   1.186   5.249   2.687
 9403SOL     OW29107   6.774   1.265   1.660
 9403SOL    HW129108   6.769   1.274   1.560
 9403SOL    HW229109   6.683   1.273   1.699
 9404SOL     OW29110   0.942   2.415   0.627
 9404SOL    HW129111   0.998   2.496   0.614
 9404SOL    HW229112   0.948   2.385   0.722
 9405SOL     OW29113   2.231   4.272   3.916
 9405SOL    HW129114   2.224   4.200   3.985
 9405SOL    HW229115   2.139   4.299   3.887
 9406SOL     OW29116   6.918   2.711   6.355
 9406SOL    HW129117   6.910   2.799   6.401
 9406SOL    HW229118   7.013   2.698   6.324
 9407SOL     OW29119   2.843   5.028   3.764
 9407SOL    HW129120   2.809   4.949   3.815
 9407SOL    HW229121   2.804   5.027   3.672
 9408SOL     OW29122   6.130   2.538   6.477
 9408SOL    HW129123   6.131   2.637   6.459
 9408SOL    HW229124   6.072   2.492   6.410
 9409SOL     OW29125   6.165   5.339   0.552
 9409SOL    HW129126   6.083   5.381   0.592
 9409SOL    HW229127   6.139   5.287   0.470
 9410SOL     OW29128   1.645   0.577   2.362
 9410SOL    HW129129   1.660   0.668   2.400
 9410SOL    HW229130   1.601   0.585   2.272
 9411SOL     OW29131   3.733   3.582   2.957
 9411SOL    HW129132   3.766   3.676   2.946
 9411SOL    HW229133   3.634   3.580   2.943
 9412SOL     OW29134   0.738   1.196   2.467
 9412SOL    HW129135   0.661   1.155   2.418
 9412SOL    HW229136   0.812   1.214   2.403
 9413SOL     OW29137   4.223   5.573   3.571
 9413SOL    HW129138   4.173   5.604   3.652
 9413SOL    HW229139   4.158   5.555   3.497
 9414SOL     OW29140   3.000   1.259   2.937
 9414SOL    HW129141   3.030   1.352   2.956
 9414SOL    HW229142   3.068   1.194   2.972
 9415SOL     OW29143   2.476   6.789   2.392
 9415SOL    HW129144   2.555   6.795   2.331
 9415SOL    HW229145   2.392   6.803   2.338
 9416SOL     OW29146   6.860   1.575   6.351
 9416SOL    HW129147   6.839   1.644   6.420
 9416SOL    HW229148   6.948   1.532   6.373
 9417SOL     OW29149   4.101   0.726   0.696
 9417SOL    HW129150   4.094   0.627   0.685
 9417SOL    HW229151   4.197   0.754   0.683
 9418SOL     OW29152   3.080   0.725   1.500
 9418SOL    HW129153   2.989   0.763   1.484
 9418SOL    HW229154   3.146   0.800   1.506
 9419SOL     OW29155   2.359   4.159   6.118
 9419SOL    HW129156   2.404   4.079   6.079
 9419SOL    HW229157   2.425   4.233   6.131
 9420SOL     OW29158   5.259   4.982   6.746
 9420SOL    HW129159   5.315   5.000   6.827
 9420SOL    HW229160   5.293   5.036   6.669
 9421SOL     OW29161   2.426   6.761   4.650
 9421SOL    HW129162   2.335   6.735   4.684
 9421SOL    HW229163   2.415   6.811   4.563
 9422SOL     OW29164   3.314   5.575   2.801
 9422SOL    HW129165   3.282   5.634   2.726
 9422SOL    HW229166   3.299   5.479   2.777
 9423SOL     OW29167   3.074   6.607   3.645
 9423SOL    HW129168   3.024   6.525   3.674
 9423SOL    HW229169   3.100   6.597   3.549
 9424SOL     OW29170   4.793   1.730   4.636
 9424SOL    HW129171   4.730   1.764   4.705
 9424SOL    HW229172   4.823   1.806   4.578
 9425SOL     OW29173   5.270   3.839   1.112
 9425SOL    HW129174   5.349   3.836   1.173
 9425SOL    HW229175   5.200   3.899   1.151
 9426SOL     OW29176   3.388   1.974   6.034
 9426SOL    HW129177   3.434   1.891   6.002
 9426SOL    HW229178   3.289   1.963   6.024
 9427SOL     OW29179   2.970   5.565   3.203
 9427SOL    HW129180   2.991   5.663   3.210
 9427SOL    HW229181   2.963   5.526   3.294
 9428SOL     OW29182   6.453   0.941   1.278
 9428SOL    HW129183   6.377   0.998   1.248
 9428SOL    HW229184   6.491   0.892   1.200
 9429SOL     OW29185   2.192   3.929   3.224
 9429SOL    HW129186   2.236   3.995   3.285
 9429SOL    HW229187   2.202   3.837   3.262
 9430SOL     OW29188   0.536   2.950   5.194
 9430SOL    HW129189   0.481   2.906   5.122
 9430SOL    HW229190   0.582   2.880   5.248
 9431SOL     OW29191   6.702   4.426   0.818
 9431SOL    HW129192   6.607   4.457   0.818
 9431SOL    HW229193   6.712   4.349   0.755
 9432SOL     OW29194   5.815   0.553   3.809
 9432SOL    HW129195   5.906   0.525   3.842
 9432SOL    HW229196   5.767   0.601   3.882
 9433SOL     OW29197   3.226   6.276   3.431
 9433SOL    HW129198   3.307   6.322   3.467
 9433SOL    HW229199   3.209   6.307   3.337
 9434SOL     OW29200   5.569   5.884   2.028
 9434SOL    HW129201   5.602   5.791   2.012
 9434SOL    HW229202   5.478   5.879   2.071
 9435SOL     OW29203   0.495   2.687   3.462
 9435SOL    HW129204   0.516   2.640   3.376
 9435SOL    HW229205   0.455   2.777   3.442
 9436SOL     OW29206   1.624   2.535   1.457
 9436SOL    HW129207   1.702   2.490   1.414
 9436SOL    HW229208   1.612   2.626   1.418
 9437SOL     OW29209   0.904   5.996   2.874
 9437SOL    HW129210   0.983   5.965   2.927
 9437SOL    HW229211   0.918   6.089   2.842
 9438SOL     OW29212   0.658   6.923   1.624
 9438SOL    HW129213   0.568   6.924   1.667
 9438SOL    HW229214   0.649   6.939   1.526
 9439SOL     OW29215   0.761   2.798   6.932
 9439SOL    HW129216   0.853   2.775   6.963
 9439SOL    HW229217   0.706   2.827   7.010
 9440SOL     OW29218   3.694   4.911   3.010
 9440SOL    HW129219   3.632   4.990   3.015
 9440SOL    HW229220   3.691   4.861   3.097
 9441SOL     OW29221   5.970   4.647   6.035
 9441SOL    HW129222   6.030   4.673   5.960
 9441SOL    HW229223   6.025   4.619   6.114
 9442SOL     OW29224   5.047   3.704   1.438
 9442SOL    HW129225   5.092   3.671   1.521
 9442SOL    HW229226   4.981   3.635   1.407
 9443SOL     OW29227   2.310   4.953   0.614
 9443SOL    HW129228   2.321   5.010   0.533
 9443SOL    HW229229   2.241   4.883   0.597
 9444SOL     OW29230   1.696   3.586   0.799
 9444SOL    HW129231   1.762   3.625   0.864
 9444SOL    HW229232   1.684   3.489   0.817
 9445SOL     OW29233   5.990   3.323   2.725
 9445SOL    HW129234   6.013   3.404   2.670
 9445SOL    HW229235   6.067   3.301   2.785
 9446SOL     OW29236   6.413   5.323   4.894
 9446SOL    HW129237   6.507   5.315   4.929
 9446SOL    HW229238   6.410   5.396   4.826
 9447SOL     OW29239   5.795   4.922   3.700
 9447SOL    HW129240   5.854   4.903   3.622
 9447SOL    HW229241   5.710   4.869   3.691
 9448SOL     OW29242   6.874   0.067   5.865
 9448SOL    HW129243   6.904   0.150   5.818
 9448SOL    HW229244   6.798   0.089   5.926
 9449SOL     OW29245   5.469   6.909   0.279
 9449SOL    HW129246   5.406   6.848   0.233
 9449SOL    HW229247   5.466   6.999   0.236
 9450SOL     OW29248   2.380   5.932   3.489
 9450SOL    HW129249   2.396   5.850   3.544
 9450SOL    HW229250   2.337   5.905   3.403
 9451SOL     OW29251   4.347   6.420   5.738
 9451SOL    HW129252   4.329   6.514   5.769
 9451SOL    HW229253   4.289   6.357   5.789
 9452SOL     OW29254   1.854   3.812   6.904
 9452SOL    HW129255   1.826   3.717   6.891
 9452SOL    HW229256   1.912   3.818   6.986
 9453SOL     OW29257   2.794   5.310   3.146
 9453SOL    HW129258   2.806   5.324   3.048
 9453SOL    HW229259   2.806   5.396   3.195
 9454SOL     OW29260   3.534   3.617   6.421
 9454SOL    HW129261   3.623   3.590   6.385
 9454SOL    HW229262   3.513   3.562   6.502
 9455SOL     OW29263   2.465   2.116   3.754
 9455SOL    HW129264   2.475   2.039   3.690
 9455SOL    HW229265   2.402   2.090   3.827
 9456SOL     OW29266   0.072   3.281   0.440
 9456SOL    HW129267   7.021   3.278   0.508
 9456SOL    HW229268   0.091   3.377   0.416
 9457SOL     OW29269   1.425   4.212   4.117
 9457SOL    HW129270   1.453   4.179   4.208
 9457SOL    HW229271   1.328   4.234   4.118
 9458SOL     OW29272   0.838   3.546   6.244
 9458SOL    HW129273   0.833   3.601   6.160
 9458SOL    HW229274   0.791   3.594   6.318
 9459SOL     OW29275   4.990   4.752   3.320
 9459SOL    HW129276   4.995   4.811   3.400
 9459SOL    HW229277   5.050   4.788   3.248
 9460SOL     OW29278   1.828   3.999   4.123
 9460SOL    HW129279   1.743   4.012   4.072
 9460SOL    HW229280   1.826   4.056   4.206
 9461SOL     OW29281   0.251   1.986   1.872
 9461SOL    HW129282   0.198   2.044   1.811
 9461SOL    HW229283   0.344   2.020   1.879
 9462SOL     OW29284   1.659   3.273   3.648
 9462SOL    HW129285   1.646   3.366   3.683
 9462SOL    HW229286   1.738   3.231   3.693
 9463SOL     OW29287   6.146   0.216   1.487
 9463SOL    HW129288   6.068   0.200   1.548
 9463SOL    HW229289   6.226   0.167   1.521
 9464SOL     OW29290   5.822   0.285   1.054
 9464SOL    HW129291   5.880   0.366   1.039
 9464SOL    HW229292   5.853   0.237   1.136
 9465SOL     OW29293   0.233   4.227   1.719
 9465SOL    HW129294   0.186   4.220   1.808
 9465SOL    HW229295   0.279   4.140   1.699
 9466SOL     OW29296   3.224   4.781   5.357
 9466SOL    HW129297   3.323   4.772   5.346
 9466SOL    HW229298   3.194   4.870   5.321
 9467SOL     OW29299   1.606   2.235   1.139
 9467SOL    HW129300   1.606   2.182   1.053
 9467SOL    HW229301   1.540   2.310   1.132
 9468SOL     OW29302   5.470   3.900   6.488
 9468SOL    HW129303   5.569   3.911   6.499
 9468SOL    HW229304   5.428   3.990   6.477
 9469SOL     OW29305   0.156   4.936   1.909
 9469SOL    HW129306   0.128   4.846   1.876
 9469SOL    HW229307   0.086   5.003   1.887
 9470SOL     OW29308   4.909   3.083   6.732
 9470SOL    HW129309   4.996   3.102   6.777
 9470SOL    HW229310   4.870   2.999   6.771
 9471SOL     OW29311   6.351   2.492   4.179
 9471SOL    HW129312   6.261   2.451   4.162
 9471SOL    HW229313   6.378   2.545   4.099
 9472SOL     OW29314   6.248   2.712   4.993
 9472SOL    HW129315   6.263   2.777   4.918
 9472SOL    HW229316   6.308   2.735   5.070
 9473SOL     OW29317   3.018   5.111   0.632
 9473SOL    HW129318   2.948   5.108   0.704
 9473SOL    HW229319   3.083   5.184   0.653
 9474SOL     OW29320   0.477   3.714   0.341
 9474SOL    HW129321   0.569   3.712   0.303
 9474SOL    HW229322   0.413   3.674   0.275
 9475SOL     OW29323   3.710   3.026   0.529
 9475SOL    HW129324   3.682   3.069   0.615
 9475SOL    HW229325   3.691   3.088   0.453
 9476SOL     OW29326   4.037   3.874   4.261
 9476SOL    HW129327   4.021   3.968   4.232
 9476SOL    HW229328   4.047   3.815   4.181
 9477SOL     OW29329   0.602   2.850   0.157
 9477SOL    HW129330   0.634   2.775   0.215
 9477SOL    HW229331   0.584   2.930   0.214
 9478SOL     OW29332   5.118   3.332   1.112
 9478SOL    HW129333   5.029   3.289   1.125
 9478SOL    HW229334   5.107   3.423   1.073
 9479SOL     OW29335   4.196   6.647   0.267
 9479SOL    HW129336   4.240   6.681   0.350
 9479SOL    HW229337   4.101   6.625   0.286
 9480SOL     OW29338   5.354   4.745   0.337
 9480SOL    HW129339   5.382   4.710   0.426
 9480SOL    HW229340   5.257   4.770   0.340
 9481SOL     OW29341   4.901   3.296   2.418
 9481SOL    HW129342   4.991   3.272   2.383
 9481SOL    HW229343   4.837   3.305   2.342
 9482SOL     OW29344   0.227   1.091   2.709
 9482SOL    HW129345   0.307   1.120   2.656
 9482SOL    HW229346   0.225   0.992   2.715
 9483SOL     OW29347   1.705   0.238   1.023
 9483SOL    HW129348   1.635   0.308   1.037
 9483SOL    HW229349   1.666   0.147   1.040
 9484SOL     OW29350   4.172   0.085   4.397
 9484SOL    HW129351   4.198   7.012   4.404
 9484SOL    HW229352   4.169   0.112   4.300
 9485SOL     OW29353   0.382   0.782   0.947
 9485SOL    HW129354   0.441   0.809   1.023
 9485SOL    HW229355   0.389   0.851   0.874
 9486SOL     OW29356   3.893   6.314   0.825
 9486SOL    HW129357   3.931   6.235   0.777
 9486SOL    HW229358   3.919   6.309   0.922
 9487SOL     OW29359   3.287   3.780   3.964
 9487SOL    HW129360   3.284   3.727   4.048
 9487SOL    HW229361   3.215   3.747   3.902
 9488SOL     OW29362   2.735   0.354   1.346
 9488SOL    HW129363   2.706   0.426   1.283
 9488SOL    HW229364   2.835   0.347   1.345
 9489SOL     OW29365   4.776   4.339   1.330
 9489SOL    HW129366   4.810   4.336   1.424
 9489SOL    HW229367   4.696   4.279   1.321
 9490SOL     OW29368   5.783   5.437   2.475
 9490SOL    HW129369   5.733   5.350   2.475
 9490SOL    HW229370   5.856   5.434   2.544
 9491SOL     OW29371   5.268   4.659   4.093
 9491SOL    HW129372   5.261   4.569   4.135
 9491SOL    HW229373   5.193   4.717   4.126
 9492SOL     OW29374   3.791   3.377   4.668
 9492SOL    HW129375   3.816   3.315   4.742
 9492SOL    HW229376   3.748   3.325   4.593
 9493SOL     OW29377   2.692   6.057   4.293
 9493SOL    HW129378   2.668   6.051   4.390
 9493SOL    HW229379   2.735   5.972   4.264
 9494SOL     OW29380   5.400   2.838   2.665
 9494SOL    HW129381   5.484   2.862   2.714
 9494SOL    HW229382   5.394   2.738   2.656
 9495SOL     OW29383   6.865   2.011   3.231
 9495SOL    HW129384   6.918   2.086   3.270
 9495SOL    HW229385   6.830   2.038   3.141
 9496SOL     OW29386   6.319   3.588   1.551
 9496SOL    HW129387   6.382   3.666   1.553
 9496SOL    HW229388   6.317   3.544   1.641
 9497SOL     OW29389   5.602   0.170   5.665
 9497SOL    HW129390   5.503   0.181   5.668
 9497SOL    HW229391   5.645   0.230   5.732
 9498SOL     OW29392   5.754   6.001   4.263
 9498SOL    HW129393   5.801   6.044   4.340
 9498SOL    HW229394   5.721   6.071   4.200
 9499SOL     OW29395   2.226   4.864   6.086
 9499SOL    HW129396   2.136   4.823   6.102
 9499SOL    HW229397   2.237   4.943   6.147
 9500SOL     OW29398   4.631   0.341   0.647
 9500SOL    HW129399   4.728   0.317   0.651
 9500SOL    HW229400   4.576   0.258   0.645
 9501SOL     OW29401   2.697   0.946   5.447
 9501SOL    HW129402   2.682   0.929   5.544
 9501SOL    HW229403   2.734   1.038   5.435
 9502SOL     OW29404   5.738   2.446   5.273
 9502SOL    HW129405   5.819   2.435   5.331
 9502SOL    HW229406   5.753   2.521   5.209
 9503SOL     OW29407   0.649   1.362   0.681
 9503SOL    HW129408   0.617   1.443   0.731
 9503SOL    HW229409   0.640   1.377   0.583
 9504SOL     OW29410   6.659   3.274   0.241
 9504SOL    HW129411   6.655   3.182   0.202
 9504SOL    HW229412   6.754   3.303   0.251
 9505SOL     OW29413   5.303   4.378   4.439
 9505SOL    HW129414   5.266   4.316   4.509
 9505SOL    HW229415   5.252   4.464   4.441
 9506SOL     OW29416   1.676   2.430   6.675
 9506SOL    HW129417   1.762   2.432   6.726
 9506SOL    HW229418   1.602   2.400   6.735
 9507SOL     OW29419   0.269   0.910   2.345
 9507SOL    HW129420   0.359   0.871   2.329
 9507SOL    HW229421   0.212   0.897   2.264
 9508SOL     OW29422   6.275   1.905   1.789
 9508SOL    HW129423   6.359   1.926   1.739
 9508SOL    HW229424   6.294   1.839   1.861
 9509SOL     OW29425   0.362   1.055   4.112
 9509SOL    HW129426   0.368   1.116   4.033
 9509SOL    HW229427   0.432   0.984   4.105
 9510SOL     OW29428   1.834   3.902   3.530
 9510SOL    HW129429   1.745   3.885   3.571
 9510SOL    HW229430   1.899   3.831   3.560
 9511SOL     OW29431   1.840   0.101   1.274
 9511SOL    HW129432   1.789   0.187   1.279
 9511SOL    HW229433   1.808   0.048   1.195
 9512SOL     OW29434   6.454   1.938   1.446
 9512SOL    HW129435   6.459   1.957   1.348
 9512SOL    HW229436   6.365   1.899   1.468
 9513SOL     OW29437   2.146   3.809   5.965
 9513SOL    HW129438   2.186   3.837   6.053
 9513SOL    HW229439   2.120   3.712   5.970
 9514SOL     OW29440   2.253   5.468   5.961
 9514SOL    HW129441   2.319   5.473   5.886
 9514SOL    HW229442   2.263   5.381   6.009
 9515SOL     OW29443   1.357   5.676   1.190
 9515SOL    HW129444   1.336   5.592   1.240
 9515SOL    HW229445   1.272   5.725   1.170
 9516SOL     OW29446   6.168   5.096   6.510
 9516SOL    HW129447   6.126   5.041   6.438
 9516SOL    HW229448   6.152   5.193   6.491
 9517SOL     OW29449   1.217   4.115   1.163
 9517SOL    HW129450   1.308   4.073   1.150
 9517SOL    HW229451   1.224   4.190   1.228
 9518SOL     OW29452   2.304   1.770   0.517
 9518SOL    HW129453   2.276   1.717   0.598
 9518SOL    HW229454   2.222   1.803   0.469
 9519SOL     OW29455   3.232   3.329   4.947
 9519SOL    HW129456   3.223   3.405   5.011
 9519SOL    HW229457   3.150   3.326   4.889
 9520SOL     OW29458   1.770   2.144   3.001
 9520SOL    HW129459   1.816   2.155   3.089
 9520SOL    HW229460   1.703   2.070   3.007
 9521SOL     OW29461   5.132   5.789   1.957
 9521SOL    HW129462   5.103   5.708   1.907
 9521SOL    HW229463   5.054   5.850   1.970
 9522SOL     OW29464   2.303   5.498   1.151
 9522SOL    HW129465   2.240   5.501   1.073
 9522SOL    HW229466   2.255   5.463   1.232
 9523SOL     OW29467   3.043   5.356   4.960
 9523SOL    HW129468   2.990   5.307   5.029
 9523SOL    HW229469   3.099   5.426   5.004
 9524SOL     OW29470   3.682   2.852   1.574
 9524SOL    HW129471   3.740   2.803   1.509
 9524SOL    HW229472   3.599   2.800   1.591
 9525SOL     OW29473   2.157   3.037   5.789
 9525SOL    HW129474   2.149   3.086   5.876
 9525SOL    HW229475   2.066   3.010   5.758
 9526SOL     OW29476   5.242   5.394   1.928
 9526SOL    HW129477   5.149   5.383   1.893
 9526SOL    HW229478   5.289   5.464   1.875
 9527SOL     OW29479   0.857   0.442   3.332
 9527SOL    HW129480   0.930   0.508   3.316
 9527SOL    HW229481   0.884   0.379   3.406
 9528SOL     OW29482   0.414   1.285   6.855
 9528SOL    HW129483   0.487   1.218   6.841
 9528SOL    HW229484   0.373   1.272   6.945
 9529SOL     OW29485   6.350   2.955   5.285
 9529SOL    HW129486   6.348   3.039   5.231
 9529SOL    HW229487   6.444   2.938   5.317
 9530SOL     OW29488   1.762   3.676   2.388
 9530SOL    HW129489   1.738   3.635   2.476
 9530SOL    HW229490   1.854   3.716   2.394
 9531SOL     OW29491   4.911   5.705   3.094
 9531SOL    HW129492   4.892   5.660   3.181
 9531SOL    HW229493   4.853   5.665   3.023
 9532SOL     OW29494   0.394   0.082   2.169
 9532SOL    HW129495   0.299   0.113   2.169
 9532SOL    HW229496   0.401   7.017   2.217
 9533SOL     OW29497   6.643   6.994   5.301
 9533SOL    HW129498   6.609   0.022   5.222
 9533SOL    HW229499   6.627   6.896   5.288
 9534SOL     OW29500   6.489   3.198   5.427
 9534SOL    HW129501   6.466   3.287   5.467
 9534SOL    HW229502   6.562   3.210   5.360
 9535SOL     OW29503   2.559   1.647   5.662
 9535SOL    HW129504   2.640   1.604   5.623
 9535SOL    HW229505   2.574   1.745   5.670
 9536SOL     OW29506   2.964   4.641   5.413
 9536SOL    HW129507   3.058   4.675   5.413
 9536SOL    HW229508   2.942   4.606   5.322
 9537SOL     OW29509   2.544   6.676   3.091
 9537SOL    HW129510   2.589   6.660   3.179
 9537SOL    HW229511   2.580   6.612   3.024
 9538SOL     OW29512   6.749   2.331   3.980
 9538SOL    HW129513   6.781   2.257   3.922
 9538SOL    HW229514   6.654   2.315   4.006
 9539SOL     OW29515   1.719   3.805   4.937
 9539SOL    HW129516   1.630   3.770   4.908
 9539SOL    HW229517   1.789   3.735   4.921
 9540SOL     OW29518   5.439   4.013   4.247
 9540SOL    HW129519   5.472   3.964   4.166
 9540SOL    HW229520   5.354   3.970   4.279
 9541SOL     OW29521   3.136   1.932   5.815
 9541SOL    HW129522   3.056   1.890   5.773
 9541SOL    HW229523   3.206   1.947   5.745
 9542SOL     OW29524   5.193   3.914   4.268
 9542SOL    HW129525   5.183   3.834   4.209
 9542SOL    HW229526   5.137   3.902   4.350
 9543SOL     OW29527   3.397   0.960   4.628
 9543SOL    HW129528   3.420   1.012   4.710
 9543SOL    HW229529   3.400   1.020   4.548
 9544SOL     OW29530   0.423   1.410   2.859
 9544SOL    HW129531   0.411   1.332   2.799
 9544SOL    HW229532   0.335   1.437   2.897
 9545SOL     OW29533   6.612   5.101   3.598
 9545SOL    HW129534   6.665   5.023   3.630
 9545SOL    HW229535   6.514   5.079   3.601
 9546SOL     OW29536   3.038   2.672   6.201
 9546SOL    HW129537   2.951   2.628   6.179
 9546SOL    HW229538   3.066   2.646   6.293
 9547SOL     OW29539   2.202   6.396   3.981
 9547SOL    HW129540   2.262   6.366   4.054
 9547SOL    HW229541   2.255   6.445   3.911
 9548SOL     OW29542   5.983   6.018   5.332
 9548SOL    HW129543   5.974   6.046   5.237
 9548SOL    HW229544   6.079   6.026   5.360
 9549SOL     OW29545   2.837   3.604   1.311
 9549SOL    HW129546   2.787   3.543   1.372
 9549SOL    HW229547   2.786   3.613   1.225
 9550SOL     OW29548   0.234   1.311   0.059
 9550SOL    HW129549   0.136   1.325   0.074
 9550SOL    HW229550   0.255   1.214   0.068
 9551SOL     OW29551   6.241   0.869   4.006
 9551SOL    HW129552   6.310   0.797   4.002
 9551SOL    HW229553   6.284   0.954   4.037
 9552SOL     OW29554   1.011   6.297   2.516
 9552SOL    HW129555   1.091   6.238   2.503
 9552SOL    HW229556   0.961   6.268   2.598
 9553SOL     OW29557   6.303   4.207   0.027
 9553SOL    HW129558   6.233   4.137   0.042
 9553SOL    HW229559   6.271   4.295   0.063
 9554SOL     OW29560   2.602   0.552   1.657
 9554SOL    HW129561   2.619   0.457   1.632
 9554SOL    HW229562   2.510   0.560   1.697
 9555SOL     OW29563   0.938   0.955   1.722
 9555SOL    HW129564   0.843   0.925   1.712
 9555SOL    HW229565   0.957   0.972   1.819
 9556SOL     OW29566   2.753   2.498   1.366
 9556SOL    HW129567   2.756   2.473   1.270
 9556SOL    HW229568   2.820   2.570   1.384
 9557SOL     OW29569   6.552   0.840   2.930
 9557SOL    HW129570   6.572   0.742   2.925
 9557SOL    HW229571   6.483   0.857   3.000
 9558SOL     OW29572   6.464   5.774   4.752
 9558SOL    HW129573   6.506   5.816   4.672
 9558SOL    HW229574   6.530   5.772   4.827
 9559SOL     OW29575   0.133   3.831   1.554
 9559SOL    HW129576   0.119   3.733   1.566
 9559SOL    HW229577   0.135   3.852   1.456
 9560SOL     OW29578   1.461   1.377   2.636
 9560SOL    HW129579   1.485   1.344   2.727
 9560SOL    HW229580   1.406   1.307   2.589
 9561SOL     OW29581   1.577   6.449   0.482
 9561SOL    HW129582   1.567   6.545   0.454
 9561SOL    HW229583   1.579   6.391   0.401
 9562SOL     OW29584   3.178   6.767   5.009
 9562SOL    HW129585   3.108   6.706   5.048
 9562SOL    HW229586   3.267   6.747   5.051
 9563SOL     OW29587   6.179   6.600   0.093
 9563SOL    HW129588   6.223   6.667   0.033
 9563SOL    HW229589   6.137   6.528   0.038
 9564SOL     OW29590   2.828   0.160   6.722
 9564SOL    HW129591   2.862   0.173   6.816
 9564SOL    HW229592   2.829   0.248   6.674
 9565SOL     OW29593   3.774   6.184   5.219
 9565SOL    HW129594   3.701   6.121   5.245
 9565SOL    HW229595   3.759   6.273   5.262
 9566SOL     OW29596   3.371   5.024   6.873
 9566SOL    HW129597   3.381   4.926   6.854
 9566SOL    HW229598   3.317   5.035   6.957
 9567SOL     OW29599   6.651   4.901   6.303
 9567SOL    HW129600   6.610   4.947   6.381
 9567SOL    HW229601   6.704   4.822   6.334
 9568SOL     OW29602   5.124   2.841   0.085
 9568SOL    HW129603   5.188   2.896   0.030
 9568SOL    HW229604   5.085   2.769   0.027
 9569SOL     OW29605   6.887   0.718   2.734
 9569SOL    HW129606   6.927   0.791   2.788
 9569SOL    HW229607   6.803   0.751   2.690
 9570SOL     OW29608   0.986   1.910   1.937
 9570SOL    HW129609   1.066   1.968   1.920
 9570SOL    HW229610   0.906   1.949   1.892
 9571SOL     OW29611   2.787   4.084   6.971
 9571SOL    HW129612   2.872   4.038   6.943
 9571SOL    HW229613   2.753   4.042   0.033
 9572SOL     OW29614   1.430   5.239   1.258
 9572SOL    HW129615   1.492   5.250   1.181
 9572SOL    HW229616   1.391   5.146   1.256
 9573SOL     OW29617   0.417   1.387   6.157
 9573SOL    HW129618   0.378   1.457   6.218
 9573SOL    HW229619   0.491   1.428   6.103
 9574SOL     OW29620   3.827   3.012   4.375
 9574SOL    HW129621   3.772   2.934   4.345
 9574SOL    HW229622   3.833   3.012   4.475
 9575SOL     OW29623   5.600   0.440   1.052
 9575SOL    HW129624   5.640   0.512   0.995
 9575SOL    HW229625   5.661   0.361   1.055
 9576SOL     OW29626   3.154   0.563   2.566
 9576SOL    HW129627   3.096   0.534   2.642
 9576SOL    HW229628   3.191   0.654   2.584
 9577SOL     OW29629   1.005   0.976   3.597
 9577SOL    HW129630   1.089   1.027   3.614
 9577SOL    HW229631   0.929   1.040   3.588
 9578SOL     OW29632   6.934   3.785   3.588
 9578SOL    HW129633   0.010   3.800   3.599
 9578SOL    HW229634   6.887   3.817   3.671
 9579SOL     OW29635   1.385   5.221   3.279
 9579SOL    HW129636   1.428   5.274   3.353
 9579SOL    HW229637   1.287   5.240   3.277
 9580SOL     OW29638   4.725   2.993   1.009
 9580SOL    HW129639   4.658   2.958   1.074
 9580SOL    HW229640   4.681   3.009   0.921
 9581SOL     OW29641   1.270   5.260   6.785
 9581SOL    HW129642   1.332   5.338   6.776
 9581SOL    HW229643   1.181   5.292   6.817
 9582SOL     OW29644   4.341   4.740   4.723
 9582SOL    HW129645   4.347   4.671   4.795
 9582SOL    HW229646   4.429   4.789   4.716
 9583SOL     OW29647   2.643   3.336   1.080
 9583SOL    HW129648   2.602   3.419   1.118
 9583SOL    HW229649   2.683   3.282   1.154
 9584SOL     OW29650   6.300   6.389   6.788
 9584SOL    HW129651   6.209   6.397   6.828
 9584SOL    HW229652   6.312   6.459   6.718
 9585SOL     OW29653   6.624   1.218   2.977
 9585SOL    HW129654   6.686   1.294   2.994
 9585SOL    HW229655   6.631   1.152   3.052
 9586SOL     OW29656   6.310   4.094   1.912
 9586SOL    HW129657   6.391   4.150   1.931
 9586SOL    HW229658   6.229   4.140   1.948
 9587SOL     OW29659   6.091   0.465   2.419
 9587SOL    HW129660   6.149   0.547   2.423
 9587SOL    HW229661   6.130   0.393   2.477
 9588SOL     OW29662   0.593   1.803   2.112
 9588SOL    HW129663   0.557   1.862   2.184
 9588SOL    HW229664   0.691   1.821   2.100
 9589SOL     OW29665   3.222   5.711   6.260
 9589SOL    HW129666   3.207   5.809   6.273
 9589SOL    HW229667   3.302   5.697   6.202
 9590SOL     OW29668   6.909   5.066   2.551
 9590SOL    HW129669   6.898   5.052   2.453
 9590SOL    HW229670   6.980   5.004   2.585
 9591SOL     OW29671   2.958   5.815   6.968
 9591SOL    HW129672   2.934   5.725   7.003
 9591SOL    HW229673   2.887   5.881   6.993
 9592SOL     OW29674   3.740   4.911   1.826
 9592SOL    HW129675   3.686   4.831   1.852
 9592SOL    HW229676   3.681   4.991   1.818
 9593SOL     OW29677   5.593   1.122   4.652
 9593SOL    HW129678   5.556   1.029   4.652
 9593SOL    HW229679   5.518   1.187   4.667
 9594SOL     OW29680   0.172   5.864   3.532
 9594SOL    HW129681   0.145   5.876   3.628
 9594SOL    HW229682   0.231   5.783   3.524
 9595SOL     OW29683   1.866   4.450   4.330
 9595SOL    HW129684   1.837   4.515   4.259
 9595SOL    HW229685   1.965   4.451   4.338
 9596SOL     OW29686   6.958   5.824   0.305
 9596SOL    HW129687   6.931   5.918   0.322
 9596SOL    HW229688   0.032   5.812   0.327
 9597SOL     OW29689   6.651   4.280   1.085
 9597SOL    HW129690   6.658   4.184   1.056
 9597SOL    HW229691   6.725   4.332   1.043
 9598SOL     OW29692   0.387   3.568   5.180
 9598SOL    HW129693   0.459   3.498   5.173
 9598SOL    HW229694   0.378   3.597   5.275
 9599SOL     OW29695   3.221   0.748   4.704
 9599SOL    HW129696   3.293   0.808   4.670
 9599SOL    HW229697   3.133   0.777   4.665
 9600SOL     OW29698   2.223   6.923   5.745
 9600SOL    HW129699   2.211   6.834   5.701
 9600SOL    HW229700   2.135   6.969   5.755
 9601SOL     OW29701   6.474   4.030   6.429
 9601SOL    HW129702   6.423   4.109   6.394
 9601SOL    HW229703   6.520   4.055   6.514
 9602SOL     OW29704   6.797   4.684   6.365
 9602SOL    HW129705   6.793   4.652   6.270
 9602SOL    HW229706   6.890   4.714   6.386
 9603SOL     OW29707   2.414   0.034   4.281
 9603SOL    HW129708   2.346   0.107   4.288
 9603SOL    HW229709   2.435   0.017   4.185
 9604SOL     OW29710   4.911   0.267   0.739
 9604SOL    HW129711   4.967   0.185   0.730
 9604SOL    HW229712   4.964   0.347   0.710
 9605SOL     OW29713   0.280   4.469   5.854
 9605SOL    HW129714   0.372   4.466   5.893
 9605SOL    HW229715   0.284   4.448   5.757
 9606SOL     OW29716   0.891   6.641   5.021
 9606SOL    HW129717   0.795   6.663   5.041
 9606SOL    HW229718   0.950   6.716   5.049
 9607SOL     OW29719   1.438   2.088   2.000
 9607SOL    HW129720   1.429   2.025   2.077
 9607SOL    HW229721   1.348   2.101   1.957
 9608SOL     OW29722   0.406   6.812   2.779
 9608SOL    HW129723   0.394   6.713   2.783
 9608SOL    HW229724   0.320   6.855   2.751
 9609SOL     OW29725   1.341   4.051   5.087
 9609SOL    HW129726   1.297   4.116   5.025
 9609SOL    HW229727   1.304   3.960   5.072
 9610SOL     OW29728   1.521   3.844   5.394
 9610SOL    HW129729   1.543   3.882   5.304
 9610SOL    HW229730   1.604   3.804   5.434
 9611SOL     OW29731   0.536   6.680   0.965
 9611SOL    HW129732   0.569   6.646   1.054
 9611SOL    HW229733   0.450   6.730   0.978
 9612SOL     OW29734   6.279   3.032   1.144
 9612SOL    HW129735   6.259   2.939   1.114
 9612SOL    HW229736   6.203   3.067   1.199
 9613SOL     OW29737   4.834   5.791   3.874
 9613SOL    HW129738   4.867   5.790   3.969
 9613SOL    HW229739   4.900   5.838   3.816
 9614SOL     OW29740   3.787   3.586   1.523
 9614SOL    HW129741   3.722   3.564   1.450
 9614SOL    HW229742   3.841   3.666   1.496
 9615SOL     OW29743   1.504   6.326   2.444
 9615SOL    HW129744   1.570   6.341   2.517
 9615SOL    HW229745   1.510   6.231   2.413
 9616SOL     OW29746   4.151   3.687   0.651
 9616SOL    HW129747   4.221   3.618   0.672
 9616SOL    HW229748   4.170   3.726   0.560
 9617SOL     OW29749   1.019   4.235   4.374
 9617SOL    HW129750   0.956   4.219   4.298
 9617SOL    HW229751   0.984   4.192   4.457
 9618SOL     OW29752   3.312   0.102   6.475
 9618SOL    HW129753   3.213   0.094   6.491
 9618SOL    HW229754   3.361   0.070   6.556
 9619SOL     OW29755   1.069   7.001   0.668
 9619SOL    HW129756   1.117   0.011   0.586
 9619SOL    HW229757   1.120   6.926   0.709
 9620SOL     OW29758   5.038   1.743   6.740
 9620SOL    HW129759   5.118   1.688   6.718
 9620SOL    HW229760   4.987   1.764   6.656
 9621SOL     OW29761   1.292   1.014   2.302
 9621SOL    HW129762   1.334   0.937   2.350
 9621SOL    HW229763   1.363   1.067   2.255
 9622SOL     OW29764   6.190   1.491   6.902
 9622SOL    HW129765   6.097   1.460   6.923
 9622SOL    HW229766   6.255   1.443   6.961
 9623SOL     OW29767   4.445   5.216   6.173
 9623SOL    HW129768   4.499   5.241   6.253
 9623SOL    HW229769   4.468   5.278   6.097
 9624SOL     OW29770   5.525   4.184   5.027
 9624SOL    HW129771   5.568   4.125   4.958
 9624SOL    HW229772   5.443   4.226   4.987
 9625SOL     OW29773   4.871   4.440   0.100
 9625SOL    HW129774   4.818   4.357   0.117
 9625SOL    HW229775   4.810   4.515   0.075
 9626SOL     OW29776   2.552   5.679   5.008
 9626SOL    HW129777   2.605   5.631   5.078
 9626SOL    HW229778   2.576   5.776   5.009
 9627SOL     OW29779   0.395   4.341   4.749
 9627SOL    HW129780   0.428   4.413   4.811
 9627SOL    HW229781   0.448   4.258   4.763
 9628SOL     OW29782   5.762   3.555   0.934
 9628SOL    HW129783   5.821   3.534   1.011
 9628SOL    HW229784   5.817   3.593   0.859
 9629SOL     OW29785   6.805   6.025   3.086
 9629SOL    HW129786   6.778   6.097   3.022
 9629SOL    HW229787   6.727   5.966   3.105
 9630SOL     OW29788   6.660   6.307   5.629
 9630SOL    HW129789   6.572   6.322   5.583
 9630SOL    HW229790   6.649   6.314   5.728
 9631SOL     OW29791   4.548   1.713   0.951
 9631SOL    HW129792   4.498   1.672   1.027
 9631SOL    HW229793   4.573   1.642   0.885
 9632SOL     OW29794   2.092   5.357   2.180
 9632SOL    HW129795   2.069   5.273   2.228
 9632SOL    HW229796   2.181   5.390   2.211
 9633SOL     OW29797   3.814   3.995   0.257
 9633SOL    HW129798   3.787   3.942   0.337
 9633SOL    HW229799   3.863   3.935   0.193
 9634SOL     OW29800   6.252   5.555   3.445
 9634SOL    HW129801   6.304   5.583   3.365
 9634SOL    HW229802   6.155   5.547   3.420
 9635SOL     OW29803   1.118   4.567   5.605
 9635SOL    HW129804   1.052   4.641   5.617
 9635SOL    HW229805   1.107   4.526   5.515
 9636SOL     OW29806   3.924   1.640   6.301
 9636SOL    HW129807   3.984   1.631   6.222
 9636SOL    HW229808   3.920   1.552   6.349
 9637SOL     OW29809   3.749   3.299   1.329
 9637SOL    HW129810   3.759   3.261   1.421
 9637SOL    HW229811   3.768   3.228   1.261
 9638SOL     OW29812   6.892   3.230   6.082
 9638SOL    HW129813   6.832   3.151   6.069
 9638SOL    HW229814   6.951   3.240   6.003
 9639SOL     OW29815   4.241   2.337   1.867
 9639SOL    HW129816   4.313   2.406   1.862
 9639SOL    HW229817   4.172   2.355   1.796
 9640SOL     OW29818   3.260   0.476   1.910
 9640SOL    HW129819   3.255   0.444   2.004
 9640SOL    HW229820   3.177   0.528   1.888
 9641SOL     OW29821   5.759   6.268   1.990
 9641SOL    HW129822   5.687   6.325   2.028
 9641SOL    HW229823   5.773   6.188   2.049
 9642SOL     OW29824   1.558   6.591   3.933
 9642SOL    HW129825   1.580   6.498   3.906
 9642SOL    HW229826   1.475   6.621   3.886
 9643SOL     OW29827   5.388   3.840   3.642
 9643SOL    HW129828   5.417   3.803   3.554
 9643SOL    HW229829   5.379   3.765   3.708
 9644SOL     OW29830   1.590   5.642   5.479
 9644SOL    HW129831   1.664   5.620   5.415
 9644SOL    HW229832   1.573   5.564   5.538
 9645SOL     OW29833   2.432   4.672   4.822
 9645SOL    HW129834   2.436   4.579   4.858
 9645SOL    HW229835   2.339   4.707   4.832
 9646SOL     OW29836   2.870   5.707   2.355
 9646SOL    HW129837   2.789   5.766   2.355
 9646SOL    HW229838   2.872   5.653   2.439
 9647SOL     OW29839   0.097   7.006   3.437
 9647SOL    HW129840   0.072   0.023   3.348
 9647SOL    HW229841   0.058   6.915   3.445
 9648SOL     OW29842   4.411   2.713   0.898
 9648SOL    HW129843   4.372   2.804   0.913
 9648SOL    HW229844   4.343   2.654   0.853
 9649SOL     OW29845   2.335   4.254   6.855
 9649SOL    HW129846   2.389   4.197   6.918
 9649SOL    HW229847   2.319   4.343   6.897
 9650SOL     OW29848   4.624   4.281   2.936
 9650SOL    HW129849   4.639   4.192   2.980
 9650SOL    HW229850   4.707   4.310   2.890
 9651SOL     OW29851   4.305   1.406   1.163
 9651SOL    HW129852   4.282   1.329   1.103
 9651SOL    HW229853   4.389   1.384   1.213
 9652SOL     OW29854   0.951   4.667   1.448
 9652SOL    HW129855   0.881   4.696   1.383
 9652SOL    HW229856   1.035   4.645   1.398
 9653SOL     OW29857   4.770   4.568   5.345
 9653SOL    HW129858   4.684   4.536   5.306
 9653SOL    HW229859   4.828   4.489   5.366
 9654SOL     OW29860   3.131   3.589   3.103
 9654SOL    HW129861   3.095   3.606   3.195
 9654SOL    HW229862   3.057   3.596   3.036
 9655SOL     OW29863   0.464   1.757   0.184
 9655SOL    HW129864   0.441   1.827   0.116
 9655SOL    HW229865   0.425   1.669   0.155
 9656SOL     OW29866   4.596   2.653   1.082
 9656SOL    HW129867   4.544   2.682   1.002
 9656SOL    HW229868   4.684   2.616   1.053
 9657SOL     OW29869   5.994   4.340   2.447
 9657SOL    HW129870   6.045   4.406   2.503
 9657SOL    HW229871   5.907   4.381   2.419
 9658SOL     OW29872   5.539   1.947   2.118
 9658SOL    HW129873   5.598   2.028   2.127
 9658SOL    HW229874   5.583   1.869   2.161
 9659SOL     OW29875   0.974   2.397   0.257
 9659SOL    HW129876   1.004   2.492   0.245
 9659SOL    HW229877   0.902   2.394   0.326
 9660SOL     OW29878   0.799   7.019   2.416
 9660SOL    HW129879   0.709   6.981   2.393
 9660SOL    HW229880   0.793   0.045   2.503
 9661SOL     OW29881   3.989   6.026   1.160
 9661SOL    HW129882   3.919   6.040   1.230
 9661SOL    HW229883   4.053   5.956   1.190
 9662SOL     OW29884   5.194   3.802   0.025
 9662SOL    HW129885   5.147   3.890   0.017
 9662SOL    HW229886   5.169   3.744   6.970
 9663SOL     OW29887   0.199   5.827   2.787
 9663SOL    HW129888   0.117   5.784   2.826
 9663SOL    HW229889   0.258   5.859   2.861
 9664SOL     OW29890   5.532   4.687   4.121
 9664SOL    HW129891   5.432   4.680   4.114
 9664SOL    HW229892   5.558   4.784   4.128
 9665SOL     OW29893   6.000   6.339   5.942
 9665SOL    HW129894   5.999   6.359   6.040
 9665SOL    HW229895   6.092   6.312   5.914
 9666SOL     OW29896   6.378   3.607   2.291
 9666SOL    HW129897   6.321   3.554   2.354
 9666SOL    HW229898   6.320   3.654   2.225
 9667SOL     OW29899   3.745   3.498   0.339
 9667SOL    HW129900   3.650   3.520   0.362
 9667SOL    HW229901   3.751   3.471   0.243
 9668SOL     OW29902   1.036   0.670   6.488
 9668SOL    HW129903   1.079   0.674   6.398
 9668SOL    HW229904   0.996   0.580   6.502
 9669SOL     OW29905   1.819   6.790   2.010
 9669SOL    HW129906   1.874   6.872   2.022
 9669SOL    HW229907   1.839   6.725   2.083
 9670SOL     OW29908   0.208   5.310   5.557
 9670SOL    HW129909   0.199   5.296   5.656
 9670SOL    HW229910   0.287   5.367   5.538
 9671SOL     OW29911   6.873   3.964   0.294
 9671SOL    HW129912   6.845   3.873   0.265
 9671SOL    HW229913   6.973   3.969   0.298
 9672SOL     OW29914   2.153   4.802   3.676
 9672SOL    HW129915   2.144   4.832   3.771
 9672SOL    HW229916   2.246   4.771   3.660
 9673SOL     OW29917   3.484   3.452   0.899
 9673SOL    HW129918   3.543   3.437   0.979
 9673SOL    HW229919   3.399   3.402   0.911
 9674SOL     OW29920   4.277   6.431   3.363
 9674SOL    HW129921   4.299   6.468   3.272
 9674SOL    HW229922   4.316   6.340   3.372
 9675SOL     OW29923   4.835   2.389   6.890
 9675SOL    HW129924   4.750   2.381   6.838
 9675SOL    HW229925   4.866   2.298   6.918
 9676SOL     OW29926   1.467   3.318   6.228
 9676SOL    HW129927   1.500   3.248   6.292
 9676SOL    HW229928   1.544   3.353   6.174
 9677SOL     OW29929   6.643   5.059   4.999
 9677SOL    HW129930   6.730   5.015   5.021
 9677SOL    HW229931   6.567   5.007   5.039
 9678SOL     OW29932   2.871   3.428   4.234
 9678SOL    HW129933   2.799   3.408   4.167
 9678SOL    HW229934   2.829   3.440   4.324
 9679SOL     OW29935   2.365   0.053   3.788
 9679SOL    HW129936   2.282   0.037   3.841
 9679SOL    HW229937   2.352   0.015   3.696
 9680SOL     OW29938   4.630   0.243   4.462
 9680SOL    HW129939   4.721   0.266   4.497
 9680SOL    HW229940   4.638   0.169   4.396
 9681SOL     OW29941   2.976   2.370   0.750
 9681SOL    HW129942   3.032   2.439   0.796
 9681SOL    HW229943   2.881   2.378   0.781
 9682SOL     OW29944   4.768   4.158   3.660
 9682SOL    HW129945   4.768   4.073   3.607
 9682SOL    HW229946   4.708   4.225   3.616
 9683SOL     OW29947   3.024   6.575   1.423
 9683SOL    HW129948   3.057   6.568   1.329
 9683SOL    HW229949   2.979   6.489   1.449
 9684SOL     OW29950   0.681   3.571   5.371
 9684SOL    HW129951   0.641   3.514   5.299
 9684SOL    HW229952   0.769   3.606   5.340
 9685SOL     OW29953   4.922   4.085   0.976
 9685SOL    HW129954   4.906   4.179   1.005
 9685SOL    HW229955   4.952   4.083   0.881
 9686SOL     OW29956   0.538   3.174   6.164
 9686SOL    HW129957   0.537   3.257   6.219
 9686SOL    HW229958   0.489   3.101   6.212
 9687SOL     OW29959   0.376   1.207   3.395
 9687SOL    HW129960   0.293   1.255   3.425
 9687SOL    HW229961   0.431   1.183   3.475
 9688SOL     OW29962   1.091   2.636   0.809
 9688SOL    HW129963   1.141   2.660   0.726
 9688SOL    HW229964   1.003   2.683   0.810
 9689SOL     OW29965   1.372   4.672   6.932
 9689SOL    HW129966   1.378   4.578   6.900
 9689SOL    HW229967   1.376   4.673   0.010
 9690SOL     OW29968   6.020   6.341   6.224
 9690SOL    HW129969   5.978   6.338   6.315
 9690SOL    HW229970   6.116   6.313   6.231
 9691SOL     OW29971   2.590   4.157   1.597
 9691SOL    HW129972   2.666   4.106   1.558
 9691SOL    HW229973   2.626   4.232   1.653
 9692SOL     OW29974   4.223   5.852   1.232
 9692SOL    HW129975   4.218   5.778   1.164
 9692SOL    HW229976   4.267   5.817   1.315
 9693SOL     OW29977   6.121   4.273   2.730
 9693SOL    HW129978   6.079   4.209   2.665
 9693SOL    HW229979   6.050   4.333   2.766
 9694SOL     OW29980   3.123   1.465   1.588
 9694SOL    HW129981   3.206   1.417   1.559
 9694SOL    HW229982   3.068   1.405   1.646
 9695SOL     OW29983   6.727   2.828   3.213
 9695SOL    HW129984   6.732   2.861   3.308
 9695SOL    HW229985   6.819   2.821   3.175
 9696SOL     OW29986   5.373   2.658   1.330
 9696SOL    HW129987   5.380   2.563   1.301
 9696SOL    HW229988   5.332   2.662   1.422
 9697SOL     OW29989   0.484   5.505   0.287
 9697SOL    HW129990   0.478   5.513   0.387
 9697SOL    HW229991   0.422   5.434   0.255
 9698SOL     OW29992   5.344   2.431   6.272
 9698SOL    HW129993   5.368   2.354   6.331
 9698SOL    HW229994   5.330   2.399   6.179
 9699SOL     OW29995   0.003   5.787   6.977
 9699SOL    HW129996   0.023   5.691   6.998
 9699SOL    HW229997   0.032   5.808   6.884
 9700SOL     OW29998   6.173   5.215   4.908
 9700SOL    HW129999   6.125   5.170   4.832
 9700SOL    HW230000   6.260   5.252   4.876
 9701SOL     OW30001   4.869   4.484   5.777
 9701SOL    HW130002   4.895   4.390   5.797
 9701SOL    HW230003   4.870   4.499   5.678
 9702SOL     OW30004   3.497   2.528   0.146
 9702SOL    HW130005   3.414   2.584   0.145
 9702SOL    HW230006   3.577   2.588   0.139
 9703SOL     OW30007   5.034   3.487   3.458
 9703SOL    HW130008   4.968   3.413   3.445
 9703SOL    HW230009   5.127   3.451   3.451
 9704SOL     OW30010   2.888   6.353   1.531
 9704SOL    HW130011   2.929   6.264   1.515
 9704SOL    HW230012   2.788   6.345   1.526
 9705SOL     OW30013   5.511   4.164   6.141
 9705SOL    HW130014   5.558   4.191   6.225
 9705SOL    HW230015   5.549   4.077   6.109
 9706SOL     OW30016   2.514   2.318   0.926
 9706SOL    HW130017   2.524   2.243   0.862
 9706SOL    HW230018   2.596   2.376   0.922
 9707SOL     OW30019   6.477   4.542   2.397
 9707SOL    HW130020   6.409   4.600   2.352
 9707SOL    HW230021   6.562   4.594   2.409
 9708SOL     OW30022   0.372   1.476   3.541
 9708SOL    HW130023   0.410   1.561   3.504
 9708SOL    HW230024   0.273   1.475   3.527
 9709SOL     OW30025   5.245   6.047   2.506
 9709SOL    HW130026   5.208   5.954   2.507
 9709SOL    HW230027   5.259   6.077   2.601
 9710SOL     OW30028   6.858   1.617   1.403
 9710SOL    HW130029   6.898   1.676   1.474
 9710SOL    HW230030   6.816   1.674   1.333
 9711SOL     OW30031   3.994   5.363   5.679
 9711SOL    HW130032   4.091   5.383   5.666
 9711SOL    HW230033   3.974   5.271   5.647
 9712SOL     OW30034   5.470   3.502   0.112
 9712SOL    HW130035   5.550   3.533   0.162
 9712SOL    HW230036   5.498   3.437   0.041
 9713SOL     OW30037   2.203   4.429   3.541
 9713SOL    HW130038   2.226   4.340   3.580
 9713SOL    HW230039   2.274   4.495   3.566
 9714SOL     OW30040   4.284   6.640   6.704
 9714SOL    HW130041   4.312   6.696   6.782
 9714SOL    HW230042   4.244   6.699   6.633
 9715SOL     OW30043   5.835   4.246   0.104
 9715SOL    HW130044   5.891   4.244   0.186
 9715SOL    HW230045   5.767   4.172   0.107
 9716SOL     OW30046   3.436   4.396   0.044
 9716SOL    HW130047   3.392   4.330   0.105
 9716SOL    HW230048   3.417   4.489   0.076
 9717SOL     OW30049   5.209   6.694   6.085
 9717SOL    HW130050   5.115   6.717   6.112
 9717SOL    HW230051   5.268   6.773   6.100
 9718SOL     OW30052   4.974   3.479   0.659
 9718SOL    HW130053   4.957   3.577   0.646
 9718SOL    HW230054   5.071   3.464   0.677
 9719SOL     OW30055   5.977   0.908   5.922
 9719SOL    HW130056   5.942   1.001   5.926
 9719SOL    HW230057   6.044   0.894   5.995
 9720SOL     OW30058   0.798   4.133   2.332
 9720SOL    HW130059   0.896   4.113   2.334
 9720SOL    HW230060   0.779   4.214   2.387
 9721SOL     OW30061   0.627   1.327   0.424
 9721SOL    HW130062   0.551   1.363   0.370
 9721SOL    HW230063   0.706   1.389   0.415
 9722SOL     OW30064   3.407   1.605   4.797
 9722SOL    HW130065   3.444   1.696   4.819
 9722SOL    HW230066   3.422   1.585   4.700
 9723SOL     OW30067   3.835   6.807   3.551
 9723SOL    HW130068   3.916   6.842   3.597
 9723SOL    HW230069   3.843   6.822   3.453
 9724SOL     OW30070   1.575   5.322   6.964
 9724SOL    HW130071   1.641   5.378   6.912
 9724SOL    HW230072   1.599   5.226   6.955
 9725SOL     OW30073   4.353   6.196   6.181
 9725SOL    HW130074   4.386   6.291   6.177
 9725SOL    HW230075   4.260   6.195   6.219
 9726SOL     OW30076   4.595   1.075   3.316
 9726SOL    HW130077   4.691   1.071   3.345
 9726SOL    HW230078   4.587   1.136   3.237
 9727SOL     OW30079   0.913   2.293   6.837
 9727SOL    HW130080   0.911   2.265   6.933
 9727SOL    HW230081   0.832   2.257   6.790
 9728SOL     OW30082   0.432   0.739   5.246
 9728SOL    HW130083   0.527   0.762   5.224
 9728SOL    HW230084   0.398   0.672   5.180
 9729SOL     OW30085   1.243   4.245   3.690
 9729SOL    HW130086   1.265   4.181   3.617
 9729SOL    HW230087   1.318   4.248   3.756
 9730SOL     OW30088   1.839   4.988   2.986
 9730SOL    HW130089   1.809   4.976   3.081
 9730SOL    HW230090   1.929   5.031   2.985
 9731SOL     OW30091   5.261   5.623   1.291
 9731SOL    HW130092   5.177   5.624   1.237
 9731SOL    HW230093   5.329   5.683   1.248
 9732SOL     OW30094   0.500   4.106   2.386
 9732SOL    HW130095   0.492   4.150   2.296
 9732SOL    HW230096   0.592   4.067   2.395
 9733SOL     OW30097   5.056   5.505   0.378
 9733SOL    HW130098   5.079   5.528   0.284
 9733SOL    HW230099   4.990   5.430   0.379
 9734SOL     OW30100   6.947   0.453   0.413
 9734SOL    HW130101   0.010   0.408   0.438
 9734SOL    HW230102   6.881   0.384   0.383
 9735SOL     OW30103   1.924   3.337   3.371
 9735SOL    HW130104   1.976   3.325   3.286
 9735SOL    HW230105   1.911   3.248   3.414
 9736SOL     OW30106   5.614   1.330   5.415
 9736SOL    HW130107   5.654   1.369   5.331
 9736SOL    HW230108   5.671   1.254   5.446
 9737SOL     OW30109   5.271   2.282   2.999
 9737SOL    HW130110   5.307   2.227   2.924
 9737SOL    HW230111   5.244   2.223   3.075
 9738SOL     OW30112   2.457   6.850   0.402
 9738SOL    HW130113   2.501   6.805   0.324
 9738SOL    HW230114   2.365   6.814   0.414
 9739SOL     OW30115   4.963   6.019   0.600
 9739SOL    HW130116   4.954   5.966   0.684
 9739SOL    HW230117   5.020   5.970   0.534
 9740SOL     OW30118   0.069   1.833   3.244
 9740SOL    HW130119   0.148   1.895   3.238
 9740SOL    HW230120   7.008   1.885   3.230
 9741SOL     OW30121   2.635   1.151   2.434
 9741SOL    HW130122   2.562   1.183   2.373
 9741SOL    HW230123   2.677   1.069   2.395
 9742SOL     OW30124   3.473   1.231   0.409
 9742SOL    HW130125   3.558   1.282   0.394
 9742SOL    HW230126   3.426   1.268   0.489
 9743SOL     OW30127   6.999   3.547   4.037
 9743SOL    HW130128   0.029   3.624   4.075
 9743SOL    HW230129   0.033   3.497   3.972
 9744SOL     OW30130   1.048   6.816   2.009
 9744SOL    HW130131   0.965   6.843   1.959
 9744SOL    HW230132   1.126   6.821   1.947
 9745SOL     OW30133   4.835   2.643   6.672
 9745SOL    HW130134   4.755   2.660   6.730
 9745SOL    HW230135   4.910   2.610   6.729
 9746SOL     OW30136   5.687   0.534   5.995
 9746SOL    HW130137   5.675   0.619   6.046
 9746SOL    HW230138   5.778   0.497   6.012
 9747SOL     OW30139   2.766   2.110   1.662
 9747SOL    HW130140   2.696   2.168   1.621
 9747SOL    HW230141   2.776   2.134   1.759
 9748SOL     OW30142   6.074   6.878   3.681
 9748SOL    HW130143   6.155   6.913   3.633
 9748SOL    HW230144   6.024   6.954   3.721
 9749SOL     OW30145   1.596   0.350   4.379
 9749SOL    HW130146   1.618   0.308   4.467
 9749SOL    HW230147   1.504   0.322   4.351
 9750SOL     OW30148   5.755   5.428   3.360
 9750SOL    HW130149   5.669   5.388   3.328
 9750SOL    HW230150   5.737   5.517   3.402
 9751SOL     OW30151   2.377   0.219   1.309
 9751SOL    HW130152   2.444   0.147   1.324
 9751SOL    HW230153   2.290   0.178   1.280
 9752SOL     OW30154   4.069   1.653   5.465
 9752SOL    HW130155   3.971   1.663   5.445
 9752SOL    HW230156   4.122   1.680   5.385
 9753SOL     OW30157   0.323   5.809   6.483
 9753SOL    HW130158   0.382   5.755   6.544
 9753SOL    HW230159   0.333   5.775   6.389
 9754SOL     OW30160   1.734   6.974   1.060
 9754SOL    HW130161   1.690   6.938   1.143
 9754SOL    HW230162   1.676   6.953   0.981
 9755SOL     OW30163   3.848   3.604   4.486
 9755SOL    HW130164   3.939   3.643   4.482
 9755SOL    HW230165   3.835   3.557   4.573
 9756SOL     OW30166   5.337   2.654   5.879
 9756SOL    HW130167   5.432   2.651   5.909
 9756SOL    HW230168   5.319   2.576   5.818
 9757SOL     OW30169   5.714   4.630   3.899
 9757SOL    HW130170   5.641   4.653   3.963
 9757SOL    HW230171   5.787   4.697   3.906
 9758SOL     OW30172   2.233   0.728   6.992
 9758SOL    HW130173   2.248   0.764   0.061
 9758SOL    HW230174   2.269   0.635   6.985
 9759SOL     OW30175   1.355   0.910   0.091
 9759SOL    HW130176   1.413   0.829   0.094
 9759SOL    HW230177   1.367   0.957   0.004
 9760SOL     OW30178   4.896   3.241   5.875
 9760SOL    HW130179   4.892   3.143   5.895
 9760SOL    HW230180   4.947   3.255   5.790
 9761SOL     OW30181   0.696   1.654   1.908
 9761SOL    HW130182   0.697   1.682   1.812
 9761SOL    HW230183   0.624   1.704   1.956
 9762SOL     OW30184   3.354   2.146   4.569
 9762SOL    HW130185   3.332   2.139   4.472
 9762SOL    HW230186   3.282   2.196   4.617
 9763SOL     OW30187   4.661   1.869   3.002
 9763SOL    HW130188   4.752   1.907   3.018
 9763SOL    HW230189   4.658   1.824   2.913
 9764SOL     OW30190   6.357   3.316   3.408
 9764SOL    HW130191   6.257   3.314   3.421
 9764SOL    HW230192   6.394   3.223   3.416
 9765SOL     OW30193   6.537   6.749   3.514
 9765SOL    HW130194   6.476   6.720   3.588
 9765SOL    HW230195   6.623   6.699   3.519
 9766SOL     OW30196   2.678   6.814   2.223
 9766SOL    HW130197   2.658   6.825   2.125
 9766SOL    HW230198   2.714   6.722   2.239
 9767SOL     OW30199   3.652   1.598   5.611
 9767SOL    HW130200   3.730   1.560   5.661
 9767SOL    HW230201   3.684   1.636   5.524
 9768SOL     OW30202   5.287   1.190   1.512
 9768SOL    HW130203   5.333   1.203   1.600
 9768SOL    HW230204   5.236   1.104   1.514
 9769SOL     OW30205   4.425   0.433   4.490
 9769SOL    HW130206   4.487   0.360   4.462
 9769SOL    HW230207   4.475   0.501   4.543
 9770SOL     OW30208   3.851   0.825   6.079
 9770SOL    HW130209   3.929   0.772   6.111
 9770SOL    HW230210   3.827   0.796   5.986
 9771SOL     OW30211   2.765   5.558   0.566
 9771SOL    HW130212   2.739   5.655   0.572
 9771SOL    HW230213   2.844   5.548   0.506
 9772SOL     OW30214   1.147   5.945   1.576
 9772SOL    HW130215   1.090   5.961   1.496
 9772SOL    HW230216   1.173   5.848   1.579
 9773SOL     OW30217   5.306   5.470   4.561
 9773SOL    HW130218   5.280   5.425   4.476
 9773SOL    HW230219   5.406   5.470   4.569
 9774SOL     OW30220   6.609   5.592   2.096
 9774SOL    HW130221   6.564   5.559   2.013
 9774SOL    HW230222   6.695   5.635   2.072
 9775SOL     OW30223   2.857   0.561   3.451
 9775SOL    HW130224   2.944   0.604   3.476
 9775SOL    HW230225   2.809   0.533   3.535
 9776SOL     OW30226   0.030   4.745   5.372
 9776SOL    HW130227   6.992   4.780   5.442
 9776SOL    HW230228   0.079   4.820   5.328
 9777SOL     OW30229   5.946   5.848   0.073
 9777SOL    HW130230   5.900   5.795   0.003
 9777SOL    HW230231   6.039   5.813   0.085
 9778SOL     OW30232   0.360   1.923   4.477
 9778SOL    HW130233   0.317   1.943   4.389
 9778SOL    HW230234   0.442   1.980   4.486
 9779SOL     OW30235   0.498   1.749   3.882
 9779SOL    HW130236   0.553   1.717   3.804
 9779SOL    HW230237   0.414   1.696   3.887
 9780SOL     OW30238   2.458   2.614   0.225
 9780SOL    HW130239   2.537   2.674   0.211
 9780SOL    HW230240   2.477   2.525   0.184
 9781SOL     OW30241   2.343   2.299   4.826
 9781SOL    HW130242   2.318   2.349   4.910
 9781SOL    HW230243   2.266   2.242   4.797
 9782SOL     OW30244   0.565   1.209   1.009
 9782SOL    HW130245   0.625   1.176   0.935
 9782SOL    HW230246   0.499   1.274   0.972
 9783SOL     OW30247   4.718   2.787   3.128
 9783SOL    HW130248   4.810   2.752   3.111
 9783SOL    HW230249   4.687   2.758   3.219
 9784SOL     OW30250   3.544   2.550   6.180
 9784SOL    HW130251   3.508   2.630   6.131
 9784SOL    HW230252   3.473   2.479   6.183
 9785SOL     OW30253   0.700   1.972   5.934
 9785SOL    HW130254   0.626   1.937   5.992
 9785SOL    HW230255   0.787   1.932   5.964
 9786SOL     OW30256   2.838   3.943   0.409
 9786SOL    HW130257   2.930   3.922   0.376
 9786SOL    HW230258   2.844   4.000   0.491
 9787SOL     OW30259   3.363   3.273   2.446
 9787SOL    HW130260   3.344   3.357   2.395
 9787SOL    HW230261   3.294   3.204   2.425
 9788SOL     OW30262   0.671   0.289   3.648
 9788SOL    HW130263   0.604   0.360   3.625
 9788SOL    HW230264   0.762   0.319   3.618
 9789SOL     OW30265   1.626   5.249   0.660
 9789SOL    HW130266   1.559   5.181   0.689
 9789SOL    HW230267   1.589   5.301   0.583
 9790SOL     OW30268   6.899   5.139   6.694
 9790SOL    HW130269   6.988   5.097   6.679
 9790SOL    HW230270   6.895   5.228   6.649
 9791SOL     OW30271   0.702   0.257   0.156
 9791SOL    HW130272   0.714   0.228   0.251
 9791SOL    HW230273   0.626   0.322   0.151
 9792SOL     OW30274   3.316   4.162   0.790
 9792SOL    HW130275   3.412   4.159   0.761
 9792SOL    HW230276   3.261   4.111   0.725
 9793SOL     OW30277   3.943   0.022   2.411
 9793SOL    HW130278   4.001   6.972   2.448
 9793SOL    HW230279   3.978   0.111   2.440
 9794SOL     OW30280   0.198   3.917   6.720
 9794SOL    HW130281   0.181   3.953   6.628
 9794SOL    HW230282   0.253   3.983   6.772
 9795SOL     OW30283   1.477   1.721   4.304
 9795SOL    HW130284   1.564   1.697   4.346
 9795SOL    HW230285   1.404   1.663   4.342
 9796SOL     OW30286   3.274   3.026   2.714
 9796SOL    HW130287   3.214   3.050   2.638
 9796SOL    HW230288   3.220   2.981   2.786
 9797SOL     OW30289   2.104   5.584   0.275
 9797SOL    HW130290   2.016   5.576   0.228
 9797SOL    HW230291   2.130   5.680   0.282
 9798SOL     OW30292   3.174   0.306   2.403
 9798SOL    HW130293   3.159   0.212   2.433
 9798SOL    HW230294   3.165   0.368   2.481
 9799SOL     OW30295   2.975   4.033   5.189
 9799SOL    HW130296   2.903   3.966   5.174
 9799SOL    HW230297   2.938   4.111   5.240
 9800SOL     OW30298   4.774   4.949   4.883
 9800SOL    HW130299   4.690   4.946   4.937
 9800SOL    HW230300   4.827   4.866   4.899
 9801SOL     OW30301   4.984   4.002   6.992
 9801SOL    HW130302   4.946   4.093   7.005
 9801SOL    HW230303   4.954   3.965   6.904
 9802SOL     OW30304   6.957   4.142   2.003
 9802SOL    HW130305   0.006   4.087   1.961
 9802SOL    HW230306   6.883   4.083   2.036
 9803SOL     OW30307   1.680   2.081   6.164
 9803SOL    HW130308   1.756   2.142   6.142
 9803SOL    HW230309   1.594   2.122   6.133
 9804SOL     OW30310   1.232   5.992   3.260
 9804SOL    HW130311   1.289   6.048   3.321
 9804SOL    HW230312   1.275   5.903   3.246
 9805SOL     OW30313   0.997   6.801   3.440
 9805SOL    HW130314   0.932   6.738   3.398
 9805SOL    HW230315   1.031   6.864   3.370
 9806SOL     OW30316   1.734   0.847   6.829
 9806SOL    HW130317   1.712   0.916   6.761
 9806SOL    HW230318   1.830   0.856   6.856
 9807SOL     OW30319   3.891   4.326   0.897
 9807SOL    HW130320   3.855   4.308   0.805
 9807SOL    HW230321   3.866   4.251   0.958
 9808SOL     OW30322   3.713   6.889   5.176
 9808SOL    HW130323   3.622   6.855   5.201
 9808SOL    HW230324   3.715   6.909   5.079
 9809SOL     OW30325   0.882   3.284   6.382
 9809SOL    HW130326   0.869   3.322   6.291
 9809SOL    HW230327   0.956   3.216   6.379
 9810SOL     OW30328   2.132   2.658   3.932
 9810SOL    HW130329   2.115   2.748   3.890
 9810SOL    HW230330   2.150   2.591   3.860
 9811SOL     OW30331   5.451   4.932   2.936
 9811SOL    HW130332   5.526   4.997   2.943
 9811SOL    HW230333   5.446   4.877   3.019
 9812SOL     OW30334   3.877   1.509   5.745
 9812SOL    HW130335   3.932   1.427   5.762
 9812SOL    HW230336   3.932   1.577   5.697
 9813SOL     OW30337   4.879   1.395   0.663
 9813SOL    HW130338   4.952   1.420   0.727
 9813SOL    HW230339   4.795   1.443   0.687
 9814SOL     OW30340   6.854   0.306   6.671
 9814SOL    HW130341   6.757   0.302   6.697
 9814SOL    HW230342   6.873   0.393   6.625
 9815SOL     OW30343   5.532   3.741   4.751
 9815SOL    HW130344   5.486   3.742   4.840
 9815SOL    HW230345   5.466   3.715   4.680
 9816SOL     OW30346   0.879   0.729   6.203
 9816SOL    HW130347   0.937   0.777   6.136
 9816SOL    HW230348   0.811   0.674   6.154
 9817SOL     OW30349   2.846   6.549   3.294
 9817SOL    HW130350   2.863   6.470   3.352
 9817SOL    HW230351   2.919   6.557   3.226
 9818SOL     OW30352   0.818   0.315   3.947
 9818SOL    HW130353   0.813   0.216   3.952
 9818SOL    HW230354   0.909   0.344   3.920
 9819SOL     OW30355   4.886   3.547   3.827
 9819SOL    HW130356   4.854   3.515   3.738
 9819SOL    HW230357   4.899   3.469   3.889
 9820SOL     OW30358   4.260   3.239   6.233
 9820SOL    HW130359   4.213   3.223   6.146
 9820SOL    HW230360   4.210   3.309   6.285
 9821SOL     OW30361   5.165   0.947   6.379
 9821SOL    HW130362   5.238   0.967   6.445
 9821SOL    HW230363   5.078   0.941   6.427
 9822SOL     OW30364   1.938   0.153   3.558
 9822SOL    HW130365   1.875   0.076   3.575
 9822SOL    HW230366   1.887   0.229   3.519
 9823SOL     OW30367   2.574   0.921   0.405
 9823SOL    HW130368   2.523   0.986   0.347
 9823SOL    HW230369   2.655   0.889   0.356
 9824SOL     OW30370   1.611   5.058   4.478
 9824SOL    HW130371   1.588   4.965   4.507
 9824SOL    HW230372   1.697   5.086   4.522
 9825SOL     OW30373   5.175   5.695   5.368
 9825SOL    HW130374   5.079   5.685   5.395
 9825SOL    HW230375   5.233   5.688   5.450
 9826SOL     OW30376   4.670   4.946   6.232
 9826SOL    HW130377   4.612   4.885   6.286
 9826SOL    HW230378   4.617   4.984   6.156
 9827SOL     OW30379   2.183   3.301   3.726
 9827SOL    HW130380   2.209   3.223   3.782
 9827SOL    HW230381   2.150   3.375   3.785
 9828SOL     OW30382   2.458   2.722   5.583
 9828SOL    HW130383   2.515   2.762   5.511
 9828SOL    HW230384   2.503   2.642   5.621
 9829SOL     OW30385   4.007   5.165   6.700
 9829SOL    HW130386   4.048   5.192   6.613
 9829SOL    HW230387   4.028   5.070   6.720
 9830SOL     OW30388   6.042   2.225   2.079
 9830SOL    HW130389   6.128   2.239   2.031
 9830SOL    HW230390   5.966   2.246   2.018
 9831SOL     OW30391   2.572   5.079   0.979
 9831SOL    HW130392   2.585   5.059   1.076
 9831SOL    HW230393   2.491   5.136   0.968
 9832SOL     OW30394   5.050   5.496   2.669
 9832SOL    HW130395   5.084   5.406   2.695
 9832SOL    HW230396   5.036   5.500   2.570
 9833SOL     OW30397   3.372   3.247   5.272
 9833SOL    HW130398   3.411   3.337   5.255
 9833SOL    HW230399   3.320   3.217   5.192
 9834SOL     OW30400   2.887   4.282   5.292
 9834SOL    HW130401   2.891   4.376   5.259
 9834SOL    HW230402   2.802   4.268   5.343
 9835SOL     OW30403   4.047   3.476   5.329
 9835SOL    HW130404   3.968   3.465   5.389
 9835SOL    HW230405   4.022   3.451   5.236
 9836SOL     OW30406   6.585   4.530   3.451
 9836SOL    HW130407   6.639   4.518   3.368
 9836SOL    HW230408   6.513   4.461   3.454
 9837SOL     OW30409   3.400   0.573   2.880
 9837SOL    HW130410   3.460   0.577   2.960
 9837SOL    HW230411   3.366   0.480   2.869
 9838SOL     OW30412   1.772   0.081   6.671
 9838SOL    HW130413   1.781   7.004   6.674
 9838SOL    HW230414   1.679   0.105   6.642
 9839SOL     OW30415   5.603   0.444   3.668
 9839SOL    HW130416   5.671   0.505   3.709
 9839SOL    HW230417   5.611   0.353   3.709
 9840SOL     OW30418   5.820   1.503   0.747
 9840SOL    HW130419   5.827   1.414   0.702
 9840SOL    HW230420   5.723   1.523   0.765
 9841SOL     OW30421   2.046   4.853   5.475
 9841SOL    HW130422   2.091   4.872   5.388
 9841SOL    HW230423   2.043   4.936   5.530
 9842SOL     OW30424   3.721   3.455   2.165
 9842SOL    HW130425   3.770   3.427   2.248
 9842SOL    HW230426   3.714   3.378   2.103
 9843SOL     OW30427   6.072   0.914   1.262
 9843SOL    HW130428   6.106   1.008   1.267
 9843SOL    HW230429   6.082   0.880   1.169
 9844SOL     OW30430   6.226   0.895   2.338
 9844SOL    HW130431   6.158   0.824   2.360
 9844SOL    HW230432   6.306   0.884   2.397
 9845SOL     OW30433   1.965   2.852   3.128
 9845SOL    HW130434   2.046   2.870   3.071
 9845SOL    HW230435   1.883   2.860   3.072
 9846SOL     OW30436   3.803   3.193   2.458
 9846SOL    HW130437   3.717   3.198   2.407
 9846SOL    HW230438   3.798   3.117   2.523
 9847SOL     OW30439   3.595   2.891   4.142
 9847SOL    HW130440   3.560   2.856   4.055
 9847SOL    HW230441   3.688   2.927   4.127
 9848SOL     OW30442   3.593   3.246   5.023
 9848SOL    HW130443   3.579   3.288   4.934
 9848SOL    HW230444   3.644   3.309   5.082
 9849SOL     OW30445   0.918   6.810   6.592
 9849SOL    HW130446   0.945   6.732   6.649
 9849SOL    HW230447   0.885   6.884   6.651
 9850SOL     OW30448   5.823   6.747   4.162
 9850SOL    HW130449   5.773   6.681   4.219
 9850SOL    HW230450   5.915   6.711   4.144
 9851SOL     OW30451   6.246   0.716   4.468
 9851SOL    HW130452   6.296   0.658   4.532
 9851SOL    HW230453   6.149   0.715   4.492
 9852SOL     OW30454   3.904   2.127   3.655
 9852SOL    HW130455   3.899   2.128   3.755
 9852SOL    HW230456   3.975   2.189   3.624
 9853SOL     OW30457   5.244   3.968   4.557
 9853SOL    HW130458   5.235   4.010   4.647
 9853SOL    HW230459   5.279   3.875   4.567
 9854SOL     OW30460   6.981   5.642   5.073
 9854SOL    HW130461   6.917   5.687   5.010
 9854SOL    HW230462   6.974   5.685   5.164
 9855SOL     OW30463   2.145   3.568   1.120
 9855SOL    HW130464   2.174   3.475   1.142
 9855SOL    HW230465   2.225   3.623   1.095
 9856SOL     OW30466   4.711   4.115   5.063
 9856SOL    HW130467   4.712   4.030   5.117
 9856SOL    HW230468   4.792   4.118   5.004
 9857SOL     OW30469   4.738   2.743   2.696
 9857SOL    HW130470   4.709   2.686   2.620
 9857SOL    HW230471   4.742   2.838   2.668
 9858SOL     OW30472   0.172   0.841   1.242
 9858SOL    HW130473   0.189   0.823   1.339
 9858SOL    HW230474   0.254   0.882   1.201
 9859SOL     OW30475   6.306   6.864   2.438
 9859SOL    HW130476   6.248   6.871   2.357
 9859SOL    HW230477   6.352   6.952   2.454
 9860SOL     OW30478   1.268   1.601   3.415
 9860SOL    HW130479   1.239   1.679   3.471
 9860SOL    HW230480   1.311   1.634   3.332
 9861SOL     OW30481   3.133   0.219   3.514
 9861SOL    HW130482   3.174   0.305   3.482
 9861SOL    HW230483   3.069   0.185   3.444
 9862SOL     OW30484   3.715   3.214   0.326
 9862SOL    HW130485   3.775   3.256   0.394
 9862SOL    HW230486   3.769   3.193   0.244
 9863SOL     OW30487   3.364   0.102   2.637
 9863SOL    HW130488   3.286   0.066   2.585
 9863SOL    HW230489   3.416   0.025   2.674
 9864SOL     OW30490   3.539   6.734   3.888
 9864SOL    HW130491   3.462   6.794   3.866
 9864SOL    HW230492   3.524   6.692   3.978
 9865SOL     OW30493   1.325   0.228   4.581
 9865SOL    HW130494   1.240   0.256   4.537
 9865SOL    HW230495   1.373   0.163   4.522
 9866SOL     OW30496   5.181   4.490   6.104
 9866SOL    HW130497   5.177   4.589   6.114
 9866SOL    HW230498   5.090   4.455   6.081
 9867SOL     OW30499   6.458   1.111   0.863
 9867SOL    HW130500   6.483   1.064   0.948
 9867SOL    HW230501   6.513   1.076   0.788
 9868SOL     OW30502   0.418   3.631   5.835
 9868SOL    HW130503   0.472   3.607   5.754
 9868SOL    HW230504   0.457   3.586   5.915
 9869SOL     OW30505   1.191   2.624   1.478
 9869SOL    HW130506   1.235   2.705   1.516
 9869SOL    HW230507   1.261   2.554   1.461
 9870SOL     OW30508   3.464   6.257   2.919
 9870SOL    HW130509   3.428   6.164   2.909
 9870SOL    HW230510   3.524   6.278   2.842
 9871SOL     OW30511   0.302   5.830   5.936
 9871SOL    HW130512   0.325   5.916   5.982
 9871SOL    HW230513   0.243   5.775   5.996
 9872SOL     OW30514   2.358   5.683   4.598
 9872SOL    HW130515   2.391   5.595   4.563
 9872SOL    HW230516   2.435   5.736   4.633
 9873SOL     OW30517   2.432   2.768   0.494
 9873SOL    HW130518   2.471   2.855   0.463
 9873SOL    HW230519   2.409   2.712   0.415
 9874SOL     OW30520   5.825   3.062   5.054
 9874SOL    HW130521   5.908   3.006   5.063
 9874SOL    HW230522   5.849   3.159   5.067
 9875SOL     OW30523   5.621   6.088   1.828
 9875SOL    HW130524   5.696   6.144   1.862
 9875SOL    HW230525   5.600   6.016   1.895
 9876SOL     OW30526   6.468   0.564   3.892
 9876SOL    HW130527   6.510   0.474   3.875
 9876SOL    HW230528   6.405   0.556   3.969
 9877SOL     OW30529   6.966   5.459   4.476
 9877SOL    HW130530   6.968   5.364   4.444
 9877SOL    HW230531   6.966   5.520   4.396
 9878SOL     OW30532   2.666   4.251   5.877
 9878SOL    HW130533   2.718   4.264   5.962
 9878SOL    HW230534   2.718   4.287   5.800
 9879SOL     OW30535   5.627   5.666   5.343
 9879SOL    HW130536   5.640   5.764   5.329
 9879SOL    HW230537   5.714   5.619   5.327
 9880SOL     OW30538   3.938   0.671   0.067
 9880SOL    HW130539   3.983   0.687   0.155
 9880SOL    HW230540   4.004   0.636   0.001
 9881SOL     OW30541   1.211   1.292   4.175
 9881SOL    HW130542   1.305   1.269   4.150
 9881SOL    HW230543   1.190   1.252   4.264
 9882SOL     OW30544   1.410   3.317   4.249
 9882SOL    HW130545   1.437   3.330   4.153
 9882SOL    HW230546   1.358   3.397   4.280
 9883SOL     OW30547   1.460   6.190   1.098
 9883SOL    HW130548   1.522   6.263   1.068
 9883SOL    HW230549   1.488   6.103   1.058
 9884SOL     OW30550   4.594   2.205   1.678
 9884SOL    HW130551   4.577   2.303   1.688
 9884SOL    HW230552   4.517   2.154   1.717
 9885SOL     OW30553   0.324   2.247   4.965
 9885SOL    HW130554   0.264   2.305   4.911
 9885SOL    HW230555   0.334   2.158   4.921
 9886SOL     OW30556   1.144   4.818   2.056
 9886SOL    HW130557   1.134   4.890   1.987
 9886SOL    HW230558   1.095   4.736   2.026
 9887SOL     OW30559   4.331   0.407   6.711
 9887SOL    HW130560   4.325   0.506   6.724
 9887SOL    HW230561   4.362   0.363   6.795
 9888SOL     OW30562   5.381   4.958   2.414
 9888SOL    HW130563   5.419   4.891   2.350
 9888SOL    HW230564   5.364   4.914   2.502
 9889SOL     OW30565   6.390   4.949   0.659
 9889SOL    HW130566   6.373   4.976   0.564
 9889SOL    HW230567   6.321   4.991   0.719
 9890SOL     OW30568   0.901   3.150   1.001
 9890SOL    HW130569   0.910   3.064   1.051
 9890SOL    HW230570   0.952   3.145   0.915
 9891SOL     OW30571   5.936   3.336   1.455
 9891SOL    HW130572   5.896   3.320   1.545
 9891SOL    HW230573   5.889   3.413   1.411
 9892SOL     OW30574   1.414   4.662   2.138
 9892SOL    HW130575   1.484   4.669   2.067
 9892SOL    HW230576   1.331   4.710   2.108
 9893SOL     OW30577   0.471   0.497   2.344
 9893SOL    HW130578   0.510   0.488   2.252
 9893SOL    HW230579   0.476   0.408   2.390
 9894SOL     OW30580   2.975   2.692   0.127
 9894SOL    HW130581   2.906   2.685   0.200
 9894SOL    HW230582   2.929   2.711   0.040
 9895SOL     OW30583   5.386   3.567   5.148
 9895SOL    HW130584   5.372   3.502   5.222
 9895SOL    HW230585   5.425   3.520   5.069
 9896SOL     OW30586   6.140   0.948   0.623
 9896SOL    HW130587   6.144   1.047   0.610
 9896SOL    HW230588   6.231   0.909   0.610
 9897SOL     OW30589   6.010   0.084   2.350
 9897SOL    HW130590   5.916   0.117   2.362
 9897SOL    HW230591   6.053   0.076   2.440
 9898SOL     OW30592   1.238   5.252   5.906
 9898SOL    HW130593   1.301   5.180   5.875
 9898SOL    HW230594   1.164   5.264   5.840
 9899SOL     OW30595   1.276   5.257   1.581
 9899SOL    HW130596   1.207   5.329   1.586
 9899SOL    HW230597   1.335   5.262   1.662
 9900SOL     OW30598   1.400   3.119   2.613
 9900SOL    HW130599   1.399   3.219   2.617
 9900SOL    HW230600   1.476   3.083   2.667
 9901SOL     OW30601   2.894   0.743   6.414
 9901SOL    HW130602   2.887   0.647   6.385
 9901SOL    HW230603   2.937   0.796   6.341
 9902SOL     OW30604   3.317   4.257   1.215
 9902SOL    HW130605   3.231   4.211   1.191
 9902SOL    HW230606   3.329   4.256   1.314
 9903SOL     OW30607   5.488   1.401   1.317
 9903SOL    HW130608   5.554   1.473   1.294
 9903SOL    HW230609   5.469   1.404   1.415
 9904SOL     OW30610   0.533   3.784   6.541
 9904SOL    HW130611   0.551   3.716   6.612
 9904SOL    HW230612   0.453   3.756   6.487
 9905SOL     OW30613   2.536   0.172   5.660
 9905SOL    HW130614   2.572   0.266   5.657
 9905SOL    HW230615   2.445   0.172   5.702
 9906SOL     OW30616   1.695   3.018   0.649
 9906SOL    HW130617   1.700   3.117   0.637
 9906SOL    HW230618   1.787   2.980   0.651
 9907SOL     OW30619   1.738   0.772   1.309
 9907SOL    HW130620   1.772   0.788   1.402
 9907SOL    HW230621   1.648   0.815   1.299
 9908SOL     OW30622   6.541   2.214   4.891
 9908SOL    HW130623   6.526   2.233   4.794
 9908SOL    HW230624   6.604   2.282   4.929
 9909SOL     OW30625   3.890   0.659   2.431
 9909SOL    HW130626   3.963   0.593   2.446
 9909SOL    HW230627   3.898   0.698   2.340
 9910SOL     OW30628   1.074   5.213   1.927
 9910SOL    HW130629   1.106   5.240   2.018
 9910SOL    HW230630   0.997   5.151   1.936
 9911SOL     OW30631   2.488   6.085   2.188
 9911SOL    HW130632   2.581   6.101   2.156
 9911SOL    HW230633   2.425   6.084   2.110
 9912SOL     OW30634   3.750   1.557   1.103
 9912SOL    HW130635   3.758   1.461   1.127
 9912SOL    HW230636   3.837   1.588   1.063
 9913SOL     OW30637   6.321   3.229   0.702
 9913SOL    HW130638   6.231   3.259   0.670
 9913SOL    HW230639   6.389   3.246   0.631
 9914SOL     OW30640   6.127   0.241   5.807
 9914SOL    HW130641   6.142   0.263   5.903
 9914SOL    HW230642   6.163   0.150   5.787
 9915SOL     OW30643   5.835   0.880   3.695
 9915SOL    HW130644   5.772   0.906   3.768
 9915SOL    HW230645   5.908   0.824   3.733
 9916SOL     OW30646   2.040   2.580   3.137
 9916SOL    HW130647   1.989   2.665   3.127
 9916SOL    HW230648   2.138   2.600   3.139
 9917SOL     OW30649   3.877   3.899   5.867
 9917SOL    HW130650   3.785   3.876   5.901
 9917SOL    HW230651   3.877   3.994   5.834
 9918SOL     OW30652   1.416   2.704   2.863
 9918SOL    HW130653   1.383   2.794   2.836
 9918SOL    HW230654   1.505   2.687   2.820
 9919SOL     OW30655   1.949   5.184   0.913
 9919SOL    HW130656   2.031   5.130   0.892
 9919SOL    HW230657   1.929   5.245   0.837
 9920SOL     OW30658   4.947   0.649   2.441
 9920SOL    HW130659   4.891   0.732   2.441
 9920SOL    HW230660   5.006   0.648   2.360
 9921SOL     OW30661   4.408   6.178   4.154
 9921SOL    HW130662   4.473   6.142   4.087
 9921SOL    HW230663   4.316   6.175   4.116
 9922SOL     OW30664   4.146   4.326   0.774
 9922SOL    HW130665   4.090   4.311   0.855
 9922SOL    HW230666   4.103   4.394   0.715
 9923SOL     OW30667   6.120   4.038   0.117
 9923SOL    HW130668   6.093   4.089   0.198
 9923SOL    HW230669   6.046   3.976   0.089
 9924SOL     OW30670   5.580   2.275   2.670
 9924SOL    HW130671   5.637   2.315   2.741
 9924SOL    HW230672   5.618   2.297   2.580
 9925SOL     OW30673   0.230   5.369   3.964
 9925SOL    HW130674   0.313   5.315   3.951
 9925SOL    HW230675   0.191   5.348   4.054
 9926SOL     OW30676   4.387   2.334   1.049
 9926SOL    HW130677   4.369   2.238   1.029
 9926SOL    HW230678   4.300   2.383   1.060
 9927SOL     OW30679   1.558   1.097   0.714
 9927SOL    HW130680   1.605   1.164   0.771
 9927SOL    HW230681   1.478   1.062   0.763
 9928SOL     OW30682   4.801   4.541   3.392
 9928SOL    HW130683   4.878   4.603   3.377
 9928SOL    HW230684   4.742   4.540   3.311
 9929SOL     OW30685   3.626   4.017   4.600
 9929SOL    HW130686   3.565   4.012   4.679
 9929SOL    HW230687   3.720   4.035   4.631
 9930SOL     OW30688   0.412   6.882   5.807
 9930SOL    HW130689   0.427   6.784   5.796
 9930SOL    HW230690   0.327   6.898   5.857
 9931SOL     OW30691   6.799   4.859   4.647
 9931SOL    HW130692   6.765   4.951   4.663
 9931SOL    HW230693   6.751   4.794   4.706
 9932SOL     OW30694   2.441   3.026   5.721
 9932SOL    HW130695   2.356   3.065   5.757
 9932SOL    HW230696   2.453   2.934   5.757
 9933SOL     OW30697   2.241   6.649   4.201
 9933SOL    HW130698   2.310   6.667   4.131
 9933SOL    HW230699   2.151   6.641   4.158
 9934SOL     OW30700   0.278   2.204   6.189
 9934SOL    HW130701   0.222   2.235   6.112
 9934SOL    HW230702   0.295   2.280   6.251
 9935SOL     OW30703   2.617   0.080   1.328
 9935SOL    HW130704   2.692   0.140   1.299
 9935SOL    HW230705   2.638   0.042   1.418
 9936SOL     OW30706   6.344   4.686   0.332
 9936SOL    HW130707   6.414   4.683   0.260
 9936SOL    HW230708   6.328   4.781   0.358
 9937SOL     OW30709   0.550   1.952   1.665
 9937SOL    HW130710   0.532   1.870   1.611
 9937SOL    HW230711   0.647   1.953   1.692
 9938SOL     OW30712   5.498   5.085   3.683
 9938SOL    HW130713   5.403   5.112   3.670
 9938SOL    HW230714   5.517   5.002   3.631
 9939SOL     OW30715   3.820   2.736   1.112
 9939SOL    HW130716   3.723   2.754   1.130
 9939SOL    HW230717   3.829   2.654   1.056
 9940SOL     OW30718   0.875   0.372   1.598
 9940SOL    HW130719   0.926   0.371   1.683
 9940SOL    HW230720   0.845   0.280   1.575
 9941SOL     OW30721   3.134   4.331   5.882
 9941SOL    HW130722   3.226   4.356   5.913
 9941SOL    HW230723   3.129   4.232   5.872
 9942SOL     OW30724   3.314   5.243   2.703
 9942SOL    HW130725   3.414   5.235   2.711
 9942SOL    HW230726   3.277   5.156   2.670
 9943SOL     OW30727   1.107   4.868   6.581
 9943SOL    HW130728   1.148   4.870   6.672
 9943SOL    HW230729   1.146   4.942   6.526
 9944SOL     OW30730   0.732   4.490   6.610
 9944SOL    HW130731   0.698   4.583   6.625
 9944SOL    HW230732   0.824   4.494   6.571
 9945SOL     OW30733   4.667   5.744   6.993
 9945SOL    HW130734   4.730   5.669   6.973
 9945SOL    HW230735   4.604   5.755   6.916
 9946SOL     OW30736   6.359   0.206   3.455
 9946SOL    HW130737   6.325   0.291   3.413
 9946SOL    HW230738   6.384   0.141   3.383
 9947SOL     OW30739   2.654   2.309   4.442
 9947SOL    HW130740   2.612   2.390   4.400
 9947SOL    HW230741   2.637   2.310   4.540
 9948SOL     OW30742   6.928   4.527   5.504
 9948SOL    HW130743   6.975   4.439   5.506
 9948SOL    HW230744   6.970   4.585   5.433
 9949SOL     OW30745   6.736   4.631   3.938
 9949SOL    HW130746   6.734   4.632   3.838
 9949SOL    HW230747   6.783   4.548   3.969
 9950SOL     OW30748   5.730   6.178   6.100
 9950SOL    HW130749   5.644   6.151   6.143
 9950SOL    HW230750   5.711   6.238   6.022
 9951SOL     OW30751   1.373   2.443   3.313
 9951SOL    HW130752   1.416   2.479   3.230
 9951SOL    HW230753   1.308   2.509   3.349
 9952SOL     OW30754   1.646   4.216   0.665
 9952SOL    HW130755   1.676   4.246   0.755
 9952SOL    HW230756   1.719   4.164   0.621
 9953SOL     OW30757   6.112   2.524   4.387
 9953SOL    HW130758   6.037   2.461   4.365
 9953SOL    HW230759   6.196   2.473   4.400
 9954SOL     OW30760   1.175   0.192   5.499
 9954SOL    HW130761   1.198   0.167   5.405
 9954SOL    HW230762   1.098   0.255   5.500
 9955SOL     OW30763   4.671   4.233   6.349
 9955SOL    HW130764   4.603   4.160   6.347
 9955SOL    HW230765   4.739   4.214   6.419
 9956SOL     OW30766   1.117   5.380   4.331
 9956SOL    HW130767   1.053   5.314   4.371
 9956SOL    HW230768   1.199   5.331   4.300
 9957SOL     OW30769   5.802   0.024   1.490
 9957SOL    HW130770   5.841   0.051   1.578
 9957SOL    HW230771   5.726   6.983   1.505
 9958SOL     OW30772   2.376   5.825   0.130
 9958SOL    HW130773   2.331   5.887   0.195
 9958SOL    HW230774   2.460   5.789   0.171
 9959SOL     OW30775   4.132   3.619   3.778
 9959SOL    HW130776   4.231   3.626   3.786
 9959SOL    HW230777   4.102   3.656   3.690
 9960SOL     OW30778   0.584   0.265   2.148
 9960SOL    HW130779   0.570   0.340   2.083
 9960SOL    HW230780   0.515   0.194   2.134
 9961SOL     OW30781   1.228   5.169   4.894
 9961SOL    HW130782   1.281   5.085   4.891
 9961SOL    HW230783   1.284   5.244   4.930
 9962SOL     OW30784   4.630   0.601   2.613
 9962SOL    HW130785   4.621   0.602   2.514
 9962SOL    HW230786   4.623   0.507   2.646
 9963SOL     OW30787   2.282   2.388   6.108
 9963SOL    HW130788   2.267   2.431   6.019
 9963SOL    HW230789   2.372   2.414   6.143
 9964SOL     OW30790   4.519   4.232   5.938
 9964SOL    HW130791   4.526   4.330   5.953
 9964SOL    HW230792   4.603   4.187   5.969
 9965SOL     OW30793   4.162   5.041   5.646
 9965SOL    HW130794   4.063   5.047   5.629
 9965SOL    HW230795   4.181   5.073   5.739
 9966SOL     OW30796   2.548   5.688   1.963
 9966SOL    HW130797   2.598   5.772   1.987
 9966SOL    HW230798   2.451   5.700   1.985
 9967SOL     OW30799   5.948   5.829   1.334
 9967SOL    HW130800   5.880   5.762   1.363
 9967SOL    HW230801   5.959   5.899   1.405
 9968SOL     OW30802   3.248   4.518   6.693
 9968SOL    HW130803   3.276   4.537   6.599
 9968SOL    HW230804   3.291   4.434   6.725
 9969SOL     OW30805   1.540   2.704   3.917
 9969SOL    HW130806   1.523   2.691   3.819
 9969SOL    HW230807   1.619   2.650   3.945
 9970SOL     OW30808   5.767   4.445   2.325
 9970SOL    HW130809   5.739   4.466   2.231
 9970SOL    HW230810   5.756   4.526   2.382
 9971SOL     OW30811   2.712   3.929   0.155
 9971SOL    HW130812   2.767   3.951   0.236
 9971SOL    HW230813   2.713   3.830   0.140
 9972SOL     OW30814   3.665   4.664   0.792
 9972SOL    HW130815   3.654   4.579   0.844
 9972SOL    HW230816   3.757   4.700   0.806
 9973SOL     OW30817   4.371   2.037   4.615
 9973SOL    HW130818   4.286   2.088   4.605
 9973SOL    HW230819   4.351   1.941   4.634
 9974SOL     OW30820   6.290   3.681   3.675
 9974SOL    HW130821   6.314   3.584   3.673
 9974SOL    HW230822   6.248   3.707   3.588
 9975SOL     OW30823   6.820   4.542   0.258
 9975SOL    HW130824   6.770   4.623   0.226
 9975SOL    HW230825   6.758   4.481   0.306
 9976SOL     OW30826   0.250   5.597   5.692
 9976SOL    HW130827   0.194   5.575   5.771
 9976SOL    HW230828   0.193   5.604   5.610
 9977SOL     OW30829   0.187   5.408   6.332
 9977SOL    HW130830   0.166   5.430   6.236
 9977SOL    HW230831   0.142   5.322   6.356
 9978SOL     OW30832   6.259   2.730   3.678
 9978SOL    HW130833   6.352   2.743   3.642
 9978SOL    HW230834   6.263   2.680   3.764
 9979SOL     OW30835   6.140   4.704   5.828
 9979SOL    HW130836   6.179   4.788   5.865
 9979SOL    HW230837   6.178   4.625   5.877
 9980SOL     OW30838   1.691   1.353   6.763
 9980SOL    HW130839   1.627   1.336   6.838
 9980SOL    HW230840   1.743   1.437   6.781
 9981SOL     OW30841   2.429   1.609   1.405
 9981SOL    HW130842   2.392   1.669   1.334
 9981SOL    HW230843   2.483   1.663   1.469
 9982SOL     OW30844   0.616   1.322   3.243
 9982SOL    HW130845   0.526   1.283   3.263
 9982SOL    HW230846   0.616   1.361   3.151
 9983SOL     OW30847   1.195   2.209   2.310
 9983SOL    HW130848   1.184   2.112   2.289
 9983SOL    HW230849   1.107   2.248   2.335
 9984SOL     OW30850   1.431   6.906   0.600
 9984SOL    HW130851   1.335   6.898   0.576
 9984SOL    HW230852   1.463   6.999   0.583
 9985SOL     OW30853   2.615   0.919   2.025
 9985SOL    HW130854   2.611   0.904   1.926
 9985SOL    HW230855   2.686   0.861   2.065
 9986SOL     OW30856   5.180   4.051   6.698
 9986SOL    HW130857   5.142   4.118   6.762
 9986SOL    HW230858   5.188   3.962   6.743
 9987SOL     OW30859   5.820   1.918   3.295
 9987SOL    HW130860   5.900   1.960   3.253
 9987SOL    HW230861   5.843   1.888   3.387
 9988SOL     OW30862   0.170   4.955   5.205
 9988SOL    HW130863   0.092   4.950   5.143
 9988SOL    HW230864   0.186   5.050   5.232
 9989SOL     OW30865   5.516   4.083   2.855
 9989SOL    HW130866   5.534   4.067   2.952
 9989SOL    HW230867   5.603   4.096   2.807
 9990SOL     OW30868   2.158   0.440   2.634
 9990SOL    HW130869   2.087   0.423   2.702
 9990SOL    HW230870   2.222   0.508   2.669
 9991SOL     OW30871   2.135   3.311   4.559
 9991SOL    HW130872   2.093   3.308   4.650
 9991SOL    HW230873   2.064   3.329   4.490
 9992SOL     OW30874   4.495   3.565   0.487
 9992SOL    HW130875   4.552   3.488   0.457
 9992SOL    HW230876   4.525   3.648   0.441
 9993SOL     OW30877   4.124   0.272   1.880
 9993SOL    HW130878   4.025   0.284   1.871
 9993SOL    HW230879   4.144   0.230   1.969
 9994SOL     OW30880   0.055   3.914   3.849
 9994SOL    HW130881   0.121   3.848   3.811
 9994SOL    HW230882   0.080   3.933   3.944
 9995SOL     OW30883   2.855   0.346   2.481
 9995SOL    HW130884   2.798   0.327   2.561
 9995SOL    HW230885   2.886   0.260   2.441
 9996SOL     OW30886   2.707   3.432   1.483
 9996SOL    HW130887   2.763   3.357   1.447
 9996SOL    HW230888   2.633   3.394   1.538
 9997SOL     OW30889   4.327   1.875   0.889
 9997SOL    HW130890   4.395   1.809   0.921
 9997SOL    HW230891   4.316   1.867   0.790
 9998SOL     OW30892   6.678   3.891   1.933
 9998SOL    HW130893   6.582   3.878   1.958
 9998SOL    HW230894   6.713   3.809   1.888
 9999SOL     OW30895   6.201   4.261   4.756
 9999SOL    HW130896   6.101   4.258   4.755
 9999SOL    HW230897   6.232   4.339   4.809
10000SOL     OW30898   5.698   3.009   6.906
10000SOL    HW130899   5.722   2.978   6.998
10000SOL    HW230900   5.637   2.942   6.863
10001SOL     OW30901   5.277   1.531   1.964
10001SOL    HW130902   5.204   1.531   1.895
10001SOL    HW230903   5.240   1.501   2.052
10002SOL     OW30904   1.445   0.536   0.789
10002SOL    HW130905   1.489   0.506   0.874
10002SOL    HW230906   1.515   0.566   0.724
10003SOL     OW30907   3.502   1.856   3.699
10003SOL    HW130908   3.426   1.832   3.639
10003SOL    HW230909   3.546   1.940   3.667
10004SOL     OW30910   4.680   2.175   4.580
10004SOL    HW130911   4.753   2.146   4.641
10004SOL    HW230912   4.712   2.251   4.523
10005SOL     OW30913   4.681   6.861   3.537
10005SOL    HW130914   4.627   6.933   3.580
10005SOL    HW230915   4.725   6.805   3.608
10006SOL     OW30916   5.123   1.169   3.660
10006SOL    HW130917   5.044   1.231   3.661
10006SOL    HW230918   5.091   1.074   3.658
10007SOL     OW30919   0.692   4.533   4.976
10007SOL    HW130920   0.666   4.583   4.893
10007SOL    HW230921   0.613   4.486   5.013
10008SOL     OW30922   4.492   1.230   3.656
10008SOL    HW130923   4.548   1.182   3.588
10008SOL    HW230924   4.504   1.187   3.745
10009SOL     OW30925   1.799   4.228   1.438
10009SOL    HW130926   1.737   4.239   1.360
10009SOL    HW230927   1.750   4.249   1.523
10010SOL     OW30928   2.460   6.581   6.680
10010SOL    HW130929   2.430   6.612   6.591
10010SOL    HW230930   2.381   6.557   6.736
10011SOL     OW30931   5.900   2.025   4.847
10011SOL    HW130932   5.840   1.953   4.812
10011SOL    HW230933   5.916   2.093   4.775
10012SOL     OW30934   4.874   0.129   2.837
10012SOL    HW130935   4.826   0.085   2.762
10012SOL    HW230936   4.906   0.059   2.902
10013SOL     OW30937   1.440   1.549   3.755
10013SOL    HW130938   1.462   1.536   3.851
10013SOL    HW230939   1.340   1.553   3.744
10014SOL     OW30940   6.269   3.216   6.877
10014SOL    HW130941   6.254   3.125   6.915
10014SOL    HW230942   6.361   3.222   6.839
10015SOL     OW30943   2.238   4.325   0.408
10015SOL    HW130944   2.283   4.257   0.351
10015SOL    HW230945   2.208   4.283   0.493
10016SOL     OW30946   1.997   0.259   5.098
10016SOL    HW130947   1.933   0.318   5.050
10016SOL    HW230948   2.083   0.254   5.047
10017SOL     OW30949   2.327   2.389   2.296
10017SOL    HW130950   2.393   2.451   2.340
10017SOL    HW230951   2.234   2.418   2.319
10018SOL     OW30952   4.809   6.903   5.866
10018SOL    HW130953   4.809   6.966   5.789
10018SOL    HW230954   4.721   6.856   5.871
10019SOL     OW30955   1.367   1.691   3.171
10019SOL    HW130956   1.419   1.774   3.149
10019SOL    HW230957   1.412   1.612   3.129
10020SOL     OW30958   0.728   3.142   1.577
10020SOL    HW130959   0.746   3.228   1.530
10020SOL    HW230960   0.798   3.127   1.647
10021SOL     OW30961   0.254   3.078   1.019
10021SOL    HW130962   0.232   3.048   1.112
10021SOL    HW230963   0.171   3.074   0.962
10022SOL     OW30964   3.720   6.949   0.438
10022SOL    HW130965   3.645   7.015   0.428
10022SOL    HW230966   3.796   6.976   0.378
10023SOL     OW30967   1.545   5.017   6.060
10023SOL    HW130968   1.620   4.964   6.098
10023SOL    HW230969   1.534   5.102   6.113
10024SOL     OW30970   2.335   6.688   1.886
10024SOL    HW130971   2.276   6.667   1.808
10024SOL    HW230972   2.287   6.668   1.971
10025SOL     OW30973   1.156   1.360   1.593
10025SOL    HW130974   1.232   1.313   1.547
10025SOL    HW230975   1.085   1.293   1.614
10026SOL     OW30976   4.595   6.845   3.995
10026SOL    HW130977   4.620   6.777   3.926
10026SOL    HW230978   4.535   6.803   4.063
10027SOL     OW30979   0.246   4.319   5.190
10027SOL    HW130980   0.174   4.264   5.149
10027SOL    HW230981   0.304   4.260   5.247
10028SOL     OW30982   1.072   1.668   1.358
10028SOL    HW130983   1.141   1.673   1.430
10028SOL    HW230984   1.096   1.593   1.295
10029SOL     OW30985   3.594   2.104   4.147
10029SOL    HW130986   3.548   2.176   4.198
10029SOL    HW230987   3.587   2.017   4.197
10030SOL     OW30988   2.180   6.705   3.860
10030SOL    HW130989   2.249   6.720   3.932
10030SOL    HW230990   2.097   6.669   3.901
10031SOL     OW30991   6.223   4.981   3.828
10031SOL    HW130992   6.163   5.037   3.885
10031SOL    HW230993   6.195   4.885   3.836
10032SOL     OW30994   2.924   1.890   4.854
10032SOL    HW130995   2.882   1.980   4.858
10032SOL    HW230996   2.916   1.854   4.761
10033SOL     OW30997   5.360   2.243   3.694
10033SOL    HW130998   5.363   2.318   3.761
10033SOL    HW230999   5.412   2.165   3.729
10034SOL     OW31000   2.967   0.445   4.063
10034SOL    HW131001   2.965   0.413   4.158
10034SOL    HW231002   3.047   0.503   4.049
10035SOL     OW31003   6.350   4.558   1.889
10035SOL    HW131004   6.342   4.483   1.824
10035SOL    HW231005   6.388   4.638   1.843
10036SOL     OW31006   5.972   1.638   1.558
10036SOL    HW131007   6.046   1.574   1.538
10036SOL    HW231008   5.933   1.671   1.473
10037SOL     OW31009   6.662   0.940   0.812
10037SOL    HW131010   6.718   0.920   0.733
10037SOL    HW231011   6.717   0.932   0.895
10038SOL     OW31012   5.010   0.602   0.143
10038SOL    HW131013   4.942   0.530   0.129
10038SOL    HW231014   5.004   0.636   0.237
10039SOL     OW31015   3.569   0.373   3.336
10039SOL    HW131016   3.547   0.277   3.349
10039SOL    HW231017   3.499   0.416   3.278
10040SOL     OW31018   4.467   5.725   6.250
10040SOL    HW131019   4.453   5.640   6.301
10040SOL    HW231020   4.445   5.803   6.309
10041SOL     OW31021   4.267   6.071   6.782
10041SOL    HW131022   4.183   6.072   6.836
10041SOL    HW231023   4.286   6.163   6.748
10042SOL     OW31024   1.043   1.818   4.170
10042SOL    HW131025   1.033   1.732   4.219
10042SOL    HW231026   0.998   1.811   4.081
10043SOL     OW31027   6.367   1.135   5.198
10043SOL    HW131028   6.447   1.144   5.257
10043SOL    HW231029   6.370   1.048   5.150
10044SOL     OW31030   2.409   1.554   4.687
10044SOL    HW131031   2.434   1.556   4.591
10044SOL    HW231032   2.392   1.459   4.715
10045SOL     OW31033   3.898   0.253   3.108
10045SOL    HW131034   3.931   0.333   3.158
10045SOL    HW231035   3.840   0.198   3.168
10046SOL     OW31036   2.121   3.760   0.766
10046SOL    HW131037   2.186   3.825   0.805
10046SOL    HW231038   2.170   3.678   0.736
10047SOL     OW31039   0.939   3.522   4.627
10047SOL    HW131040   0.894   3.545   4.713
10047SOL    HW231041   1.038   3.513   4.642
10048SOL     OW31042   6.618   0.606   2.463
10048SOL    HW131043   6.564   0.522   2.456
10048SOL    HW231044   6.679   0.600   2.543
10049SOL     OW31045   1.035   1.856   5.743
10049SOL    HW131046   0.951   1.836   5.692
10049SOL    HW231047   1.113   1.813   5.697
10050SOL     OW31048   5.389   3.369   5.363
10050SOL    HW131049   5.337   3.307   5.305
10050SOL    HW231050   5.337   3.388   5.447
10051SOL     OW31051   6.096   4.185   5.157
10051SOL    HW131052   6.183   4.204   5.112
10051SOL    HW231053   6.035   4.264   5.146
10052SOL     OW31054   2.051   1.082   3.018
10052SOL    HW131055   2.041   1.174   2.980
10052SOL    HW231056   2.148   1.060   3.028
10053SOL     OW31057   4.449   5.471   3.445
10053SOL    HW131058   4.442   5.383   3.397
10053SOL    HW231059   4.391   5.469   3.526
10054SOL     OW31060   5.400   6.209   5.707
10054SOL    HW131061   5.332   6.184   5.775
10054SOL    HW231062   5.355   6.250   5.628
10055SOL     OW31063   5.976   1.388   5.413
10055SOL    HW131064   6.044   1.376   5.341
10055SOL    HW231065   5.909   1.458   5.385
10056SOL     OW31066   5.128   4.636   2.834
10056SOL    HW131067   5.137   4.712   2.899
10056SOL    HW231068   5.031   4.620   2.816
10057SOL     OW31069   4.526   3.246   5.429
10057SOL    HW131070   4.499   3.241   5.525
10057SOL    HW231071   4.561   3.338   5.408
10058SOL     OW31072   6.414   3.517   4.548
10058SOL    HW131073   6.492   3.570   4.513
10058SOL    HW231074   6.331   3.545   4.500
10059SOL     OW31075   0.399   1.780   6.590
10059SOL    HW131076   0.427   1.704   6.648
10059SOL    HW231077   0.299   1.785   6.587
10060SOL     OW31078   2.447   2.629   2.021
10060SOL    HW131079   2.501   2.547   2.003
10060SOL    HW231080   2.412   2.665   1.934
10061SOL     OW31081   4.600   1.518   3.591
10061SOL    HW131082   4.587   1.424   3.620
10061SOL    HW231083   4.584   1.580   3.668
10062SOL     OW31084   5.635   0.774   4.006
10062SOL    HW131085   5.636   0.856   3.949
10062SOL    HW231086   5.710   0.777   4.071
10063SOL     OW31087   3.153   1.317   4.417
10063SOL    HW131088   3.185   1.401   4.373
10063SOL    HW231089   3.232   1.262   4.446
10064SOL     OW31090   4.515   6.446   0.318
10064SOL    HW131091   4.482   6.451   0.223
10064SOL    HW231092   4.569   6.528   0.338
10065SOL     OW31093   2.436   0.732   2.380
10065SOL    HW131094   2.360   0.688   2.429
10065SOL    HW231095   2.523   0.701   2.419
10066SOL     OW31096   0.637   2.728   4.977
10066SOL    HW131097   0.639   2.733   5.077
10066SOL    HW231098   0.584   2.648   4.949
10067SOL     OW31099   0.193   3.495   5.610
10067SOL    HW131100   0.244   3.410   5.623
10067SOL    HW231101   0.192   3.547   5.695
10068SOL     OW31102   0.922   3.608   4.109
10068SOL    HW131103   0.830   3.590   4.076
10068SOL    HW231104   0.959   3.527   4.154
10069SOL     OW31105   3.121   5.099   1.815
10069SOL    HW131106   3.047   5.049   1.860
10069SOL    HW231107   3.194   5.115   1.881
10070SOL     OW31108   0.338   6.060   5.200
10070SOL    HW131109   0.260   6.003   5.176
10070SOL    HW231110   0.321   6.105   5.287
10071SOL     OW31111   0.178   6.235   4.422
10071SOL    HW131112   0.100   6.192   4.468
10071SOL    HW231113   0.181   6.204   4.327
10072SOL     OW31114   6.963   0.426   4.133
10072SOL    HW131115   6.999   0.519   4.140
10072SOL    HW231116   6.957   0.400   4.036
10073SOL     OW31117   6.927   3.855   4.307
10073SOL    HW131118   6.834   3.840   4.275
10073SOL    HW231119   6.984   3.887   4.231
10074SOL     OW31120   2.490   6.850   6.371
10074SOL    HW131121   2.564   6.804   6.321
10074SOL    HW231122   2.524   6.936   6.408
10075SOL     OW31123   1.662   2.238   1.929
10075SOL    HW131124   1.756   2.205   1.922
10075SOL    HW231125   1.603   2.164   1.961
10076SOL     OW31126   5.272   6.359   3.076
10076SOL    HW131127   5.267   6.284   3.142
10076SOL    HW231128   5.330   6.332   3.000
10077SOL     OW31129   3.960   3.328   0.894
10077SOL    HW131130   4.034   3.280   0.942
10077SOL    HW231131   3.995   3.416   0.860
10078SOL     OW31132   6.225   5.804   4.567
10078SOL    HW131133   6.285   5.799   4.647
10078SOL    HW231134   6.260   5.872   4.503
10079SOL     OW31135   6.046   3.246   3.118
10079SOL    HW131136   5.955   3.287   3.117
10079SOL    HW231137   6.039   3.152   3.151
10080SOL     OW31138   4.705   1.440   6.266
10080SOL    HW131139   4.630   1.465   6.327
10080SOL    HW231140   4.792   1.457   6.311
10081SOL     OW31141   0.868   1.766   6.694
10081SOL    HW131142   0.807   1.801   6.765
10081SOL    HW231143   0.950   1.728   6.736
10082SOL     OW31144   0.683   5.254   2.419
10082SOL    HW131145   0.631   5.268   2.334
10082SOL    HW231146   0.624   5.210   2.487
10083SOL     OW31147   2.936   0.212   3.736
10083SOL    HW131148   2.994   0.225   3.655
10083SOL    HW231149   2.861   0.149   3.715
10084SOL     OW31150   0.584   0.473   5.448
10084SOL    HW131151   0.513   0.420   5.402
10084SOL    HW231152   0.547   0.562   5.474
10085SOL     OW31153   3.389   0.154   0.776
10085SOL    HW131154   3.478   0.194   0.756
10085SOL    HW231155   3.359   0.098   0.699
10086SOL     OW31156   6.058   6.070   3.219
10086SOL    HW131157   6.019   6.109   3.136
10086SOL    HW231158   5.985   6.046   3.283
10087SOL     OW31159   6.108   5.964   4.229
10087SOL    HW131160   6.124   5.866   4.217
10087SOL    HW231161   6.011   5.985   4.215
10088SOL     OW31162   6.995   0.286   1.666
10088SOL    HW131163   6.906   0.251   1.639
10088SOL    HW231164   0.009   0.345   1.593
10089SOL     OW31165   3.235   1.995   3.146
10089SOL    HW131166   3.177   2.043   3.081
10089SOL    HW231167   3.331   2.013   3.124
10090SOL     OW31168   0.333   5.293   2.062
10090SOL    HW131169   0.234   5.292   2.077
10090SOL    HW231170   0.372   5.375   2.104
10091SOL     OW31171   6.832   5.775   6.513
10091SOL    HW131172   6.848   5.872   6.497
10091SOL    HW231173   6.737   5.752   6.492
10092SOL     OW31174   1.351   2.900   6.067
10092SOL    HW131175   1.427   2.949   6.026
10092SOL    HW231176   1.385   2.837   6.137
10093SOL     OW31177   4.804   3.289   5.130
10093SOL    HW131178   4.867   3.286   5.207
10093SOL    HW231179   4.794   3.384   5.098
10094SOL     OW31180   2.344   6.150   1.013
10094SOL    HW131181   2.347   6.191   1.104
10094SOL    HW231182   2.415   6.190   0.955
10095SOL     OW31183   5.086   1.589   4.545
10095SOL    HW131184   5.182   1.564   4.549
10095SOL    HW231185   5.054   1.613   4.637
10096SOL     OW31186   4.434   6.682   2.747
10096SOL    HW131187   4.490   6.650   2.671
10096SOL    HW231188   4.457   6.630   2.829
10097SOL     OW31189   2.043   2.148   6.787
10097SOL    HW131190   1.961   2.130   6.842
10097SOL    HW231191   2.062   2.246   6.786
10098SOL     OW31192   2.833   6.840   4.978
10098SOL    HW131193   2.842   6.896   4.896
10098SOL    HW231194   2.782   6.891   5.048
10099SOL     OW31195   6.962   5.082   1.866
10099SOL    HW131196   6.953   5.079   1.767
10099SOL    HW231197   6.888   5.030   1.908
10100SOL     OW31198   5.197   6.084   5.195
10100SOL    HW131199   5.291   6.084   5.230
10100SOL    HW231200   5.155   6.173   5.214
10101SOL     OW31201   6.923   3.457   1.809
10101SOL    HW131202   7.007   3.454   1.863
10101SOL    HW231203   6.846   3.483   1.868
10102SOL     OW31204   0.038   0.490   0.941
10102SOL    HW131205   0.061   0.469   0.846
10102SOL    HW231206   0.075   0.580   0.965
10103SOL     OW31207   1.934   0.336   5.479
10103SOL    HW131208   1.930   0.430   5.444
10103SOL    HW231209   2.002   0.284   5.428
10104SOL     OW31210   1.330   1.144   5.482
10104SOL    HW131211   1.291   1.088   5.409
10104SOL    HW231212   1.337   1.239   5.450
10105SOL     OW31213   1.933   0.331   5.919
10105SOL    HW131214   1.935   0.408   5.984
10105SOL    HW231215   1.888   0.253   5.961
10106SOL     OW31216   4.232   6.578   0.954
10106SOL    HW131217   4.290   6.556   1.033
10106SOL    HW231218   4.218   6.495   0.900
10107SOL     OW31219   5.397   1.509   6.257
10107SOL    HW131220   5.474   1.572   6.252
10107SOL    HW231221   5.426   1.424   6.301
10108SOL     OW31222   0.282   2.205   0.033
10108SOL    HW131223   0.376   2.213   0.000
10108SOL    HW231224   0.258   2.286   0.085
10109SOL     OW31225   0.745   1.148   0.831
10109SOL    HW131226   0.839   1.121   0.808
10109SOL    HW231227   0.716   1.221   0.769
10110SOL     OW31228   4.578   4.422   4.045
10110SOL    HW131229   4.629   4.349   4.000
10110SOL    HW231230   4.519   4.382   4.116
10111SOL     OW31231   6.944   3.680   3.294
10111SOL    HW131232   0.014   3.712   3.313
10111SOL    HW231233   6.907   3.634   3.374
10112SOL     OW31234   5.590   3.534   2.698
10112SOL    HW131235   5.577   3.435   2.705
10112SOL    HW231236   5.611   3.559   2.604
10113SOL     OW31237   4.600   0.074   1.018
10113SOL    HW131238   4.531   0.088   0.948
10113SOL    HW231239   4.591   7.004   1.056
10114SOL     OW31240   4.229   1.912   3.201
10114SOL    HW131241   4.238   1.872   3.292
10114SOL    HW231242   4.319   1.927   3.161
10115SOL     OW31243   3.733   1.664   5.094
10115SOL    HW131244   3.791   1.639   5.016
10115SOL    HW231245   3.669   1.735   5.065
10116SOL     OW31246   0.503   6.641   6.788
10116SOL    HW131247   0.524   6.544   6.797
10116SOL    HW231248   0.439   6.655   6.713
10117SOL     OW31249   6.973   6.291   5.944
10117SOL    HW131250   6.996   6.214   5.884
10117SOL    HW231251   6.988   6.376   5.895
10118SOL     OW31252   2.480   4.414   4.044
10118SOL    HW131253   2.441   4.328   4.011
10118SOL    HW231254   2.493   4.410   4.143
10119SOL     OW31255   6.344   5.040   3.587
10119SOL    HW131256   6.286   5.111   3.548
10119SOL    HW231257   6.314   5.021   3.681
10120SOL     OW31258   1.775   3.431   3.984
10120SOL    HW131259   1.708   3.357   3.993
10120SOL    HW231260   1.853   3.412   4.044
10121SOL     OW31261   5.989   4.182   0.352
10121SOL    HW131262   6.068   4.139   0.396
10121SOL    HW231263   5.906   4.158   0.402
10122SOL     OW31264   6.084   2.404   3.830
10122SOL    HW131265   6.114   2.347   3.754
10122SOL    HW231266   6.083   2.351   3.915
10123SOL     OW31267   6.023   6.517   1.207
10123SOL    HW131268   5.997   6.421   1.221
10123SOL    HW231269   5.947   6.566   1.164
10124SOL     OW31270   1.345   4.987   0.951
10124SOL    HW131271   1.376   4.998   1.046
10124SOL    HW231272   1.264   4.930   0.949
10125SOL     OW31273   2.758   1.321   0.793
10125SOL    HW131274   2.779   1.268   0.711
10125SOL    HW231275   2.689   1.273   0.848
10126SOL     OW31276   6.900   6.817   5.946
10126SOL    HW131277   6.896   6.902   5.892
10126SOL    HW231278   6.811   6.801   5.989
10127SOL     OW31279   2.141   3.428   0.348
10127SOL    HW131280   2.066   3.365   0.327
10127SOL    HW231281   2.103   3.518   0.372
10128SOL     OW31282   2.761   1.029   5.936
10128SOL    HW131283   2.721   0.956   5.992
10128SOL    HW231284   2.753   1.116   5.984
10129SOL     OW31285   6.868   2.129   2.493
10129SOL    HW131286   6.787   2.179   2.462
10129SOL    HW231287   6.938   2.132   2.421
10130SOL     OW31288   0.825   3.378   1.469
10130SOL    HW131289   0.872   3.411   1.551
10130SOL    HW231290   0.879   3.305   1.426
10131SOL     OW31291   1.326   0.491   4.233
10131SOL    HW131292   1.385   0.557   4.280
10131SOL    HW231293   1.274   0.439   4.300
10132SOL     OW31294   1.403   0.267   2.885
10132SOL    HW131295   1.483   0.208   2.897
10132SOL    HW231296   1.321   0.210   2.880
10133SOL     OW31297   4.554   6.446   0.802
10133SOL    HW131298   4.537   6.464   0.899
10133SOL    HW231299   4.591   6.528   0.759
10134SOL     OW31300   6.277   1.321   3.468
10134SOL    HW131301   6.324   1.309   3.556
10134SOL    HW231302   6.213   1.246   3.453
10135SOL     OW31303   4.739   2.289   3.501
10135SOL    HW131304   4.798   2.352   3.451
10135SOL    HW231305   4.650   2.283   3.454
10136SOL     OW31306   5.473   2.353   2.243
10136SOL    HW131307   5.539   2.426   2.226
10136SOL    HW231308   5.453   2.305   2.157
10137SOL     OW31309   0.040   4.978   5.971
10137SOL    HW131310   7.022   5.033   5.898
10137SOL    HW231311   0.070   4.890   5.934
10138SOL     OW31312   5.630   2.893   0.854
10138SOL    HW131313   5.660   2.819   0.914
10138SOL    HW231314   5.547   2.867   0.806
10139SOL     OW31315   3.225   3.567   5.125
10139SOL    HW131316   3.239   3.648   5.068
10139SOL    HW231317   3.298   3.561   5.193
10140SOL     OW31318   0.024   6.265   6.469
10140SOL    HW131319   7.003   6.345   6.511
10140SOL    HW231320   0.063   6.290   6.381
10141SOL     OW31321   4.355   1.069   4.471
10141SOL    HW131322   4.318   0.996   4.528
10141SOL    HW231323   4.451   1.050   4.451
10142SOL     OW31324   6.099   6.620   5.721
10142SOL    HW131325   6.038   6.576   5.787
10142SOL    HW231326   6.095   6.570   5.634
10143SOL     OW31327   5.721   2.661   0.224
10143SOL    HW131328   5.818   2.637   0.231
10143SOL    HW231329   5.699   2.728   0.294
10144SOL     OW31330   4.846   6.719   5.236
10144SOL    HW131331   4.751   6.712   5.206
10144SOL    HW231332   4.901   6.651   5.188
10145SOL     OW31333   3.825   6.001   3.207
10145SOL    HW131334   3.892   6.062   3.249
10145SOL    HW231335   3.785   5.942   3.276
10146SOL     OW31336   6.706   4.304   4.199
10146SOL    HW131337   6.663   4.229   4.248
10146SOL    HW231338   6.693   4.389   4.250
10147SOL     OW31339   5.064   4.450   6.402
10147SOL    HW131340   5.105   4.456   6.494
10147SOL    HW231341   5.137   4.435   6.335
10148SOL     OW31342   5.762   3.898   0.873
10148SOL    HW131343   5.770   3.840   0.792
10148SOL    HW231344   5.815   3.982   0.859
10149SOL     OW31345   5.211   4.877   1.393
10149SOL    HW131346   5.225   4.908   1.487
10149SOL    HW231347   5.157   4.793   1.393
10150SOL     OW31348   4.743   3.161   1.699
10150SOL    HW131349   4.718   3.098   1.772
10150SOL    HW231350   4.721   3.121   1.610
10151SOL     OW31351   0.686   6.837   5.903
10151SOL    HW131352   0.657   6.749   5.940
10151SOL    HW231353   0.606   6.894   5.884
10152SOL     OW31354   6.461   5.872   4.086
10152SOL    HW131355   6.426   5.787   4.126
10152SOL    HW231356   6.388   5.918   4.035
10153SOL     OW31357   4.609   5.846   4.440
10153SOL    HW131358   4.666   5.848   4.522
10153SOL    HW231359   4.623   5.760   4.391
10154SOL     OW31360   3.196   6.401   6.200
10154SOL    HW131361   3.120   6.448   6.245
10154SOL    HW231362   3.281   6.449   6.220
10155SOL     OW31363   4.923   2.605   5.621
10155SOL    HW131364   5.001   2.666   5.608
10155SOL    HW231365   4.849   2.654   5.666
10156SOL     OW31366   5.040   0.526   1.290
10156SOL    HW131367   5.098   0.554   1.366
10156SOL    HW231368   4.946   0.516   1.321
10157SOL     OW31369   6.950   2.273   0.144
10157SOL    HW131370   0.007   2.304   0.195
10157SOL    HW231371   6.980   2.221   0.064
10158SOL     OW31372   6.126   6.779   2.013
10158SOL    HW131373   6.188   6.710   1.975
10158SOL    HW231374   6.102   6.844   1.941
10159SOL     OW31375   3.793   3.344   2.856
10159SOL    HW131376   3.799   3.434   2.900
10159SOL    HW231377   3.707   3.300   2.882
10160SOL     OW31378   1.602   3.666   3.434
10160SOL    HW131379   1.529   3.720   3.393
10160SOL    HW231380   1.633   3.596   3.369
10161SOL     OW31381   3.603   4.994   0.006
10161SOL    HW131382   3.538   4.992   0.081
10161SOL    HW231383   3.562   4.950   6.948
10162SOL     OW31384   2.249   4.088   0.966
10162SOL    HW131385   2.333   4.138   0.943
10162SOL    HW231386   2.247   4.071   1.064
10163SOL     OW31387   0.772   5.421   6.446
10163SOL    HW131388   0.773   5.322   6.463
10163SOL    HW231389   0.699   5.443   6.381
10164SOL     OW31390   5.867   3.409   4.031
10164SOL    HW131391   5.951   3.377   3.988
10164SOL    HW231392   5.876   3.505   4.057
10165SOL     OW31393   6.526   2.855   3.657
10165SOL    HW131394   6.620   2.830   3.633
10165SOL    HW231395   6.527   2.924   3.729
10166SOL     OW31396   1.140   1.910   1.199
10166SOL    HW131397   1.151   1.988   1.262
10166SOL    HW231398   1.108   1.830   1.249
10167SOL     OW31399   6.954   5.577   0.197
10167SOL    HW131400   6.994   5.512   0.262
10167SOL    HW231401   6.952   5.668   0.239
10168SOL     OW31402   6.494   1.522   6.099
10168SOL    HW131403   6.522   1.484   6.187
10168SOL    HW231404   6.426   1.593   6.114
10169SOL     OW31405   6.584   3.928   3.399
10169SOL    HW131406   6.494   3.942   3.357
10169SOL    HW231407   6.656   3.961   3.338
10170SOL     OW31408   6.324   5.441   6.247
10170SOL    HW131409   6.399   5.457   6.311
10170SOL    HW231410   6.350   5.475   6.156
10171SOL     OW31411   0.627   2.729   4.680
10171SOL    HW131412   0.650   2.632   4.669
10171SOL    HW231413   0.572   2.741   4.762
10172SOL     OW31414   0.407   6.981   4.589
10172SOL    HW131415   0.399   7.021   4.680
10172SOL    HW231416   0.490   6.926   4.584
10173SOL     OW31417   2.530   3.512   6.736
10173SOL    HW131418   2.625   3.485   6.718
10173SOL    HW231419   2.493   3.557   6.655
10174SOL     OW31420   4.432   4.511   3.581
10174SOL    HW131421   4.346   4.495   3.629
10174SOL    HW231422   4.415   4.562   3.497
10175SOL     OW31423   6.437   1.789   3.907
10175SOL    HW131424   6.415   1.862   3.843
10175SOL    HW231425   6.534   1.796   3.934
10176SOL     OW31426   6.304   3.708   5.460
10176SOL    HW131427   6.327   3.744   5.370
10176SOL    HW231428   6.283   3.783   5.522
10177SOL     OW31429   1.690   6.737   1.288
10177SOL    HW131430   1.607   6.791   1.277
10177SOL    HW231431   1.669   6.641   1.269
10178SOL     OW31432   1.780   1.123   0.880
10178SOL    HW131433   1.877   1.142   0.898
10178SOL    HW231434   1.771   1.081   0.789
10179SOL     OW31435   0.523   4.038   6.690
10179SOL    HW131436   0.532   3.950   6.642
10179SOL    HW231437   0.539   4.113   6.625
10180SOL     OW31438   4.392   0.632   0.435
10180SOL    HW131439   4.368   0.684   0.353
10180SOL    HW231440   4.468   0.570   0.414
10181SOL     OW31441   0.505   3.161   1.141
10181SOL    HW131442   0.424   3.146   1.085
10181SOL    HW231443   0.532   3.075   1.184
10182SOL     OW31444   5.166   1.067   6.919
10182SOL    HW131445   5.246   1.008   6.908
10182SOL    HW231446   5.096   1.018   6.971
10183SOL     OW31447   6.055   2.892   6.164
10183SOL    HW131448   5.959   2.878   6.187
10183SOL    HW231449   6.065   2.977   6.111
10184SOL     OW31450   5.331   2.920   6.919
10184SOL    HW131451   5.392   2.945   6.994
10184SOL    HW231452   5.348   2.825   6.891
10185SOL     OW31453   5.827   6.470   2.453
10185SOL    HW131454   5.844   6.520   2.369
10185SOL    HW231455   5.812   6.373   2.432
10186SOL     OW31456   4.943   3.664   4.750
10186SOL    HW131457   4.951   3.763   4.746
10186SOL    HW231458   4.913   3.636   4.842
10187SOL     OW31459   1.823   4.272   5.380
10187SOL    HW131460   1.816   4.175   5.404
10187SOL    HW231461   1.847   4.325   5.462
10188SOL     OW31462   2.622   5.171   6.596
10188SOL    HW131463   2.651   5.266   6.602
10188SOL    HW231464   2.527   5.163   6.627
10189SOL     OW31465   1.824   0.816   6.490
10189SOL    HW131466   1.735   0.780   6.517
10189SOL    HW231467   1.836   0.802   6.391
10190SOL     OW31468   4.340   3.317   1.739
10190SOL    HW131469   4.430   3.328   1.781
10190SOL    HW231470   4.318   3.399   1.686
10191SOL     OW31471   5.757   5.756   0.239
10191SOL    HW131472   5.834   5.789   0.184
10191SOL    HW231473   5.706   5.687   0.187
10192SOL     OW31474   3.097   1.834   5.092
10192SOL    HW131475   3.151   1.750   5.083
10192SOL    HW231476   3.024   1.834   5.023
10193SOL     OW31477   2.980   3.894   2.465
10193SOL    HW131478   3.050   3.951   2.421
10193SOL    HW231479   3.008   3.875   2.559
10194SOL     OW31480   4.445   0.528   4.761
10194SOL    HW131481   4.387   0.455   4.797
10194SOL    HW231482   4.456   0.600   4.831
10195SOL     OW31483   0.022   0.003   1.868
10195SOL    HW131484   0.017   6.978   1.780
10195SOL    HW231485   0.067   0.092   1.856
10196SOL     OW31486   5.366   1.873   2.917
10196SOL    HW131487   5.304   1.805   2.878
10196SOL    HW231488   5.356   1.960   2.869
10197SOL     OW31489   4.931   1.805   3.965
10197SOL    HW131490   4.967   1.772   3.878
10197SOL    HW231491   4.988   1.770   4.040
10198SOL     OW31492   3.593   6.681   0.849
10198SOL    HW131493   3.627   6.696   0.756
10198SOL    HW231494   3.654   6.619   0.897
10199SOL     OW31495   0.392   1.971   6.235
10199SOL    HW131496   0.446   1.970   6.319
10199SOL    HW231497   0.339   2.056   6.231
10200SOL     OW31498   5.043   3.211   5.288
10200SOL    HW131499   5.129   3.233   5.242
10200SOL    HW231500   5.038   3.112   5.305
10201SOL     OW31501   0.394   5.952   1.395
10201SOL    HW131502   0.375   5.931   1.299
10201SOL    HW231503   0.467   6.020   1.400
10202SOL     OW31504   1.386   3.428   0.320
10202SOL    HW131505   1.386   3.502   0.387
10202SOL    HW231506   1.423   3.462   0.233
10203SOL     OW31507   1.336   2.796   1.655
10203SOL    HW131508   1.416   2.857   1.655
10203SOL    HW231509   1.311   2.774   1.749
10204SOL     OW31510   3.548   5.529   6.400
10204SOL    HW131511   3.556   5.436   6.437
10204SOL    HW231512   3.497   5.526   6.314
10205SOL     OW31513   3.473   1.369   2.465
10205SOL    HW131514   3.562   1.356   2.508
10205SOL    HW231515   3.448   1.287   2.413
10206SOL     OW31516   4.801   6.587   6.691
10206SOL    HW131517   4.792   6.517   6.762
10206SOL    HW231518   4.716   6.640   6.686
10207SOL     OW31519   1.833   1.150   0.507
10207SOL    HW131520   1.796   1.065   0.544
10207SOL    HW231521   1.932   1.141   0.494
10208SOL     OW31522   6.415   4.948   4.167
10208SOL    HW131523   6.339   4.893   4.204
10208SOL    HW231524   6.499   4.894   4.170
10209SOL     OW31525   0.621   0.532   5.724
10209SOL    HW131526   0.707   0.498   5.763
10209SOL    HW231527   0.624   0.526   5.625
10210SOL     OW31528   4.945   0.059   1.715
10210SOL    HW131529   4.948   0.018   1.806
10210SOL    HW231530   4.965   7.012   1.646
10211SOL     OW31531   4.317   6.194   5.372
10211SOL    HW131532   4.260   6.274   5.353
10211SOL    HW231533   4.334   6.145   5.287
10212SOL     OW31534   0.160   1.124   4.558
10212SOL    HW131535   0.152   1.223   4.556
10212SOL    HW231536   0.122   1.090   4.645
10213SOL     OW31537   5.821   2.288   1.899
10213SOL    HW131538   5.784   2.343   1.974
10213SOL    HW231539   5.828   2.346   1.817
10214SOL     OW31540   0.996   2.004   2.486
10214SOL    HW131541   1.071   1.960   2.438
10214SOL    HW231542   1.032   2.069   2.553
10215SOL     OW31543   3.400   2.885   4.344
10215SOL    HW131544   3.324   2.930   4.298
10215SOL    HW231545   3.481   2.887   4.286
10216SOL     OW31546   0.802   7.016   0.672
10216SOL    HW131547   0.902   0.003   0.674
10216SOL    HW231548   0.773   6.995   0.579
10217SOL     OW31549   2.754   1.542   4.138
10217SOL    HW131550   2.796   1.451   4.130
10217SOL    HW231551   2.689   1.556   4.063
10218SOL     OW31552   1.612   1.032   1.704
10218SOL    HW131553   1.660   0.995   1.783
10218SOL    HW231554   1.523   1.067   1.732
10219SOL     OW31555   0.698   3.285   2.181
10219SOL    HW131556   0.602   3.257   2.176
10219SOL    HW231557   0.753   3.208   2.212
10220SOL     OW31558   4.332   1.487   2.110
10220SOL    HW131559   4.338   1.396   2.152
10220SOL    HW231560   4.239   1.522   2.122
10221SOL     OW31561   1.787   2.376   3.550
10221SOL    HW131562   1.764   2.280   3.533
10221SOL    HW231563   1.764   2.431   3.470
10222SOL     OW31564   2.039   2.864   6.208
10222SOL    HW131565   1.955   2.902   6.169
10222SOL    HW231566   2.102   2.839   6.135
10223SOL     OW31567   1.487   6.019   6.904
10223SOL    HW131568   1.541   6.022   6.989
10223SOL    HW231569   1.548   6.001   6.827
10224SOL     OW31570   6.372   1.572   5.230
10224SOL    HW131571   6.361   1.624   5.145
10224SOL    HW231572   6.465   1.585   5.265
10225SOL     OW31573   1.942   6.171   5.754
10225SOL    HW131574   1.986   6.090   5.793
10225SOL    HW231575   1.859   6.143   5.706
10226SOL     OW31576   2.355   0.253   6.950
10226SOL    HW131577   2.267   0.207   6.962
10226SOL    HW231578   2.428   0.196   6.989
10227SOL     OW31579   5.055   4.978   0.933
10227SOL    HW131580   5.100   4.993   0.845
10227SOL    HW231581   5.041   4.880   0.947
10228SOL     OW31582   1.344   5.542   2.320
10228SOL    HW131583   1.397   5.594   2.387
10228SOL    HW231584   1.249   5.574   2.320
10229SOL     OW31585   0.642   1.113   4.404
10229SOL    HW131586   0.684   1.028   4.372
10229SOL    HW231587   0.669   1.130   4.499
10230SOL     OW31588   6.287   6.949   3.539
10230SOL    HW131589   6.289   0.026   3.531
10230SOL    HW231590   6.357   6.909   3.479
10231SOL     OW31591   6.777   5.610   6.038
10231SOL    HW131592   6.866   5.586   6.078
10231SOL    HW231593   6.756   5.545   5.965
10232SOL     OW31594   2.480   0.599   3.709
10232SOL    HW131595   2.422   0.633   3.635
10232SOL    HW231596   2.439   0.623   3.797
10233SOL     OW31597   5.031   3.486   5.150
10233SOL    HW131598   4.954   3.525   5.099
10233SOL    HW231599   5.009   3.393   5.178
10234SOL     OW31600   4.985   1.119   1.171
10234SOL    HW131601   5.052   1.047   1.156
10234SOL    HW231602   4.920   1.121   1.096
10235SOL     OW31603   4.919   2.592   0.394
10235SOL    HW131604   4.974   2.571   0.474
10235SOL    HW231605   4.830   2.548   0.401
10236SOL     OW31606   2.129   6.617   2.085
10236SOL    HW131607   2.182   6.676   2.146
10236SOL    HW231608   2.047   6.586   2.133
10237SOL     OW31609   6.385   3.670   1.012
10237SOL    HW131610   6.441   3.594   1.045
10237SOL    HW231611   6.395   3.748   1.074
10238SOL     OW31612   3.350   4.063   3.908
10238SOL    HW131613   3.343   4.120   3.990
10238SOL    HW231614   3.345   3.967   3.934
10239SOL     OW31615   0.839   4.257   5.130
10239SOL    HW131616   0.855   4.199   5.051
10239SOL    HW231617   0.899   4.337   5.125
10240SOL     OW31618   2.268   5.192   3.268
10240SOL    HW131619   2.237   5.214   3.360
10240SOL    HW231620   2.191   5.195   3.204
10241SOL     OW31621   7.022   0.638   2.344
10241SOL    HW131622   0.085   0.628   2.395
10241SOL    HW231623   0.009   0.595   2.254
10242SOL     OW31624   6.942   1.339   6.622
10242SOL    HW131625   6.991   1.391   6.551
10242SOL    HW231626   6.957   1.383   6.710
10243SOL     OW31627   0.569   5.001   1.260
10243SOL    HW131628   0.651   4.944   1.249
10243SOL    HW231629   0.594   5.086   1.305
10244SOL     OW31630   1.329   4.642   0.502
10244SOL    HW131631   1.342   4.725   0.556
10244SOL    HW231632   1.407   4.628   0.442
10245SOL     OW31633   3.212   5.021   0.074
10245SOL    HW131634   3.162   4.970   0.144
10245SOL    HW231635   3.163   5.105   0.053
10246SOL     OW31636   2.948   3.677   4.146
10246SOL    HW131637   2.977   3.585   4.172
10246SOL    HW231638   2.968   3.740   4.221
10247SOL     OW31639   0.284   5.183   5.316
10247SOL    HW131640   0.384   5.183   5.323
10247SOL    HW231641   0.245   5.226   5.397
10248SOL     OW31642   3.682   6.764   2.187
10248SOL    HW131643   3.632   6.813   2.116
10248SOL    HW231644   3.659   6.804   2.276
10249SOL     OW31645   3.732   1.260   6.029
10249SOL    HW131646   3.772   1.187   6.085
10249SOL    HW231647   3.701   1.221   5.942
10250SOL     OW31648   6.753   2.697   1.160
10250SOL    HW131649   6.782   2.719   1.253
10250SOL    HW231650   6.802   2.617   1.127
10251SOL     OW31651   2.858   2.166   4.995
10251SOL    HW131652   2.859   2.106   5.075
10251SOL    HW231653   2.945   2.213   4.988
10252SOL     OW31654   5.974   5.886   0.414
10252SOL    HW131655   5.926   5.837   0.341
10252SOL    HW231656   5.907   5.924   0.478
10253SOL     OW31657   5.074   5.890   0.390
10253SOL    HW131658   5.166   5.905   0.356
10253SOL    HW231659   5.008   5.905   0.316
10254SOL     OW31660   4.043   1.921   5.216
10254SOL    HW131661   4.012   1.971   5.297
10254SOL    HW231662   3.983   1.942   5.139
10255SOL     OW31663   1.942   5.723   1.237
10255SOL    HW131664   1.956   5.668   1.320
10255SOL    HW231665   1.887   5.671   1.172
10256SOL     OW31666   6.338   0.484   2.035
10256SOL    HW131667   6.427   0.474   2.080
10256SOL    HW231668   6.325   0.580   2.009
10257SOL     OW31669   1.884   5.385   4.053
10257SOL    HW131670   1.927   5.335   4.129
10257SOL    HW231671   1.833   5.463   4.089
10258SOL     OW31672   4.479   0.275   3.922
10258SOL    HW131673   4.440   0.219   3.849
10258SOL    HW231674   4.406   0.323   3.970
10259SOL     OW31675   0.381   4.506   3.215
10259SOL    HW131676   0.332   4.434   3.166
10259SOL    HW231677   0.431   4.563   3.149
10260SOL     OW31678   0.214   0.045   3.123
10260SOL    HW131679   0.201   6.968   3.129
10260SOL    HW231680   0.307   0.068   3.149
10261SOL     OW31681   6.413   5.475   3.099
10261SOL    HW131682   6.340   5.515   3.044
10261SOL    HW231683   6.500   5.517   3.073
10262SOL     OW31684   2.538   0.014   4.538
10262SOL    HW131685   2.479   0.033   4.459
10262SOL    HW231686   2.483   0.015   4.622
10263SOL     OW31687   4.808   0.746   6.246
10263SOL    HW131688   4.908   0.757   6.242
10263SOL    HW231689   4.766   0.798   6.172
10264SOL     OW31690   5.734   2.399   6.578
10264SOL    HW131691   5.722   2.401   6.479
10264SOL    HW231692   5.802   2.467   6.605
10265SOL     OW31693   3.097   1.804   3.332
10265SOL    HW131694   3.154   1.858   3.270
10265SOL    HW231695   3.001   1.829   3.319
10266SOL     OW31696   3.034   3.061   5.532
10266SOL    HW131697   3.001   3.083   5.623
10266SOL    HW231698   3.133   3.078   5.527
10267SOL     OW31699   5.449   1.608   6.839
10267SOL    HW131700   5.387   1.619   6.918
10267SOL    HW231701   5.514   1.684   6.837
10268SOL     OW31702   4.557   5.079   1.671
10268SOL    HW131703   4.605   5.054   1.587
10268SOL    HW231704   4.604   5.038   1.749
10269SOL     OW31705   1.228   2.424   5.123
10269SOL    HW131706   1.302   2.487   5.145
10269SOL    HW231707   1.141   2.473   5.124
10270SOL     OW31708   2.665   5.393   3.770
10270SOL    HW131709   2.754   5.347   3.772
10270SOL    HW231710   2.679   5.491   3.762
10271SOL     OW31711   3.966   2.833   0.394
10271SOL    HW131712   3.897   2.816   0.324
10271SOL    HW231713   3.932   2.902   0.458
10272SOL     OW31714   0.391   0.103   4.840
10272SOL    HW131715   0.299   0.127   4.873
10272SOL    HW231716   0.458   0.160   4.886
10273SOL     OW31717   4.419   5.128   3.509
10273SOL    HW131718   4.429   5.066   3.587
10273SOL    HW231719   4.357   5.089   3.442
10274SOL     OW31720   0.833   4.152   4.890
10274SOL    HW131721   0.831   4.234   4.832
10274SOL    HW231722   0.812   4.072   4.834
10275SOL     OW31723   0.554   6.500   2.213
10275SOL    HW131724   0.597   6.439   2.146
10275SOL    HW231725   0.580   6.594   2.193
10276SOL     OW31726   6.248   5.765   5.897
10276SOL    HW131727   6.294   5.676   5.892
10276SOL    HW231728   6.262   5.805   5.988
10277SOL     OW31729   2.884   5.457   4.266
10277SOL    HW131730   2.846   5.512   4.340
10277SOL    HW231731   2.819   5.451   4.191
10278SOL     OW31732   5.810   1.534   4.532
10278SOL    HW131733   5.834   1.523   4.436
10278SOL    HW231734   5.720   1.492   4.548
10279SOL     OW31735   2.263   5.909   4.386
10279SOL    HW131736   2.247   5.995   4.434
10279SOL    HW231737   2.276   5.835   4.452
10280SOL     OW31738   1.516   3.672   1.122
10280SOL    HW131739   1.512   3.578   1.090
10280SOL    HW231740   1.592   3.720   1.077
10281SOL     OW31741   5.934   1.890   2.891
10281SOL    HW131742   5.881   1.970   2.921
10281SOL    HW231743   6.007   1.873   2.957
10282SOL     OW31744   6.261   4.128   3.979
10282SOL    HW131745   6.269   4.119   4.079
10282SOL    HW231746   6.250   4.038   3.938
10283SOL     OW31747   0.948   3.442   0.443
10283SOL    HW131748   0.848   3.438   0.446
10283SOL    HW231749   0.984   3.445   0.536
10284SOL     OW31750   5.371   3.876   5.334
10284SOL    HW131751   5.337   3.910   5.246
10284SOL    HW231752   5.310   3.805   5.368
10285SOL     OW31753   4.585   1.321   1.274
10285SOL    HW131754   4.614   1.245   1.332
10285SOL    HW231755   4.657   1.340   1.206
10286SOL     OW31756   3.079   2.168   3.899
10286SOL    HW131757   3.056   2.207   3.810
10286SOL    HW231758   2.997   2.129   3.940
10287SOL     OW31759   2.387   6.273   1.760
10287SOL    HW131760   2.423   6.366   1.750
10287SOL    HW231761   2.460   6.207   1.741
10288SOL     OW31762   5.089   6.391   2.487
10288SOL    HW131763   5.146   6.384   2.406
10288SOL    HW231764   5.048   6.302   2.506
10289SOL     OW31765   3.065   0.941   2.104
10289SOL    HW131766   2.975   0.901   2.091
10289SOL    HW231767   3.134   0.883   2.061
10290SOL     OW31768   3.348   3.876   1.855
10290SOL    HW131769   3.384   3.844   1.942
10290SOL    HW231770   3.254   3.910   1.867
10291SOL     OW31771   4.238   1.504   4.184
10291SOL    HW131772   4.230   1.429   4.250
10291SOL    HW231773   4.335   1.529   4.174
10292SOL     OW31774   1.793   0.645   4.798
10292SOL    HW131775   1.703   0.630   4.757
10292SOL    HW231776   1.864   0.618   4.733
10293SOL     OW31777   2.326   5.945   3.905
10293SOL    HW131778   2.303   5.859   3.860
10293SOL    HW231779   2.264   5.959   3.983
10294SOL     OW31780   4.823   4.166   2.492
10294SOL    HW131781   4.826   4.066   2.495
10294SOL    HW231782   4.916   4.202   2.494
10295SOL     OW31783   6.094   5.396   5.718
10295SOL    HW131784   6.014   5.452   5.741
10295SOL    HW231785   6.068   5.329   5.648
10296SOL     OW31786   4.491   3.114   6.615
10296SOL    HW131787   4.569   3.174   6.627
10296SOL    HW231788   4.521   3.019   6.615
10297SOL     OW31789   1.937   6.735   5.610
10297SOL    HW131790   1.850   6.700   5.576
10297SOL    HW231791   1.936   6.835   5.607
10298SOL     OW31792   3.652   5.217   2.083
10298SOL    HW131793   3.724   5.287   2.077
10298SOL    HW231794   3.693   5.129   2.107
10299SOL     OW31795   4.940   4.866   2.662
10299SOL    HW131796   4.999   4.860   2.581
10299SOL    HW231797   4.847   4.837   2.637
10300SOL     OW31798   2.053   4.929   3.298
10300SOL    HW131799   2.045   4.980   3.383
10300SOL    HW231800   1.962   4.918   3.257
10301SOL     OW31801   6.398   2.532   3.343
10301SOL    HW131802   6.412   2.524   3.245
10301SOL    HW231803   6.483   2.509   3.391
10302SOL     OW31804   0.797   6.069   4.127
10302SOL    HW131805   0.862   6.142   4.102
10302SOL    HW231806   0.794   6.001   4.054
10303SOL     OW31807   2.482   5.224   1.511
10303SOL    HW131808   2.531   5.292   1.455
10303SOL    HW231809   2.402   5.191   1.461
10304SOL     OW31810   5.217   0.844   2.865
10304SOL    HW131811   5.248   0.767   2.920
10304SOL    HW231812   5.259   0.840   2.775
10305SOL     OW31813   0.666   5.179   6.762
10305SOL    HW131814   0.708   5.253   6.708
10305SOL    HW231815   0.713   5.172   6.850
10306SOL     OW31816   4.487   6.448   6.954
10306SOL    HW131817   4.463   6.531   7.003
10306SOL    HW231818   4.445   6.369   7.000
10307SOL     OW31819   2.057   2.060   4.205
10307SOL    HW131820   2.059   2.150   4.162
10307SOL    HW231821   2.057   2.070   4.305
10308SOL     OW31822   2.637   5.141   4.119
10308SOL    HW131823   2.713   5.076   4.112
10308SOL    HW231824   2.656   5.221   4.063
10309SOL     OW31825   6.226   0.954   3.682
10309SOL    HW131826   6.156   0.893   3.717
10309SOL    HW231827   6.276   0.994   3.759
10310SOL     OW31828   4.415   2.629   1.523
10310SOL    HW131829   4.511   2.658   1.525
10310SOL    HW231830   4.411   2.529   1.524
10311SOL     OW31831   0.500   5.608   1.574
10311SOL    HW131832   0.476   5.692   1.624
10311SOL    HW231833   0.425   5.543   1.580
10312SOL     OW31834   2.340   5.714   0.848
10312SOL    HW131835   2.428   5.758   0.829
10312SOL    HW231836   2.297   5.760   0.926
10313SOL     OW31837   3.640   7.022   1.414
10313SOL    HW131838   3.673   7.019   1.320
10313SOL    HW231839   3.680   0.078   1.462
10314SOL     OW31840   6.915   0.690   1.465
10314SOL    HW131841   6.999   0.641   1.488
10314SOL    HW231842   6.837   0.644   1.506
10315SOL     OW31843   5.938   5.497   4.617
10315SOL    HW131844   5.930   5.589   4.578
10315SOL    HW231845   5.969   5.503   4.711
10316SOL     OW31846   6.297   2.494   4.767
10316SOL    HW131847   6.228   2.561   4.739
10316SOL    HW231848   6.302   2.490   4.866
10317SOL     OW31849   3.497   5.927   6.163
10317SOL    HW131850   3.439   6.008   6.166
10317SOL    HW231851   3.518   5.897   6.256
10318SOL     OW31852   4.903   6.392   0.250
10318SOL    HW131853   4.823   6.340   0.220
10318SOL    HW231854   4.934   6.451   0.175
10319SOL     OW31855   1.313   2.812   5.483
10319SOL    HW131856   1.232   2.830   5.538
10319SOL    HW231857   1.385   2.878   5.506
10320SOL     OW31858   0.656   0.701   1.122
10320SOL    HW131859   0.718   0.623   1.136
10320SOL    HW231860   0.695   0.782   1.165
10321SOL     OW31861   4.143   0.375   3.713
10321SOL    HW131862   4.071   0.312   3.685
10321SOL    HW231863   4.103   0.464   3.736
10322SOL     OW31864   6.085   5.743   6.405
10322SOL    HW131865   5.990   5.748   6.374
10322SOL    HW231866   6.122   5.835   6.415
10323SOL     OW31867   6.377   3.770   6.046
10323SOL    HW131868   6.368   3.808   5.954
10323SOL    HW231869   6.372   3.670   6.043
10324SOL     OW31870   2.980   3.169   3.106
10324SOL    HW131871   2.959   3.076   3.135
10324SOL    HW231872   2.943   3.233   3.173
10325SOL     OW31873   6.619   4.680   2.997
10325SOL    HW131874   6.643   4.641   3.087
10325SOL    HW231875   6.664   4.768   2.986
10326SOL     OW31876   4.126   2.823   0.117
10326SOL    HW131877   4.048   2.823   0.179
10326SOL    HW231878   4.172   2.912   0.121
10327SOL     OW31879   2.385   1.620   2.034
10327SOL    HW131880   2.406   1.705   2.081
10327SOL    HW231881   2.411   1.542   2.092
10328SOL     OW31882   6.695   3.185   1.791
10328SOL    HW131883   6.639   3.255   1.834
10328SOL    HW231884   6.689   3.101   1.844
10329SOL     OW31885   3.824   0.383   3.905
10329SOL    HW131886   3.890   0.458   3.903
10329SOL    HW231887   3.783   0.372   3.815
10330SOL     OW31888   2.975   5.551   2.851
10330SOL    HW131889   2.990   5.465   2.900
10330SOL    HW231890   3.037   5.621   2.885
10331SOL     OW31891   6.577   0.556   3.511
10331SOL    HW131892   6.499   0.545   3.449
10331SOL    HW231893   6.656   0.589   3.460
10332SOL     OW31894   5.960   1.836   0.445
10332SOL    HW131895   6.057   1.859   0.441
10332SOL    HW231896   5.933   1.791   0.359
10333SOL     OW31897   6.356   4.364   4.553
10333SOL    HW131898   6.287   4.330   4.617
10333SOL    HW231899   6.435   4.302   4.553
10334SOL     OW31900   2.339   5.666   3.899
10334SOL    HW131901   2.256   5.623   3.865
10334SOL    HW231902   2.357   5.635   3.992
10335SOL     OW31903   2.187   4.864   6.982
10335SOL    HW131904   2.235   4.944   7.019
10335SOL    HW231905   2.206   4.857   6.884
10336SOL     OW31906   5.923   6.428   3.247
10336SOL    HW131907   5.889   6.481   3.169
10336SOL    HW231908   5.997   6.369   3.218
10337SOL     OW31909   6.471   6.532   5.425
10337SOL    HW131910   6.415   6.453   5.449
10337SOL    HW231911   6.490   6.531   5.327
10338SOL     OW31912   3.162   6.561   1.657
10338SOL    HW131913   3.191   6.656   1.665
10338SOL    HW231914   3.115   6.548   1.570
10339SOL     OW31915   3.859   4.851   0.889
10339SOL    HW131916   3.821   4.932   0.935
10339SOL    HW231917   3.897   4.789   0.957
10340SOL     OW31918   1.416   5.084   0.232
10340SOL    HW131919   1.381   5.029   0.157
10340SOL    HW231920   1.345   5.096   0.301
10341SOL     OW31921   2.183   3.239   1.547
10341SOL    HW131922   2.144   3.316   1.597
10341SOL    HW231923   2.197   3.162   1.609
10342SOL     OW31924   2.359   5.673   5.244
10342SOL    HW131925   2.416   5.728   5.183
10342SOL    HW231926   2.263   5.684   5.218
10343SOL     OW31927   2.325   3.872   0.529
10343SOL    HW131928   2.312   3.777   0.501
10343SOL    HW231929   2.384   3.876   0.610
10344SOL     OW31930   3.898   3.668   2.501
10344SOL    HW131931   3.957   3.640   2.426
10344SOL    HW231932   3.882   3.767   2.497
10345SOL     OW31933   1.684   0.463   6.215
10345SOL    HW131934   1.635   0.382   6.183
10345SOL    HW231935   1.759   0.435   6.275
10346SOL     OW31936   6.206   1.185   1.245
10346SOL    HW131937   6.278   1.229   1.300
10346SOL    HW231938   6.144   1.256   1.210
10347SOL     OW31939   5.321   2.443   1.583
10347SOL    HW131940   5.299   2.487   1.671
10347SOL    HW231941   5.413   2.470   1.555
10348SOL     OW31942   6.616   1.123   6.856
10348SOL    HW131943   6.547   1.158   6.921
10348SOL    HW231944   6.621   1.185   6.778
10349SOL     OW31945   6.995   1.582   0.206
10349SOL    HW131946   0.029   1.664   0.193
10349SOL    HW231947   6.931   1.598   0.281
10350SOL     OW31948   2.804   6.420   4.832
10350SOL    HW131949   2.887   6.419   4.776
10350SOL    HW231950   2.734   6.476   4.786
10351SOL     OW31951   6.075   5.029   6.060
10351SOL    HW131952   6.112   5.115   6.095
10351SOL    HW231953   6.145   4.982   6.006
10352SOL     OW31954   5.160   1.945   6.479
10352SOL    HW131955   5.219   1.878   6.524
10352SOL    HW231956   5.210   2.031   6.468
10353SOL     OW31957   6.759   3.083   4.290
10353SOL    HW131958   6.703   3.164   4.270
10353SOL    HW231959   6.742   3.013   4.221
10354SOL     OW31960   0.911   2.895   1.150
10354SOL    HW131961   0.821   2.894   1.194
10354SOL    HW231962   0.973   2.834   1.200
10355SOL     OW31963   1.345   0.744   0.611
10355SOL    HW131964   1.344   0.699   0.522
10355SOL    HW231965   1.358   0.677   0.684
10356SOL     OW31966   6.624   3.593   5.665
10356SOL    HW131967   6.578   3.677   5.635
10356SOL    HW231968   6.723   3.606   5.663
10357SOL     OW31969   3.771   2.379   5.598
10357SOL    HW131970   3.737   2.359   5.506
10357SOL    HW231971   3.824   2.464   5.596
10358SOL     OW31972   0.978   3.010   3.840
10358SOL    HW131973   0.922   3.093   3.839
10358SOL    HW231974   0.932   2.940   3.895
10359SOL     OW31975   5.073   1.888   1.953
10359SOL    HW131976   5.120   1.828   2.018
10359SOL    HW231977   5.073   1.982   1.989
10360SOL     OW31978   5.383   6.074   2.291
10360SOL    HW131979   5.374   5.981   2.257
10360SOL    HW231980   5.331   6.084   2.376
10361SOL     OW31981   2.598   0.876   2.611
10361SOL    HW131982   2.621   0.812   2.537
10361SOL    HW231983   2.647   0.962   2.598
10362SOL     OW31984   0.657   5.383   2.885
10362SOL    HW131985   0.674   5.443   2.807
10362SOL    HW231986   0.599   5.307   2.857
10363SOL     OW31987   5.244   2.444   1.072
10363SOL    HW131988   5.163   2.392   1.102
10363SOL    HW231989   5.317   2.434   1.140
10364SOL     OW31990   4.975   4.089   1.765
10364SOL    HW131991   4.931   4.023   1.826
10364SOL    HW231992   4.904   4.144   1.719
10365SOL     OW31993   6.062   4.724   0.033
10365SOL    HW131994   5.995   4.652   0.017
10365SOL    HW231995   6.020   4.813   0.014
10366SOL     OW31996   3.405   6.852   3.598
10366SOL    HW131997   3.414   6.948   3.624
10366SOL    HW231998   3.340   6.807   3.659
10367SOL     OW31999   0.153   2.179   1.679
10367SOL    HW132000   0.096   2.256   1.707
10367SOL    HW232001   0.097   2.112   1.631
10368SOL     OW32002   2.131   1.167   2.195
10368SOL    HW132003   2.088   1.170   2.105
10368SOL    HW232004   2.072   1.210   2.262
10369SOL     OW32005   2.704   6.471   5.872
10369SOL    HW132006   2.773   6.539   5.848
10369SOL    HW232007   2.615   6.497   5.835
10370SOL     OW32008   6.193   1.356   5.216
10370SOL    HW132009   6.254   1.435   5.221
10370SOL    HW232010   6.243   1.274   5.245
10371SOL     OW32011   2.326   6.839   4.419
10371SOL    HW132012   2.283   6.772   4.359
10371SOL    HW232013   2.370   6.910   4.364
10372SOL     OW32014   2.525   0.808   0.824
10372SOL    HW132015   2.446   0.813   0.763
10372SOL    HW232016   2.604   0.852   0.779
10373SOL     OW32017   0.632   6.748   5.061
10373SOL    HW132018   0.532   6.751   5.068
10373SOL    HW232019   0.671   6.820   5.118
10374SOL     OW32020   3.369   0.537   3.882
10374SOL    HW132021   3.448   0.532   3.944
10374SOL    HW232022   3.375   0.463   3.815
10375SOL     OW32023   2.586   2.185   5.813
10375SOL    HW132024   2.667   2.189   5.755
10375SOL    HW232025   2.590   2.103   5.871
10376SOL     OW32026   1.226   6.406   4.164
10376SOL    HW132027   1.258   6.424   4.072
10376SOL    HW232028   1.209   6.492   4.211
10377SOL     OW32029   0.453   1.226   2.065
10377SOL    HW132030   0.405   1.299   2.015
10377SOL    HW232031   0.398   1.198   2.143
10378SOL     OW32032   6.064   5.642   5.484
10378SOL    HW132033   6.118   5.708   5.536
10378SOL    HW232034   5.993   5.602   5.542
10379SOL     OW32035   3.482   5.744   4.372
10379SOL    HW132036   3.437   5.756   4.460
10379SOL    HW232037   3.498   5.646   4.357
10380SOL     OW32038   1.201   2.730   4.744
10380SOL    HW132039   1.219   2.755   4.649
10380SOL    HW232040   1.104   2.711   4.756
10381SOL     OW32041   4.391   3.918   1.322
10381SOL    HW132042   4.369   3.904   1.419
10381SOL    HW232043   4.474   3.866   1.299
10382SOL     OW32044   3.000   5.882   1.634
10382SOL    HW132045   2.965   5.807   1.577
10382SOL    HW232046   2.923   5.930   1.677
10383SOL     OW32047   0.962   4.246   0.700
10383SOL    HW132048   0.995   4.194   0.778
10383SOL    HW232049   1.017   4.329   0.689
10384SOL     OW32050   6.734   6.728   0.265
10384SOL    HW132051   6.792   6.809   0.257
10384SOL    HW232052   6.767   6.671   0.340
10385SOL     OW32053   4.118   5.942   6.462
10385SOL    HW132054   4.084   5.860   6.418
10385SOL    HW232055   4.071   5.955   6.550
10386SOL     OW32056   0.159   0.946   5.848
10386SOL    HW132057   0.138   0.937   5.945
10386SOL    HW232058   0.231   0.881   5.823
10387SOL     OW32059   4.898   2.994   2.759
10387SOL    HW132060   4.972   2.928   2.742
10387SOL    HW232061   4.883   3.001   2.858
10388SOL     OW32062   1.274   5.780   1.871
10388SOL    HW132063   1.341   5.791   1.798
10388SOL    HW232064   1.302   5.836   1.950
10389SOL     OW32065   6.462   3.863   1.201
10389SOL    HW132066   6.552   3.885   1.239
10389SOL    HW232067   6.417   3.946   1.169
10390SOL     OW32068   2.017   3.099   0.028
10390SOL    HW132069   2.047   3.123   0.120
10390SOL    HW232070   1.933   3.044   0.034
10391SOL     OW32071   0.537   6.003   4.600
10391SOL    HW132072   0.518   6.093   4.562
10391SOL    HW232073   0.473   5.984   4.674
10392SOL     OW32074   5.926   4.682   5.671
10392SOL    HW132075   5.888   4.590   5.672
10392SOL    HW232076   6.014   4.682   5.720
10393SOL     OW32077   2.177   3.016   3.043
10393SOL    HW132078   2.172   3.017   2.943
10393SOL    HW232079   2.139   3.102   3.079
10394SOL     OW32080   2.865   5.392   5.450
10394SOL    HW132081   2.769   5.385   5.476
10394SOL    HW232082   2.916   5.438   5.523
10395SOL     OW32083   0.265   0.747   1.545
10395SOL    HW132084   0.334   0.675   1.558
10395SOL    HW232085   0.195   0.739   1.616
10396SOL     OW32086   3.576   1.488   3.987
10396SOL    HW132087   3.642   1.473   3.913
10396SOL    HW232088   3.619   1.466   4.075
10397SOL     OW32089   3.743   0.920   4.417
10397SOL    HW132090   3.764   1.009   4.455
10397SOL    HW232091   3.674   0.874   4.473
10398SOL     OW32092   5.829   2.391   0.594
10398SOL    HW132093   5.849   2.446   0.675
10398SOL    HW232094   5.743   2.342   0.606
10399SOL     OW32095   4.611   1.921   3.377
10399SOL    HW132096   4.607   1.998   3.440
10399SOL    HW232097   4.578   1.949   3.287
10400SOL     OW32098   4.448   5.871   6.851
10400SOL    HW132099   4.377   5.940   6.839
10400SOL    HW232100   4.468   5.860   6.949
10401SOL     OW32101   0.084   6.401   2.751
10401SOL    HW132102   0.000   6.429   2.703
10401SOL    HW232103   0.096   6.302   2.740
10402SOL     OW32104   6.857   1.777   5.443
10402SOL    HW132105   6.781   1.726   5.483
10402SOL    HW232106   6.917   1.810   5.515
10403SOL     OW32107   4.615   2.647   2.926
10403SOL    HW132108   4.642   2.713   2.996
10403SOL    HW232109   4.655   2.674   2.838
10404SOL     OW32110   5.954   6.433   4.486
10404SOL    HW132111   6.021   6.387   4.544
10404SOL    HW232112   5.954   6.392   4.395
10405SOL     OW32113   1.372   6.570   4.910
10405SOL    HW132114   1.378   6.474   4.939
10405SOL    HW232115   1.450   6.591   4.850
10406SOL     OW32116   2.197   3.163   3.440
10406SOL    HW132117   2.135   3.229   3.482
10406SOL    HW232118   2.224   3.094   3.508
10407SOL     OW32119   2.848   6.891   6.633
10407SOL    HW132120   2.795   6.966   6.674
10407SOL    HW232121   2.832   6.807   6.685
10408SOL     OW32122   4.818   0.549   1.024
10408SOL    HW132123   4.917   0.556   1.033
10408SOL    HW232124   4.790   0.454   1.037
10409SOL     OW32125   6.670   4.864   0.997
10409SOL    HW132126   6.740   4.915   1.047
10409SOL    HW232127   6.698   4.768   0.989
10410SOL     OW32128   5.123   1.834   1.671
10410SOL    HW132129   5.125   1.927   1.635
10410SOL    HW232130   5.119   1.838   1.771
10411SOL     OW32131   2.911   6.375   3.798
10411SOL    HW132132   2.918   6.336   3.889
10411SOL    HW232133   2.821   6.417   3.786
10412SOL     OW32134   0.452   1.439   0.249
10412SOL    HW132135   0.368   1.423   0.197
10412SOL    HW232136   0.530   1.441   0.187
10413SOL     OW32137   6.743   2.680   0.564
10413SOL    HW132138   6.684   2.656   0.487
10413SOL    HW232139   6.742   2.779   0.577
10414SOL     OW32140   4.035   5.416   5.377
10414SOL    HW132141   4.090   5.368   5.445
10414SOL    HW232142   3.982   5.488   5.422
10415SOL     OW32143   1.025   3.929   5.124
10415SOL    HW132144   0.940   3.894   5.085
10415SOL    HW232145   1.100   3.865   5.106
10416SOL     OW32146   5.217   6.978   5.505
10416SOL    HW132147   5.145   6.918   5.469
10416SOL    HW232148   5.266   6.930   5.579
10417SOL     OW32149   3.086   4.819   4.046
10417SOL    HW132150   3.172   4.870   4.042
10417SOL    HW232151   3.066   4.795   4.141
10418SOL     OW32152   6.574   4.130   6.140
10418SOL    HW132153   6.530   4.127   6.229
10418SOL    HW232154   6.654   4.189   6.144
10419SOL     OW32155   3.248   6.806   6.176
10419SOL    HW132156   3.215   6.780   6.085
10419SOL    HW232157   3.326   6.749   6.201
10420SOL     OW32158   0.168   3.754   4.411
10420SOL    HW132159   0.167   3.654   4.418
10420SOL    HW232160   0.126   3.782   4.324
10421SOL     OW32161   1.288   2.714   4.004
10421SOL    HW132162   1.381   2.688   3.981
10421SOL    HW232163   1.223   2.656   3.955
10422SOL     OW32164   6.273   3.171   5.155
10422SOL    HW132165   6.180   3.194   5.127
10422SOL    HW232166   6.335   3.179   5.077
10423SOL     OW32167   5.678   5.125   5.544
10423SOL    HW132168   5.711   5.052   5.486
10423SOL    HW232169   5.594   5.164   5.505
10424SOL     OW32170   4.206   3.269   1.044
10424SOL    HW132171   4.298   3.280   1.005
10424SOL    HW232172   4.211   3.216   1.128
10425SOL     OW32173   1.003   6.548   2.027
10425SOL    HW132174   1.004   6.515   2.121
10425SOL    HW232175   1.020   6.647   2.026
10426SOL     OW32176   4.919   5.244   0.354
10426SOL    HW132177   5.005   5.194   0.343
10426SOL    HW232178   4.876   5.257   0.265
10427SOL     OW32179   3.871   1.075   6.892
10427SOL    HW132180   3.903   1.150   6.950
10427SOL    HW232181   3.785   1.040   6.929
10428SOL     OW32182   3.550   1.192   3.526
10428SOL    HW132183   3.545   1.292   3.528
10428SOL    HW232184   3.618   1.161   3.592
10429SOL     OW32185   6.791   4.224   1.569
10429SOL    HW132186   6.728   4.164   1.618
10429SOL    HW232187   6.746   4.260   1.487
10430SOL     OW32188   5.026   0.321   4.738
10430SOL    HW132189   5.031   0.281   4.829
10430SOL    HW232190   5.021   0.248   4.669
10431SOL     OW32191   2.728   6.331   4.274
10431SOL    HW132192   2.718   6.232   4.279
10431SOL    HW232193   2.644   6.375   4.306
10432SOL     OW32194   5.589   0.349   4.689
10432SOL    HW132195   5.597   0.433   4.742
10432SOL    HW232196   5.640   0.357   4.603
10433SOL     OW32197   0.816   5.854   2.649
10433SOL    HW132198   0.848   5.908   2.726
10433SOL    HW232199   0.858   5.763   2.652
10434SOL     OW32200   3.893   6.016   2.947
10434SOL    HW132201   3.883   5.921   2.918
10434SOL    HW232202   3.875   6.022   3.046
10435SOL     OW32203   0.907   1.097   5.518
10435SOL    HW132204   0.867   1.110   5.609
10435SOL    HW232205   0.977   1.167   5.503
10436SOL     OW32206   6.403   4.662   5.556
10436SOL    HW132207   6.441   4.712   5.479
10436SOL    HW232208   6.434   4.567   5.554
10437SOL     OW32209   4.729   4.135   6.077
10437SOL    HW132210   4.741   4.038   6.094
10437SOL    HW232211   4.713   4.183   6.164
10438SOL     OW32212   6.304   6.573   6.599
10438SOL    HW132213   6.361   6.537   6.525
10438SOL    HW232214   6.242   6.642   6.562
10439SOL     OW32215   4.013   0.886   4.709
10439SOL    HW132216   3.975   0.978   4.699
10439SOL    HW232217   4.002   0.836   4.623
10440SOL     OW32218   1.558   6.416   0.974
10440SOL    HW132219   1.620   6.425   0.895
10440SOL    HW232220   1.464   6.427   0.943
10441SOL     OW32221   3.881   1.346   1.224
10441SOL    HW132222   3.956   1.410   1.239
10441SOL    HW232223   3.898   1.262   1.276
10442SOL     OW32224   3.919   6.485   6.796
10442SOL    HW132225   3.979   6.494   6.875
10442SOL    HW232226   3.955   6.414   6.735
10443SOL     OW32227   4.854   3.793   3.988
10443SOL    HW132228   4.832   3.751   4.076
10443SOL    HW232229   4.853   3.724   3.916
10444SOL     OW32230   4.479   5.729   4.037
10444SOL    HW132231   4.493   5.758   3.943
10444SOL    HW232232   4.480   5.809   4.097
10445SOL     OW32233   0.872   4.559   4.354
10445SOL    HW132234   0.970   4.537   4.361
10445SOL    HW232235   0.861   4.658   4.348
10446SOL     OW32236   1.409   3.088   5.580
10446SOL    HW132237   1.441   3.100   5.674
10446SOL    HW232238   1.318   3.128   5.570
10447SOL     OW32239   0.025   1.183   2.529
10447SOL    HW132240   0.114   1.150   2.560
10447SOL    HW232241   0.031   1.280   2.506
10448SOL     OW32242   4.600   0.648   2.357
10448SOL    HW132243   4.509   0.673   2.391
10448SOL    HW232244   4.613   0.684   2.265
10449SOL     OW32245   2.197   5.398   4.583
10449SOL    HW132246   2.164   5.482   4.540
10449SOL    HW232247   2.259   5.421   4.659
10450SOL     OW32248   1.015   1.399   0.872
10450SOL    HW132249   0.999   1.301   0.860
10450SOL    HW232250   1.033   1.440   0.783
10451SOL     OW32251   1.974   5.540   2.366
10451SOL    HW132252   1.876   5.538   2.384
10451SOL    HW232253   2.003   5.454   2.324
10452SOL     OW32254   6.693   3.166   2.218
10452SOL    HW132255   6.598   3.136   2.211
10452SOL    HW232256   6.754   3.087   2.212
10453SOL     OW32257   3.699   6.696   1.200
10453SOL    HW132258   3.683   6.790   1.171
10453SOL    HW232259   3.721   6.640   1.120
10454SOL     OW32260   4.624   3.404   0.336
10454SOL    HW132261   4.611   3.306   0.345
10454SOL    HW232262   4.604   3.432   0.242
10455SOL     OW32263   6.521   6.106   3.581
10455SOL    HW132264   6.470   6.190   3.597
10455SOL    HW232265   6.603   6.126   3.526
10456SOL     OW32266   2.218   5.919   0.677
10456SOL    HW132267   2.243   5.837   0.730
10456SOL    HW232268   2.173   5.985   0.738
10457SOL     OW32269   3.379   3.215   1.789
10457SOL    HW132270   3.343   3.208   1.696
10457SOL    HW232271   3.447   3.143   1.803
10458SOL     OW32272   6.210   1.187   6.428
10458SOL    HW132273   6.237   1.146   6.514
10458SOL    HW232274   6.165   1.275   6.445
10459SOL     OW32275   5.067   5.829   1.535
10459SOL    HW132276   5.044   5.732   1.528
10459SOL    HW232277   5.158   5.839   1.576
10460SOL     OW32278   0.832   4.300   2.532
10460SOL    HW132279   0.833   4.394   2.567
10460SOL    HW232280   0.830   4.236   2.608
10461SOL     OW32281   6.875   5.092   5.797
10461SOL    HW132282   6.782   5.116   5.826
10461SOL    HW232283   6.893   5.132   5.707
10462SOL     OW32284   5.973   1.403   3.396
10462SOL    HW132285   5.995   1.401   3.298
10462SOL    HW232286   6.042   1.351   3.446
10463SOL     OW32287   4.219   3.167   5.549
10463SOL    HW132288   4.293   3.193   5.612
10463SOL    HW232289   4.237   3.205   5.459
10464SOL     OW32290   6.699   0.353   1.253
10464SOL    HW132291   6.619   0.309   1.212
10464SOL    HW232292   6.689   0.355   1.352
10465SOL     OW32293   6.568   5.270   0.863
10465SOL    HW132294   6.493   5.318   0.818
10465SOL    HW232295   6.592   5.188   0.810
10466SOL     OW32296   4.280   4.725   6.225
10466SOL    HW132297   4.212   4.797   6.211
10466SOL    HW232298   4.340   4.719   6.145
10467SOL     OW32299   2.816   1.593   6.301
10467SOL    HW132300   2.788   1.657   6.229
10467SOL    HW232301   2.843   1.644   6.383
10468SOL     OW32302   3.981   5.278   3.407
10468SOL    HW132303   3.979   5.378   3.418
10468SOL    HW232304   4.039   5.239   3.479
10469SOL     OW32305   3.812   4.514   5.681
10469SOL    HW132306   3.796   4.435   5.622
10469SOL    HW232307   3.907   4.513   5.713
10470SOL     OW32308   2.378   2.683   3.691
10470SOL    HW132309   2.438   2.678   3.611
10470SOL    HW232310   2.365   2.592   3.729
10471SOL     OW32311   2.974   2.202   1.255
10471SOL    HW132312   2.987   2.198   1.354
10471SOL    HW232313   2.887   2.246   1.234
10472SOL     OW32314   4.138   5.494   0.487
10472SOL    HW132315   4.100   5.499   0.395
10472SOL    HW232316   4.080   5.436   0.544
10473SOL     OW32317   6.718   0.524   6.404
10473SOL    HW132318   6.783   0.584   6.451
10473SOL    HW232319   6.637   0.577   6.378
10474SOL     OW32320   3.977   2.053   4.588
10474SOL    HW132321   3.890   2.070   4.634
10474SOL    HW232322   4.041   2.127   4.607
10475SOL     OW32323   4.357   6.590   1.605
10475SOL    HW132324   4.311   6.525   1.545
10475SOL    HW232325   4.441   6.623   1.561
10476SOL     OW32326   0.139   5.963   0.103
10476SOL    HW132327   0.091   5.891   0.053
10476SOL    HW232328   0.180   5.924   0.185
10477SOL     OW32329   6.762   1.755   4.180
10477SOL    HW132330   6.794   1.844   4.146
10477SOL    HW232331   6.834   1.687   4.168
10478SOL     OW32332   0.096   0.478   1.498
10478SOL    HW132333   0.186   0.506   1.533
10478SOL    HW232334   0.102   0.463   1.400
10479SOL     OW32335   0.460   2.669   1.772
10479SOL    HW132336   0.395   2.684   1.698
10479SOL    HW232337   0.553   2.676   1.737
10480SOL     OW32338   6.786   0.109   1.603
10480SOL    HW132339   6.806   0.047   1.526
10480SOL    HW232340   6.803   0.061   1.689
10481SOL     OW32341   2.107   0.127   4.702
10481SOL    HW132342   2.158   0.195   4.754
10481SOL    HW232343   2.109   0.039   4.750
10482SOL     OW32344   6.364   5.517   4.715
10482SOL    HW132345   6.352   5.514   4.616
10482SOL    HW232346   6.408   5.603   4.741
10483SOL     OW32347   6.507   4.922   6.806
10483SOL    HW132348   6.593   4.887   6.843
10483SOL    HW232349   6.432   4.865   6.838
10484SOL     OW32350   6.130   1.211   1.597
10484SOL    HW132351   6.051   1.216   1.657
10484SOL    HW232352   6.137   1.118   1.560
10485SOL     OW32353   3.295   3.991   1.583
10485SOL    HW132354   3.312   3.959   1.676
10485SOL    HW232355   3.219   3.938   1.543
10486SOL     OW32356   6.475   0.662   6.371
10486SOL    HW132357   6.429   0.683   6.457
10486SOL    HW232358   6.523   0.743   6.339
10487SOL     OW32359   4.729   1.565   2.515
10487SOL    HW132360   4.680   1.649   2.492
10487SOL    HW232361   4.827   1.580   2.505
10488SOL     OW32362   2.713   1.733   5.338
10488SOL    HW132363   2.738   1.657   5.399
10488SOL    HW232364   2.732   1.707   5.243
10489SOL     OW32365   6.546   0.022   4.537
10489SOL    HW132366   6.613   0.067   4.477
10489SOL    HW232367   6.460   0.011   4.488
10490SOL     OW32368   6.260   1.829   0.691
10490SOL    HW132369   6.330   1.900   0.685
10490SOL    HW232370   6.301   1.740   0.667
10491SOL     OW32371   2.826   2.232   5.614
10491SOL    HW132372   2.921   2.252   5.636
10491SOL    HW232373   2.820   2.194   5.522
10492SOL     OW32374   5.296   5.961   0.720
10492SOL    HW132375   5.291   5.989   0.624
10492SOL    HW232376   5.256   6.033   0.777
10493SOL     OW32377   3.055   6.760   2.340
10493SOL    HW132378   3.140   6.708   2.352
10493SOL    HW232379   3.031   6.763   2.243
10494SOL     OW32380   5.618   4.233   6.404
10494SOL    HW132381   5.583   4.246   6.497
10494SOL    HW232382   5.715   4.207   6.409
10495SOL     OW32383   0.787   6.544   1.032
10495SOL    HW132384   0.736   6.626   1.059
10495SOL    HW232385   0.860   6.570   0.968
10496SOL     OW32386   6.081   4.205   6.195
10496SOL    HW132387   6.014   4.265   6.151
10496SOL    HW232388   6.097   4.124   6.138
10497SOL     OW32389   1.484   6.858   2.373
10497SOL    HW132390   1.428   6.858   2.456
10497SOL    HW232391   1.425   6.845   2.294
10498SOL     OW32392   5.335   5.432   0.409
10498SOL    HW132393   5.236   5.421   0.413
10498SOL    HW232394   5.357   5.518   0.363
10499SOL     OW32395   4.848   0.049   2.323
10499SOL    HW132396   4.870   0.099   2.407
10499SOL    HW232397   4.767   0.090   2.281
10500SOL     OW32398   5.921   1.241   5.661
10500SOL    HW132399   5.896   1.237   5.564
10500SOL    HW232400   5.994   1.176   5.679
10501SOL     OW32401   2.307   5.404   2.354
10501SOL    HW132402   2.307   5.367   2.447
10501SOL    HW232403   2.334   5.500   2.356
10502SOL     OW32404   2.657   2.352   1.563
10502SOL    HW132405   2.693   2.385   1.475
10502SOL    HW232406   2.685   2.414   1.636
10503SOL     OW32407   4.900   2.688   0.698
10503SOL    HW132408   4.870   2.722   0.787
10503SOL    HW232409   4.997   2.665   0.703
10504SOL     OW32410   1.069   2.828   5.943
10504SOL    HW132411   1.158   2.861   5.976
10504SOL    HW232412   1.004   2.904   5.945
10505SOL     OW32413   5.755   5.342   0.774
10505SOL    HW132414   5.785   5.254   0.812
10505SOL    HW232415   5.685   5.381   0.833
10506SOL     OW32416   0.344   4.126   6.886
10506SOL    HW132417   0.420   4.089   6.832
10506SOL    HW232418   0.373   4.212   6.928
10507SOL     OW32419   1.579   5.722   1.044
10507SOL    HW132420   1.612   5.637   1.003
10507SOL    HW232421   1.500   5.702   1.103
10508SOL     OW32422   0.196   5.526   4.988
10508SOL    HW132423   0.145   5.440   4.987
10508SOL    HW232424   0.142   5.596   5.036
10509SOL     OW32425   6.807   5.379   5.439
10509SOL    HW132426   6.716   5.352   5.410
10509SOL    HW232427   6.854   5.426   5.364
10510SOL     OW32428   4.634   6.687   0.321
10510SOL    HW132429   4.695   6.634   0.380
10510SOL    HW232430   4.682   6.768   0.288
10511SOL     OW32431   2.550   1.456   2.275
10511SOL    HW132432   2.600   1.498   2.351
10511SOL    HW232433   2.614   1.411   2.213
10512SOL     OW32434   3.822   0.665   5.336
10512SOL    HW132435   3.776   0.748   5.304
10512SOL    HW232436   3.802   0.652   5.434
10513SOL     OW32437   6.643   3.487   3.622
10513SOL    HW132438   6.647   3.573   3.571
10513SOL    HW232439   6.550   3.473   3.656
10514SOL     OW32440   0.673   3.302   0.985
10514SOL    HW132441   0.603   3.245   1.028
10514SOL    HW232442   0.761   3.256   0.992
10515SOL     OW32443   1.486   4.059   4.331
10515SOL    HW132444   1.446   4.115   4.403
10515SOL    HW232445   1.568   4.014   4.366
10516SOL     OW32446   3.090   1.902   0.662
10516SOL    HW132447   3.040   1.884   0.746
10516SOL    HW232448   3.119   1.998   0.660
10517SOL     OW32449   0.906   2.970   0.644
10517SOL    HW132450   0.991   3.014   0.675
10517SOL    HW232451   0.837   3.040   0.626
10518SOL     OW32452   6.645   6.037   0.950
10518SOL    HW132453   6.722   6.091   0.983
10518SOL    HW232454   6.609   5.981   1.024
10519SOL     OW32455   3.138   3.610   0.902
10519SOL    HW132456   3.153   3.708   0.891
10519SOL    HW232457   3.043   3.595   0.931
10520SOL     OW32458   0.877   2.224   5.970
10520SOL    HW132459   0.930   2.194   5.891
10520SOL    HW232460   0.939   2.241   6.047
10521SOL     OW32461   6.500   5.120   1.099
10521SOL    HW132462   6.555   5.037   1.089
10521SOL    HW232463   6.510   5.177   1.017
10522SOL     OW32464   0.248   1.431   4.446
10522SOL    HW132465   0.273   1.521   4.481
10522SOL    HW232466   0.329   1.384   4.411
10523SOL     OW32467   0.790   4.535   2.688
10523SOL    HW132468   0.787   4.631   2.658
10523SOL    HW232469   0.875   4.519   2.738
10524SOL     OW32470   0.471   6.228   4.496
10524SOL    HW132471   0.540   6.296   4.520
10524SOL    HW232472   0.380   6.269   4.502
10525SOL     OW32473   3.651   0.904   5.398
10525SOL    HW132474   3.710   0.959   5.458
10525SOL    HW232475   3.601   0.837   5.453
10526SOL     OW32476   0.865   0.018   2.148
10526SOL    HW132477   0.959   0.052   2.147
10526SOL    HW232478   0.833   0.010   2.242
10527SOL     OW32479   1.113   1.037   5.312
10527SOL    HW132480   1.020   1.018   5.343
10527SOL    HW232481   1.165   0.951   5.309
10528SOL     OW32482   1.525   4.012   6.033
10528SOL    HW132483   1.520   4.001   6.132
10528SOL    HW232484   1.617   4.042   6.007
10529SOL     OW32485   2.560   6.599   4.385
10529SOL    HW132486   2.560   6.626   4.288
10529SOL    HW232487   2.598   6.673   4.440
10530SOL     OW32488   1.506   0.296   6.470
10530SOL    HW132489   1.480   0.374   6.527
10530SOL    HW232490   1.522   0.216   6.527
10531SOL     OW32491   1.707   2.374   4.123
10531SOL    HW132492   1.786   2.435   4.114
10531SOL    HW232493   1.657   2.371   4.036
10532SOL     OW32494   0.560   0.030   6.642
10532SOL    HW132495   0.569   6.974   6.581
10532SOL    HW232496   0.471   0.074   6.629
10533SOL     OW32497   3.146   6.870   3.312
10533SOL    HW132498   3.188   6.959   3.299
10533SOL    HW232499   3.090   6.847   3.233
10534SOL     OW32500   6.138   5.477   2.270
10534SOL    HW132501   6.145   5.403   2.337
10534SOL    HW232502   6.128   5.439   2.179
10535SOL     OW32503   1.626   2.180   2.318
10535SOL    HW132504   1.563   2.249   2.282
10535SOL    HW232505   1.717   2.193   2.278
10536SOL     OW32506   4.675   0.640   4.133
10536SOL    HW132507   4.729   0.708   4.082
10536SOL    HW232508   4.578   0.656   4.117
10537SOL     OW32509   4.204   6.089   4.393
10537SOL    HW132510   4.105   6.100   4.391
10537SOL    HW232511   4.237   6.055   4.305
10538SOL     OW32512   6.744   3.858   1.066
10538SOL    HW132513   6.739   3.788   0.994
10538SOL    HW232514   6.785   3.819   1.148
10539SOL     OW32515   6.835   4.715   0.496
10539SOL    HW132516   6.745   4.678   0.521
10539SOL    HW232517   6.904   4.642   0.504
10540SOL     OW32518   1.627   3.135   5.451
10540SOL    HW132519   1.562   3.087   5.510
10540SOL    HW232520   1.588   3.145   5.359
10541SOL     OW32521   3.627   4.016   2.148
10541SOL    HW132522   3.552   3.974   2.198
10541SOL    HW232523   3.592   4.086   2.086
10542SOL     OW32524   6.850   1.253   5.464
10542SOL    HW132525   6.901   1.194   5.526
10542SOL    HW232526   6.809   1.328   5.516
10543SOL     OW32527   0.700   1.748   4.455
10543SOL    HW132528   0.675   1.747   4.358
10543SOL    HW232529   0.754   1.830   4.474
10544SOL     OW32530   2.606   6.635   1.852
10544SOL    HW132531   2.511   6.639   1.883
10544SOL    HW232532   2.648   6.726   1.859
10545SOL     OW32533   0.608   2.079   1.057
10545SOL    HW132534   0.707   2.062   1.061
10545SOL    HW232535   0.572   2.045   0.971
10546SOL     OW32536   2.164   6.707   0.559
10546SOL    HW132537   2.123   6.625   0.599
10546SOL    HW232538   2.231   6.746   0.622
10547SOL     OW32539   5.118   2.843   3.137
10547SOL    HW132540   5.045   2.909   3.120
10547SOL    HW232541   5.088   2.752   3.110
10548SOL     OW32542   6.327   4.162   4.234
10548SOL    HW132543   6.408   4.141   4.288
10548SOL    HW232544   6.339   4.251   4.190
10549SOL     OW32545   0.641   1.159   1.508
10549SOL    HW132546   0.578   1.231   1.536
10549SOL    HW232547   0.664   1.170   1.412
10550SOL     OW32548   4.766   6.603   3.633
10550SOL    HW132549   4.834   6.542   3.591
10550SOL    HW232550   4.793   6.622   3.727
10551SOL     OW32551   2.080   2.328   6.446
10551SOL    HW132552   2.048   2.248   6.495
10551SOL    HW232553   2.077   2.311   6.348
10552SOL     OW32554   2.014   0.786   5.686
10552SOL    HW132555   1.956   0.775   5.766
10552SOL    HW232556   2.099   0.736   5.699
10553SOL     OW32557   0.562   4.701   1.848
10553SOL    HW132558   0.477   4.662   1.882
10553SOL    HW232559   0.608   4.634   1.789
10554SOL     OW32560   5.061   4.711   0.956
10554SOL    HW132561   5.018   4.689   1.043
10554SOL    HW232562   5.097   4.628   0.914
10555SOL     OW32563   2.871   2.703   0.914
10555SOL    HW132564   2.807   2.762   0.963
10555SOL    HW232565   2.935   2.663   0.978
10556SOL     OW32566   1.063   1.447   4.022
10556SOL    HW132567   0.979   1.401   3.992
10556SOL    HW232568   1.123   1.381   4.067
10557SOL     OW32569   2.090   3.023   2.765
10557SOL    HW132570   2.051   3.113   2.784
10557SOL    HW232571   2.130   3.023   2.673
10558SOL     OW32572   3.998   6.096   5.064
10558SOL    HW132573   3.966   6.017   5.011
10558SOL    HW232574   3.921   6.135   5.114
10559SOL     OW32575   4.437   1.106   1.886
10559SOL    HW132576   4.343   1.122   1.917
10559SOL    HW232577   4.455   1.163   1.805
10560SOL     OW32578   4.724   6.998   2.673
10560SOL    HW132579   4.676   6.974   2.758
10560SOL    HW232580   4.749   6.914   2.625
10561SOL     OW32581   3.750   4.501   1.653
10561SOL    HW132582   3.696   4.455   1.582
10561SOL    HW232583   3.689   4.556   1.711
10562SOL     OW32584   4.168   5.369   6.957
10562SOL    HW132585   4.256   5.323   6.941
10562SOL    HW232586   4.107   5.308   7.007
10563SOL     OW32587   0.324   0.859   2.601
10563SOL    HW132588   0.392   0.786   2.588
10563SOL    HW232589   0.268   0.867   2.518
10564SOL     OW32590   5.540   6.324   3.433
10564SOL    HW132591   5.612   6.383   3.397
10564SOL    HW232592   5.562   6.298   3.528
10565SOL     OW32593   0.153   6.792   5.904
10565SOL    HW132594   0.161   6.773   5.806
10565SOL    HW232595   0.059   6.820   5.924
10566SOL     OW32596   4.160   2.268   0.089
10566SOL    HW132597   4.241   2.296   0.140
10566SOL    HW232598   4.186   2.235   7.021
10567SOL     OW32599   2.667   2.580   5.236
10567SOL    HW132600   2.593   2.646   5.220
10567SOL    HW232601   2.653   2.500   5.177
10568SOL     OW32602   6.976   3.144   0.676
10568SOL    HW132603   6.950   3.240   0.685
10568SOL    HW232604   0.013   3.119   0.752
10569SOL     OW32605   5.537   1.260   2.188
10569SOL    HW132606   5.499   1.347   2.157
10569SOL    HW232607   5.592   1.275   2.270
10570SOL     OW32608   1.791   4.618   3.372
10570SOL    HW132609   1.724   4.568   3.428
10570SOL    HW232610   1.871   4.640   3.428
10571SOL     OW32611   0.437   4.451   5.050
10571SOL    HW132612   0.418   4.548   5.030
10571SOL    HW232613   0.355   4.409   5.087
10572SOL     OW32614   6.889   4.455   2.695
10572SOL    HW132615   6.945   4.374   2.678
10572SOL    HW232616   6.798   4.426   2.725
10573SOL     OW32617   5.469   0.829   5.006
10573SOL    HW132618   5.455   0.758   4.937
10573SOL    HW232619   5.444   0.918   4.967
10574SOL     OW32620   0.634   1.493   4.543
10574SOL    HW132621   0.650   1.592   4.539
10574SOL    HW232622   0.720   1.445   4.529
10575SOL     OW32623   6.903   1.015   3.945
10575SOL    HW132624   6.812   0.983   3.973
10575SOL    HW232625   6.972   0.977   4.007
10576SOL     OW32626   0.755   5.886   4.704
10576SOL    HW132627   0.699   5.955   4.658
10576SOL    HW232628   0.698   5.806   4.726
10577SOL     OW32629   1.895   4.585   0.553
10577SOL    HW132630   1.924   4.507   0.498
10577SOL    HW232631   1.844   4.649   0.495
10578SOL     OW32632   4.168   1.444   3.000
10578SOL    HW132633   4.266   1.432   2.982
10578SOL    HW232634   4.153   1.534   3.042
10579SOL     OW32635   4.223   2.782   1.656
10579SOL    HW132636   4.273   2.864   1.687
10579SOL    HW232637   4.275   2.736   1.585
10580SOL     OW32638   0.033   0.012   6.492
10580SOL    HW132639   0.040   0.112   6.482
10580SOL    HW232640   0.121   6.999   6.524
10581SOL     OW32641   5.693   0.172   2.975
10581SOL    HW132642   5.619   0.169   3.042
10581SOL    HW232643   5.755   0.095   2.990
10582SOL     OW32644   4.599   4.499   5.575
10582SOL    HW132645   4.617   4.417   5.629
10582SOL    HW232646   4.662   4.502   5.498
10583SOL     OW32647   4.089   1.187   4.025
10583SOL    HW132648   4.115   1.207   4.119
10583SOL    HW232649   4.073   1.272   3.975
10584SOL     OW32650   6.726   0.603   0.476
10584SOL    HW132651   6.804   0.542   0.469
10584SOL    HW232652   6.665   0.588   0.398
10585SOL     OW32653   2.805   1.652   5.077
10585SOL    HW132654   2.865   1.706   5.018
10585SOL    HW232655   2.776   1.569   5.028
10586SOL     OW32656   5.664   4.507   5.618
10586SOL    HW132657   5.605   4.493   5.697
10586SOL    HW232658   5.753   4.463   5.635
10587SOL     OW32659   6.435   5.186   6.857
10587SOL    HW132660   6.527   5.224   6.863
10587SOL    HW232661   6.440   5.088   6.839
10588SOL     OW32662   1.344   2.092   5.130
10588SOL    HW132663   1.312   2.186   5.121
10588SOL    HW232664   1.346   2.067   5.227
10589SOL     OW32665   5.773   1.118   4.429
10589SOL    HW132666   5.736   1.147   4.517
10589SOL    HW232667   5.746   1.023   4.411
10590SOL     OW32668   0.523   0.204   0.510
10590SOL    HW132669   0.605   0.146   0.508
10590SOL    HW232670   0.484   0.209   0.418
10591SOL     OW32671   1.555   2.160   6.877
10591SOL    HW132672   1.553   2.252   6.915
10591SOL    HW232673   1.543   2.164   6.778
10592SOL     OW32674   5.918   3.668   3.317
10592SOL    HW132675   5.872   3.756   3.311
10592SOL    HW232676   5.911   3.631   3.409
10593SOL     OW32677   2.848   6.019   1.103
10593SOL    HW132678   2.776   6.079   1.137
10593SOL    HW232679   2.893   6.062   1.025
10594SOL     OW32680   5.489   1.521   2.749
10594SOL    HW132681   5.547   1.596   2.716
10594SOL    HW232682   5.473   1.531   2.847
10595SOL     OW32683   5.464   0.085   0.098
10595SOL    HW132684   5.419   0.166   0.061
10595SOL    HW232685   5.561   0.085   0.071
10596SOL     OW32686   4.129   0.929   0.053
10596SOL    HW132687   4.150   1.015   0.099
10596SOL    HW232688   4.033   0.906   0.069
10597SOL     OW32689   3.529   1.335   5.653
10597SOL    HW132690   3.555   1.431   5.660
10597SOL    HW232691   3.430   1.327   5.638
10598SOL     OW32692   3.096   3.087   0.378
10598SOL    HW132693   3.003   3.074   0.414
10598SOL    HW232694   3.111   3.024   0.302
10599SOL     OW32695   5.398   3.495   6.724
10599SOL    HW132696   5.473   3.451   6.773
10599SOL    HW232697   5.435   3.553   6.652
10600SOL     OW32698   3.485   2.643   1.513
10600SOL    HW132699   3.562   2.608   1.566
10600SOL    HW232700   3.494   2.614   1.418
10601SOL     OW32701   1.249   4.914   5.134
10601SOL    HW132702   1.299   4.872   5.058
10601SOL    HW232703   1.222   4.844   5.200
10602SOL     OW32704   1.493   0.741   1.600
10602SOL    HW132705   1.577   0.695   1.569
10602SOL    HW232706   1.518   0.818   1.658
10603SOL     OW32707   4.077   0.294   3.397
10603SOL    HW132708   4.032   0.373   3.355
10603SOL    HW232709   4.020   0.213   3.387
10604SOL     OW32710   6.635   5.946   5.383
10604SOL    HW132711   6.578   5.937   5.301
10604SOL    HW232712   6.715   6.003   5.362
10605SOL     OW32713   1.964   6.465   6.673
10605SOL    HW132714   2.011   6.377   6.670
10605SOL    HW232715   1.958   6.503   6.581
10606SOL     OW32716   0.315   0.132   0.828
10606SOL    HW132717   0.382   0.200   0.859
10606SOL    HW232718   0.360   0.069   0.764
10607SOL     OW32719   3.762   5.204   6.176
10607SOL    HW132720   3.727   5.207   6.270
10607SOL    HW232721   3.861   5.217   6.176
10608SOL     OW32722   6.756   3.444   4.665
10608SOL    HW132723   6.711   3.373   4.719
10608SOL    HW232724   6.769   3.526   4.722
10609SOL     OW32725   2.749   6.938   6.920
10609SOL    HW132726   2.827   6.930   6.983
10609SOL    HW232727   2.728   6.848   6.882
10610SOL     OW32728   0.870   2.357   4.145
10610SOL    HW132729   0.823   2.420   4.207
10610SOL    HW232730   0.827   2.266   4.151
10611SOL     OW32731   2.615   4.462   6.971
10611SOL    HW132732   2.569   4.398   0.009
10611SOL    HW232733   2.639   4.545   7.021
10612SOL     OW32734   3.962   2.015   4.922
10612SOL    HW132735   4.011   2.096   4.888
10612SOL    HW232736   3.877   2.045   4.967
10613SOL     OW32737   5.825   6.063   5.823
10613SOL    HW132738   5.887   6.098   5.752
10613SOL    HW232739   5.822   6.128   5.899
10614SOL     OW32740   4.655   1.746   5.085
10614SOL    HW132741   4.595   1.800   5.144
10614SOL    HW232742   4.661   1.788   4.995
10615SOL     OW32743   3.790   0.717   5.843
10615SOL    HW132744   3.821   0.798   5.795
10615SOL    HW232745   3.752   0.651   5.778
10616SOL     OW32746   2.292   6.897   0.088
10616SOL    HW132747   2.275   6.849   0.174
10616SOL    HW232748   2.349   6.840   0.029
10617SOL     OW32749   3.147   3.955   1.127
10617SOL    HW132750   3.095   3.891   1.183
10617SOL    HW232751   3.244   3.934   1.134
10618SOL     OW32752   1.006   4.372   5.766
10618SOL    HW132753   1.024   4.426   5.684
10618SOL    HW232754   1.043   4.280   5.754
10619SOL     OW32755   0.628   3.399   3.670
10619SOL    HW132756   0.699   3.351   3.723
10619SOL    HW232757   0.637   3.497   3.685
10620SOL     OW32758   1.053   6.820   5.109
10620SOL    HW132759   1.066   6.834   5.207
10620SOL    HW232760   1.142   6.800   5.066
10621SOL     OW32761   0.995   4.920   1.586
10621SOL    HW132762   1.049   4.912   1.670
10621SOL    HW232763   0.976   4.829   1.549
10622SOL     OW32764   5.081   1.350   2.439
10622SOL    HW132765   5.103   1.289   2.514
10622SOL    HW232766   5.061   1.441   2.475
10623SOL     OW32767   0.044   5.257   6.042
10623SOL    HW132768   6.968   5.272   6.044
10623SOL    HW232769   0.064   5.162   6.069
10624SOL     OW32770   1.086   2.291   4.903
10624SOL    HW132771   1.129   2.295   4.993
10624SOL    HW232772   1.149   2.328   4.834
10625SOL     OW32773   0.214   4.495   1.244
10625SOL    HW132774   0.245   4.486   1.339
10625SOL    HW232775   0.217   4.406   1.200
10626SOL     OW32776   3.440   2.753   0.906
10626SOL    HW132777   3.438   2.653   0.916
10626SOL    HW232778   3.452   2.777   0.810
10627SOL     OW32779   5.758   1.192   6.968
10627SOL    HW132780   5.773   1.118   6.902
10627SOL    HW232781   5.727   1.153   0.033
10628SOL     OW32782   4.873   5.831   0.838
10628SOL    HW132783   4.936   5.754   0.850
10628SOL    HW232784   4.860   5.878   0.926
10629SOL     OW32785   2.494   5.218   4.846
10629SOL    HW132786   2.522   5.153   4.917
10629SOL    HW232787   2.557   5.213   4.769
10630SOL     OW32788   6.311   1.466   3.215
10630SOL    HW132789   6.331   1.430   3.306
10630SOL    HW232790   6.358   1.411   3.146
10631SOL     OW32791   3.490   5.109   5.128
10631SOL    HW132792   3.474   5.014   5.104
10631SOL    HW232793   3.413   5.144   5.181
10632SOL     OW32794   5.293   6.871   3.626
10632SOL    HW132795   5.311   6.866   3.724
10632SOL    HW232796   5.226   6.801   3.601
10633SOL     OW32797   3.122   2.470   1.272
10633SOL    HW132798   3.153   2.518   1.354
10633SOL    HW232799   3.042   2.414   1.295
10634SOL     OW32800   2.256   4.257   0.665
10634SOL    HW132801   2.191   4.190   0.699
10634SOL    HW232802   2.269   4.329   0.733
10635SOL     OW32803   1.793   3.565   6.824
10635SOL    HW132804   1.880   3.553   6.777
10635SOL    HW232805   1.718   3.545   6.761
10636SOL     OW32806   0.520   1.981   0.827
10636SOL    HW132807   0.569   2.035   0.759
10636SOL    HW232808   0.465   1.911   0.781
10637SOL     OW32809   1.617   4.519   5.754
10637SOL    HW132810   1.535   4.466   5.778
10637SOL    HW232811   1.692   4.456   5.736
10638SOL     OW32812   5.730   5.816   2.815
10638SOL    HW132813   5.718   5.723   2.851
10638SOL    HW232814   5.642   5.864   2.818
10639SOL     OW32815   1.136   4.101   3.437
10639SOL    HW132816   1.135   4.192   3.396
10639SOL    HW232817   1.056   4.050   3.407
10640SOL     OW32818   4.755   0.050   3.999
10640SOL    HW132819   4.813   0.062   3.918
10640SOL    HW232820   4.716   6.981   3.999
10641SOL     OW32821   2.079   2.266   2.564
10641SOL    HW132822   2.141   2.324   2.617
10641SOL    HW232823   2.019   2.216   2.625
10642SOL     OW32824   6.440   2.249   0.804
10642SOL    HW132825   6.476   2.156   0.793
10642SOL    HW232826   6.489   2.295   0.879
10643SOL     OW32827   1.550   6.018   4.669
10643SOL    HW132828   1.525   6.111   4.642
10643SOL    HW232829   1.589   6.019   4.761
10644SOL     OW32830   5.964   2.690   1.916
10644SOL    HW132831   6.023   2.766   1.888
10644SOL    HW232832   6.003   2.645   1.997
10645SOL     OW32833   2.026   2.477   4.857
10645SOL    HW132834   2.052   2.534   4.779
10645SOL    HW232835   1.982   2.393   4.823
10646SOL     OW32836   0.236   6.836   6.204
10646SOL    HW132837   0.187   6.749   6.202
10646SOL    HW232838   0.177   6.905   6.246
10647SOL     OW32839   3.257   5.522   4.999
10647SOL    HW132840   3.256   5.555   4.905
10647SOL    HW232841   3.295   5.430   5.002
10648SOL     OW32842   5.758   3.946   6.496
10648SOL    HW132843   5.820   3.914   6.568
10648SOL    HW232844   5.808   4.006   6.433
10649SOL     OW32845   0.298   4.459   2.707
10649SOL    HW132846   0.244   4.413   2.636
10649SOL    HW232847   0.394   4.433   2.697
10650SOL     OW32848   0.538   0.520   3.607
10650SOL    HW132849   0.596   0.561   3.537
10650SOL    HW232850   0.451   0.569   3.612
10651SOL     OW32851   5.775   6.445   6.957
10651SOL    HW132852   5.699   6.507   6.939
10651SOL    HW232853   5.757   6.356   6.915
10652SOL     OW32854   3.565   6.729   5.540
10652SOL    HW132855   3.538   6.746   5.445
10652SOL    HW232856   3.524   6.798   5.599
10653SOL     OW32857   4.345   5.468   4.128
10653SOL    HW132858   4.407   5.546   4.116
10653SOL    HW232859   4.399   5.385   4.139
10654SOL     OW32860   5.544   0.787   0.414
10654SOL    HW132861   5.636   0.791   0.376
10654SOL    HW232862   5.498   0.875   0.399
10655SOL     OW32863   2.349   5.155   0.419
10655SOL    HW132864   2.422   5.211   0.457
10655SOL    HW232865   2.262   5.204   0.426
10656SOL     OW32866   0.378   1.747   2.893
10656SOL    HW132867   0.447   1.714   2.829
10656SOL    HW232868   0.381   1.692   2.976
10657SOL     OW32869   5.318   0.181   5.726
10657SOL    HW132870   5.327   0.260   5.664
10657SOL    HW232871   5.224   0.146   5.721
10658SOL     OW32872   6.582   4.714   4.833
10658SOL    HW132873   6.618   4.621   4.830
10658SOL    HW232874   6.486   4.713   4.804
10659SOL     OW32875   0.369   5.482   1.808
10659SOL    HW132876   0.367   5.501   1.906
10659SOL    HW232877   0.429   5.404   1.790
10660SOL     OW32878   5.013   3.635   5.817
10660SOL    HW132879   5.100   3.658   5.859
10660SOL    HW232880   4.958   3.583   5.882
10661SOL     OW32881   1.282   6.849   1.836
10661SOL    HW132882   1.269   6.905   1.755
10661SOL    HW232883   1.315   6.758   1.808
10662SOL     OW32884   5.432   6.975   2.352
10662SOL    HW132885   5.491   7.005   2.278
10662SOL    HW232886   5.487   6.957   2.434
10663SOL     OW32887   0.682   2.361   2.845
10663SOL    HW132888   0.589   2.388   2.820
10663SOL    HW232889   0.743   2.439   2.835
10664SOL     OW32890   6.349   4.148   4.954
10664SOL    HW132891   6.312   4.231   4.913
10664SOL    HW232892   6.323   4.069   4.898
10665SOL     OW32893   0.547   2.108   0.507
10665SOL    HW132894   0.541   2.167   0.426
10665SOL    HW232895   0.636   2.121   0.552
10666SOL     OW32896   3.931   3.639   1.933
10666SOL    HW132897   3.992   3.694   1.989
10666SOL    HW232898   3.836   3.661   1.955
10667SOL     OW32899   4.980   2.461   4.678
10667SOL    HW132900   4.886   2.490   4.697
10667SOL    HW232901   5.016   2.514   4.601
10668SOL     OW32902   2.618   0.437   4.824
10668SOL    HW132903   2.638   0.346   4.859
10668SOL    HW232904   2.620   0.503   4.899
10669SOL     OW32905   5.855   6.959   1.988
10669SOL    HW132906   5.840   6.873   1.938
10669SOL    HW232907   5.788   6.967   2.062
10670SOL     OW32908   5.635   4.131   5.462
10670SOL    HW132909   5.543   4.163   5.438
10670SOL    HW232910   5.634   4.089   5.553
10671SOL     OW32911   2.481   2.665   3.417
10671SOL    HW132912   2.500   2.584   3.361
10671SOL    HW232913   2.471   2.744   3.357
10672SOL     OW32914   6.640   3.293   0.940
10672SOL    HW132915   6.611   3.323   0.849
10672SOL    HW232916   6.585   3.341   1.009
10673SOL     OW32917   0.886   0.788   6.703
10673SOL    HW132918   0.948   0.748   6.636
10673SOL    HW232919   0.901   0.745   6.792
10674SOL     OW32920   3.424   3.882   2.298
10674SOL    HW132921   3.459   3.857   2.388
10674SOL    HW232922   3.342   3.939   2.308
10675SOL     OW32923   1.891   6.843   6.498
10675SOL    HW132924   1.835   6.906   6.445
10675SOL    HW232925   1.846   6.825   6.586
10676SOL     OW32926   6.909   6.265   5.608
10676SOL    HW132927   6.809   6.269   5.609
10676SOL    HW232928   6.940   6.197   5.674
10677SOL     OW32929   1.193   0.662   1.941
10677SOL    HW132930   1.107   0.672   1.991
10677SOL    HW232931   1.197   0.572   1.898
10678SOL     OW32932   4.403   4.913   4.070
10678SOL    HW132933   4.464   4.838   4.095
10678SOL    HW232934   4.372   4.960   4.153
10679SOL     OW32935   4.782   5.520   6.875
10679SOL    HW132936   4.759   5.544   6.781
10679SOL    HW232937   4.875   5.481   6.878
10680SOL     OW32938   4.147   1.919   3.931
10680SOL    HW132939   4.076   1.988   3.913
10680SOL    HW232940   4.125   1.871   4.016
10681SOL     OW32941   1.138   3.775   0.512
10681SOL    HW132942   1.041   3.787   0.492
10681SOL    HW232943   1.191   3.796   0.429
10682SOL     OW32944   0.826   1.205   5.263
10682SOL    HW132945   0.817   1.304   5.276
10682SOL    HW232946   0.815   1.159   5.351
10683SOL     OW32947   3.601   2.102   3.623
10683SOL    HW132948   3.685   2.139   3.582
10683SOL    HW232949   3.595   2.132   3.718
10684SOL     OW32950   5.274   4.369   2.413
10684SOL    HW132951   5.319   4.280   2.418
10684SOL    HW232952   5.323   4.428   2.349
10685SOL     OW32953   0.650   5.874   2.904
10685SOL    HW132954   0.746   5.898   2.891
10685SOL    HW232955   0.630   5.788   2.858
10686SOL     OW32956   0.843   4.673   6.261
10686SOL    HW132957   0.855   4.724   6.346
10686SOL    HW232958   0.751   4.634   6.257
10687SOL     OW32959   6.084   5.744   2.365
10687SOL    HW132960   6.109   5.651   2.337
10687SOL    HW232961   6.160   5.806   2.349
10688SOL     OW32962   6.529   3.885   2.384
10688SOL    HW132963   6.548   3.845   2.473
10688SOL    HW232964   6.430   3.884   2.368
10689SOL     OW32965   0.309   5.617   3.552
10689SOL    HW132966   0.331   5.543   3.488
10689SOL    HW232967   0.392   5.648   3.598
10690SOL     OW32968   6.751   6.560   3.511
10690SOL    HW132969   6.771   6.529   3.604
10690SOL    HW232970   6.828   6.538   3.451
10691SOL     OW32971   0.361   2.514   2.477
10691SOL    HW132972   0.417   2.480   2.401
10691SOL    HW232973   0.330   2.606   2.456
10692SOL     OW32974   3.317   5.723   3.493
10692SOL    HW132975   3.344   5.649   3.431
10692SOL    HW232976   3.328   5.811   3.446
10693SOL     OW32977   2.201   6.309   6.602
10693SOL    HW132978   2.208   6.384   6.668
10693SOL    HW232979   2.160   6.229   6.646
10694SOL     OW32980   5.232   6.760   1.710
10694SOL    HW132981   5.284   6.737   1.793
10694SOL    HW232982   5.135   6.745   1.727
10695SOL     OW32983   6.373   2.348   3.110
10695SOL    HW132984   6.449   2.395   3.065
10695SOL    HW232985   6.397   2.252   3.124
10696SOL     OW32986   0.353   3.581   3.803
10696SOL    HW132987   0.446   3.612   3.786
10696SOL    HW232988   0.349   3.482   3.793
10697SOL     OW32989   6.836   5.928   4.756
10697SOL    HW132990   6.803   5.839   4.725
10697SOL    HW232991   6.819   5.996   4.686
10698SOL     OW32992   4.854   5.000   5.931
10698SOL    HW132993   4.932   5.036   5.880
10698SOL    HW232994   4.875   5.004   6.029
10699SOL     OW32995   4.029   3.352   2.006
10699SOL    HW132996   4.072   3.353   2.096
10699SOL    HW232997   3.956   3.421   2.003
10700SOL     OW32998   6.916   6.588   1.401
10700SOL    HW132999   6.934   6.604   1.498
10700SOL    HW233000   6.838   6.527   1.391
10701SOL     OW33001   3.523   6.097   0.208
10701SOL    HW133002   3.487   6.026   0.148
10701SOL    HW233003   3.499   6.187   0.171
10702SOL     OW33004   6.087   2.900   1.563
10702SOL    HW133005   6.112   2.803   1.559
10702SOL    HW233006   6.154   2.950   1.618
10703SOL     OW33007   2.935   3.748   4.997
10703SOL    HW133008   2.937   3.654   5.032
10703SOL    HW233009   2.936   3.747   4.897
10704SOL     OW33010   6.477   5.730   1.401
10704SOL    HW133011   6.383   5.696   1.393
10704SOL    HW233012   6.477   5.830   1.395
10705SOL     OW33013   6.414   4.282   1.481
10705SOL    HW133014   6.447   4.210   1.542
10705SOL    HW233015   6.486   4.307   1.417
10706SOL     OW33016   5.028   6.211   1.566
10706SOL    HW133017   4.983   6.133   1.608
10706SOL    HW233018   5.018   6.292   1.625
10707SOL     OW33019   0.538   6.121   4.174
10707SOL    HW133020   0.532   6.160   4.267
10707SOL    HW233021   0.621   6.067   4.166
10708SOL     OW33022   4.288   0.477   2.283
10708SOL    HW133023   4.315   0.468   2.187
10708SOL    HW233024   4.358   0.528   2.333
10709SOL     OW33025   6.421   5.903   5.202
10709SOL    HW133026   6.335   5.862   5.172
10709SOL    HW233027   6.491   5.890   5.132
10710SOL     OW33028   0.541   6.408   4.776
10710SOL    HW133029   0.625   6.356   4.761
10710SOL    HW233030   0.521   6.412   4.874
10711SOL     OW33031   1.550   6.344   3.792
10711SOL    HW133032   1.479   6.319   3.726
10711SOL    HW233033   1.536   6.293   3.877
10712SOL     OW33034   2.682   1.466   1.346
10712SOL    HW133035   2.613   1.537   1.348
10712SOL    HW233036   2.766   1.499   1.389
10713SOL     OW33037   1.151   3.889   1.700
10713SOL    HW133038   1.097   3.959   1.652
10713SOL    HW233039   1.179   3.818   1.636
10714SOL     OW33040   6.025   3.797   4.477
10714SOL    HW133041   5.943   3.847   4.450
10714SOL    HW233042   6.029   3.792   4.577
10715SOL     OW33043   5.613   6.913   2.539
10715SOL    HW133044   5.694   6.866   2.503
10715SOL    HW233045   5.641   6.997   2.585
10716SOL     OW33046   5.718   2.383   4.236
10716SOL    HW133047   5.627   2.353   4.265
10716SOL    HW233048   5.723   2.483   4.238
10717SOL     OW33049   1.139   2.646   0.550
10717SOL    HW133050   1.210   2.712   0.573
10717SOL    HW233051   1.180   2.569   0.500
10718SOL     OW33052   1.207   2.389   6.480
10718SOL    HW133053   1.268   2.434   6.415
10718SOL    HW233054   1.139   2.336   6.431
10719SOL     OW33055   5.611   5.589   1.167
10719SOL    HW133056   5.559   5.675   1.164
10719SOL    HW233057   5.598   5.545   1.255
10720SOL     OW33058   0.028   3.662   5.202
10720SOL    HW133059   0.117   3.674   5.159
10720SOL    HW233060   6.981   3.642   5.133
10721SOL     OW33061   5.926   4.241   4.861
10721SOL    HW133062   5.910   4.144   4.844
10721SOL    HW233063   5.872   4.271   4.939
10722SOL     OW33064   0.433   4.070   0.874
10722SOL    HW133065   0.476   4.033   0.957
10722SOL    HW233066   0.503   4.116   0.819
10723SOL     OW33067   0.889   3.833   6.177
10723SOL    HW133068   0.986   3.842   6.153
10723SOL    HW233069   0.881   3.783   6.263
10724SOL     OW33070   4.687   0.941   6.616
10724SOL    HW133071   4.769   0.937   6.558
10724SOL    HW233072   4.689   0.866   6.682
10725SOL     OW33073   0.847   4.395   4.690
10725SOL    HW133074   0.823   4.472   4.750
10725SOL    HW233075   0.827   4.419   4.595
10726SOL     OW33076   5.099   0.234   5.444
10726SOL    HW133077   5.114   0.155   5.503
10726SOL    HW233078   5.118   0.318   5.495
10727SOL     OW33079   0.257   4.933   4.033
10727SOL    HW133080   0.200   4.868   3.983
10727SOL    HW233081   0.200   4.988   4.094
10728SOL     OW33082   6.544   6.250   0.482
10728SOL    HW133083   6.457   6.239   0.530
10728SOL    HW233084   6.618   6.255   0.549
10729SOL     OW33085   5.899   1.118   2.617
10729SOL    HW133086   5.935   1.030   2.650
10729SOL    HW233087   5.811   1.136   2.661
10730SOL     OW33088   2.393   6.966   1.951
10730SOL    HW133089   2.304   6.997   1.985
10730SOL    HW233090   2.386   6.870   1.924
10731SOL     OW33091   3.026   5.968   0.655
10731SOL    HW133092   3.122   5.986   0.675
10731SOL    HW233093   3.018   5.890   0.594
10732SOL     OW33094   4.846   5.260   2.402
10732SOL    HW133095   4.781   5.203   2.452
10732SOL    HW233096   4.850   5.230   2.306
10733SOL     OW33097   5.241   2.177   6.923
10733SOL    HW133098   5.225   2.134   7.012
10733SOL    HW233099   5.310   2.248   6.932
10734SOL     OW33100   1.501   0.185   0.172
10734SOL    HW133101   1.570   0.227   0.230
10734SOL    HW233102   1.417   0.239   0.174
10735SOL     OW33103   1.631   4.564   2.961
10735SOL    HW133104   1.662   4.523   3.047
10735SOL    HW233105   1.654   4.661   2.960
10736SOL     OW33106   0.161   0.441   3.487
10736SOL    HW133107   0.260   0.432   3.479
10736SOL    HW233108   0.121   0.453   3.396
10737SOL     OW33109   1.354   1.808   0.197
10737SOL    HW133110   1.277   1.760   0.154
10737SOL    HW233111   1.388   1.879   0.136
10738SOL     OW33112   2.678   1.051   3.225
10738SOL    HW133113   2.765   1.003   3.237
10738SOL    HW233114   2.694   1.139   3.180
10739SOL     OW33115   0.392   1.003   1.122
10739SOL    HW133116   0.469   1.057   1.088
10739SOL    HW233117   0.327   1.063   1.168
10740SOL     OW33118   0.751   4.745   5.807
10740SOL    HW133119   0.664   4.753   5.759
10740SOL    HW233120   0.746   4.793   5.894
10741SOL     OW33121   0.645   0.503   3.056
10741SOL    HW133122   0.581   0.511   3.133
10741SOL    HW233123   0.716   0.572   3.064
10742SOL     OW33124   5.852   0.326   1.952
10742SOL    HW133125   5.946   0.297   1.967
10742SOL    HW233126   5.808   0.345   2.040
10743SOL     OW33127   2.099   1.966   5.308
10743SOL    HW133128   2.139   2.006   5.390
10743SOL    HW233129   2.106   2.032   5.233
10744SOL     OW33130   2.550   1.812   2.182
10744SOL    HW133131   2.539   1.796   2.280
10744SOL    HW233132   2.632   1.765   2.150
10745SOL     OW33133   0.960   4.692   0.711
10745SOL    HW133134   1.032   4.663   0.774
10745SOL    HW233135   0.872   4.692   0.760
10746SOL     OW33136   1.891   3.776   1.508
10746SOL    HW133137   1.873   3.773   1.606
10746SOL    HW233138   1.982   3.814   1.492
10747SOL     OW33139   4.180   0.643   3.100
10747SOL    HW133140   4.252   0.642   3.030
10747SOL    HW233141   4.222   0.653   3.190
10748SOL     OW33142   3.614   0.749   1.330
10748SOL    HW133143   3.531   0.803   1.317
10748SOL    HW233144   3.682   0.804   1.379
10749SOL     OW33145   6.755   5.248   3.415
10749SOL    HW133146   6.702   5.229   3.498
10749SOL    HW233147   6.820   5.322   3.434
10750SOL     OW33148   4.129   6.190   4.075
10750SOL    HW133149   4.093   6.242   4.152
10750SOL    HW233150   4.053   6.163   4.016
10751SOL     OW33151   1.442   4.387   4.773
10751SOL    HW133152   1.411   4.319   4.840
10751SOL    HW233153   1.526   4.430   4.806
10752SOL     OW33154   5.958   3.755   6.255
10752SOL    HW133155   6.040   3.811   6.271
10752SOL    HW233156   5.986   3.663   6.227
10753SOL     OW33157   4.083   6.789   4.544
10753SOL    HW133158   4.009   6.790   4.477
10753SOL    HW233159   4.045   6.791   4.636
10754SOL     OW33160   1.161   1.828   3.538
10754SOL    HW133161   1.062   1.831   3.545
10754SOL    HW233162   1.191   1.890   3.465
10755SOL     OW33163   0.519   1.985   6.472
10755SOL    HW133164   0.492   1.898   6.515
10755SOL    HW233165   0.611   1.977   6.434
10756SOL     OW33166   6.586   4.218   0.133
10756SOL    HW133167   6.486   4.218   0.140
10756SOL    HW233168   6.624   4.281   0.201
10757SOL     OW33169   1.312   2.822   6.896
10757SOL    HW133170   1.229   2.813   6.952
10757SOL    HW233171   1.327   2.737   6.845
10758SOL     OW33172   0.953   6.598   5.429
10758SOL    HW133173   0.920   6.683   5.388
10758SOL    HW233174   1.006   6.619   5.511
10759SOL     OW33175   1.928   2.890   6.825
10759SOL    HW133176   1.894   2.823   6.890
10759SOL    HW233177   1.880   2.977   6.838
10760SOL     OW33178   6.170   1.209   0.731
10760SOL    HW133179   6.116   1.277   0.781
10760SOL    HW233180   6.241   1.173   0.791
10761SOL     OW33181   1.372   1.820   6.196
10761SOL    HW133182   1.438   1.773   6.138
10761SOL    HW233183   1.335   1.756   6.263
10762SOL     OW33184   3.553   1.833   4.997
10762SOL    HW133185   3.500   1.894   4.938
10762SOL    HW233186   3.517   1.837   5.090
10763SOL     OW33187   4.457   6.306   1.077
10763SOL    HW133188   4.415   6.393   1.103
10763SOL    HW233189   4.388   6.234   1.076
10764SOL     OW33190   5.694   2.111   6.272
10764SOL    HW133191   5.712   2.209   6.277
10764SOL    HW233192   5.699   2.071   6.364
10765SOL     OW33193   5.885   2.888   1.037
10765SOL    HW133194   5.818   2.851   1.102
10765SOL    HW233195   5.932   2.812   0.991
10766SOL     OW33196   3.879   2.728   1.401
10766SOL    HW133197   3.921   2.750   1.313
10766SOL    HW233198   3.838   2.637   1.397
10767SOL     OW33199   1.237   0.575   6.878
10767SOL    HW133200   1.267   0.482   6.858
10767SOL    HW233201   1.314   0.629   6.910
10768SOL     OW33202   4.249   5.236   0.781
10768SOL    HW133203   4.292   5.234   0.871
10768SOL    HW233204   4.190   5.156   0.771
10769SOL     OW33205   2.163   5.120   4.554
10769SOL    HW133206   2.168   5.086   4.648
10769SOL    HW233207   2.162   5.220   4.555
10770SOL     OW33208   5.286   0.253   5.010
10770SOL    HW133209   5.216   0.211   5.069
10770SOL    HW233210   5.369   0.199   5.014
10771SOL     OW33211   5.138   1.038   4.090
10771SOL    HW133212   5.098   1.071   4.005
10771SOL    HW233213   5.093   1.081   4.168
10772SOL     OW33214   0.252   6.512   4.358
10772SOL    HW133215   0.300   6.545   4.440
10772SOL    HW233216   0.209   6.424   4.378
10773SOL     OW33217   0.318   5.234   6.903
10773SOL    HW133218   0.325   5.286   6.818
10773SOL    HW233219   0.386   5.266   6.968
10774SOL     OW33220   1.559   1.664   6.542
10774SOL    HW133221   1.647   1.646   6.587
10774SOL    HW233222   1.507   1.731   6.596
10775SOL     OW33223   0.352   2.807   0.461
10775SOL    HW133224   0.404   2.785   0.544
10775SOL    HW233225   0.393   2.887   0.417
10776SOL     OW33226   1.339   6.444   0.074
10776SOL    HW133227   1.339   6.378   7.022
10776SOL    HW233228   1.254   6.496   0.073
10777SOL     OW33229   3.591   5.763   4.008
10777SOL    HW133230   3.491   5.757   4.003
10777SOL    HW233231   3.624   5.712   4.087
10778SOL     OW33232   5.441   6.378   5.265
10778SOL    HW133233   5.430   6.279   5.278
10778SOL    HW233234   5.408   6.402   5.174
10779SOL     OW33235   6.210   4.943   3.302
10779SOL    HW133236   6.285   4.895   3.347
10779SOL    HW233237   6.218   5.041   3.319
10780SOL     OW33238   1.519   0.356   3.897
10780SOL    HW133239   1.589   0.366   3.967
10780SOL    HW233240   1.479   0.265   3.903
10781SOL     OW33241   3.768   0.941   3.171
10781SOL    HW133242   3.863   0.962   3.197
10781SOL    HW233243   3.769   0.867   3.104
10782SOL     OW33244   0.020   2.144   3.399
10782SOL    HW133245   0.086   2.070   3.403
10782SOL    HW233246   0.049   2.218   3.460
10783SOL     OW33247   0.945   3.597   3.640
10783SOL    HW133248   0.971   3.561   3.730
10783SOL    HW233249   0.993   3.545   3.569
10784SOL     OW33250   3.401   1.119   3.789
10784SOL    HW133251   3.367   1.200   3.836
10784SOL    HW233252   3.500   1.127   3.774
10785SOL     OW33253   6.964   5.188   1.325
10785SOL    HW133254   6.883   5.193   1.383
10785SOL    HW233255   0.024   5.194   1.382
10786SOL     OW33256   4.760   4.917   2.167
10786SOL    HW133257   4.695   4.894   2.239
10786SOL    HW233258   4.821   4.840   2.151
10787SOL     OW33259   2.971   1.577   4.550
10787SOL    HW133260   3.042   1.513   4.522
10787SOL    HW233261   2.965   1.652   4.484
10788SOL     OW33262   2.432   5.072   6.262
10788SOL    HW133263   2.393   5.056   6.353
10788SOL    HW233264   2.520   5.118   6.272
10789SOL     OW33265   6.243   2.953   6.961
10789SOL    HW133266   6.228   2.934   0.035
10789SOL    HW233267   6.228   2.870   6.908
10790SOL     OW33268   0.928   0.889   2.549
10790SOL    HW133269   0.925   0.813   2.483
10790SOL    HW233270   0.951   0.973   2.502
10791SOL     OW33271   0.258   6.920   0.468
10791SOL    HW133272   0.174   6.874   0.497
10791SOL    HW233273   0.334   6.855   0.467
10792SOL     OW33274   3.528   3.841   3.057
10792SOL    HW133275   3.543   3.894   2.974
10792SOL    HW233276   3.579   3.883   3.133
10793SOL     OW33277   5.128   2.676   3.916
10793SOL    HW133278   5.063   2.608   3.883
10793SOL    HW233279   5.153   2.737   3.841
10794SOL     OW33280   2.970   3.789   3.870
10794SOL    HW133281   2.962   3.755   3.964
10794SOL    HW233282   2.973   3.711   3.808
10795SOL     OW33283   0.185   4.293   3.342
10795SOL    HW133284   0.218   4.271   3.434
10795SOL    HW233285   0.118   4.367   3.347
10796SOL     OW33286   5.943   6.828   0.752
10796SOL    HW133287   5.990   6.740   0.753
10796SOL    HW233288   5.879   6.830   0.675
10797SOL     OW33289   3.796   1.777   1.760
10797SOL    HW133290   3.732   1.724   1.816
10797SOL    HW233291   3.770   1.874   1.763
10798SOL     OW33292   2.488   6.399   0.772
10798SOL    HW133293   2.482   6.436   0.864
10798SOL    HW233294   2.509   6.473   0.707
10799SOL     OW33295   3.441   0.536   2.321
10799SOL    HW133296   3.499   0.565   2.396
10799SOL    HW233297   3.377   0.466   2.353
10800SOL     OW33298   0.243   6.873   0.129
10800SOL    HW133299   0.289   6.793   0.089
10800SOL    HW233300   0.290   6.956   0.099
10801SOL     OW33301   0.601   6.410   6.179
10801SOL    HW133302   0.652   6.491   6.149
10801SOL    HW233303   0.508   6.414   6.144
10802SOL     OW33304   0.831   2.691   3.391
10802SOL    HW133305   0.848   2.607   3.341
10802SOL    HW233306   0.842   2.674   3.489
10803SOL     OW33307   3.241   3.528   5.922
10803SOL    HW133308   3.190   3.608   5.953
10803SOL    HW233309   3.190   3.481   5.850
10804SOL     OW33310   6.082   3.757   1.730
10804SOL    HW133311   6.106   3.671   1.774
10804SOL    HW233312   5.999   3.745   1.675
10805SOL     OW33313   3.903   0.000   0.225
10805SOL    HW133314   3.881   6.927   0.210
10805SOL    HW233315   3.975   0.028   0.161
10806SOL     OW33316   4.834   3.875   6.140
10806SOL    HW133317   4.879   3.924   6.215
10806SOL    HW233318   4.827   3.778   6.163
10807SOL     OW33319   1.337   0.028   2.224
10807SOL    HW133320   1.353   6.968   2.170
10807SOL    HW233321   1.401   0.031   2.301
10808SOL     OW33322   6.341   2.948   6.610
10808SOL    HW133323   6.258   2.962   6.663
10808SOL    HW233324   6.421   2.974   6.664
10809SOL     OW33325   3.269   5.961   3.758
10809SOL    HW133326   3.245   6.058   3.755
10809SOL    HW233327   3.368   5.951   3.772
10810SOL     OW33328   2.203   0.761   4.820
10810SOL    HW133329   2.225   0.843   4.767
10810SOL    HW233330   2.155   0.696   4.761
10811SOL     OW33331   4.016   4.655   5.520
10811SOL    HW133332   4.076   4.605   5.458
10811SOL    HW233333   3.921   4.634   5.499
10812SOL     OW33334   1.035   3.195   1.464
10812SOL    HW133335   1.098   3.193   1.386
10812SOL    HW233336   1.087   3.212   1.548
10813SOL     OW33337   2.403   4.997   6.522
10813SOL    HW133338   2.348   4.956   6.595
10813SOL    HW233339   2.497   5.012   6.556
10814SOL     OW33340   1.441   6.692   6.717
10814SOL    HW133341   1.419   6.716   6.622
10814SOL    HW233342   1.411   6.599   6.736
10815SOL     OW33343   4.881   4.514   4.102
10815SOL    HW133344   4.822   4.449   4.054
10815SOL    HW233345   4.946   4.554   4.038
10816SOL     OW33346   2.327   2.399   1.305
10816SOL    HW133347   2.346   2.369   1.398
10816SOL    HW233348   2.233   2.376   1.281
10817SOL     OW33349   5.167   6.627   2.947
10817SOL    HW133350   5.172   6.618   2.848
10817SOL    HW233351   5.197   6.542   2.990
10818SOL     OW33352   4.401   4.875   5.288
10818SOL    HW133353   4.490   4.901   5.326
10818SOL    HW233354   4.345   4.835   5.361
10819SOL     OW33355   7.014   4.531   6.620
10819SOL    HW133356   0.001   4.617   6.570
10819SOL    HW233357   0.082   4.491   6.635
10820SOL     OW33358   5.893   5.773   4.240
10820SOL    HW133359   5.904   5.747   4.144
10820SOL    HW233360   5.836   5.855   4.246
10821SOL     OW33361   5.469   6.810   1.923
10821SOL    HW133362   5.392   6.786   1.983
10821SOL    HW233363   5.449   6.896   1.877
10822SOL     OW33364   0.299   3.126   2.971
10822SOL    HW133365   0.344   3.189   2.908
10822SOL    HW233366   0.329   3.146   3.064
10823SOL     OW33367   1.662   5.619   1.748
10823SOL    HW133368   1.727   5.652   1.817
10823SOL    HW233369   1.580   5.584   1.794
10824SOL     OW33370   6.433   0.979   3.464
10824SOL    HW133371   6.338   0.964   3.489
10824SOL    HW233372   6.489   0.988   3.547
10825SOL     OW33373   2.784   0.715   6.084
10825SOL    HW133374   2.880   0.734   6.105
10825SOL    HW233375   2.731   0.719   6.169
10826SOL     OW33376   0.808   3.095   3.604
10826SOL    HW133377   0.821   3.127   3.698
10826SOL    HW233378   0.756   3.009   3.604
10827SOL     OW33379   5.846   4.023   4.435
10827SOL    HW133380   5.767   3.961   4.433
10827SOL    HW233381   5.826   4.101   4.495
10828SOL     OW33382   1.111   5.711   2.320
10828SOL    HW133383   1.090   5.804   2.351
10828SOL    HW233384   1.110   5.707   2.220
10829SOL     OW33385   3.935   2.204   1.248
10829SOL    HW133386   3.884   2.119   1.233
10829SOL    HW233387   3.959   2.244   1.160
10830SOL     OW33388   5.083   1.799   3.384
10830SOL    HW133389   5.154   1.856   3.425
10830SOL    HW233390   5.059   1.726   3.448
10831SOL     OW33391   3.631   5.809   2.515
10831SOL    HW133392   3.532   5.818   2.503
10831SOL    HW233393   3.678   5.867   2.448
10832SOL     OW33394   1.386   2.516   0.177
10832SOL    HW133395   1.395   2.615   0.180
10832SOL    HW233396   1.334   2.485   0.256
10833SOL     OW33397   1.780   1.014   1.950
10833SOL    HW133398   1.863   1.068   1.934
10833SOL    HW233399   1.804   0.930   1.998
10834SOL     OW33400   1.053   1.951   6.246
10834SOL    HW133401   1.040   1.858   6.278
10834SOL    HW233402   1.143   1.984   6.274
10835SOL     OW33403   6.404   1.795   0.140
10835SOL    HW133404   6.339   1.787   0.065
10835SOL    HW233405   6.466   1.717   0.140
10836SOL     OW33406   6.962   2.062   4.721
10836SOL    HW133407   6.957   2.002   4.642
10836SOL    HW233408   6.920   2.017   4.800
10837SOL     OW33409   0.034   4.758   0.725
10837SOL    HW133410   6.966   4.730   0.691
10837SOL    HW233411   0.088   4.795   0.649
10838SOL     OW33412   5.908   6.356   4.826
10838SOL    HW133413   5.828   6.333   4.881
10838SOL    HW233414   5.892   6.442   4.778
10839SOL     OW33415   3.958   3.014   1.429
10839SOL    HW133416   3.966   2.918   1.457
10839SOL    HW233417   3.872   3.051   1.463
10840SOL     OW33418   3.179   5.492   2.216
10840SOL    HW133419   3.237   5.418   2.184
10840SOL    HW233420   3.083   5.468   2.199
10841SOL     OW33421   5.037   5.398   6.987
10841SOL    HW133422   5.089   5.370   6.906
10841SOL    HW233423   5.003   5.317   0.012
10842SOL     OW33424   5.096   2.378   1.467
10842SOL    HW133425   5.187   2.381   1.508
10842SOL    HW233426   5.103   2.352   1.371
10843SOL     OW33427   1.455   2.478   1.122
10843SOL    HW133428   1.449   2.507   1.218
10843SOL    HW233429   1.369   2.499   1.076
10844SOL     OW33430   0.103   6.820   3.678
10844SOL    HW133431   0.097   6.734   3.626
10844SOL    HW233432   0.195   6.856   3.672
10845SOL     OW33433   3.129   0.231   5.506
10845SOL    HW133434   3.175   0.257   5.421
10845SOL    HW233435   3.168   0.282   5.582
10846SOL     OW33436   4.891   2.079   0.633
10846SOL    HW133437   4.836   2.019   0.691
10846SOL    HW233438   4.853   2.171   0.634
10847SOL     OW33439   4.142   3.435   6.354
10847SOL    HW133440   4.182   3.521   6.386
10847SOL    HW233441   4.047   3.428   6.384
10848SOL     OW33442   2.928   3.735   6.942
10848SOL    HW133443   2.936   3.678   6.860
10848SOL    HW233444   2.983   3.818   6.930
10849SOL     OW33445   2.681   6.226   3.017
10849SOL    HW133446   2.644   6.209   3.108
10849SOL    HW233447   2.759   6.165   3.001
10850SOL     OW33448   3.369   5.314   0.200
10850SOL    HW133449   3.414   5.225   0.186
10850SOL    HW233450   3.371   5.336   0.298
10851SOL     OW33451   2.547   2.804   6.406
10851SOL    HW133452   2.627   2.780   6.460
10851SOL    HW233453   2.574   2.866   6.332
10852SOL     OW33454   1.242   0.107   6.717
10852SOL    HW133455   1.172   0.159   6.669
10852SOL    HW233456   1.257   0.020   6.669
10853SOL     OW33457   3.161   2.260   5.863
10853SOL    HW133458   3.094   2.206   5.913
10853SOL    HW233459   3.152   2.241   5.765
10854SOL     OW33460   4.535   6.423   5.211
10854SOL    HW133461   4.520   6.412   5.310
10854SOL    HW233462   4.618   6.374   5.185
10855SOL     OW33463   2.668   6.689   1.325
10855SOL    HW133464   2.680   6.745   1.243
10855SOL    HW233465   2.730   6.722   1.396
10856SOL     OW33466   6.275   1.576   1.743
10856SOL    HW133467   6.328   1.605   1.823
10856SOL    HW233468   6.199   1.518   1.772
10857SOL     OW33469   6.110   2.443   3.128
10857SOL    HW133470   6.060   2.411   3.208
10857SOL    HW233471   6.197   2.394   3.121
10858SOL     OW33472   0.721   2.130   6.239
10858SOL    HW133473   0.778   2.198   6.285
10858SOL    HW233474   0.777   2.075   6.177
10859SOL     OW33475   2.214   2.975   4.056
10859SOL    HW133476   2.200   3.073   4.041
10859SOL    HW233477   2.174   2.924   3.980
10860SOL     OW33478   6.702   1.893   6.024
10860SOL    HW133479   6.655   1.807   6.005
10860SOL    HW233480   6.706   1.908   6.123
10861SOL     OW33481   3.598   3.204   3.497
10861SOL    HW133482   3.675   3.142   3.483
10861SOL    HW233483   3.593   3.269   3.422
10862SOL     OW33484   2.548   1.649   6.410
10862SOL    HW133485   2.612   1.626   6.484
10862SOL    HW233486   2.496   1.731   6.435
10863SOL     OW33487   3.946   0.475   3.241
10863SOL    HW133488   3.864   0.529   3.262
10863SOL    HW233489   4.007   0.530   3.184
10864SOL     OW33490   3.146   5.371   0.705
10864SOL    HW133491   3.233   5.400   0.744
10864SOL    HW233492   3.081   5.447   0.709
10865SOL     OW33493   6.283   1.447   2.939
10865SOL    HW133494   6.225   1.454   3.019
10865SOL    HW233495   6.253   1.513   2.870
10866SOL     OW33496   4.845   4.728   0.288
10866SOL    HW133497   4.787   4.688   0.218
10866SOL    HW233498   4.796   4.801   0.336
10867SOL     OW33499   3.339   4.221   0.249
10867SOL    HW133500   3.389   4.158   0.308
10867SOL    HW233501   3.265   4.265   0.301
10868SOL     OW33502   2.999   2.234   3.656
10868SOL    HW133503   3.047   2.219   3.569
10868SOL    HW233504   2.913   2.182   3.656
10869NA      NA33505   0.644   2.220   5.898
10870NA      NA33506   4.357   4.740   5.076
10871NA      NA33507   1.850   4.243   2.537
10872NA      NA33508   5.004   4.161   3.643
10873NA      NA33509   4.202   2.314   5.233
10874NA      NA33510   3.187   4.837   1.737
10875NA      NA33511   0.009   4.429   0.309
10876NA      NA33512   3.315   3.450   3.088
10877NA      NA33513   4.929   5.118   1.090
10878NA      NA33514   4.036   6.599   5.232
10879NA      NA33515   6.076   5.252   1.308
10880NA      NA33516   1.762   0.943   4.859
10881NA      NA33517   3.930   4.985   1.708
10882NA      NA33518   4.037   3.269   1.770
   7.02252   7.02252   7.02252
