Generated by trjconv : CNT in water t= 501.00000
33518
    1C        C    1   2.847   2.774   4.748
    1C        C    2   2.902   2.722   4.867
    1C        C    3   2.842   2.771   4.983
    1C        C    4   2.853   2.777   4.260
    1C        C    5   2.901   2.731   4.384
    1C        C    6   2.846   2.775   4.506
    1C        C    7   3.017   2.645   4.624
    1C        C    8   2.901   2.726   4.627
    1C        C    9   3.076   2.604   4.745
    1C        C   10   3.011   2.633   4.867
    1C        C   11   3.184   2.494   4.973
    1C        C   12   3.063   2.564   4.978
    1C        C   13   2.854   2.773   3.772
    1C        C   14   2.899   2.719   3.895
    1C        C   15   2.850   2.771   4.017
    1C        C   16   3.020   2.645   4.139
    1C        C   17   2.906   2.727   4.139
    1C        C   18   3.085   2.619   4.262
    1C        C   19   3.020   2.654   4.382
    1C        C   20   3.212   2.558   4.505
    1C        C   21   3.082   2.612   4.502
    1C        C   22   3.281   2.535   4.626
    1C        C   23   3.208   2.549   4.745
    1C        C   24   3.415   2.480   4.867
    1C        C   25   3.275   2.508   4.864
    1C        C   26   3.492   2.471   4.984
    1C        C   27   2.851   2.771   3.282
    1C        C   28   2.906   2.725   3.404
    1C        C   29   2.856   2.773   3.527
    1C        C   30   3.019   2.640   3.651
    1C        C   31   2.905   2.724   3.650
    1C        C   32   3.081   2.608   3.774
    1C        C   33   3.017   2.642   3.896
    1C        C   34   3.211   2.552   4.017
    1C        C   35   3.080   2.605   4.017
    1C        C   36   3.281   2.537   4.139
    1C        C   37   3.216   2.565   4.261
    1C        C   38   3.418   2.505   4.383
    1C        C   39   3.281   2.539   4.383
    1C        C   40   3.489   2.493   4.505
    1C        C   41   3.417   2.498   4.627
    1C        C   42   3.631   2.485   4.747
    1C        C   43   3.489   2.475   4.746
    1C        C   44   3.705   2.483   4.867
    1C        C   45   3.631   2.474   4.985
    1C        C   46   2.840   2.755   2.794
    1C        C   47   2.896   2.714   2.916
    1C        C   48   2.843   2.761   3.039
    1C        C   49   3.015   2.636   3.159
    1C        C   50   2.901   2.719   3.161
    1C        C   51   3.079   2.606   3.282
    1C        C   52   3.022   2.644   3.405
    1C        C   53   3.210   2.551   3.529
    1C        C   54   3.082   2.610   3.528
    1C        C   55   3.279   2.533   3.651
    1C        C   56   3.212   2.557   3.773
    1C        C   57   3.418   2.507   3.894
    1C        C   58   3.279   2.532   3.895
    1C        C   59   3.490   2.498   4.015
    1C        C   60   3.419   2.509   4.137
    1C        C   61   3.629   2.499   4.261
    1C        C   62   3.488   2.499   4.260
    1C        C   63   3.702   2.505   4.382
    1C        C   64   3.630   2.499   4.504
    1C        C   65   3.837   2.540   4.623
    1C        C   66   3.701   2.502   4.625
    1C        C   67   3.907   2.558   4.744
    1C        C   68   3.842   2.518   4.863
    1C        C   69   4.049   2.585   4.981
    1C        C   70   3.921   2.528   4.978
    1C        C   71   2.827   2.736   2.309
    1C        C   72   2.886   2.699   2.432
    1C        C   73   2.832   2.749   2.553
    1C        C   74   3.008   2.625   2.672
    1C        C   75   2.891   2.704   2.673
    1C        C   76   3.073   2.594   2.794
    1C        C   77   3.014   2.636   2.915
    1C        C   78   3.206   2.543   3.038
    1C        C   79   3.078   2.602   3.037
    1C        C   80   3.276   2.532   3.160
    1C        C   81   3.212   2.559   3.283
    1C        C   82   3.414   2.497   3.404
    1C        C   83   3.277   2.530   3.406
    1C        C   84   3.486   2.495   3.525
    1C        C   85   3.417   2.506   3.648
    1C        C   86   3.628   2.504   3.772
    1C        C   87   3.487   2.498   3.771
    1C        C   88   3.699   2.512   3.894
    1C        C   89   3.631   2.498   4.017
    1C        C   90   3.840   2.534   4.137
    1C        C   91   3.701   2.505   4.139
    1C        C   92   3.905   2.562   4.260
    1C        C   93   3.839   2.539   4.382
    1C        C   94   4.030   2.633   4.500
    1C        C   95   3.909   2.561   4.503
    1C        C   96   4.090   2.671   4.622
    1C        C   97   4.034   2.622   4.742
    1C        C   98   4.191   2.763   4.861
    1C        C   99   4.098   2.654   4.865
    1C        C  100   4.208   2.844   4.974
    1C        C  101   2.820   2.728   2.071
    1C        C  102   2.994   2.594   2.192
    1C        C  103   2.881   2.682   2.189
    1C        C  104   3.063   2.574   2.315
    1C        C  105   3.004   2.622   2.434
    1C        C  106   3.204   2.536   2.553
    1C        C  107   3.073   2.589   2.552
    1C        C  108   3.271   2.515   2.675
    1C        C  109   3.202   2.537   2.797
    1C        C  110   3.412   2.489   2.917
    1C        C  111   3.273   2.514   2.917
    1C        C  112   3.484   2.492   3.038
    1C        C  113   3.414   2.505   3.161
    1C        C  114   3.626   2.500   3.281
    1C        C  115   3.485   2.491   3.282
    1C        C  116   3.695   2.511   3.404
    1C        C  117   3.627   2.501   3.528
    1C        C  118   3.836   2.541   3.647
    1C        C  119   3.699   2.506   3.649
    1C        C  120   3.902   2.567   3.770
    1C        C  121   3.836   2.544   3.893
    1C        C  122   4.027   2.634   4.015
    1C        C  123   3.903   2.565   4.015
    1C        C  124   4.085   2.674   4.138
    1C        C  125   4.028   2.631   4.259
    1C        C  126   4.198   2.765   4.377
    1C        C  127   4.089   2.675   4.379
    1C        C  128   4.246   2.817   4.499
    1C        C  129   4.194   2.766   4.621
    1C        C  130   4.327   2.935   4.742
    1C        C  131   4.241   2.822   4.742
    1C        C  132   4.354   3.003   4.863
    1C        C  133   4.289   2.956   4.978
    1C        C  134   3.172   2.470   2.082
    1C        C  135   3.038   2.511   2.084
    1C        C  136   3.259   2.481   2.192
    1C        C  137   3.195   2.522   2.311
    1C        C  138   3.407   2.480   2.431
    1C        C  139   3.267   2.504   2.431
    1C        C  140   3.482   2.476   2.550
    1C        C  141   3.411   2.493   2.671
    1C        C  142   3.622   2.490   2.794
    1C        C  143   3.481   2.484   2.793
    1C        C  144   3.695   2.502   2.914
    1C        C  145   3.625   2.495   3.037
    1C        C  146   3.833   2.540   3.157
    1C        C  147   3.697   2.503   3.158
    1C        C  148   3.899   2.565   3.280
    1C        C  149   3.832   2.542   3.403
    1C        C  150   4.028   2.625   3.522
    1C        C  151   3.901   2.564   3.524
    1C        C  152   4.082   2.669   3.645
    1C        C  153   4.026   2.634   3.770
    1C        C  154   4.192   2.764   3.888
    1C        C  155   4.087   2.669   3.892
    1C        C  156   4.241   2.813   4.011
    1C        C  157   4.194   2.764   4.135
    1C        C  158   4.336   2.925   4.253
    1C        C  159   4.253   2.811   4.255
    1C        C  160   4.371   2.989   4.373
    1C        C  161   4.328   2.932   4.495
    1C        C  162   4.430   3.116   4.618
    1C        C  163   4.367   2.990   4.618
    1C        C  164   4.456   3.189   4.737
    1C        C  165   4.428   3.123   4.859
    1C        C  166   4.509   3.322   4.975
    1C        C  167   4.477   3.186   4.973
    1C        C  168   3.474   2.434   2.076
    1C        C  169   3.398   2.457   2.191
    1C        C  170   3.618   2.461   2.308
    1C        C  171   3.476   2.464   2.309
    1C        C  172   3.693   2.480   2.426
    1C        C  173   3.623   2.479   2.549
    1C        C  174   3.826   2.541   2.667
    1C        C  175   3.692   2.496   2.671
    1C        C  176   3.892   2.566   2.789
    1C        C  177   3.832   2.538   2.913
    1C        C  178   4.026   2.625   3.032
    1C        C  179   3.900   2.562   3.035
    1C        C  180   4.089   2.658   3.154
    1C        C  181   4.027   2.623   3.277
    1C        C  182   4.196   2.751   3.399
    1C        C  183   4.088   2.660   3.399
    1C        C  184   4.245   2.805   3.520
    1C        C  185   4.193   2.757   3.642
    1C        C  186   4.331   2.919   3.766
    1C        C  187   4.241   2.810   3.764
    1C        C  188   4.369   2.980   3.888
    1C        C  189   4.330   2.923   4.011
    1C        C  190   4.436   3.110   4.129
    1C        C  191   4.376   2.983   4.130
    1C        C  192   4.463   3.177   4.251
    1C        C  193   4.438   3.114   4.375
    1C        C  194   4.499   3.317   4.495
    1C        C  195   4.460   3.182   4.497
    1C        C  196   4.521   3.390   4.614
    1C        C  197   4.503   3.323   4.736
    1C        C  198   4.554   3.536   4.851
    1C        C  199   4.524   3.396   4.857
    1C        C  200   4.578   3.620   4.964
    1C        C  201   3.614   2.421   2.074
    1C        C  202   3.827   2.511   2.183
    1C        C  203   3.691   2.465   2.186
    1C        C  204   3.897   2.541   2.304
    1C        C  205   3.827   2.523   2.425
    1C        C  206   4.021   2.620   2.543
    1C        C  207   3.894   2.558   2.545
    1C        C  208   4.081   2.659   2.665
    1C        C  209   4.020   2.627   2.788
    1C        C  210   4.196   2.749   2.908
    1C        C  211   4.084   2.663   2.909
    1C        C  212   4.247   2.796   3.031
    1C        C  213   4.200   2.745   3.154
    1C        C  214   4.336   2.908   3.275
    1C        C  215   4.249   2.797   3.276
    1C        C  216   4.368   2.973   3.396
    1C        C  217   4.329   2.918   3.521
    1C        C  218   4.431   3.104   3.641
    1C        C  219   4.368   2.977   3.643
    1C        C  220   4.464   3.168   3.763
    1C        C  221   4.439   3.103   3.886
    1C        C  222   4.495   3.312   4.005
    1C        C  223   4.463   3.174   4.006
    1C        C  224   4.509   3.383   4.127
    1C        C  225   4.500   3.313   4.249
    1C        C  226   4.521   3.525   4.366
    1C        C  227   4.511   3.384   4.371
    1C        C  228   4.522   3.600   4.486
    1C        C  229   4.532   3.531   4.609
    1C        C  230   4.507   3.744   4.727
    1C        C  231   4.538   3.606   4.728
    1C        C  232   4.493   3.818   4.847
    1C        C  233   4.537   3.754   4.963
    1C        C  234   4.020   2.608   2.064
    1C        C  235   3.897   2.544   2.066
    1C        C  236   4.083   2.651   2.181
    1C        C  237   4.022   2.608   2.301
    1C        C  238   4.201   2.730   2.422
    1C        C  239   4.087   2.645   2.421
    1C        C  240   4.252   2.786   2.542
    1C        C  241   4.195   2.742   2.664
    1C        C  242   4.331   2.908   2.786
    1C        C  243   4.246   2.795   2.784
    1C        C  244   4.375   2.964   2.908
    1C        C  245   4.334   2.907   3.030
    1C        C  246   4.433   3.095   3.150
    1C        C  247   4.373   2.967   3.152
    1C        C  248   4.454   3.164   3.272
    1C        C  249   4.427   3.102   3.396
    1C        C  250   4.495   3.303   3.516
    1C        C  251   4.454   3.168   3.518
    1C        C  252   4.506   3.375   3.638
    1C        C  253   4.495   3.306   3.760
    1C        C  254   4.519   3.519   3.879
    1C        C  255   4.511   3.377   3.881
    1C        C  256   4.518   3.592   4.000
    1C        C  257   4.518   3.524   4.124
    1C        C  258   4.501   3.737   4.242
    1C        C  259   4.521   3.597   4.244
    1C        C  260   4.476   3.805   4.363
    1C        C  261   4.496   3.739   4.486
    1C        C  262   4.430   3.944   4.606
    1C        C  263   4.478   3.811   4.606
    1C        C  264   4.406   4.014   4.727
    1C        C  265   4.439   3.948   4.847
    1C        C  266   4.319   4.134   4.960
    1C        C  267   4.397   4.019   4.961
    1C        C  268   4.263   2.773   2.064
    1C        C  269   4.198   2.733   2.182
    1C        C  270   4.346   2.891   2.300
    1C        C  271   4.254   2.782   2.302
    1C        C  272   4.379   2.957   2.420
    1C        C  273   4.342   2.895   2.541
    1C        C  274   4.442   3.084   2.661
    1C        C  275   4.377   2.959   2.662
    1C        C  276   4.466   3.155   2.781
    1C        C  277   4.441   3.089   2.904
    1C        C  278   4.497   3.293   3.025
    1C        C  279   4.466   3.155   3.026
    1C        C  280   4.507   3.365   3.147
    1C        C  281   4.493   3.299   3.271
    1C        C  282   4.512   3.511   3.392
    1C        C  283   4.508   3.370   3.392
    1C        C  284   4.512   3.585   3.512
    1C        C  285   4.515   3.516   3.636
    1C        C  286   4.493   3.728   3.753
    1C        C  287   4.515   3.589   3.757
    1C        C  288   4.476   3.797   3.875
    1C        C  289   4.496   3.731   3.998
    1C        C  290   4.435   3.937   4.119
    1C        C  291   4.485   3.804   4.119
    1C        C  292   4.408   4.005   4.239
    1C        C  293   4.435   3.940   4.362
    1C        C  294   4.326   4.126   4.481
    1C        C  295   4.400   4.005   4.483
    1C        C  296   4.285   4.188   4.601
    1C        C  297   4.330   4.134   4.723
    1C        C  298   4.206   4.320   4.838
    1C        C  299   4.282   4.198   4.841
    1C        C  300   4.170   4.402   4.949
    1C        C  301   4.348   2.884   2.062
    1C        C  302   4.465   3.071   2.175
    1C        C  303   4.395   2.946   2.179
    1C        C  304   4.477   3.146   2.296
    1C        C  305   4.443   3.083   2.418
    1C        C  306   4.503   3.288   2.538
    1C        C  307   4.467   3.151   2.539
    1C        C  308   4.516   3.360   2.659
    1C        C  309   4.502   3.291   2.781
    1C        C  310   4.523   3.503   2.901
    1C        C  311   4.510   3.363   2.903
    1C        C  312   4.518   3.574   3.023
    1C        C  313   4.512   3.506   3.147
    1C        C  314   4.489   3.719   3.265
    1C        C  315   4.507   3.579   3.268
    1C        C  316   4.478   3.792   3.386
    1C        C  317   4.492   3.725   3.509
    1C        C  318   4.430   3.930   3.628
    1C        C  319   4.472   3.795   3.630
    1C        C  320   4.402   3.993   3.751
    1C        C  321   4.429   3.931   3.875
    1C        C  322   4.326   4.118   3.994
    1C        C  323   4.402   3.999   3.996
    1C        C  324   4.278   4.172   4.115
    1C        C  325   4.329   4.122   4.237
    1C        C  326   4.189   4.286   4.355
    1C        C  327   4.285   4.182   4.358
    1C        C  328   4.136   4.337   4.475
    1C        C  329   4.188   4.290   4.598
    1C        C  330   4.029   4.439   4.712
    1C        C  331   4.145   4.357   4.715
    1C        C  332   3.971   4.491   4.831
    1C        C  333   4.049   4.472   4.946
    1C        C  334   4.554   3.269   2.062
    1C        C  335   4.530   3.131   2.063
    1C        C  336   4.539   3.352   2.174
    1C        C  337   4.512   3.284   2.295
    1C        C  338   4.523   3.498   2.414
    1C        C  339   4.519   3.357   2.416
    1C        C  340   4.527   3.572   2.534
    1C        C  341   4.522   3.501   2.656
    1C        C  342   4.500   3.713   2.774
    1C        C  343   4.518   3.573   2.778
    1C        C  344   4.481   3.782   2.896
    1C        C  345   4.498   3.714   3.019
    1C        C  346   4.438   3.919   3.138
    1C        C  347   4.481   3.784   3.140
    1C        C  348   4.403   3.985   3.258
    1C        C  349   4.429   3.924   3.382
    1C        C  350   4.326   4.110   3.505
    1C        C  351   4.400   3.990   3.504
    1C        C  352   4.281   4.168   3.626
    1C        C  353   4.322   4.110   3.748
    1C        C  354   4.180   4.267   3.867
    1C        C  355   4.280   4.167   3.870
    1C        C  356   4.127   4.319   3.987
    1C        C  357   4.179   4.272   4.110
    1C        C  358   4.012   4.400   4.231
    1C        C  359   4.130   4.324   4.232
    1C        C  360   3.953   4.444   4.352
    1C        C  361   4.016   4.413   4.474
    1C        C  362   3.827   4.516   4.595
    1C        C  363   3.957   4.462   4.593
    1C        C  364   3.762   4.544   4.717
    1C        C  365   3.840   4.543   4.835
    1C        C  366   3.628   4.587   4.954
    1C        C  367   3.766   4.571   4.950
    1C        C  368   4.517   3.566   2.054
    1C        C  369   4.530   3.493   2.173
    1C        C  370   4.507   3.709   2.288
    1C        C  371   4.519   3.569   2.292
    1C        C  372   4.492   3.781   2.409
    1C        C  373   4.506   3.711   2.531
    1C        C  374   4.436   3.913   2.651
    1C        C  375   4.483   3.780   2.652
    1C        C  376   4.404   3.979   2.772
    1C        C  377   4.430   3.914   2.895
    1C        C  378   4.323   4.097   3.014
    1C        C  379   4.402   3.980   3.016
    1C        C  380   4.279   4.155   3.135
    1C        C  381   4.322   4.101   3.258
    1C        C  382   4.183   4.261   3.377
    1C        C  383   4.283   4.161   3.380
    1C        C  384   4.127   4.310   3.497
    1C        C  385   4.180   4.266   3.620
    1C        C  386   4.003   4.380   3.743
    1C        C  387   4.124   4.308   3.743
    1C        C  388   3.941   4.414   3.866
    1C        C  389   4.008   4.395   3.989
    1C        C  390   3.816   4.488   4.110
    1C        C  391   3.945   4.429   4.110
    1C        C  392   3.749   4.513   4.232
    1C        C  393   3.821   4.496   4.352
    1C        C  394   3.618   4.555   4.476
    1C        C  395   3.756   4.528   4.474
    1C        C  396   3.549   4.572   4.599
    1C        C  397   3.622   4.568   4.719
    1C        C  398   3.409   4.556   4.841
    1C        C  399   3.549   4.576   4.839
    1C        C  400   3.342   4.513   4.956
    1C        C  401   4.507   3.705   2.051
    1C        C  402   4.458   3.918   2.165
    1C        C  403   4.493   3.781   2.167
    1C        C  404   4.426   3.983   2.286
    1C        C  405   4.452   3.917   2.408
    1C        C  406   4.333   4.096   2.525
    1C        C  407   4.412   3.979   2.528
    1C        C  408   4.285   4.150   2.647
    1C        C  409   4.327   4.097   2.770
    1C        C  410   4.177   4.249   2.886
    1C        C  411   4.282   4.154   2.891
    1C        C  412   4.126   4.296   3.009
    1C        C  413   4.180   4.256   3.133
    1C        C  414   4.002   4.373   3.254
    1C        C  415   4.123   4.299   3.255
    1C        C  416   3.941   4.411   3.376
    1C        C  417   4.005   4.381   3.498
    1C        C  418   3.814   4.473   3.620
    1C        C  419   3.942   4.413   3.620
    1C        C  420   3.746   4.496   3.742
    1C        C  421   3.812   4.471   3.864
    1C        C  422   3.610   4.528   3.987
    1C        C  423   3.748   4.498   3.987
    1C        C  424   3.540   4.540   4.109
    1C        C  425   3.610   4.539   4.232
    1C        C  426   3.403   4.551   4.358
    1C        C  427   3.544   4.555   4.356
    1C        C  428   3.334   4.545   4.481
    1C        C  429   3.409   4.558   4.600
    1C        C  430   3.195   4.531   4.724
    1C        C  431   3.335   4.550   4.721
    1C        C  432   3.125   4.503   4.845
    1C        C  433   3.204   4.495   4.960
    1C        C  434   4.393   4.128   2.053
    1C        C  435   4.448   3.999   2.051
    1C        C  436   4.311   4.164   2.164
    1C        C  437   4.346   4.101   2.287
    1C        C  438   4.187   4.252   2.403
    1C        C  439   4.291   4.156   2.404
    1C        C  440   4.125   4.293   2.523
    1C        C  441   4.182   4.247   2.644
    1C        C  442   4.003   4.366   2.766
    1C        C  443   4.126   4.297   2.763
    1C        C  444   3.941   4.402   2.888
    1C        C  445   4.010   4.376   3.009
    1C        C  446   3.812   4.459   3.130
    1C        C  447   3.942   4.405   3.130
    1C        C  448   3.747   4.483   3.253
    1C        C  449   3.811   4.465   3.378
    1C        C  450   3.607   4.527   3.496
    1C        C  451   3.745   4.498   3.499
    1C        C  452   3.539   4.532   3.620
    1C        C  453   3.608   4.527   3.743
    1C        C  454   3.398   4.546   3.867
    1C        C  455   3.539   4.544   3.866
    1C        C  456   3.330   4.539   3.991
    1C        C  457   3.399   4.544   4.114
    1C        C  458   3.194   4.502   4.238
    1C        C  459   3.330   4.542   4.237
    1C        C  460   3.130   4.485   4.363
    1C        C  461   3.196   4.515   4.484
    1C        C  462   2.998   4.436   4.605
    1C        C  463   3.126   4.496   4.605
    1C        C  464   2.931   4.404   4.725
    1C        C  465   2.992   4.450   4.844
    1C        C  466   2.807   4.342   4.961
    1C        C  467   2.912   4.434   4.962
    1C        C  468   4.130   4.287   2.042
    1C        C  469   4.196   4.249   2.159
    1C        C  470   4.009   4.363   2.280
    1C        C  471   4.133   4.293   2.279
    1C        C  472   3.940   4.392   2.399
    1C        C  473   4.002   4.362   2.523
    1C        C  474   3.810   4.452   2.643
    1C        C  475   3.941   4.401   2.644
    1C        C  476   3.744   4.483   2.764
    1C        C  477   3.813   4.460   2.886
    1C        C  478   3.608   4.516   3.011
    1C        C  479   3.745   4.482   3.008
    1C        C  480   3.536   4.526   3.133
    1C        C  481   3.609   4.515   3.253
    1C        C  482   3.395   4.527   3.377
    1C        C  483   3.536   4.529   3.374
    1C        C  484   3.327   4.526   3.501
    1C        C  485   3.398   4.540   3.623
    1C        C  486   3.190   4.509   3.747
    1C        C  487   3.327   4.542   3.745
    1C        C  488   3.125   4.482   3.869
    1C        C  489   3.193   4.505   3.992
    1C        C  490   3.001   4.421   4.118
    1C        C  491   3.129   4.479   4.115
    1C        C  492   2.942   4.388   4.242
    1C        C  493   3.001   4.427   4.364
    1C        C  494   2.826   4.307   4.486
    1C        C  495   2.934   4.398   4.485
    1C        C  496   2.775   4.256   4.607
    1C        C  497   2.822   4.311   4.728
    1C        C  498   2.670   4.165   4.845
    1C        C  499   2.759   4.274   4.848
    1C        C  500   2.599   4.123   4.959
    1C        C  501   4.009   4.355   2.042
    1C        C  502   3.816   4.456   2.157
    1C        C  503   3.943   4.394   2.159
    1C        C  504   3.744   4.474   2.277
    1C        C  505   3.809   4.446   2.399
    1C        C  506   3.604   4.503   2.519
    1C        C  507   3.741   4.469   2.520
    1C        C  508   3.537   4.515   2.644
    1C        C  509   3.606   4.510   2.767
    1C        C  510   3.395   4.523   2.886
    1C        C  511   3.536   4.522   2.890
    1C        C  512   3.324   4.523   3.008
    1C        C  513   3.395   4.530   3.130
    1C        C  514   3.190   4.491   3.256
    1C        C  515   3.327   4.524   3.253
    1C        C  516   3.124   4.471   3.380
    1C        C  517   3.189   4.496   3.503
    1C        C  518   2.999   4.409   3.626
    1C        C  519   3.124   4.476   3.626
    1C        C  520   2.942   4.376   3.751
    1C        C  521   3.002   4.413   3.873
    1C        C  522   2.834   4.288   3.999
    1C        C  523   2.942   4.378   3.996
    1C        C  524   2.784   4.241   4.122
    1C        C  525   2.834   4.296   4.242
    1C        C  526   2.702   4.133   4.366
    1C        C  527   2.782   4.250   4.365
    1C        C  528   2.655   4.076   4.486
    1C        C  529   2.692   4.141   4.606
    1C        C  530   2.591   3.958   4.731
    1C        C  531   2.648   4.088   4.729
    1C        C  532   2.539   3.905   4.853
    1C        C  533   2.535   3.998   4.961
    1C        C  534   3.619   4.553   2.040
    1C        C  535   3.752   4.508   2.044
    1C        C  536   3.536   4.532   2.155
    1C        C  537   3.606   4.507   2.276
    1C        C  538   3.394   4.516   2.401
    1C        C  539   3.535   4.519   2.397
    1C        C  540   3.323   4.512   2.523
    1C        C  541   3.396   4.514   2.644
    1C        C  542   3.185   4.482   2.767
    1C        C  543   3.323   4.514   2.765
    1C        C  544   3.120   4.465   2.891
    1C        C  545   3.187   4.489   3.013
    1C        C  546   2.994   4.406   3.135
    1C        C  547   3.118   4.472   3.135
    1C        C  548   2.936   4.371   3.259
    1C        C  549   2.997   4.410   3.380
    1C        C  550   2.830   4.283   3.510
    1C        C  551   2.939   4.372   3.504
    1C        C  552   2.782   4.231   3.633
    1C        C  553   2.836   4.282   3.753
    1C        C  554   2.706   4.118   3.876
    1C        C  555   2.788   4.233   3.877
    1C        C  556   2.668   4.062   4.000
    1C        C  557   2.708   4.122   4.122
    1C        C  558   2.601   3.943   4.245
    1C        C  559   2.669   4.067   4.246
    1C        C  560   2.570   3.880   4.368
    1C        C  561   2.593   3.949   4.489
    1C        C  562   2.535   3.747   4.614
    1C        C  563   2.572   3.884   4.613
    1C        C  564   2.518   3.685   4.739
    1C        C  565   2.525   3.762   4.858
    1C        C  566   2.524   3.549   4.979
    1C        C  567   2.520   3.688   4.976
    1C        C  568   3.329   4.484   2.039
    1C        C  569   3.395   4.519   2.158
    1C        C  570   3.185   4.474   2.283
    1C        C  571   3.322   4.512   2.280
    1C        C  572   3.117   4.453   2.405
    1C        C  573   3.184   4.485   2.526
    1C        C  574   2.985   4.407   2.648
    1C        C  575   3.113   4.467   2.646
    1C        C  576   2.929   4.370   2.772
    1C        C  577   2.991   4.408   2.893
    1C        C  578   2.824   4.275   3.020
    1C        C  579   2.932   4.366   3.014
    1C        C  580   2.778   4.223   3.143
    1C        C  581   2.830   4.277   3.263
    1C        C  582   2.701   4.116   3.388
    1C        C  583   2.782   4.231   3.387
    1C        C  584   2.661   4.057   3.510
    1C        C  585   2.697   4.118   3.632
    1C        C  586   2.597   3.933   3.757
    1C        C  587   2.664   4.058   3.755
    1C        C  588   2.576   3.870   3.881
    1C        C  589   2.606   3.935   4.003
    1C        C  590   2.537   3.737   4.128
    1C        C  591   2.572   3.874   4.126
    1C        C  592   2.522   3.669   4.251
    1C        C  593   2.539   3.742   4.371
    1C        C  594   2.510   3.533   4.498
    1C        C  595   2.527   3.674   4.493
    1C        C  596   2.519   3.465   4.621
    1C        C  597   2.518   3.542   4.739
    1C        C  598   2.531   3.331   4.864
    1C        C  599   2.526   3.472   4.861
    1C        C  600   2.534   3.251   4.979
    1C        C  601   3.197   4.444   2.047
    1C        C  602   2.983   4.395   2.161
    1C        C  603   3.117   4.443   2.162
    1C        C  604   2.923   4.362   2.286
    1C        C  605   2.987   4.397   2.407
    1C        C  606   2.814   4.276   2.531
    1C        C  607   2.923   4.366   2.528
    1C        C  608   2.771   4.223   2.655
    1C        C  609   2.820   4.279   2.775
    1C        C  610   2.690   4.112   2.899
    1C        C  611   2.772   4.228   2.897
    1C        C  612   2.654   4.052   3.021
    1C        C  613   2.693   4.111   3.144
    1C        C  614   2.598   3.925   3.266
    1C        C  615   2.660   4.052   3.268
    1C        C  616   2.570   3.864   3.390
    1C        C  617   2.596   3.932   3.512
    1C        C  618   2.538   3.730   3.639
    1C        C  619   2.570   3.867   3.635
    1C        C  620   2.519   3.663   3.763
    1C        C  621   2.533   3.736   3.883
    1C        C  622   2.509   3.526   4.011
    1C        C  623   2.526   3.666   4.006
    1C        C  624   2.506   3.456   4.133
    1C        C  625   2.504   3.529   4.254
    1C        C  626   2.533   3.321   4.380
    1C        C  627   2.506   3.460   4.377
    1C        C  628   2.555   3.255   4.503
    1C        C  629   2.539   3.325   4.624
    1C        C  630   2.593   3.120   4.746
    1C        C  631   2.548   3.255   4.747
    1C        C  632   2.613   3.048   4.867
    1C        C  633   2.567   3.115   4.985
    1C        C  634   2.783   4.308   2.056
    1C        C  635   2.895   4.391   2.048
    1C        C  636   2.750   4.231   2.168
    1C        C  637   2.813   4.271   2.288
    1C        C  638   2.683   4.106   2.410
    1C        C  639   2.763   4.222   2.411
    1C        C  640   2.650   4.048   2.535
    1C        C  641   2.687   4.109   2.656
    1C        C  642   2.587   3.923   2.779
    1C        C  643   2.650   4.050   2.779
    1C        C  644   2.562   3.858   2.902
    1C        C  645   2.591   3.926   3.023
    1C        C  646   2.533   3.722   3.149
    1C        C  647   2.567   3.859   3.145
    1C        C  648   2.518   3.655   3.273
    1C        C  649   2.533   3.728   3.394
    1C        C  650   2.512   3.519   3.520
    1C        C  651   2.524   3.660   3.517
    1C        C  652   2.513   3.450   3.643
    1C        C  653   2.511   3.522   3.765
    1C        C  654   2.532   3.315   3.891
    1C        C  655   2.512   3.455   3.889
    1C        C  656   2.547   3.247   4.014
    1C        C  657   2.526   3.317   4.135
    1C        C  658   2.606   3.122   4.260
    1C        C  659   2.546   3.250   4.258
    1C        C  660   2.639   3.060   4.382
    1C        C  661   2.605   3.123   4.504
    1C        C  662   2.709   2.938   4.627
    1C        C  663   2.630   3.056   4.626
    1C        C  664   2.750   2.878   4.747
    1C        C  665   2.697   2.932   4.868
    1C        C  666   2.744   2.871   4.985
    1C        C  667   2.687   4.023   2.055
    1C        C  668   2.683   4.107   2.167
    1C        C  669   2.591   3.914   2.293
    1C        C  670   2.644   4.046   2.289
    1C        C  671   2.559   3.850   2.415
    1C        C  672   2.589   3.920   2.534
    1C        C  673   2.522   3.721   2.660
    1C        C  674   2.565   3.856   2.657
    1C        C  675   2.511   3.652   2.783
    1C        C  676   2.531   3.720   2.905
    1C        C  677   2.505   3.511   3.029
    1C        C  678   2.525   3.651   3.027
    1C        C  679   2.503   3.443   3.153
    1C        C  680   2.505   3.515   3.274
    1C        C  681   2.531   3.308   3.402
    1C        C  682   2.507   3.447   3.399
    1C        C  683   2.554   3.242   3.525
    1C        C  684   2.534   3.310   3.647
    1C        C  685   2.601   3.112   3.771
    1C        C  686   2.547   3.243   3.770
    1C        C  687   2.637   3.053   3.894
    1C        C  688   2.605   3.118   4.015
    1C        C  689   2.714   2.938   4.139
    1C        C  690   2.639   3.058   4.138
    1C        C  691   2.761   2.884   4.261
    1C        C  692   2.715   2.941   4.382
    1C        C  693   2.755   2.884   4.505
    1C        C  694   2.635   3.893   2.059
    1C        C  695   2.524   3.707   2.175
    1C        C  696   2.580   3.837   2.175
    1C        C  697   2.505   3.640   2.298
    1C        C  698   2.521   3.714   2.418
    1C        C  699   2.489   3.507   2.544
    1C        C  700   2.503   3.647   2.541
    1C        C  701   2.499   3.438   2.667
    1C        C  702   2.499   3.511   2.788
    1C        C  703   2.523   3.298   2.911
    1C        C  704   2.502   3.438   2.908
    1C        C  705   2.541   3.231   3.034
    1C        C  706   2.528   3.303   3.154
    1C        C  707   2.601   3.109   3.282
    1C        C  708   2.550   3.241   3.279
    1C        C  709   2.634   3.047   3.404
    1C        C  710   2.607   3.111   3.527
    1C        C  711   2.716   2.932   3.651
    1C        C  712   2.636   3.049   3.650
    1C        C  713   2.764   2.882   3.774
    1C        C  714   2.720   2.938   3.896
    1C        C  715   2.760   2.881   4.019
    1C        C  716   2.447   3.503   2.064
    1C        C  717   2.482   3.639   2.060
    1C        C  718   2.467   3.424   2.182
    1C        C  719   2.483   3.500   2.301
    1C        C  720   2.506   3.292   2.426
    1C        C  721   2.483   3.431   2.425
    1C        C  722   2.536   3.226   2.548
    1C        C  723   2.527   3.300   2.668
    1C        C  724   2.588   3.096   2.793
    1C        C  725   2.540   3.229   2.789
    1C        C  726   2.623   3.033   2.914
    1C        C  727   2.595   3.100   3.035
    1C        C  728   2.705   2.925   3.160
    1C        C  729   2.627   3.043   3.160
    1C        C  730   2.756   2.875   3.283
    1C        C  731   2.714   2.931   3.406
    1C        C  732   2.759   2.876   3.528
    1C        C  733   2.492   3.199   2.073
    1C        C  734   2.489   3.283   2.185
    1C        C  735   2.584   3.090   2.306
    1C        C  736   2.521   3.218   2.307
    1C        C  737   2.619   3.026   2.427
    1C        C  738   2.593   3.097   2.546
    1C        C  739   2.700   2.916   2.672
    1C        C  740   2.623   3.035   2.670
    1C        C  741   2.747   2.861   2.793
    1C        C  742   2.705   2.917   2.916
    1C        C  743   2.748   2.865   3.039
    1C        C  744   2.542   3.069   2.075
    1C        C  745   2.687   2.901   2.187
    1C        C  746   2.609   3.019   2.187
    1C        C  747   2.732   2.843   2.307
    1C        C  748   2.690   2.904   2.427
    1C        C  749   2.737   2.854   2.551
    1C        C  750   2.736   2.838   2.072
    1C        C  751   3.665   2.321   1.978
    1C        O  752   3.663   2.200   2.012
    1C        O  753   3.633   2.336   1.842
    1C        C  754   4.626   3.051   1.984
    1C        O  755   4.621   3.047   1.858
    1C        O  756   4.730   2.985   2.051
    1C        C  757   4.481   4.236   2.004
    1C        O  758   4.561   4.299   2.078
    1C        O  759   4.502   4.255   1.867
    1C        C  760   3.598   4.658   1.938
    1C        O  761   3.604   4.780   1.968
    1C        O  762   3.629   4.636   1.803
    1C        C  763   2.887   4.519   1.973
    1C        O  764   2.922   4.535   1.853
    1C        O  765   2.775   4.599   2.001
    1C        C  766   2.363   3.457   1.951
    1C        O  767   2.412   3.431   1.838
    1C        O  768   2.226   3.484   1.953
    1C        C  769   4.676   3.588   5.071
    1C        O  770   4.648   3.594   5.193
    1C        O  771   4.812   3.610   5.049
    1C        C  772   4.256   4.437   5.064
    1C        O  773   4.216   4.419   5.182
    1C        O  774   4.370   4.516   5.040
    1C        C  775   4.141   2.522   5.078
    1C        O  776   4.172   2.400   5.068
    1C        O  777   4.168   2.570   5.207
    1C        C  778   2.893   4.541   5.063
    1C        O  779   2.796   4.621   5.055
    1C        O  780   2.941   4.528   5.193
    1C        C  781   2.494   3.049   5.095
    1C        O  782   2.420   2.955   5.058
    1C        O  783   2.526   3.048   5.231
    1C        C  784   2.420   3.996   5.055
    1C        O  785   2.327   4.080   5.039
    1C        O  786   2.433   3.959   5.189
    1C        C  787   2.944   2.417   2.020
    1C        O  788   2.892   2.437   1.907
    1C        O  789   2.915   2.290   2.070
    1C        C  790   3.176   2.370   5.054
    1C        O  791   3.154   2.255   5.009
    1C        O  792   3.170   2.371   5.194
    1C        H  793   4.339   2.971   5.072
    1C        H  794   4.165   2.804   5.064
    1C        H  795   4.519   3.125   5.050
    1C        H  796   4.520   3.368   5.070
    1C        H  797   4.579   3.818   5.038
    1C        H  798   4.446   3.996   5.053
    1C        H  799   4.272   4.153   5.054
    1C        H  800   4.033   4.542   5.025
    1C        H  801   3.814   4.565   5.046
    1C        H  802   3.590   4.637   5.041
    1C        H  803   3.393   4.457   5.032
    1C        H  804   3.164   4.461   5.053
    1C        H  805   3.893   2.480   5.069
    1C        H  806   3.683   2.462   5.079
    1C        H  807   3.031   2.594   5.075
    1C        H  808   3.445   2.445   5.076
    1C        H  809   2.851   2.713   5.073
    1C        H  810   2.728   2.918   5.079
    1C        H  811   2.504   3.291   5.073
    1C        H  812   2.504   3.495   5.069
    1C        H  813   2.471   3.733   5.060
    1C        H  814   2.570   4.195   5.032
    1C        H  815   2.734   4.355   5.040
    1C        H  816   2.719   2.877   1.974
    1C        H  817   2.843   2.680   1.978
    1C        H  818   3.215   2.451   1.986
    1C        H  819   3.428   2.451   1.981
    1C        H  820   3.871   2.485   1.980
    1C        H  821   4.085   2.577   1.985
    1C        H  822   4.282   2.703   1.986
    1C        H  823   4.360   2.928   1.966
    1C        H  824   4.545   3.318   1.968
    1C        H  825   4.457   3.514   1.983
    1C        H  826   4.479   3.746   1.956
    1C        H  827   3.813   4.534   1.960
    1C        H  828   3.978   4.399   1.949
    1C        H  829   4.191   4.299   1.954
    1C        H  830   4.477   3.963   1.954
    1C        H  831   2.602   3.858   1.963
    1C        H  832   2.717   4.061   1.960
    1C        H  833   2.722   4.297   1.968
    1C        H  834   3.364   4.521   1.945
    1C        H  835   3.146   4.414   1.957
    1C        H  836   2.495   2.995   2.013
    1C        H  837   2.404   3.209   2.013
    1C        H  838   2.430   3.698   1.988
    2V3OU   H29  839   2.803   3.549   5.457
    2V3OU   C27  840   2.783   3.502   5.557
    2V3OU   H27  841   2.733   3.573   5.627
    2V3OU   H28  842   2.728   3.405   5.547
    2V3OU   O11  843   2.909   3.471   5.617
    2V3OU   C15  844   2.918   3.399   5.735
    2V3OU   C13  845   3.049   3.374   5.780
    2V3OU   C14  846   3.073   3.270   5.870
    2V3OU   C16  847   2.972   3.188   5.918
    2V3OU    H6  848   2.991   3.102   5.985
    2V3OU   C12  849   3.213   3.229   5.898
    2V3OU    O2  850   3.241   3.127   5.964
    2V3OU   C10  851   3.323   3.309   5.842
    2V3OU    C8  852   3.456   3.268   5.849
    2V3OU   O10  853   3.487   3.149   5.908
    2V3OU   H26  854   3.400   3.114   5.933
    2V3OU    C6  855   3.564   3.348   5.802
    2V3OU    C5  856   3.537   3.470   5.742
    2V3OU    C4  857   3.703   3.297   5.818
    2V3OU    H4  858   3.726   3.234   5.909
    2V3OU    H5  859   3.711   3.222   5.733
    2V3OU    C2  860   3.817   3.399   5.806
    2V3OU    O6  861   3.810   3.477   5.926
    2V3OU   H21  862   3.760   3.558   5.904
    2V3OU    C3  863   3.782   3.494   5.691
    2V3OU    H2  864   3.865   3.568   5.679
    2V3OU    H3  865   3.774   3.433   5.598
    2V3OU   C25  866   3.954   3.331   5.799
    2V3OU    O7  867   3.996   3.304   5.687
    2V3OU   C26  868   4.028   3.292   5.926
    2V3OU   H22  869   4.073   3.385   5.970
    2V3OU   H23  870   4.116   3.228   5.901
    2V3OU    O8  871   3.959   3.205   6.013
    2V3OU   H24  872   3.924   3.261   6.084
    2V3OU    C1  873   3.648   3.564   5.705
    2V3OU    H1  874   3.623   3.617   5.609
    2V3OU    O3  875   3.666   3.652   5.817
    2V3OU   C19  876   3.623   3.789   5.813
    2V3OU    H9  877   3.526   3.804   5.755
    2V3OU    O4  878   3.716   3.850   5.727
    2V3OU   C20  879   3.847   3.879   5.776
    2V3OU   H10  880   3.887   3.776   5.799
    2V3OU   C24  881   3.611   3.852   5.951
    2V3OU   H16  882   3.542   3.795   6.019
    2V3OU   H17  883   3.567   3.952   5.925
    2V3OU   C23  884   3.751   3.871   6.009
    2V3OU   H15  885   3.799   3.771   6.033
    2V3OU    N1  886   3.737   3.952   6.128
    2V3OU   H19  887   3.808   3.933   6.197
    2V3OU   H20  888   3.651   3.931   6.175
    2V3OU   C21  889   3.844   3.951   5.912
    2V3OU   H11  890   3.949   3.929   5.946
    2V3OU    O5  891   3.828   4.092   5.913
    2V3OU   H18  892   3.785   4.111   5.997
    2V3OU   C22  893   3.918   3.948   5.661
    2V3OU   H12  894   3.869   4.046   5.639
    2V3OU   H13  895   3.908   3.888   5.567
    2V3OU   H14  896   4.025   3.967   5.690
    2V3OU   C11  897   3.157   3.474   5.765
    2V3OU    O1  898   3.137   3.596   5.750
    2V3OU    C9  899   3.298   3.430   5.772
    2V3OU    C7  900   3.401   3.507   5.719
    2V3OU    O9  901   3.388   3.620   5.641
    2V3OU   H25  902   3.297   3.631   5.610
    2V3OU   C17  903   2.819   3.311   5.782
    2V3OU    H7  904   2.716   3.341   5.764
    2V3OU   C18  905   2.843   3.208   5.872
    2V3OU    H8  906   2.761   3.143   5.906
    3SOL     OW  907   3.994   3.137   3.805
    3SOL    HW1  908   4.046   3.059   3.772
    3SOL    HW2  909   3.898   3.127   3.778
    4SOL     OW  910   6.617   6.177   0.914
    4SOL    HW1  911   6.660   6.099   0.960
    4SOL    HW2  912   6.579   6.147   0.826
    5SOL     OW  913   5.185   2.099   1.209
    5SOL    HW1  914   5.283   2.089   1.219
    5SOL    HW2  915   5.138   2.018   1.245
    6SOL     OW  916   4.344   1.014   2.841
    6SOL    HW1  917   4.435   1.007   2.799
    6SOL    HW2  918   4.277   1.042   2.772
    7SOL     OW  919   2.207   3.900   4.354
    7SOL    HW1  920   2.231   3.873   4.261
    7SOL    HW2  921   2.210   3.820   4.414
    8SOL     OW  922   1.302   2.854   5.222
    8SOL    HW1  923   1.269   2.765   5.192
    8SOL    HW2  924   1.375   2.885   5.161
    9SOL     OW  925   0.136   1.046   6.473
    9SOL    HW1  926   0.209   1.114   6.486
    9SOL    HW2  927   0.172   0.955   6.493
   10SOL     OW  928   5.358   4.960   1.430
   10SOL    HW1  929   5.443   4.957   1.484
   10SOL    HW2  930   5.286   5.002   1.485
   11SOL     OW  931   2.369   2.041   1.238
   11SOL    HW1  932   2.412   1.972   1.180
   11SOL    HW2  933   2.343   2.120   1.183
   12SOL     OW  934   4.713   4.765   2.629
   12SOL    HW1  935   4.677   4.841   2.684
   12SOL    HW2  936   4.682   4.679   2.668
   13SOL     OW  937   5.741   6.088   1.256
   13SOL    HW1  938   5.758   6.026   1.179
   13SOL    HW2  939   5.759   6.041   1.342
   14SOL     OW  940   4.028   6.849   6.788
   14SOL    HW1  941   3.995   6.833   6.881
   14SOL    HW2  942   4.012   6.944   6.763
   15SOL     OW  943   1.314   6.123   6.436
   15SOL    HW1  944   1.235   6.185   6.440
   15SOL    HW2  945   1.398   6.176   6.443
   16SOL     OW  946   1.958   4.862   5.101
   16SOL    HW1  947   2.056   4.875   5.082
   16SOL    HW2  948   1.918   4.949   5.128
   17SOL     OW  949   6.605   1.256   4.947
   17SOL    HW1  950   6.564   1.166   4.962
   17SOL    HW2  951   6.684   1.268   5.007
   18SOL     OW  952   2.601   1.473   5.768
   18SOL    HW1  953   2.619   1.375   5.771
   18SOL    HW2  954   2.621   1.513   5.858
   19SOL     OW  955   3.318   6.596   3.338
   19SOL    HW1  956   3.273   6.670   3.389
   19SOL    HW2  957   3.321   6.620   3.241
   20SOL     OW  958   5.906   1.119   5.574
   20SOL    HW1  959   5.818   1.093   5.613
   20SOL    HW2  960   5.893   1.147   5.479
   21SOL     OW  961   2.194   3.954   2.813
   21SOL    HW1  962   2.165   3.998   2.727
   21SOL    HW2  963   2.265   3.887   2.793
   22SOL     OW  964   0.874   1.061   0.157
   22SOL    HW1  965   0.946   1.040   0.224
   22SOL    HW2  966   0.837   0.976   0.120
   23SOL     OW  967   5.745   4.696   0.978
   23SOL    HW1  968   5.676   4.648   0.923
   23SOL    HW2  969   5.809   4.743   0.918
   24SOL     OW  970   5.233   1.658   0.700
   24SOL    HW1  971   5.296   1.723   0.657
   24SOL    HW2  972   5.285   1.580   0.735
   25SOL     OW  973   1.983   0.621   4.970
   25SOL    HW1  974   1.887   0.599   4.951
   25SOL    HW2  975   2.015   0.689   4.905
   26SOL     OW  976   1.031   1.979   6.142
   26SOL    HW1  977   0.975   1.941   6.068
   26SOL    HW2  978   0.973   2.030   6.205
   27SOL     OW  979   6.626   7.022   2.352
   27SOL    HW1  980   6.623   6.960   2.430
   27SOL    HW2  981   6.591   0.087   2.379
   28SOL     OW  982   2.033   0.991   5.291
   28SOL    HW1  983   2.106   1.044   5.249
   28SOL    HW2  984   1.967   0.962   5.221
   29SOL     OW  985   6.679   0.129   1.130
   29SOL    HW1  986   6.586   0.105   1.157
   29SOL    HW2  987   6.740   0.053   1.152
   30SOL     OW  988   4.397   6.779   5.103
   30SOL    HW1  989   4.320   6.727   5.067
   30SOL    HW2  990   4.450   6.817   5.027
   31SOL     OW  991   0.798   4.549   4.827
   31SOL    HW1  992   0.790   4.619   4.756
   31SOL    HW2  993   0.856   4.475   4.794
   32SOL     OW  994   3.711   0.928   1.178
   32SOL    HW1  995   3.759   0.841   1.165
   32SOL    HW2  996   3.613   0.914   1.166
   33SOL     OW  997   2.295   5.398   6.478
   33SOL    HW1  998   2.287   5.497   6.468
   33SOL    HW2  999   2.298   5.356   6.388
   34SOL     OW 1000   2.649   5.718   5.428
   34SOL    HW1 1001   2.743   5.752   5.441
   34SOL    HW2 1002   2.600   5.779   5.366
   35SOL     OW 1003   1.740   2.873   6.255
   35SOL    HW1 1004   1.680   2.796   6.277
   35SOL    HW2 1005   1.697   2.930   6.185
   36SOL     OW 1006   4.922   1.079   3.233
   36SOL    HW1 1007   4.833   1.117   3.261
   36SOL    HW2 1008   4.908   0.985   3.200
   37SOL     OW 1009   2.246   6.485   3.885
   37SOL    HW1 1010   2.247   6.585   3.880
   37SOL    HW2 1011   2.227   6.457   3.979
   38SOL     OW 1012   1.305   4.469   2.664
   38SOL    HW1 1013   1.262   4.471   2.574
   38SOL    HW2 1014   1.323   4.562   2.696
   39SOL     OW 1015   6.215   5.000   1.371
   39SOL    HW1 1016   6.229   5.068   1.443
   39SOL    HW2 1017   6.151   4.930   1.403
   40SOL     OW 1018   4.911   1.491   0.267
   40SOL    HW1 1019   4.890   1.394   0.258
   40SOL    HW2 1020   4.832   1.545   0.237
   41SOL     OW 1021   5.350   3.699   1.749
   41SOL    HW1 1022   5.293   3.764   1.700
   41SOL    HW2 1023   5.292   3.640   1.806
   42SOL     OW 1024   2.436   4.483   6.808
   42SOL    HW1 1025   2.511   4.477   6.741
   42SOL    HW2 1026   2.360   4.426   6.778
   43SOL     OW 1027   5.019   6.797   5.113
   43SOL    HW1 1028   4.936   6.747   5.138
   43SOL    HW2 1029   5.033   6.792   5.014
   44SOL     OW 1030   0.203   1.431   0.131
   44SOL    HW1 1031   0.226   1.480   0.047
   44SOL    HW2 1032   0.156   1.492   0.193
   45SOL     OW 1033   2.196   4.695   6.334
   45SOL    HW1 1034   2.126   4.766   6.341
   45SOL    HW2 1035   2.203   4.647   6.422
   46SOL     OW 1036   1.482   3.486   5.097
   46SOL    HW1 1037   1.476   3.390   5.068
   46SOL    HW2 1038   1.574   3.506   5.129
   47SOL     OW 1039   5.739   3.688   6.858
   47SOL    HW1 1040   5.648   3.678   6.898
   47SOL    HW2 1041   5.777   3.598   6.839
   48SOL     OW 1042   6.274   4.024   0.645
   48SOL    HW1 1043   6.235   4.034   0.554
   48SOL    HW2 1044   6.282   4.114   0.688
   49SOL     OW 1045   2.929   3.619   6.730
   49SOL    HW1 1046   2.881   3.707   6.726
   49SOL    HW2 1047   2.863   3.545   6.725
   50SOL     OW 1048   5.972   1.970   0.064
   50SOL    HW1 1049   5.909   1.999   0.135
   50SOL    HW2 1050   5.930   1.985   6.999
   51SOL     OW 1051   1.044   5.797   2.434
   51SOL    HW1 1052   0.992   5.785   2.350
   51SOL    HW2 1053   1.041   5.712   2.488
   52SOL     OW 1054   5.864   2.928   2.037
   52SOL    HW1 1055   5.794   2.893   2.099
   52SOL    HW2 1056   5.838   3.019   2.006
   53SOL     OW 1057   3.435   0.515   1.176
   53SOL    HW1 1058   3.435   0.436   1.114
   53SOL    HW2 1059   3.417   0.483   1.269
   54SOL     OW 1060   5.983   0.228   6.739
   54SOL    HW1 1061   5.957   0.293   6.667
   54SOL    HW2 1062   5.952   0.136   6.714
   55SOL     OW 1063   1.435   3.438   6.225
   55SOL    HW1 1064   1.431   3.508   6.154
   55SOL    HW2 1065   1.361   3.372   6.211
   56SOL     OW 1066   0.968   2.181   0.245
   56SOL    HW1 1067   0.964   2.085   0.218
   56SOL    HW2 1068   1.035   2.192   0.319
   57SOL     OW 1069   4.260   6.021   1.033
   57SOL    HW1 1070   4.288   6.113   1.059
   57SOL    HW2 1071   4.238   5.968   1.114
   58SOL     OW 1072   1.275   0.857   0.139
   58SOL    HW1 1073   1.357   0.805   0.117
   58SOL    HW2 1074   1.293   0.954   0.129
   59SOL     OW 1075   4.448   3.288   5.716
   59SOL    HW1 1076   4.483   3.303   5.808
   59SOL    HW2 1077   4.391   3.206   5.715
   60SOL     OW 1078   6.398   2.718   2.341
   60SOL    HW1 1079   6.304   2.748   2.354
   60SOL    HW2 1080   6.435   2.760   2.258
   61SOL     OW 1081   1.023   6.298   3.844
   61SOL    HW1 1082   1.043   6.290   3.746
   61SOL    HW2 1083   1.105   6.328   3.893
   62SOL     OW 1084   6.257   3.294   3.475
   62SOL    HW1 1085   6.202   3.340   3.544
   62SOL    HW2 1086   6.197   3.256   3.405
   63SOL     OW 1087   3.801   0.557   6.369
   63SOL    HW1 1088   3.743   0.612   6.430
   63SOL    HW2 1089   3.818   0.609   6.285
   64SOL     OW 1090   1.002   2.466   5.578
   64SOL    HW1 1091   1.032   2.425   5.664
   64SOL    HW2 1092   1.041   2.557   5.568
   65SOL     OW 1093   0.749   5.129   4.518
   65SOL    HW1 1094   0.759   5.198   4.447
   65SOL    HW2 1095   0.668   5.073   4.499
   66SOL     OW 1096   3.993   1.573   1.497
   66SOL    HW1 1097   4.059   1.581   1.571
   66SOL    HW2 1098   4.000   1.483   1.455
   67SOL     OW 1099   0.317   3.238   1.818
   67SOL    HW1 1100   0.254   3.246   1.896
   67SOL    HW2 1101   0.317   3.143   1.786
   68SOL     OW 1102   6.722   1.968   0.006
   68SOL    HW1 1103   6.742   1.905   6.957
   68SOL    HW2 1104   6.789   2.041   0.007
   69SOL     OW 1105   1.415   5.545   6.836
   69SOL    HW1 1106   1.336   5.497   6.874
   69SOL    HW2 1107   1.451   5.493   6.758
   70SOL     OW 1108   5.040   4.456   3.719
   70SOL    HW1 1109   4.943   4.437   3.706
   70SOL    HW2 1110   5.051   4.517   3.798
   71SOL     OW 1111   5.145   1.940   4.347
   71SOL    HW1 1112   5.054   1.935   4.305
   71SOL    HW2 1113   5.144   2.009   4.419
   72SOL     OW 1114   0.114   1.191   3.513
   72SOL    HW1 1115   0.133   1.097   3.484
   72SOL    HW2 1116   0.064   1.191   3.599
   73SOL     OW 1117   2.252   0.533   1.085
   73SOL    HW1 1118   2.307   0.472   1.029
   73SOL    HW2 1119   2.179   0.573   1.030
   74SOL     OW 1120   3.610   2.442   0.564
   74SOL    HW1 1121   3.574   2.517   0.619
   74SOL    HW2 1122   3.710   2.445   0.566
   75SOL     OW 1123   3.134   2.797   0.294
   75SOL    HW1 1124   3.053   2.739   0.300
   75SOL    HW2 1125   3.108   2.891   0.272
   76SOL     OW 1126   4.156   5.205   5.748
   76SOL    HW1 1127   4.176   5.119   5.795
   76SOL    HW2 1128   4.241   5.245   5.715
   77SOL     OW 1129   0.841   5.471   4.806
   77SOL    HW1 1130   0.902   5.514   4.872
   77SOL    HW2 1131   0.746   5.488   4.833
   78SOL     OW 1132   4.609   1.943   1.108
   78SOL    HW1 1133   4.542   2.012   1.082
   78SOL    HW2 1134   4.695   1.961   1.059
   79SOL     OW 1135   1.496   4.345   3.492
   79SOL    HW1 1136   1.577   4.359   3.437
   79SOL    HW2 1137   1.485   4.421   3.556
   80SOL     OW 1138   3.273   2.068   4.876
   80SOL    HW1 1139   3.228   2.143   4.924
   80SOL    HW2 1140   3.278   2.088   4.778
   81SOL     OW 1141   3.682   5.486   1.869
   81SOL    HW1 1142   3.765   5.536   1.845
   81SOL    HW2 1143   3.706   5.406   1.924
   82SOL     OW 1144   2.736   6.912   1.699
   82SOL    HW1 1145   2.728   6.959   1.787
   82SOL    HW2 1146   2.801   6.837   1.707
   83SOL     OW 1147   5.179   1.615   4.018
   83SOL    HW1 1148   5.232   1.551   3.962
   83SOL    HW2 1149   5.170   1.578   4.111
   84SOL     OW 1150   5.867   2.917   2.951
   84SOL    HW1 1151   5.938   2.881   3.010
   84SOL    HW2 1152   5.778   2.910   2.997
   85SOL     OW 1153   2.568   6.554   3.896
   85SOL    HW1 1154   2.532   6.461   3.902
   85SOL    HW2 1155   2.550   6.591   3.804
   86SOL     OW 1156   5.082   0.313   0.676
   86SOL    HW1 1157   5.015   0.320   0.602
   86SOL    HW2 1158   5.137   0.396   0.680
   87SOL     OW 1159   2.568   3.552   6.922
   87SOL    HW1 1160   2.483   3.601   6.903
   87SOL    HW2 1161   2.630   3.612   6.973
   88SOL     OW 1162   2.390   3.445   1.558
   88SOL    HW1 1163   2.433   3.375   1.501
   88SOL    HW2 1164   2.392   3.417   1.653
   89SOL     OW 1165   2.988   3.177   3.850
   89SOL    HW1 1166   2.936   3.262   3.847
   89SOL    HW2 1167   3.014   3.158   3.945
   90SOL     OW 1168   5.874   3.802   2.391
   90SOL    HW1 1169   5.923   3.718   2.368
   90SOL    HW2 1170   5.936   3.880   2.385
   91SOL     OW 1171   4.324   5.815   6.385
   91SOL    HW1 1172   4.326   5.829   6.484
   91SOL    HW2 1173   4.261   5.741   6.362
   92SOL     OW 1174   5.288   4.458   0.035
   92SOL    HW1 1175   5.251   4.365   0.034
   92SOL    HW2 1176   5.225   4.518   0.084
   93SOL     OW 1177   3.100   3.871   1.870
   93SOL    HW1 1178   3.184   3.827   1.838
   93SOL    HW2 1179   3.034   3.876   1.795
   94SOL     OW 1180   3.267   2.068   4.086
   94SOL    HW1 1181   3.331   2.053   4.160
   94SOL    HW2 1182   3.189   2.122   4.120
   95SOL     OW 1183   0.344   0.312   4.180
   95SOL    HW1 1184   0.357   0.365   4.096
   95SOL    HW2 1185   0.292   0.229   4.160
   96SOL     OW 1186   0.199   5.243   6.440
   96SOL    HW1 1187   0.251   5.266   6.358
   96SOL    HW2 1188   0.101   5.244   6.418
   97SOL     OW 1189   2.396   4.495   5.987
   97SOL    HW1 1190   2.314   4.535   5.945
   97SOL    HW2 1191   2.369   4.412   6.037
   98SOL     OW 1192   0.653   2.066   3.959
   98SOL    HW1 1193   0.721   2.131   3.925
   98SOL    HW2 1194   0.583   2.051   3.889
   99SOL     OW 1195   3.713   4.389   5.299
   99SOL    HW1 1196   3.705   4.290   5.283
   99SOL    HW2 1197   3.809   4.412   5.318
  100SOL     OW 1198   0.837   0.076   5.178
  100SOL    HW1 1199   0.887   7.025   5.217
  100SOL    HW2 1200   0.750   0.044   5.140
  101SOL     OW 1201   4.885   3.094   2.462
  101SOL    HW1 1202   4.875   3.190   2.488
  101SOL    HW2 1203   4.923   3.043   2.539
  102SOL     OW 1204   4.434   0.734   0.124
  102SOL    HW1 1205   4.507   0.675   0.159
  102SOL    HW2 1206   4.366   0.749   0.196
  103SOL     OW 1207   1.197   1.449   1.960
  103SOL    HW1 1208   1.238   1.422   2.047
  103SOL    HW2 1209   1.268   1.477   1.896
  104SOL     OW 1210   6.468   4.223   1.492
  104SOL    HW1 1211   6.398   4.229   1.563
  104SOL    HW2 1212   6.433   4.168   1.415
  105SOL     OW 1213   0.217   0.181   4.749
  105SOL    HW1 1214   0.264   0.159   4.663
  105SOL    HW2 1215   0.274   0.243   4.803
  106SOL     OW 1216   4.679   3.283   1.691
  106SOL    HW1 1217   4.653   3.282   1.595
  106SOL    HW2 1218   4.625   3.216   1.742
  107SOL     OW 1219   5.874   7.007   1.645
  107SOL    HW1 1220   5.830   6.978   1.730
  107SOL    HW2 1221   5.806   7.013   1.572
  108SOL     OW 1222   3.118   1.096   4.794
  108SOL    HW1 1223   3.065   1.165   4.843
  108SOL    HW2 1224   3.066   1.063   4.715
  109SOL     OW 1225   2.216   1.131   5.133
  109SOL    HW1 1226   2.304   1.175   5.154
  109SOL    HW2 1227   2.163   1.191   5.074
  110SOL     OW 1228   3.626   3.923   5.491
  110SOL    HW1 1229   3.661   3.913   5.584
  110SOL    HW2 1230   3.527   3.934   5.493
  111SOL     OW 1231   6.184   2.482   0.888
  111SOL    HW1 1232   6.208   2.579   0.878
  111SOL    HW2 1233   6.085   2.473   0.893
  112SOL     OW 1234   5.512   0.114   6.283
  112SOL    HW1 1235   5.507   0.214   6.286
  112SOL    HW2 1236   5.592   0.084   6.335
  113SOL     OW 1237   0.560   5.108   2.754
  113SOL    HW1 1238   0.614   5.149   2.681
  113SOL    HW2 1239   0.464   5.134   2.743
  114SOL     OW 1240   0.081   2.220   2.069
  114SOL    HW1 1241   0.048   2.274   2.146
  114SOL    HW2 1242   0.051   2.263   1.984
  115SOL     OW 1243   4.744   6.730   3.158
  115SOL    HW1 1244   4.775   6.732   3.063
  115SOL    HW2 1245   4.699   6.642   3.176
  116SOL     OW 1246   6.921   5.157   0.601
  116SOL    HW1 1247   6.898   5.233   0.541
  116SOL    HW2 1248   6.956   5.192   0.688
  117SOL     OW 1249   2.694   2.420   0.329
  117SOL    HW1 1250   2.741   2.336   0.300
  117SOL    HW2 1251   2.625   2.445   0.262
  118SOL     OW 1252   6.760   1.587   2.524
  118SOL    HW1 1253   6.792   1.498   2.491
  118SOL    HW2 1254   6.696   1.573   2.599
  119SOL     OW 1255   6.112   0.624   4.936
  119SOL    HW1 1256   6.210   0.621   4.954
  119SOL    HW2 1257   6.095   0.596   4.841
  120SOL     OW 1258   4.301   0.710   4.411
  120SOL    HW1 1259   4.293   0.613   4.389
  120SOL    HW2 1260   4.372   0.723   4.480
  121SOL     OW 1261   0.552   5.488   6.797
  121SOL    HW1 1262   0.471   5.523   6.845
  121SOL    HW2 1263   0.527   5.410   6.740
  122SOL     OW 1264   6.730   4.656   5.996
  122SOL    HW1 1265   6.755   4.731   5.935
  122SOL    HW2 1266   6.657   4.686   6.057
  123SOL     OW 1267   0.801   2.661   1.773
  123SOL    HW1 1268   0.820   2.621   1.862
  123SOL    HW2 1269   0.751   2.747   1.785
  124SOL     OW 1270   1.128   3.466   0.699
  124SOL    HW1 1271   1.173   3.517   0.626
  124SOL    HW2 1272   1.032   3.492   0.705
  125SOL     OW 1273   4.369   2.877   0.644
  125SOL    HW1 1274   4.384   2.835   0.554
  125SOL    HW2 1275   4.450   2.865   0.700
  126SOL     OW 1276   3.746   2.928   4.095
  126SOL    HW1 1277   3.667   2.888   4.048
  126SOL    HW2 1278   3.827   2.872   4.077
  127SOL     OW 1279   0.349   4.225   5.331
  127SOL    HW1 1280   0.252   4.218   5.353
  127SOL    HW2 1281   0.369   4.170   5.250
  128SOL     OW 1282   5.235   4.021   6.521
  128SOL    HW1 1283   5.148   3.983   6.552
  128SOL    HW2 1284   5.310   3.967   6.560
  129SOL     OW 1285   0.103   5.776   2.303
  129SOL    HW1 1286   0.157   5.782   2.387
  129SOL    HW2 1287   0.012   5.813   2.319
  130SOL     OW 1288   6.114   2.781   4.295
  130SOL    HW1 1289   6.040   2.762   4.360
  130SOL    HW2 1290   6.165   2.697   4.277
  131SOL     OW 1291   0.539   3.604   3.633
  131SOL    HW1 1292   0.637   3.623   3.634
  131SOL    HW2 1293   0.523   3.506   3.644
  132SOL     OW 1294   4.296   2.550   0.857
  132SOL    HW1 1295   4.211   2.528   0.905
  132SOL    HW2 1296   4.374   2.525   0.914
  133SOL     OW 1297   4.770   5.725   6.134
  133SOL    HW1 1298   4.680   5.745   6.095
  133SOL    HW2 1299   4.833   5.799   6.111
  134SOL     OW 1300   5.482   2.236   0.900
  134SOL    HW1 1301   5.402   2.238   0.961
  134SOL    HW2 1302   5.524   2.326   0.897
  135SOL     OW 1303   4.955   3.610   3.967
  135SOL    HW1 1304   5.030   3.566   3.917
  135SOL    HW2 1305   4.879   3.627   3.904
  136SOL     OW 1306   3.653   1.036   6.184
  136SOL    HW1 1307   3.689   1.055   6.276
  136SOL    HW2 1308   3.722   1.060   6.116
  137SOL     OW 1309   2.663   3.667   5.897
  137SOL    HW1 1310   2.743   3.697   5.845
  137SOL    HW2 1311   2.622   3.588   5.852
  138SOL     OW 1312   1.162   5.440   6.866
  138SOL    HW1 1313   1.125   5.514   6.923
  138SOL    HW2 1314   1.094   5.411   6.799
  139SOL     OW 1315   1.268   0.227   1.010
  139SOL    HW1 1316   1.239   0.256   0.919
  139SOL    HW2 1317   1.214   0.275   1.079
  140SOL     OW 1318   4.520   0.765   1.581
  140SOL    HW1 1319   4.578   0.759   1.662
  140SOL    HW2 1320   4.488   0.674   1.556
  141SOL     OW 1321   0.223   2.541   0.501
  141SOL    HW1 1322   0.203   2.527   0.598
  141SOL    HW2 1323   0.315   2.579   0.491
  142SOL     OW 1324   2.298   3.730   0.646
  142SOL    HW1 1325   2.327   3.786   0.723
  142SOL    HW2 1326   2.238   3.657   0.677
  143SOL     OW 1327   4.506   6.293   1.904
  143SOL    HW1 1328   4.588   6.238   1.892
  143SOL    HW2 1329   4.466   6.274   1.993
  144SOL     OW 1330   2.993   5.821   2.930
  144SOL    HW1 1331   2.978   5.823   3.029
  144SOL    HW2 1332   2.947   5.741   2.892
  145SOL     OW 1333   6.932   5.609   3.937
  145SOL    HW1 1334   6.834   5.624   3.923
  145SOL    HW2 1335   6.945   5.535   4.003
  146SOL     OW 1336   4.970   0.843   6.226
  146SOL    HW1 1337   4.997   0.772   6.161
  146SOL    HW2 1338   4.960   0.803   6.317
  147SOL     OW 1339   4.899   0.616   5.085
  147SOL    HW1 1340   4.846   0.532   5.075
  147SOL    HW2 1341   4.927   0.627   5.180
  148SOL     OW 1342   2.004   5.922   1.452
  148SOL    HW1 1343   1.967   5.838   1.413
  148SOL    HW2 1344   2.103   5.915   1.457
  149SOL     OW 1345   2.043   2.219   4.154
  149SOL    HW1 1346   2.094   2.300   4.127
  149SOL    HW2 1347   1.977   2.242   4.225
  150SOL     OW 1348   4.158   1.354   5.060
  150SOL    HW1 1349   4.136   1.262   5.028
  150SOL    HW2 1350   4.077   1.412   5.056
  151SOL     OW 1351   5.824   2.706   0.864
  151SOL    HW1 1352   5.732   2.744   0.869
  151SOL    HW2 1353   5.891   2.781   0.868
  152SOL     OW 1354   1.016   2.316   1.782
  152SOL    HW1 1355   0.979   2.382   1.847
  152SOL    HW2 1356   0.964   2.322   1.696
  153SOL     OW 1357   2.393   1.500   3.895
  153SOL    HW1 1358   2.302   1.457   3.900
  153SOL    HW2 1359   2.447   1.454   3.824
  154SOL     OW 1360   6.394   2.317   2.415
  154SOL    HW1 1361   6.323   2.378   2.449
  154SOL    HW2 1362   6.477   2.370   2.394
  155SOL     OW 1363   6.513   5.220   3.169
  155SOL    HW1 1364   6.416   5.236   3.188
  155SOL    HW2 1365   6.524   5.194   3.073
  156SOL     OW 1366   5.194   2.442   0.427
  156SOL    HW1 1367   5.243   2.393   0.498
  156SOL    HW2 1368   5.233   2.419   0.338
  157SOL     OW 1369   5.333   6.731   0.916
  157SOL    HW1 1370   5.330   6.826   0.946
  157SOL    HW2 1371   5.299   6.724   0.823
  158SOL     OW 1372   0.536   2.991   4.152
  158SOL    HW1 1373   0.489   2.910   4.188
  158SOL    HW2 1374   0.511   3.003   4.055
  159SOL     OW 1375   5.983   5.546   0.502
  159SOL    HW1 1376   6.003   5.474   0.436
  159SOL    HW2 1377   6.061   5.558   0.564
  160SOL     OW 1378   5.453   0.737   1.095
  160SOL    HW1 1379   5.497   0.653   1.063
  160SOL    HW2 1380   5.493   0.764   1.183
  161SOL     OW 1381   6.434   6.613   0.978
  161SOL    HW1 1382   6.475   6.677   1.043
  161SOL    HW2 1383   6.335   6.620   0.983
  162SOL     OW 1384   4.400   0.168   6.469
  162SOL    HW1 1385   4.309   0.128   6.457
  162SOL    HW2 1386   4.443   0.128   6.551
  163SOL     OW 1387   0.685   3.190   2.288
  163SOL    HW1 1388   0.736   3.109   2.256
  163SOL    HW2 1389   0.705   3.207   2.384
  164SOL     OW 1390   2.909   1.931   3.032
  164SOL    HW1 1391   2.945   1.874   2.958
  164SOL    HW2 1392   2.850   2.002   2.994
  165SOL     OW 1393   6.984   6.655   3.970
  165SOL    HW1 1394   0.010   6.679   4.053
  165SOL    HW2 1395   6.933   6.735   3.938
  166SOL     OW 1396   6.370   4.778   4.087
  166SOL    HW1 1397   6.447   4.782   4.023
  166SOL    HW2 1398   6.285   4.762   4.036
  167SOL     OW 1399   2.448   1.260   5.121
  167SOL    HW1 1400   2.545   1.278   5.140
  167SOL    HW2 1401   2.423   1.302   5.034
  168SOL     OW 1402   3.778   3.516   1.812
  168SOL    HW1 1403   3.736   3.474   1.732
  168SOL    HW2 1404   3.748   3.469   1.895
  169SOL     OW 1405   5.084   2.420   0.870
  169SOL    HW1 1406   5.035   2.426   0.782
  169SOL    HW2 1407   5.044   2.486   0.934
  170SOL     OW 1408   5.992   5.817   0.766
  170SOL    HW1 1409   6.072   5.759   0.747
  170SOL    HW2 1410   5.927   5.767   0.822
  171SOL     OW 1411   3.767   3.010   1.004
  171SOL    HW1 1412   3.727   2.968   1.086
  171SOL    HW2 1413   3.699   3.069   0.960
  172SOL     OW 1414   1.212   1.428   6.451
  172SOL    HW1 1415   1.208   1.508   6.391
  172SOL    HW2 1416   1.120   1.401   6.477
  173SOL     OW 1417   6.261   1.235   3.999
  173SOL    HW1 1418   6.172   1.268   4.030
  173SOL    HW2 1419   6.268   1.245   3.900
  174SOL     OW 1420   5.390   4.300   4.143
  174SOL    HW1 1421   5.305   4.247   4.155
  174SOL    HW2 1422   5.454   4.276   4.216
  175SOL     OW 1423   0.491   6.478   2.691
  175SOL    HW1 1424   0.408   6.489   2.636
  175SOL    HW2 1425   0.517   6.381   2.693
  176SOL     OW 1426   6.240   3.513   1.618
  176SOL    HW1 1427   6.285   3.536   1.532
  176SOL    HW2 1428   6.309   3.497   1.689
  177SOL     OW 1429   5.762   2.480   3.592
  177SOL    HW1 1430   5.774   2.452   3.497
  177SOL    HW2 1431   5.830   2.435   3.649
  178SOL     OW 1432   2.551   5.821   4.839
  178SOL    HW1 1433   2.583   5.729   4.817
  178SOL    HW2 1434   2.565   5.881   4.760
  179SOL     OW 1435   3.070   4.429   1.343
  179SOL    HW1 1436   3.130   4.379   1.406
  179SOL    HW2 1437   3.008   4.487   1.396
  180SOL     OW 1438   4.564   1.067   6.525
  180SOL    HW1 1439   4.617   0.983   6.532
  180SOL    HW2 1440   4.624   1.141   6.494
  181SOL     OW 1441   2.840   1.938   6.014
  181SOL    HW1 1442   2.818   2.011   5.949
  181SOL    HW2 1443   2.837   1.850   5.967
  182SOL     OW 1444   3.319   2.934   5.676
  182SOL    HW1 1445   3.250   2.938   5.603
  182SOL    HW2 1446   3.410   2.925   5.635
  183SOL     OW 1447   2.865   0.933   3.294
  183SOL    HW1 1448   2.795   0.874   3.256
  183SOL    HW2 1449   2.953   0.885   3.294
  184SOL     OW 1450   5.205   5.897   3.710
  184SOL    HW1 1451   5.141   5.904   3.787
  184SOL    HW2 1452   5.156   5.862   3.630
  185SOL     OW 1453   0.128   0.451   4.564
  185SOL    HW1 1454   0.035   0.439   4.529
  185SOL    HW2 1455   0.186   0.487   4.492
  186SOL     OW 1456   3.303   5.991   5.386
  186SOL    HW1 1457   3.236   5.943   5.331
  186SOL    HW2 1458   3.260   6.025   5.470
  187SOL     OW 1459   4.010   5.914   1.575
  187SOL    HW1 1460   3.970   5.822   1.576
  187SOL    HW2 1461   3.986   5.961   1.660
  188SOL     OW 1462   1.451   3.495   3.428
  188SOL    HW1 1463   1.491   3.544   3.506
  188SOL    HW2 1464   1.448   3.556   3.349
  189SOL     OW 1465   5.184   5.168   5.252
  189SOL    HW1 1466   5.206   5.136   5.344
  189SOL    HW2 1467   5.131   5.098   5.204
  190SOL     OW 1468   6.032   0.344   0.543
  190SOL    HW1 1469   6.012   0.248   0.561
  190SOL    HW2 1470   6.017   0.398   0.627
  191SOL     OW 1471   0.491   2.051   5.558
  191SOL    HW1 1472   0.564   2.117   5.575
  191SOL    HW2 1473   0.484   1.988   5.635
  192SOL     OW 1474   0.337   5.724   1.515
  192SOL    HW1 1475   0.254   5.779   1.522
  192SOL    HW2 1476   0.396   5.741   1.594
  193SOL     OW 1477   2.093   0.106   1.282
  193SOL    HW1 1478   1.993   0.106   1.279
  193SOL    HW2 1479   2.129   0.045   1.211
  194SOL     OW 1480   3.713   5.971   2.244
  194SOL    HW1 1481   3.740   5.919   2.324
  194SOL    HW2 1482   3.617   5.951   2.222
  195SOL     OW 1483   3.991   0.696   1.260
  195SOL    HW1 1484   3.933   0.653   1.329
  195SOL    HW2 1485   4.012   0.790   1.288
  196SOL     OW 1486   4.027   2.019   0.676
  196SOL    HW1 1487   4.068   1.932   0.704
  196SOL    HW2 1488   3.973   2.056   0.751
  197SOL     OW 1489   1.922   5.807   0.691
  197SOL    HW1 1490   1.897   5.710   0.694
  197SOL    HW2 1491   1.941   5.840   0.783
  198SOL     OW 1492   3.870   6.724   6.557
  198SOL    HW1 1493   3.827   6.805   6.596
  198SOL    HW2 1494   3.953   6.750   6.508
  199SOL     OW 1495   0.733   0.502   2.917
  199SOL    HW1 1496   0.646   0.488   2.964
  199SOL    HW2 1497   0.774   0.588   2.946
  200SOL     OW 1498   0.877   4.482   3.304
  200SOL    HW1 1499   0.961   4.453   3.258
  200SOL    HW2 1500   0.860   4.423   3.383
  201SOL     OW 1501   5.452   1.723   6.561
  201SOL    HW1 1502   5.551   1.720   6.571
  201SOL    HW2 1503   5.410   1.653   6.619
  202SOL     OW 1504   3.641   0.896   2.483
  202SOL    HW1 1505   3.621   0.922   2.389
  202SOL    HW2 1506   3.561   0.850   2.523
  203SOL     OW 1507   6.132   2.842   6.562
  203SOL    HW1 1508   6.214   2.817   6.613
  203SOL    HW2 1509   6.072   2.897   6.619
  204SOL     OW 1510   2.347   6.741   1.267
  204SOL    HW1 1511   2.291   6.800   1.326
  204SOL    HW2 1512   2.332   6.646   1.291
  205SOL     OW 1513   5.485   0.832   0.833
  205SOL    HW1 1514   5.520   0.926   0.835
  205SOL    HW2 1515   5.449   0.808   0.923
  206SOL     OW 1516   7.003   5.414   1.793
  206SOL    HW1 1517   7.005   5.512   1.775
  206SOL    HW2 1518   6.972   5.366   1.711
  207SOL     OW 1519   4.806   1.693   5.505
  207SOL    HW1 1520   4.780   1.599   5.480
  207SOL    HW2 1521   4.904   1.697   5.523
  208SOL     OW 1522   3.681   4.690   6.264
  208SOL    HW1 1523   3.699   4.591   6.259
  208SOL    HW2 1524   3.684   4.728   6.172
  209SOL     OW 1525   6.904   5.268   4.944
  209SOL    HW1 1526   6.881   5.183   4.993
  209SOL    HW2 1527   6.974   5.317   4.996
  210SOL     OW 1528   3.738   2.092   1.609
  210SOL    HW1 1529   3.759   2.100   1.511
  210SOL    HW2 1530   3.805   2.145   1.661
  211SOL     OW 1531   1.340   2.157   1.823
  211SOL    HW1 1532   1.336   2.218   1.744
  211SOL    HW2 1533   1.274   2.187   1.892
  212SOL     OW 1534   0.438   5.299   4.645
  212SOL    HW1 1535   0.499   5.374   4.671
  212SOL    HW2 1536   0.448   5.281   4.547
  213SOL     OW 1537   4.366   2.475   6.115
  213SOL    HW1 1538   4.322   2.500   6.028
  213SOL    HW2 1539   4.405   2.556   6.157
  214SOL     OW 1540   1.585   6.396   3.152
  214SOL    HW1 1541   1.510   6.335   3.129
  214SOL    HW2 1542   1.583   6.415   3.250
  215SOL     OW 1543   3.674   3.674   2.954
  215SOL    HW1 1544   3.760   3.651   2.999
  215SOL    HW2 1545   3.690   3.693   2.858
  216SOL     OW 1546   1.687   6.497   5.577
  216SOL    HW1 1547   1.618   6.485   5.648
  216SOL    HW2 1548   1.700   6.595   5.559
  217SOL     OW 1549   6.981   2.376   3.987
  217SOL    HW1 1550   6.897   2.327   3.966
  217SOL    HW2 1551   6.959   2.468   4.020
  218SOL     OW 1552   1.973   3.646   5.417
  218SOL    HW1 1553   1.939   3.724   5.365
  218SOL    HW2 1554   1.965   3.664   5.515
  219SOL     OW 1555   3.553   5.397   0.722
  219SOL    HW1 1556   3.475   5.459   0.719
  219SOL    HW2 1557   3.523   5.304   0.700
  220SOL     OW 1558   1.694   4.511   0.678
  220SOL    HW1 1559   1.645   4.426   0.697
  220SOL    HW2 1560   1.767   4.493   0.613
  221SOL     OW 1561   6.514   2.855   4.051
  221SOL    HW1 1562   6.449   2.903   4.110
  221SOL    HW2 1563   6.606   2.888   4.071
  222SOL     OW 1564   1.232   5.921   4.554
  222SOL    HW1 1565   1.134   5.938   4.554
  222SOL    HW2 1566   1.261   5.891   4.462
  223SOL     OW 1567   5.693   4.420   2.522
  223SOL    HW1 1568   5.656   4.429   2.614
  223SOL    HW2 1569   5.711   4.323   2.504
  224SOL     OW 1570   3.485   2.064   2.156
  224SOL    HW1 1571   3.555   2.113   2.104
  224SOL    HW2 1572   3.444   1.993   2.099
  225SOL     OW 1573   0.041   0.203   1.093
  225SOL    HW1 1574   0.066   0.115   1.052
  225SOL    HW2 1575   6.997   0.248   1.038
  226SOL     OW 1576   0.398   6.046   1.441
  226SOL    HW1 1577   0.454   6.023   1.521
  226SOL    HW2 1578   0.313   5.994   1.445
  227SOL     OW 1579   1.876   3.037   2.845
  227SOL    HW1 1580   1.919   3.007   2.760
  227SOL    HW2 1581   1.901   3.133   2.862
  228SOL     OW 1582   3.485   6.623   2.578
  228SOL    HW1 1583   3.481   6.552   2.508
  228SOL    HW2 1584   3.488   6.580   2.669
  229SOL     OW 1585   6.126   5.703   3.292
  229SOL    HW1 1586   6.034   5.681   3.325
  229SOL    HW2 1587   6.160   5.629   3.235
  230SOL     OW 1588   1.014   4.379   6.135
  230SOL    HW1 1589   0.983   4.301   6.080
  230SOL    HW2 1590   1.026   4.349   6.230
  231SOL     OW 1591   0.649   1.762   0.361
  231SOL    HW1 1592   0.676   1.834   0.424
  231SOL    HW2 1593   0.708   1.682   0.374
  232SOL     OW 1594   1.908   4.239   6.645
  232SOL    HW1 1595   1.966   4.265   6.568
  232SOL    HW2 1596   1.964   4.229   6.727
  233SOL     OW 1597   3.382   0.961   6.436
  233SOL    HW1 1598   3.309   1.026   6.459
  233SOL    HW2 1599   3.389   0.892   6.508
  234SOL     OW 1600   2.991   5.676   6.602
  234SOL    HW1 1601   2.929   5.639   6.672
  234SOL    HW2 1602   2.995   5.775   6.609
  235SOL     OW 1603   3.765   3.004   4.597
  235SOL    HW1 1604   3.711   2.963   4.524
  235SOL    HW2 1605   3.780   3.101   4.577
  236SOL     OW 1606   6.775   2.207   5.320
  236SOL    HW1 1607   6.849   2.160   5.273
  236SOL    HW2 1608   6.811   2.286   5.370
  237SOL     OW 1609   6.772   6.438   1.711
  237SOL    HW1 1610   6.763   6.410   1.615
  237SOL    HW2 1611   6.868   6.431   1.738
  238SOL     OW 1612   6.889   1.890   2.244
  238SOL    HW1 1613   6.808   1.939   2.211
  238SOL    HW2 1614   6.895   1.900   2.343
  239SOL     OW 1615   0.059   5.926   1.291
  239SOL    HW1 1616   0.059   5.843   1.236
  239SOL    HW2 1617   0.141   5.980   1.269
  240SOL     OW 1618   6.956   2.717   5.632
  240SOL    HW1 1619   6.997   2.792   5.580
  240SOL    HW2 1620   6.860   2.708   5.606
  241SOL     OW 1621   6.106   2.060   4.587
  241SOL    HW1 1622   6.068   2.135   4.640
  241SOL    HW2 1623   6.051   1.978   4.600
  242SOL     OW 1624   2.324   2.661   3.307
  242SOL    HW1 1625   2.282   2.719   3.238
  242SOL    HW2 1626   2.341   2.570   3.268
  243SOL     OW 1627   3.918   1.206   6.456
  243SOL    HW1 1628   3.979   1.164   6.389
  243SOL    HW2 1629   3.945   1.302   6.471
  244SOL     OW 1630   6.816   0.653   5.969
  244SOL    HW1 1631   6.876   0.643   6.049
  244SOL    HW2 1632   6.869   0.689   5.892
  245SOL     OW 1633   5.522   2.813   3.842
  245SOL    HW1 1634   5.515   2.714   3.850
  245SOL    HW2 1635   5.465   2.857   3.911
  246SOL     OW 1636   4.884   3.374   3.432
  246SOL    HW1 1637   4.840   3.464   3.428
  246SOL    HW2 1638   4.910   3.354   3.527
  247SOL     OW 1639   2.658   0.012   3.631
  247SOL    HW1 1640   2.749   7.025   3.593
  247SOL    HW2 1641   2.623   6.949   3.664
  248SOL     OW 1642   6.591   1.329   2.037
  248SOL    HW1 1643   6.679   1.295   2.003
  248SOL    HW2 1644   6.553   1.394   1.972
  249SOL     OW 1645   1.955   6.165   4.360
  249SOL    HW1 1646   1.921   6.227   4.431
  249SOL    HW2 1647   1.884   6.098   4.338
  250SOL     OW 1648   5.218   3.260   6.274
  250SOL    HW1 1649   5.138   3.213   6.238
  250SOL    HW2 1650   5.293   3.195   6.287
  251SOL     OW 1651   1.846   2.613   0.699
  251SOL    HW1 1652   1.854   2.630   0.798
  251SOL    HW2 1653   1.887   2.689   0.649
  252SOL     OW 1654   0.414   1.331   0.542
  252SOL    HW1 1655   0.429   1.398   0.614
  252SOL    HW2 1656   0.402   1.377   0.455
  253SOL     OW 1657   1.760   4.074   5.918
  253SOL    HW1 1658   1.746   4.005   5.846
  253SOL    HW2 1659   1.814   4.034   5.992
  254SOL     OW 1660   4.924   3.815   6.239
  254SOL    HW1 1661   4.888   3.766   6.318
  254SOL    HW2 1662   5.023   3.800   6.232
  255SOL     OW 1663   3.317   1.614   2.699
  255SOL    HW1 1664   3.280   1.668   2.775
  255SOL    HW2 1665   3.294   1.659   2.613
  256SOL     OW 1666   6.587   5.461   1.707
  256SOL    HW1 1667   6.601   5.414   1.795
  256SOL    HW2 1668   6.524   5.407   1.650
  257SOL     OW 1669   3.359   5.139   6.654
  257SOL    HW1 1670   3.405   5.097   6.575
  257SOL    HW2 1671   3.311   5.221   6.624
  258SOL     OW 1672   4.762   4.193   3.881
  258SOL    HW1 1673   4.669   4.218   3.856
  258SOL    HW2 1674   4.805   4.143   3.806
  259SOL     OW 1675   1.017   2.285   3.616
  259SOL    HW1 1676   1.058   2.363   3.665
  259SOL    HW2 1677   0.997   2.313   3.522
  260SOL     OW 1678   6.843   6.866   5.700
  260SOL    HW1 1679   6.832   6.852   5.601
  260SOL    HW2 1680   6.753   6.876   5.742
  261SOL     OW 1681   0.196   1.363   3.318
  261SOL    HW1 1682   0.141   1.306   3.379
  261SOL    HW2 1683   0.172   1.459   3.333
  262SOL     OW 1684   2.112   4.739   2.565
  262SOL    HW1 1685   2.108   4.776   2.472
  262SOL    HW2 1686   2.205   4.748   2.600
  263SOL     OW 1687   6.521   2.878   4.980
  263SOL    HW1 1688   6.581   2.843   5.052
  263SOL    HW2 1689   6.446   2.814   4.966
  264SOL     OW 1690   3.364   3.855   6.447
  264SOL    HW1 1691   3.319   3.871   6.535
  264SOL    HW2 1692   3.314   3.784   6.397
  265SOL     OW 1693   4.967   5.145   4.755
  265SOL    HW1 1694   4.920   5.146   4.843
  265SOL    HW2 1695   4.959   5.236   4.713
  266SOL     OW 1696   3.556   3.065   6.483
  266SOL    HW1 1697   3.602   3.039   6.398
  266SOL    HW2 1698   3.458   3.076   6.466
  267SOL     OW 1699   1.928   1.486   6.651
  267SOL    HW1 1700   1.936   1.584   6.668
  267SOL    HW2 1701   1.836   1.455   6.675
  268SOL     OW 1702   3.129   4.967   3.783
  268SOL    HW1 1703   3.080   4.973   3.870
  268SOL    HW2 1704   3.225   4.990   3.797
  269SOL     OW 1705   1.620   1.174   4.830
  269SOL    HW1 1706   1.596   1.097   4.890
  269SOL    HW2 1707   1.611   1.146   4.735
  270SOL     OW 1708   4.845   6.687   4.473
  270SOL    HW1 1709   4.828   6.703   4.570
  270SOL    HW2 1710   4.770   6.634   4.434
  271SOL     OW 1711   1.681   1.563   0.714
  271SOL    HW1 1712   1.699   1.601   0.624
  271SOL    HW2 1713   1.592   1.595   0.747
  272SOL     OW 1714   4.425   5.925   1.761
  272SOL    HW1 1715   4.363   5.945   1.836
  272SOL    HW2 1716   4.506   5.985   1.767
  273SOL     OW 1717   2.365   6.424   4.529
  273SOL    HW1 1718   2.400   6.427   4.436
  273SOL    HW2 1719   2.368   6.329   4.562
  274SOL     OW 1720   5.828   1.579   0.779
  274SOL    HW1 1721   5.899   1.649   0.783
  274SOL    HW2 1722   5.779   1.586   0.692
  275SOL     OW 1723   5.899   5.927   5.763
  275SOL    HW1 1724   5.914   6.020   5.730
  275SOL    HW2 1725   5.839   5.930   5.844
  276SOL     OW 1726   6.954   6.605   4.390
  276SOL    HW1 1727   6.928   6.694   4.427
  276SOL    HW2 1728   6.873   6.557   4.358
  277SOL     OW 1729   4.659   2.771   5.381
  277SOL    HW1 1730   4.677   2.844   5.446
  277SOL    HW2 1731   4.560   2.754   5.376
  278SOL     OW 1732   5.800   3.776   3.352
  278SOL    HW1 1733   5.751   3.853   3.312
  278SOL    HW2 1734   5.778   3.693   3.301
  279SOL     OW 1735   7.018   3.820   3.894
  279SOL    HW1 1736   6.997   3.892   3.827
  279SOL    HW2 1737   7.004   3.856   3.987
  280SOL     OW 1738   3.965   1.169   3.845
  280SOL    HW1 1739   3.908   1.168   3.762
  280SOL    HW2 1740   4.003   1.260   3.857
  281SOL     OW 1741   4.858   6.127   4.967
  281SOL    HW1 1742   4.914   6.089   4.894
  281SOL    HW2 1743   4.858   6.227   4.961
  282SOL     OW 1744   1.273   2.776   0.563
  282SOL    HW1 1745   1.267   2.868   0.601
  282SOL    HW2 1746   1.368   2.755   0.540
  283SOL     OW 1747   5.212   3.630   4.436
  283SOL    HW1 1748   5.297   3.658   4.480
  283SOL    HW2 1749   5.161   3.571   4.498
  284SOL     OW 1750   5.116   5.944   2.708
  284SOL    HW1 1751   5.208   5.908   2.689
  284SOL    HW2 1752   5.048   5.872   2.695
  285SOL     OW 1753   4.045   0.846   5.871
  285SOL    HW1 1754   4.000   0.926   5.910
  285SOL    HW2 1755   4.131   0.829   5.919
  286SOL     OW 1756   2.479   5.020   5.455
  286SOL    HW1 1757   2.514   4.946   5.512
  286SOL    HW2 1758   2.479   5.106   5.506
  287SOL     OW 1759   3.991   6.895   0.070
  287SOL    HW1 1760   3.908   6.928   0.115
  287SOL    HW2 1761   4.031   6.821   0.124
  288SOL     OW 1762   5.119   2.130   0.381
  288SOL    HW1 1763   5.119   2.113   0.480
  288SOL    HW2 1764   5.028   2.111   0.344
  289SOL     OW 1765   6.063   5.748   3.997
  289SOL    HW1 1766   6.068   5.701   4.086
  289SOL    HW2 1767   6.097   5.686   3.926
  290SOL     OW 1768   3.552   0.760   6.136
  290SOL    HW1 1769   3.551   0.780   6.038
  290SOL    HW2 1770   3.589   0.838   6.186
  291SOL     OW 1771   3.899   0.148   5.534
  291SOL    HW1 1772   3.931   0.054   5.546
  291SOL    HW2 1773   3.873   0.163   5.439
  292SOL     OW 1774   3.814   0.263   3.993
  292SOL    HW1 1775   3.722   0.280   4.030
  292SOL    HW2 1776   3.874   0.233   4.067
  293SOL     OW 1777   5.404   6.304   2.766
  293SOL    HW1 1778   5.464   6.299   2.685
  293SOL    HW2 1779   5.352   6.390   2.763
  294SOL     OW 1780   6.335   1.259   6.321
  294SOL    HW1 1781   6.409   1.192   6.321
  294SOL    HW2 1782   6.370   1.349   6.346
  295SOL     OW 1783   1.120   0.335   4.674
  295SOL    HW1 1784   1.113   0.240   4.644
  295SOL    HW2 1785   1.178   0.386   4.610
  296SOL     OW 1786   0.603   2.025   2.129
  296SOL    HW1 1787   0.629   1.954   2.064
  296SOL    HW2 1788   0.505   2.046   2.118
  297SOL     OW 1789   5.302   3.297   3.403
  297SOL    HW1 1790   5.364   3.373   3.385
  297SOL    HW2 1791   5.346   3.233   3.467
  298SOL     OW 1792   4.333   0.749   5.938
  298SOL    HW1 1793   4.308   0.668   5.990
  298SOL    HW2 1794   4.429   0.771   5.955
  299SOL     OW 1795   0.847   0.531   6.727
  299SOL    HW1 1796   0.914   0.552   6.656
  299SOL    HW2 1797   0.894   0.521   6.815
  300SOL     OW 1798   4.496   6.869   3.197
  300SOL    HW1 1799   4.581   6.819   3.180
  300SOL    HW2 1800   4.466   6.852   3.291
  301SOL     OW 1801   6.484   5.477   6.594
  301SOL    HW1 1802   6.572   5.429   6.593
  301SOL    HW2 1803   6.500   5.575   6.600
  302SOL     OW 1804   6.730   6.198   2.408
  302SOL    HW1 1805   6.706   6.157   2.319
  302SOL    HW2 1806   6.790   6.136   2.458
  303SOL     OW 1807   5.700   5.944   3.654
  303SOL    HW1 1808   5.728   5.848   3.658
  303SOL    HW2 1809   5.640   5.964   3.732
  304SOL     OW 1810   2.367   6.129   4.687
  304SOL    HW1 1811   2.379   6.179   4.772
  304SOL    HW2 1812   2.453   6.086   4.661
  305SOL     OW 1813   0.977   2.500   1.997
  305SOL    HW1 1814   1.064   2.533   2.034
  305SOL    HW2 1815   0.902   2.531   2.055
  306SOL     OW 1816   0.096   6.605   3.287
  306SOL    HW1 1817   0.154   6.666   3.233
  306SOL    HW2 1818   0.000   6.619   3.261
  307SOL     OW 1819   3.576   3.273   4.087
  307SOL    HW1 1820   3.625   3.219   4.155
  307SOL    HW2 1821   3.636   3.295   4.011
  308SOL     OW 1822   6.427   2.000   2.691
  308SOL    HW1 1823   6.424   1.968   2.786
  308SOL    HW2 1824   6.504   2.063   2.681
  309SOL     OW 1825   1.847   5.733   6.417
  309SOL    HW1 1826   1.755   5.772   6.415
  309SOL    HW2 1827   1.882   5.735   6.510
  310SOL     OW 1828   5.655   6.588   4.949
  310SOL    HW1 1829   5.619   6.530   5.022
  310SOL    HW2 1830   5.581   6.642   4.909
  311SOL     OW 1831   1.886   5.955   2.235
  311SOL    HW1 1832   1.930   5.964   2.146
  311SOL    HW2 1833   1.926   6.021   2.299
  312SOL     OW 1834   3.285   0.209   3.886
  312SOL    HW1 1835   3.361   0.271   3.907
  312SOL    HW2 1836   3.198   0.254   3.907
  313SOL     OW 1837   2.974   3.395   2.651
  313SOL    HW1 1838   3.013   3.342   2.576
  313SOL    HW2 1839   2.973   3.492   2.627
  314SOL     OW 1840   3.043   5.333   6.148
  314SOL    HW1 1841   2.983   5.264   6.188
  314SOL    HW2 1842   2.992   5.384   6.079
  315SOL     OW 1843   5.897   0.767   4.598
  315SOL    HW1 1844   5.960   0.844   4.587
  315SOL    HW2 1845   5.834   0.764   4.521
  316SOL     OW 1846   4.074   1.108   6.263
  316SOL    HW1 1847   4.149   1.131   6.202
  316SOL    HW2 1848   4.084   1.013   6.293
  317SOL     OW 1849   1.016   2.054   1.175
  317SOL    HW1 1850   0.931   2.004   1.190
  317SOL    HW2 1851   0.996   2.152   1.166
  318SOL     OW 1852   0.656   0.064   5.496
  318SOL    HW1 1853   0.603   7.005   5.500
  318SOL    HW2 1854   0.753   0.043   5.509
  319SOL     OW 1855   6.701   0.835   3.830
  319SOL    HW1 1856   6.740   0.923   3.803
  319SOL    HW2 1857   6.689   0.832   3.929
  320SOL     OW 1858   5.687   2.209   6.463
  320SOL    HW1 1859   5.610   2.158   6.502
  320SOL    HW2 1860   5.741   2.248   6.537
  321SOL     OW 1861   5.206   2.914   0.510
  321SOL    HW1 1862   5.273   2.851   0.471
  321SOL    HW2 1863   5.189   2.889   0.605
  322SOL     OW 1864   3.155   2.710   6.339
  322SOL    HW1 1865   3.142   2.688   6.436
  322SOL    HW2 1866   3.154   2.809   6.327
  323SOL     OW 1867   1.993   3.885   3.009
  323SOL    HW1 1868   2.034   3.795   3.024
  323SOL    HW2 1869   2.037   3.929   2.930
  324SOL     OW 1870   0.422   6.988   2.423
  324SOL    HW1 1871   0.345   6.925   2.433
  324SOL    HW2 1872   0.506   6.944   2.455
  325SOL     OW 1873   0.184   4.200   0.605
  325SOL    HW1 1874   0.139   4.170   0.689
  325SOL    HW2 1875   0.280   4.173   0.607
  326SOL     OW 1876   0.761   6.080   6.811
  326SOL    HW1 1877   0.851   6.096   6.771
  326SOL    HW2 1878   0.752   6.131   6.896
  327SOL     OW 1879   4.836   5.160   4.986
  327SOL    HW1 1880   4.796   5.242   5.027
  327SOL    HW2 1881   4.766   5.088   4.982
  328SOL     OW 1882   1.192   4.691   3.329
  328SOL    HW1 1883   1.159   4.597   3.342
  328SOL    HW2 1884   1.131   4.755   3.374
  329SOL     OW 1885   2.897   3.321   1.502
  329SOL    HW1 1886   2.839   3.254   1.548
  329SOL    HW2 1887   2.890   3.308   1.403
  330SOL     OW 1888   3.111   3.691   0.608
  330SOL    HW1 1889   3.130   3.763   0.541
  330SOL    HW2 1890   3.073   3.732   0.691
  331SOL     OW 1891   6.077   4.716   5.415
  331SOL    HW1 1892   6.111   4.687   5.325
  331SOL    HW2 1893   6.036   4.638   5.461
  332SOL     OW 1894   5.751   2.469   2.830
  332SOL    HW1 1895   5.805   2.550   2.850
  332SOL    HW2 1896   5.811   2.397   2.796
  333SOL     OW 1897   3.584   0.438   4.779
  333SOL    HW1 1898   3.641   0.502   4.727
  333SOL    HW2 1899   3.492   0.436   4.739
  334SOL     OW 1900   3.650   3.927   3.286
  334SOL    HW1 1901   3.744   3.941   3.255
  334SOL    HW2 1902   3.615   4.011   3.327
  335SOL     OW 1903   4.179   1.548   0.896
  335SOL    HW1 1904   4.241   1.591   0.962
  335SOL    HW2 1905   4.232   1.500   0.826
  336SOL     OW 1906   3.477   1.537   4.585
  336SOL    HW1 1907   3.513   1.544   4.492
  336SOL    HW2 1908   3.406   1.466   4.588
  337SOL     OW 1909   0.617   0.769   5.365
  337SOL    HW1 1910   0.619   0.862   5.401
  337SOL    HW2 1911   0.709   0.742   5.336
  338SOL     OW 1912   4.436   1.365   1.113
  338SOL    HW1 1913   4.438   1.448   1.059
  338SOL    HW2 1914   4.514   1.307   1.089
  339SOL     OW 1915   3.979   5.865   6.063
  339SOL    HW1 1916   4.079   5.868   6.052
  339SOL    HW2 1917   3.947   5.772   6.048
  340SOL     OW 1918   5.050   2.218   3.970
  340SOL    HW1 1919   5.112   2.147   4.005
  340SOL    HW2 1920   5.015   2.272   4.046
  341SOL     OW 1921   6.641   6.221   2.970
  341SOL    HW1 1922   6.718   6.159   2.955
  341SOL    HW2 1923   6.607   6.255   2.882
  342SOL     OW 1924   4.907   1.694   2.297
  342SOL    HW1 1925   4.850   1.735   2.368
  342SOL    HW2 1926   4.917   1.596   2.315
  343SOL     OW 1927   6.852   6.742   2.058
  343SOL    HW1 1928   6.837   6.836   2.087
  343SOL    HW2 1929   6.769   6.707   2.015
  344SOL     OW 1930   0.582   2.135   1.188
  344SOL    HW1 1931   0.579   2.213   1.251
  344SOL    HW2 1932   0.596   2.051   1.240
  345SOL     OW 1933   6.696   2.537   4.292
  345SOL    HW1 1934   6.627   2.508   4.226
  345SOL    HW2 1935   6.654   2.546   4.382
  346SOL     OW 1936   2.460   6.266   3.877
  346SOL    HW1 1937   2.388   6.324   3.838
  346SOL    HW2 1938   2.421   6.178   3.905
  347SOL     OW 1939   2.428   4.407   0.607
  347SOL    HW1 1940   2.380   4.320   0.595
  347SOL    HW2 1941   2.363   4.482   0.594
  348SOL     OW 1942   4.465   5.101   1.424
  348SOL    HW1 1943   4.449   5.027   1.489
  348SOL    HW2 1944   4.447   5.189   1.469
  349SOL     OW 1945   5.809   4.057   1.131
  349SOL    HW1 1946   5.855   3.977   1.092
  349SOL    HW2 1947   5.743   4.093   1.065
  350SOL     OW 1948   3.641   2.511   7.016
  350SOL    HW1 1949   3.584   2.523   6.935
  350SOL    HW2 1950   3.595   2.550   0.071
  351SOL     OW 1951   3.224   4.481   1.088
  351SOL    HW1 1952   3.310   4.429   1.087
  351SOL    HW2 1953   3.166   4.447   1.162
  352SOL     OW 1954   4.649   0.298   2.759
  352SOL    HW1 1955   4.597   0.304   2.673
  352SOL    HW2 1956   4.738   0.343   2.747
  353SOL     OW 1957   1.346   0.335   6.819
  353SOL    HW1 1958   1.373   0.430   6.808
  353SOL    HW2 1959   1.366   0.284   6.735
  354SOL     OW 1960   0.254   2.356   0.307
  354SOL    HW1 1961   0.309   2.286   0.353
  354SOL    HW2 1962   0.229   2.428   0.372
  355SOL     OW 1963   0.877   2.418   3.121
  355SOL    HW1 1964   0.781   2.399   3.142
  355SOL    HW2 1965   0.906   2.361   3.045
  356SOL     OW 1966   1.854   1.049   5.495
  356SOL    HW1 1967   1.894   0.999   5.419
  356SOL    HW2 1968   1.841   0.988   5.573
  357SOL     OW 1969   5.356   6.853   4.989
  357SOL    HW1 1970   5.363   6.944   4.948
  357SOL    HW2 1971   5.293   6.856   5.067
  358SOL     OW 1972   3.307   6.031   6.525
  358SOL    HW1 1973   3.288   5.936   6.497
  358SOL    HW2 1974   3.278   6.093   6.453
  359SOL     OW 1975   1.524   2.318   2.514
  359SOL    HW1 1976   1.614   2.290   2.548
  359SOL    HW2 1977   1.527   2.326   2.414
  360SOL     OW 1978   0.888   4.680   4.156
  360SOL    HW1 1979   0.925   4.679   4.063
  360SOL    HW2 1980   0.960   4.710   4.220
  361SOL     OW 1981   6.581   1.773   2.378
  361SOL    HW1 1982   6.602   1.740   2.286
  361SOL    HW2 1983   6.612   1.706   2.445
  362SOL     OW 1984   3.888   3.730   0.703
  362SOL    HW1 1985   3.962   3.728   0.635
  362SOL    HW2 1986   3.907   3.663   0.774
  363SOL     OW 1987   5.607   5.574   1.668
  363SOL    HW1 1988   5.551   5.603   1.745
  363SOL    HW2 1989   5.548   5.548   1.591
  364SOL     OW 1990   1.073   6.744   6.544
  364SOL    HW1 1991   1.020   6.811   6.492
  364SOL    HW2 1992   1.144   6.792   6.596
  365SOL     OW 1993   5.267   1.701   3.666
  365SOL    HW1 1994   5.261   1.703   3.566
  365SOL    HW2 1995   5.177   1.720   3.706
  366SOL     OW 1996   5.731   1.668   6.643
  366SOL    HW1 1997   5.717   1.587   6.700
  366SOL    HW2 1998   5.816   1.658   6.591
  367SOL     OW 1999   5.886   1.412   6.386
  367SOL    HW1 2000   5.825   1.472   6.334
  367SOL    HW2 2001   5.833   1.345   6.437
  368SOL     OW 2002   0.264   2.325   5.567
  368SOL    HW1 2003   0.325   2.302   5.492
  368SOL    HW2 2004   0.190   2.258   5.572
  369SOL     OW 2005   6.870   3.768   1.582
  369SOL    HW1 2006   6.820   3.694   1.627
  369SOL    HW2 2007   6.815   3.806   1.508
  370SOL     OW 2008   1.449   2.980   4.259
  370SOL    HW1 2009   1.375   2.948   4.199
  370SOL    HW2 2010   1.419   3.061   4.308
  371SOL     OW 2011   0.720   4.871   6.691
  371SOL    HW1 2012   0.755   4.803   6.756
  371SOL    HW2 2013   0.693   4.825   6.606
  372SOL     OW 2014   3.943   6.445   6.340
  372SOL    HW1 2015   3.906   6.412   6.253
  372SOL    HW2 2016   3.917   6.381   6.413
  373SOL     OW 2017   5.966   5.125   3.572
  373SOL    HW1 2018   5.888   5.106   3.512
  373SOL    HW2 2019   5.938   5.184   3.647
  374SOL     OW 2020   2.568   0.984   3.040
  374SOL    HW1 2021   2.564   0.990   2.941
  374SOL    HW2 2022   2.652   1.026   3.073
  375SOL     OW 2023   1.139   5.176   4.481
  375SOL    HW1 2024   1.210   5.246   4.488
  375SOL    HW2 2025   1.078   5.183   4.560
  376SOL     OW 2026   3.122   0.954   3.670
  376SOL    HW1 2027   3.106   1.048   3.639
  376SOL    HW2 2028   3.099   0.946   3.766
  377SOL     OW 2029   1.583   1.892   0.074
  377SOL    HW1 2030   1.664   1.950   0.078
  377SOL    HW2 2031   1.527   1.918   7.021
  378SOL     OW 2032   4.240   1.709   2.112
  378SOL    HW1 2033   4.220   1.614   2.090
  378SOL    HW2 2034   4.159   1.753   2.151
  379SOL     OW 2035   5.291   1.871   6.213
  379SOL    HW1 2036   5.366   1.806   6.198
  379SOL    HW2 2037   5.208   1.820   6.237
  380SOL     OW 2038   4.396   2.493   0.288
  380SOL    HW1 2039   4.460   2.417   0.281
  380SOL    HW2 2040   4.436   2.566   0.345
  381SOL     OW 2041   1.883   3.926   3.295
  381SOL    HW1 2042   1.796   3.876   3.301
  381SOL    HW2 2043   1.915   3.926   3.200
  382SOL     OW 2044   4.714   0.843   6.582
  382SOL    HW1 2045   4.778   0.811   6.512
  382SOL    HW2 2046   4.640   0.776   6.591
  383SOL     OW 2047   5.268   1.994   0.860
  383SOL    HW1 2048   5.179   1.951   0.875
  383SOL    HW2 2049   5.278   2.074   0.919
  384SOL     OW 2050   6.043   3.747   4.601
  384SOL    HW1 2051   6.116   3.784   4.658
  384SOL    HW2 2052   5.956   3.790   4.627
  385SOL     OW 2053   4.194   3.328   6.981
  385SOL    HW1 2054   4.239   3.276   0.028
  385SOL    HW2 2055   4.262   3.360   6.916
  386SOL     OW 2056   4.014   5.921   4.051
  386SOL    HW1 2057   3.937   5.859   4.064
  386SOL    HW2 2058   3.985   6.015   4.069
  387SOL     OW 2059   3.084   6.703   3.998
  387SOL    HW1 2060   3.114   6.769   3.929
  387SOL    HW2 2061   3.003   6.655   3.965
  388SOL     OW 2062   1.654   4.644   6.900
  388SOL    HW1 2063   1.562   4.606   6.897
  388SOL    HW2 2064   1.665   4.699   6.983
  389SOL     OW 2065   3.074   3.200   2.477
  389SOL    HW1 2066   3.047   3.106   2.455
  389SOL    HW2 2067   3.154   3.198   2.537
  390SOL     OW 2068   2.465   1.366   4.170
  390SOL    HW1 2069   2.407   1.382   4.090
  390SOL    HW2 2070   2.452   1.440   4.236
  391SOL     OW 2071   0.557   2.790   6.435
  391SOL    HW1 2072   0.464   2.823   6.443
  391SOL    HW2 2073   0.564   2.730   6.354
  392SOL     OW 2074   3.015   5.693   3.199
  392SOL    HW1 2075   2.964   5.623   3.248
  392SOL    HW2 2076   3.096   5.719   3.252
  393SOL     OW 2077   6.172   4.269   5.470
  393SOL    HW1 2078   6.146   4.226   5.557
  393SOL    HW2 2079   6.251   4.328   5.485
  394SOL     OW 2080   2.506   0.145   6.756
  394SOL    HW1 2081   2.584   0.134   6.695
  394SOL    HW2 2082   2.528   0.212   6.827
  395SOL     OW 2083   6.545   3.314   0.824
  395SOL    HW1 2084   6.564   3.411   0.808
  395SOL    HW2 2085   6.535   3.298   0.922
  396SOL     OW 2086   3.164   3.165   4.558
  396SOL    HW1 2087   3.173   3.099   4.483
  396SOL    HW2 2088   3.145   3.117   4.643
  397SOL     OW 2089   4.387   2.381   6.392
  397SOL    HW1 2090   4.323   2.456   6.413
  397SOL    HW2 2091   4.338   2.307   6.347
  398SOL     OW 2092   1.401   5.102   2.353
  398SOL    HW1 2093   1.415   5.160   2.433
  398SOL    HW2 2094   1.335   5.144   2.292
  399SOL     OW 2095   5.312   5.219   2.164
  399SOL    HW1 2096   5.262   5.298   2.198
  399SOL    HW2 2097   5.362   5.176   2.240
  400SOL     OW 2098   1.460   5.604   5.417
  400SOL    HW1 2099   1.544   5.641   5.378
  400SOL    HW2 2100   1.474   5.509   5.443
  401SOL     OW 2101   5.468   1.305   6.520
  401SOL    HW1 2102   5.554   1.256   6.534
  401SOL    HW2 2103   5.457   1.373   6.593
  402SOL     OW 2104   5.836   5.017   1.121
  402SOL    HW1 2105   5.811   5.099   1.069
  402SOL    HW2 2106   5.894   4.959   1.065
  403SOL     OW 2107   5.541   3.762   6.634
  403SOL    HW1 2108   5.570   3.748   6.729
  403SOL    HW2 2109   5.622   3.771   6.576
  404SOL     OW 2110   0.291   6.801   4.490
  404SOL    HW1 2111   0.299   6.857   4.572
  404SOL    HW2 2112   0.303   6.705   4.513
  405SOL     OW 2113   0.667   2.228   0.629
  405SOL    HW1 2114   0.707   2.245   0.539
  405SOL    HW2 2115   0.728   2.263   0.700
  406SOL     OW 2116   1.623   3.199   3.573
  406SOL    HW1 2117   1.686   3.247   3.512
  406SOL    HW2 2118   1.556   3.149   3.519
  407SOL     OW 2119   2.892   0.762   4.159
  407SOL    HW1 2120   2.871   0.690   4.092
  407SOL    HW2 2121   2.852   0.737   4.248
  408SOL     OW 2122   1.585   0.246   3.157
  408SOL    HW1 2123   1.613   0.174   3.094
  408SOL    HW2 2124   1.547   0.206   3.240
  409SOL     OW 2125   5.917   3.319   3.840
  409SOL    HW1 2126   5.820   3.296   3.835
  409SOL    HW2 2127   5.958   3.308   3.749
  410SOL     OW 2128   2.858   1.516   6.402
  410SOL    HW1 2129   2.793   1.508   6.327
  410SOL    HW2 2130   2.827   1.588   6.465
  411SOL     OW 2131   6.736   3.983   4.892
  411SOL    HW1 2132   6.742   4.083   4.892
  411SOL    HW2 2133   6.640   3.956   4.892
  412SOL     OW 2134   3.553   0.370   2.590
  412SOL    HW1 2135   3.535   0.301   2.660
  412SOL    HW2 2136   3.636   0.421   2.614
  413SOL     OW 2137   2.428   0.373   0.954
  413SOL    HW1 2138   2.469   0.294   1.000
  413SOL    HW2 2139   2.475   0.389   0.867
  414SOL     OW 2140   4.149   3.929   0.605
  414SOL    HW1 2141   4.201   3.934   0.520
  414SOL    HW2 2142   4.211   3.912   0.681
  415SOL     OW 2143   3.079   6.648   2.032
  415SOL    HW1 2144   3.027   6.730   2.011
  415SOL    HW2 2145   3.141   6.627   1.956
  416SOL     OW 2146   3.555   5.945   5.292
  416SOL    HW1 2147   3.461   5.960   5.324
  416SOL    HW2 2148   3.589   5.858   5.329
  417SOL     OW 2149   4.956   6.209   1.057
  417SOL    HW1 2150   4.939   6.123   1.105
  417SOL    HW2 2151   4.982   6.280   1.123
  418SOL     OW 2152   5.547   4.841   0.749
  418SOL    HW1 2153   5.584   4.856   0.841
  418SOL    HW2 2154   5.603   4.890   0.682
  419SOL     OW 2155   5.831   6.396   1.024
  419SOL    HW1 2156   5.874   6.341   1.096
  419SOL    HW2 2157   5.898   6.416   0.952
  420SOL     OW 2158   4.286   3.952   0.122
  420SOL    HW1 2159   4.234   3.886   0.068
  420SOL    HW2 2160   4.377   3.964   0.081
  421SOL     OW 2161   1.747   6.471   6.586
  421SOL    HW1 2162   1.792   6.560   6.600
  421SOL    HW2 2163   1.740   6.423   6.674
  422SOL     OW 2164   5.816   3.412   6.808
  422SOL    HW1 2165   5.877   3.403   6.887
  422SOL    HW2 2166   5.761   3.329   6.799
  423SOL     OW 2167   0.466   2.487   6.586
  423SOL    HW1 2168   0.395   2.469   6.517
  423SOL    HW2 2169   0.556   2.478   6.544
  424SOL     OW 2170   2.081   3.675   0.196
  424SOL    HW1 2171   1.981   3.683   0.187
  424SOL    HW2 2172   2.111   3.730   0.274
  425SOL     OW 2173   3.040   1.186   0.482
  425SOL    HW1 2174   2.994   1.271   0.458
  425SOL    HW2 2175   2.980   1.130   0.539
  426SOL     OW 2176   5.808   4.025   5.340
  426SOL    HW1 2177   5.799   4.009   5.242
  426SOL    HW2 2178   5.860   3.950   5.382
  427SOL     OW 2179   5.265   3.990   1.010
  427SOL    HW1 2180   5.241   3.897   0.983
  427SOL    HW2 2181   5.285   3.992   1.108
  428SOL     OW 2182   3.805   0.967   5.039
  428SOL    HW1 2183   3.856   0.966   5.124
  428SOL    HW2 2184   3.752   1.052   5.032
  429SOL     OW 2185   2.056   5.124   6.441
  429SOL    HW1 2186   2.018   5.115   6.533
  429SOL    HW2 2187   2.078   5.220   6.423
  430SOL     OW 2188   1.219   7.008   4.974
  430SOL    HW1 2189   1.130   0.027   4.961
  430SOL    HW2 2190   1.290   0.052   4.981
  431SOL     OW 2191   3.629   1.954   0.490
  431SOL    HW1 2192   3.611   2.051   0.509
  431SOL    HW2 2193   3.688   1.917   0.561
  432SOL     OW 2194   0.214   1.981   1.366
  432SOL    HW1 2195   0.234   2.035   1.284
  432SOL    HW2 2196   0.299   1.943   1.402
  433SOL     OW 2197   3.653   6.391   5.494
  433SOL    HW1 2198   3.734   6.416   5.548
  433SOL    HW2 2199   3.644   6.292   5.492
  434SOL     OW 2200   0.251   3.596   1.560
  434SOL    HW1 2201   0.215   3.587   1.652
  434SOL    HW2 2202   0.322   3.665   1.558
  435SOL     OW 2203   3.702   4.145   0.403
  435SOL    HW1 2204   3.780   4.082   0.404
  435SOL    HW2 2205   3.617   4.094   0.417
  436SOL     OW 2206   2.162   1.122   6.986
  436SOL    HW1 2207   2.160   1.192   6.914
  436SOL    HW2 2208   2.232   1.055   6.965
  437SOL     OW 2209   0.004   6.945   6.876
  437SOL    HW1 2210   0.001   6.866   6.937
  437SOL    HW2 2211   6.949   6.944   6.816
  438SOL     OW 2212   1.361   2.720   1.907
  438SOL    HW1 2213   1.459   2.721   1.885
  438SOL    HW2 2214   1.349   2.735   2.005
  439SOL     OW 2215   6.833   5.312   3.063
  439SOL    HW1 2216   6.826   5.266   3.152
  439SOL    HW2 2217   6.764   5.385   3.058
  440SOL     OW 2218   0.931   2.857   4.077
  440SOL    HW1 2219   0.884   2.833   3.992
  440SOL    HW2 2220   0.875   2.829   4.155
  441SOL     OW 2221   0.316   1.157   3.798
  441SOL    HW1 2222   0.370   1.124   3.875
  441SOL    HW2 2223   0.366   1.144   3.713
  442SOL     OW 2224   0.117   4.251   0.208
  442SOL    HW1 2225   0.183   4.317   0.246
  442SOL    HW2 2226   0.143   4.159   0.236
  443SOL     OW 2227   0.422   4.520   5.714
  443SOL    HW1 2228   0.455   4.613   5.697
  443SOL    HW2 2229   0.414   4.471   5.627
  444SOL     OW 2230   4.245   3.230   6.198
  444SOL    HW1 2231   4.229   3.155   6.133
  444SOL    HW2 2232   4.161   3.283   6.209
  445SOL     OW 2233   2.226   4.721   3.081
  445SOL    HW1 2234   2.172   4.671   3.012
  445SOL    HW2 2235   2.174   4.801   3.111
  446SOL     OW 2236   4.634   4.804   3.617
  446SOL    HW1 2237   4.678   4.715   3.632
  446SOL    HW2 2238   4.553   4.811   3.676
  447SOL     OW 2239   6.388   5.684   0.775
  447SOL    HW1 2240   6.334   5.758   0.816
  447SOL    HW2 2241   6.430   5.629   0.848
  448SOL     OW 2242   4.316   0.010   5.142
  448SOL    HW1 2243   4.321   0.041   5.237
  448SOL    HW2 2244   4.356   6.944   5.134
  449SOL     OW 2245   5.367   0.163   4.615
  449SOL    HW1 2246   5.291   0.227   4.632
  449SOL    HW2 2247   5.338   0.095   4.548
  450SOL     OW 2248   6.656   6.364   3.767
  450SOL    HW1 2249   6.602   6.442   3.736
  450SOL    HW2 2250   6.747   6.368   3.726
  451SOL     OW 2251   0.533   2.628   3.047
  451SOL    HW1 2252   0.503   2.534   3.065
  451SOL    HW2 2253   0.616   2.626   2.991
  452SOL     OW 2254   7.024   4.911   6.419
  452SOL    HW1 2255   6.979   4.996   6.449
  452SOL    HW2 2256   0.071   4.888   6.484
  453SOL     OW 2257   2.416   1.141   6.098
  453SOL    HW1 2258   2.393   1.049   6.068
  453SOL    HW2 2259   2.495   1.138   6.159
  454SOL     OW 2260   1.028   6.227   0.067
  454SOL    HW1 2261   1.091   6.256   7.019
  454SOL    HW2 2262   1.067   6.149   0.115
  455SOL     OW 2263   5.155   1.004   5.951
  455SOL    HW1 2264   5.062   1.006   5.913
  455SOL    HW2 2265   5.221   1.023   5.878
  456SOL     OW 2266   4.398   5.587   6.076
  456SOL    HW1 2267   4.370   5.554   6.166
  456SOL    HW2 2268   4.350   5.535   6.005
  457SOL     OW 2269   1.922   4.853   2.760
  457SOL    HW1 2270   1.928   4.906   2.675
  457SOL    HW2 2271   1.986   4.776   2.755
  458SOL     OW 2272   6.414   5.441   6.037
  458SOL    HW1 2273   6.417   5.435   6.137
  458SOL    HW2 2274   6.391   5.534   6.010
  459SOL     OW 2275   1.746   0.448   2.818
  459SOL    HW1 2276   1.692   0.510   2.875
  459SOL    HW2 2277   1.702   0.358   2.818
  460SOL     OW 2278   6.288   2.170   3.110
  460SOL    HW1 2279   6.289   2.103   3.036
  460SOL    HW2 2280   6.380   2.207   3.122
  461SOL     OW 2281   4.754   6.119   5.296
  461SOL    HW1 2282   4.826   6.170   5.248
  461SOL    HW2 2283   4.724   6.171   5.376
  462SOL     OW 2284   2.950   2.980   6.352
  462SOL    HW1 2285   2.873   3.043   6.350
  462SOL    HW2 2286   2.973   2.952   6.259
  463SOL     OW 2287   6.597   5.265   2.232
  463SOL    HW1 2288   6.554   5.257   2.322
  463SOL    HW2 2289   6.692   5.296   2.244
  464SOL     OW 2290   2.392   1.315   5.391
  464SOL    HW1 2291   2.408   1.329   5.293
  464SOL    HW2 2292   2.396   1.217   5.411
  465SOL     OW 2293   6.527   2.404   4.130
  465SOL    HW1 2294   6.456   2.466   4.096
  465SOL    HW2 2295   6.574   2.362   4.052
  466SOL     OW 2296   1.298   6.834   3.755
  466SOL    HW1 2297   1.255   6.836   3.845
  466SOL    HW2 2298   1.228   6.850   3.685
  467SOL     OW 2299   1.604   0.599   5.231
  467SOL    HW1 2300   1.624   0.503   5.248
  467SOL    HW2 2301   1.605   0.649   5.317
  468SOL     OW 2302   3.665   4.968   1.096
  468SOL    HW1 2303   3.625   5.029   1.027
  468SOL    HW2 2304   3.699   4.886   1.052
  469SOL     OW 2305   1.959   5.619   6.765
  469SOL    HW1 2306   1.995   5.537   6.720
  469SOL    HW2 2307   1.865   5.602   6.796
  470SOL     OW 2308   3.775   0.506   2.672
  470SOL    HW1 2309   3.809   0.568   2.602
  470SOL    HW2 2310   3.819   0.416   2.661
  471SOL     OW 2311   2.180   2.577   4.708
  471SOL    HW1 2312   2.164   2.479   4.711
  471SOL    HW2 2313   2.275   2.595   4.682
  472SOL     OW 2314   3.995   4.688   5.686
  472SOL    HW1 2315   3.934   4.768   5.685
  472SOL    HW2 2316   4.089   4.719   5.703
  473SOL     OW 2317   1.264   3.444   2.879
  473SOL    HW1 2318   1.191   3.502   2.842
  473SOL    HW2 2319   1.323   3.499   2.938
  474SOL     OW 2320   4.277   5.146   4.412
  474SOL    HW1 2321   4.341   5.165   4.487
  474SOL    HW2 2322   4.288   5.215   4.341
  475SOL     OW 2323   0.491   6.684   6.092
  475SOL    HW1 2324   0.532   6.607   6.141
  475SOL    HW2 2325   0.396   6.664   6.071
  476SOL     OW 2326   6.820   4.341   2.322
  476SOL    HW1 2327   6.918   4.330   2.303
  476SOL    HW2 2328   6.807   4.391   2.408
  477SOL     OW 2329   1.851   5.255   3.675
  477SOL    HW1 2330   1.872   5.314   3.598
  477SOL    HW2 2331   1.752   5.242   3.681
  478SOL     OW 2332   2.805   5.018   3.314
  478SOL    HW1 2333   2.733   5.036   3.247
  478SOL    HW2 2334   2.837   4.924   3.304
  479SOL     OW 2335   3.920   2.534   0.597
  479SOL    HW1 2336   3.898   2.624   0.560
  479SOL    HW2 2337   4.019   2.520   0.594
  480SOL     OW 2338   1.040   6.966   2.601
  480SOL    HW1 2339   1.127   6.978   2.552
  480SOL    HW2 2340   0.967   6.952   2.534
  481SOL     OW 2341   4.089   0.207   1.489
  481SOL    HW1 2342   4.000   0.172   1.459
  481SOL    HW2 2343   4.148   0.220   1.409
  482SOL     OW 2344   5.347   4.324   2.008
  482SOL    HW1 2345   5.384   4.247   1.956
  482SOL    HW2 2346   5.266   4.294   2.058
  483SOL     OW 2347   5.455   1.797   1.669
  483SOL    HW1 2348   5.379   1.762   1.613
  483SOL    HW2 2349   5.540   1.791   1.617
  484SOL     OW 2350   0.146   2.362   4.237
  484SOL    HW1 2351   0.059   2.366   4.187
  484SOL    HW2 2352   0.202   2.289   4.199
  485SOL     OW 2353   3.745   4.938   2.117
  485SOL    HW1 2354   3.700   4.874   2.055
  485SOL    HW2 2355   3.693   5.024   2.121
  486SOL     OW 2356   0.287   0.274   0.780
  486SOL    HW1 2357   0.305   0.190   0.831
  486SOL    HW2 2358   0.191   0.299   0.790
  487SOL     OW 2359   0.103   2.443   6.947
  487SOL    HW1 2360   0.084   2.538   6.969
  487SOL    HW2 2361   0.062   2.384   7.016
  488SOL     OW 2362   0.370   2.264   2.321
  488SOL    HW1 2363   0.357   2.363   2.327
  488SOL    HW2 2364   0.295   2.218   2.369
  489SOL     OW 2365   3.264   5.769   6.495
  489SOL    HW1 2366   3.213   5.702   6.548
  489SOL    HW2 2367   3.221   5.780   6.405
  490SOL     OW 2368   5.759   6.380   4.663
  490SOL    HW1 2369   5.760   6.287   4.626
  490SOL    HW2 2370   5.664   6.412   4.669
  491SOL     OW 2371   0.782   2.654   2.701
  491SOL    HW1 2372   0.874   2.694   2.698
  491SOL    HW2 2373   0.787   2.556   2.683
  492SOL     OW 2374   2.104   0.345   5.564
  492SOL    HW1 2375   2.188   0.379   5.521
  492SOL    HW2 2376   2.075   0.260   5.518
  493SOL     OW 2377   6.810   4.461   5.293
  493SOL    HW1 2378   6.760   4.390   5.343
  493SOL    HW2 2379   6.820   4.433   5.197
  494SOL     OW 2380   7.008   0.300   0.772
  494SOL    HW1 2381   6.952   0.279   0.852
  494SOL    HW2 2382   6.952   0.348   0.704
  495SOL     OW 2383   4.836   4.449   1.497
  495SOL    HW1 2384   4.860   4.428   1.402
  495SOL    HW2 2385   4.892   4.525   1.530
  496SOL     OW 2386   6.094   3.134   3.324
  496SOL    HW1 2387   6.103   3.148   3.225
  496SOL    HW2 2388   5.997   3.131   3.349
  497SOL     OW 2389   3.840   0.784   4.850
  497SOL    HW1 2390   3.925   0.740   4.877
  497SOL    HW2 2391   3.811   0.847   4.921
  498SOL     OW 2392   0.787   2.986   2.647
  498SOL    HW1 2393   0.884   3.002   2.663
  498SOL    HW2 2394   0.764   2.892   2.673
  499SOL     OW 2395   3.505   0.845   5.002
  499SOL    HW1 2396   3.405   0.844   4.993
  499SOL    HW2 2397   3.543   0.913   4.939
  500SOL     OW 2398   0.880   4.035   2.492
  500SOL    HW1 2399   0.871   4.072   2.585
  500SOL    HW2 2400   0.959   3.973   2.489
  501SOL     OW 2401   1.318   3.113   6.675
  501SOL    HW1 2402   1.359   3.201   6.701
  501SOL    HW2 2403   1.316   3.106   6.575
  502SOL     OW 2404   3.779   5.019   0.025
  502SOL    HW1 2405   3.778   4.927   0.065
  502SOL    HW2 2406   3.795   5.013   6.952
  503SOL     OW 2407   5.831   4.885   5.546
  503SOL    HW1 2408   5.891   4.888   5.466
  503SOL    HW2 2409   5.780   4.971   5.552
  504SOL     OW 2410   2.259   6.123   4.383
  504SOL    HW1 2411   2.164   6.155   4.384
  504SOL    HW2 2412   2.287   6.098   4.476
  505SOL     OW 2413   4.116   0.328   6.073
  505SOL    HW1 2414   4.093   0.424   6.057
  505SOL    HW2 2415   4.205   0.323   6.118
  506SOL     OW 2416   2.205   4.316   6.114
  506SOL    HW1 2417   2.152   4.341   6.033
  506SOL    HW2 2418   2.175   4.371   6.192
  507SOL     OW 2419   3.664   1.274   4.323
  507SOL    HW1 2420   3.745   1.331   4.317
  507SOL    HW2 2421   3.679   1.200   4.388
  508SOL     OW 2422   6.690   3.774   3.626
  508SOL    HW1 2423   6.597   3.806   3.639
  508SOL    HW2 2424   6.724   3.732   3.710
  509SOL     OW 2425   4.423   1.942   1.789
  509SOL    HW1 2426   4.435   2.034   1.752
  509SOL    HW2 2427   4.346   1.898   1.743
  510SOL     OW 2428   0.135   4.134   4.605
  510SOL    HW1 2429   0.164   4.175   4.518
  510SOL    HW2 2430   0.044   4.096   4.596
  511SOL     OW 2431   0.573   7.008   0.634
  511SOL    HW1 2432   0.494   0.005   0.576
  511SOL    HW2 2433   0.627   0.065   0.650
  512SOL     OW 2434   0.810   3.725   6.274
  512SOL    HW1 2435   0.907   3.702   6.263
  512SOL    HW2 2436   0.785   3.720   6.370
  513SOL     OW 2437   6.115   6.260   5.003
  513SOL    HW1 2438   6.131   6.218   4.914
  513SOL    HW2 2439   6.041   6.327   4.996
  514SOL     OW 2440   5.886   1.730   3.836
  514SOL    HW1 2441   5.948   1.796   3.879
  514SOL    HW2 2442   5.861   1.763   3.744
  515SOL     OW 2443   2.077   6.343   6.646
  515SOL    HW1 2444   2.038   6.280   6.580
  515SOL    HW2 2445   2.029   6.335   6.733
  516SOL     OW 2446   2.195   5.198   1.967
  516SOL    HW1 2447   2.174   5.102   1.949
  516SOL    HW2 2448   2.278   5.225   1.918
  517SOL     OW 2449   4.498   6.978   0.596
  517SOL    HW1 2450   4.412   0.001   0.578
  517SOL    HW2 2451   4.560   0.012   0.647
  518SOL     OW 2452   2.857   2.461   1.303
  518SOL    HW1 2453   2.919   2.420   1.369
  518SOL    HW2 2454   2.857   2.407   1.219
  519SOL     OW 2455   1.088   6.613   6.909
  519SOL    HW1 2456   1.009   6.586   6.854
  519SOL    HW2 2457   1.066   6.603   7.006
  520SOL     OW 2458   5.510   4.621   5.420
  520SOL    HW1 2459   5.566   4.629   5.502
  520SOL    HW2 2460   5.549   4.552   5.359
  521SOL     OW 2461   6.827   1.567   0.529
  521SOL    HW1 2462   6.763   1.641   0.507
  521SOL    HW2 2463   6.842   1.565   0.628
  522SOL     OW 2464   3.934   3.485   4.159
  522SOL    HW1 2465   3.856   3.502   4.219
  522SOL    HW2 2466   3.992   3.415   4.199
  523SOL     OW 2467   6.974   6.651   4.897
  523SOL    HW1 2468   0.004   6.643   4.814
  523SOL    HW2 2469   6.900   6.717   4.882
  524SOL     OW 2470   2.617   0.548   5.713
  524SOL    HW1 2471   2.617   0.642   5.680
  524SOL    HW2 2472   2.561   0.541   5.795
  525SOL     OW 2473   2.605   3.387   0.108
  525SOL    HW1 2474   2.694   3.352   0.138
  525SOL    HW2 2475   2.614   3.429   0.018
  526SOL     OW 2476   3.324   5.753   4.998
  526SOL    HW1 2477   3.267   5.680   4.959
  526SOL    HW2 2478   3.420   5.726   4.991
  527SOL     OW 2479   0.381   1.161   6.556
  527SOL    HW1 2480   0.466   1.213   6.551
  527SOL    HW2 2481   0.395   1.079   6.612
  528SOL     OW 2482   2.420   1.033   5.428
  528SOL    HW1 2483   2.370   1.042   5.514
  528SOL    HW2 2484   2.380   0.961   5.372
  529SOL     OW 2485   0.302   5.257   4.179
  529SOL    HW1 2486   0.329   5.161   4.180
  529SOL    HW2 2487   0.374   5.312   4.221
  530SOL     OW 2488   2.285   2.977   5.305
  530SOL    HW1 2489   2.223   3.014   5.235
  530SOL    HW2 2490   2.378   2.976   5.269
  531SOL     OW 2491   0.679   0.521   1.301
  531SOL    HW1 2492   0.590   0.538   1.343
  531SOL    HW2 2493   0.670   0.450   1.231
  532SOL     OW 2494   1.340   1.224   5.803
  532SOL    HW1 2495   1.305   1.316   5.785
  532SOL    HW2 2496   1.373   1.218   5.897
  533SOL     OW 2497   5.816   0.234   4.285
  533SOL    HW1 2498   5.738   0.212   4.344
  533SOL    HW2 2499   5.901   0.213   4.333
  534SOL     OW 2500   4.490   5.227   2.214
  534SOL    HW1 2501   4.421   5.200   2.281
  534SOL    HW2 2502   4.582   5.210   2.251
  535SOL     OW 2503   0.249   3.846   3.358
  535SOL    HW1 2504   0.211   3.761   3.394
  535SOL    HW2 2505   0.187   3.921   3.378
  536SOL     OW 2506   1.549   5.428   0.994
  536SOL    HW1 2507   1.620   5.489   1.029
  536SOL    HW2 2508   1.477   5.483   0.950
  537SOL     OW 2509   2.467   6.967   2.335
  537SOL    HW1 2510   2.511   0.032   2.330
  537SOL    HW2 2511   2.535   6.898   2.362
  538SOL     OW 2512   0.844   6.045   3.667
  538SOL    HW1 2513   0.776   6.027   3.597
  538SOL    HW2 2514   0.936   6.043   3.626
  539SOL     OW 2515   1.707   4.688   1.809
  539SOL    HW1 2516   1.648   4.755   1.853
  539SOL    HW2 2517   1.678   4.676   1.714
  540SOL     OW 2518   1.242   2.342   2.031
  540SOL    HW1 2519   1.171   2.278   2.057
  540SOL    HW2 2520   1.238   2.423   2.090
  541SOL     OW 2521   2.935   5.583   5.876
  541SOL    HW1 2522   3.002   5.646   5.835
  541SOL    HW2 2523   2.916   5.509   5.812
  542SOL     OW 2524   5.825   5.441   6.654
  542SOL    HW1 2525   5.893   5.492   6.602
  542SOL    HW2 2526   5.841   5.454   6.752
  543SOL     OW 2527   0.767   5.399   6.989
  543SOL    HW1 2528   0.730   5.454   6.915
  543SOL    HW2 2529   0.695   5.338   7.024
  544SOL     OW 2530   1.164   5.221   0.842
  544SOL    HW1 2531   1.077   5.174   0.852
  544SOL    HW2 2532   1.234   5.176   0.898
  545SOL     OW 2533   3.961   1.577   2.711
  545SOL    HW1 2534   3.982   1.671   2.737
  545SOL    HW2 2535   3.863   1.568   2.694
  546SOL     OW 2536   1.166   4.208   0.099
  546SOL    HW1 2537   1.133   4.241   0.011
  546SOL    HW2 2538   1.200   4.115   0.089
  547SOL     OW 2539   3.055   3.048   0.287
  547SOL    HW1 2540   2.976   3.102   0.313
  547SOL    HW2 2541   3.073   3.061   0.189
  548SOL     OW 2542   3.516   2.843   3.966
  548SOL    HW1 2543   3.526   2.789   3.883
  548SOL    HW2 2544   3.456   2.794   4.030
  549SOL     OW 2545   5.968   3.548   1.523
  549SOL    HW1 2546   6.047   3.565   1.582
  549SOL    HW2 2547   5.885   3.550   1.578
  550SOL     OW 2548   0.711   4.186   2.118
  550SOL    HW1 2549   0.638   4.246   2.150
  550SOL    HW2 2550   0.722   4.195   2.019
  551SOL     OW 2551   6.576   2.470   0.351
  551SOL    HW1 2552   6.547   2.467   0.447
  551SOL    HW2 2553   6.528   2.398   0.300
  552SOL     OW 2554   4.077   5.981   0.193
  552SOL    HW1 2555   4.138   5.902   0.202
  552SOL    HW2 2556   4.013   5.965   0.118
  553SOL     OW 2557   1.590   1.686   1.782
  553SOL    HW1 2558   1.657   1.660   1.713
  553SOL    HW2 2559   1.588   1.785   1.792
  554SOL     OW 2560   5.118   6.299   5.064
  554SOL    HW1 2561   5.167   6.297   5.151
  554SOL    HW2 2562   5.020   6.292   5.081
  555SOL     OW 2563   1.441   4.340   4.761
  555SOL    HW1 2564   1.396   4.327   4.849
  555SOL    HW2 2565   1.422   4.261   4.702
  556SOL     OW 2566   5.040   3.181   3.959
  556SOL    HW1 2567   5.107   3.190   4.032
  556SOL    HW2 2568   4.948   3.182   3.999
  557SOL     OW 2569   0.472   6.284   6.236
  557SOL    HW1 2570   0.447   6.358   6.299
  557SOL    HW2 2571   0.551   6.235   6.273
  558SOL     OW 2572   3.876   4.119   5.144
  558SOL    HW1 2573   3.949   4.136   5.211
  558SOL    HW2 2574   3.790   4.104   5.192
  559SOL     OW 2575   6.279   5.847   6.225
  559SOL    HW1 2576   6.187   5.837   6.188
  559SOL    HW2 2577   6.339   5.777   6.185
  560SOL     OW 2578   4.284   6.913   0.344
  560SOL    HW1 2579   4.192   6.918   0.382
  560SOL    HW2 2580   4.324   6.824   0.365
  561SOL     OW 2581   5.574   6.924   0.762
  561SOL    HW1 2582   5.543   6.988   0.692
  561SOL    HW2 2583   5.510   6.925   0.839
  562SOL     OW 2584   5.883   1.683   5.591
  562SOL    HW1 2585   5.804   1.652   5.537
  562SOL    HW2 2586   5.966   1.642   5.555
  563SOL     OW 2587   2.974   6.396   4.094
  563SOL    HW1 2588   2.950   6.470   4.157
  563SOL    HW2 2589   2.959   6.427   4.000
  564SOL     OW 2590   1.134   0.986   6.442
  564SOL    HW1 2591   1.215   0.936   6.472
  564SOL    HW2 2592   1.069   0.924   6.399
  565SOL     OW 2593   4.850   3.951   4.868
  565SOL    HW1 2594   4.840   3.914   4.776
  565SOL    HW2 2595   4.878   4.047   4.862
  566SOL     OW 2596   5.151   4.780   2.846
  566SOL    HW1 2597   5.073   4.838   2.818
  566SOL    HW2 2598   5.125   4.725   2.925
  567SOL     OW 2599   3.471   2.954   4.446
  567SOL    HW1 2600   3.385   2.932   4.399
  567SOL    HW2 2601   3.458   2.945   4.545
  568SOL     OW 2602   2.383   1.917   0.132
  568SOL    HW1 2603   2.448   1.957   0.196
  568SOL    HW2 2604   2.333   1.843   0.176
  569SOL     OW 2605   2.455   2.809   0.456
  569SOL    HW1 2606   2.434   2.784   0.361
  569SOL    HW2 2607   2.382   2.867   0.493
  570SOL     OW 2608   6.361   5.962   1.143
  570SOL    HW1 2609   6.331   6.020   1.220
  570SOL    HW2 2610   6.444   5.913   1.168
  571SOL     OW 2611   4.242   5.387   3.357
  571SOL    HW1 2612   4.155   5.430   3.379
  571SOL    HW2 2613   4.317   5.445   3.390
  572SOL     OW 2614   1.742   3.759   5.061
  572SOL    HW1 2615   1.756   3.686   5.128
  572SOL    HW2 2616   1.687   3.724   4.985
  573SOL     OW 2617   3.832   2.145   6.195
  573SOL    HW1 2618   3.876   2.212   6.135
  573SOL    HW2 2619   3.784   2.193   6.268
  574SOL     OW 2620   2.413   1.712   4.241
  574SOL    HW1 2621   2.396   1.808   4.260
  574SOL    HW2 2622   2.388   1.657   4.320
  575SOL     OW 2623   5.589   2.473   6.892
  575SOL    HW1 2624   5.533   2.512   6.965
  575SOL    HW2 2625   5.569   2.520   6.806
  576SOL     OW 2626   0.380   2.129   2.870
  576SOL    HW1 2627   0.305   2.175   2.821
  576SOL    HW2 2628   0.448   2.097   2.804
  577SOL     OW 2629   3.072   1.700   3.310
  577SOL    HW1 2630   3.073   1.611   3.265
  577SOL    HW2 2631   3.133   1.762   3.262
  578SOL     OW 2632   0.020   3.273   3.590
  578SOL    HW1 2633   6.997   3.200   3.639
  578SOL    HW2 2634   7.015   3.362   3.625
  579SOL     OW 2635   4.378   3.287   6.772
  579SOL    HW1 2636   4.435   3.310   6.693
  579SOL    HW2 2637   4.433   3.238   6.840
  580SOL     OW 2638   0.793   5.912   0.277
  580SOL    HW1 2639   0.787   5.897   0.178
  580SOL    HW2 2640   0.722   5.976   0.305
  581SOL     OW 2641   3.892   3.996   2.760
  581SOL    HW1 2642   3.825   4.038   2.699
  581SOL    HW2 2643   3.870   4.019   2.855
  582SOL     OW 2644   6.140   3.794   1.900
  582SOL    HW1 2645   6.137   3.818   1.803
  582SOL    HW2 2646   6.200   3.858   1.948
  583SOL     OW 2647   1.925   4.707   0.105
  583SOL    HW1 2648   1.840   4.690   0.055
  583SOL    HW2 2649   1.985   4.765   0.050
  584SOL     OW 2650   0.178   5.401   4.541
  584SOL    HW1 2651   0.258   5.373   4.593
  584SOL    HW2 2652   0.096   5.385   4.595
  585SOL     OW 2653   0.120   1.496   6.821
  585SOL    HW1 2654   0.218   1.476   6.817
  585SOL    HW2 2655   0.105   1.582   6.870
  586SOL     OW 2656   2.858   6.430   0.950
  586SOL    HW1 2657   2.906   6.363   1.006
  586SOL    HW2 2658   2.762   6.402   0.938
  587SOL     OW 2659   1.064   2.971   5.308
  587SOL    HW1 2660   1.137   2.908   5.281
  587SOL    HW2 2661   0.977   2.936   5.273
  588SOL     OW 2662   3.426   0.031   1.662
  588SOL    HW1 2663   3.467   0.122   1.658
  588SOL    HW2 2664   3.494   6.990   1.697
  589SOL     OW 2665   4.726   5.228   2.386
  589SOL    HW1 2666   4.751   5.316   2.346
  589SOL    HW2 2667   4.708   5.239   2.484
  590SOL     OW 2668   6.789   2.342   1.720
  590SOL    HW1 2669   6.710   2.280   1.719
  590SOL    HW2 2670   6.869   2.294   1.686
  591SOL     OW 2671   3.629   6.769   3.084
  591SOL    HW1 2672   3.703   6.748   3.148
  591SOL    HW2 2673   3.664   6.765   2.990
  592SOL     OW 2674   5.611   0.763   0.137
  592SOL    HW1 2675   5.657   0.683   0.175
  592SOL    HW2 2676   5.583   0.744   0.043
  593SOL     OW 2677   5.528   1.646   3.781
  593SOL    HW1 2678   5.534   1.729   3.836
  593SOL    HW2 2679   5.440   1.644   3.734
  594SOL     OW 2680   4.566   2.752   1.237
  594SOL    HW1 2681   4.467   2.736   1.227
  594SOL    HW2 2682   4.582   2.810   1.316
  595SOL     OW 2683   3.372   6.668   3.965
  595SOL    HW1 2684   3.414   6.623   4.043
  595SOL    HW2 2685   3.274   6.676   3.979
  596SOL     OW 2686   1.143   4.959   2.581
  596SOL    HW1 2687   1.096   5.041   2.550
  596SOL    HW2 2688   1.200   4.923   2.507
  597SOL     OW 2689   3.958   2.095   5.771
  597SOL    HW1 2690   3.889   2.167   5.778
  597SOL    HW2 2691   3.945   2.028   5.844
  598SOL     OW 2692   3.031   4.429   0.872
  598SOL    HW1 2693   3.008   4.359   0.804
  598SOL    HW2 2694   3.127   4.419   0.899
  599SOL     OW 2695   6.774   6.463   2.451
  599SOL    HW1 2696   6.770   6.364   2.441
  599SOL    HW2 2697   6.822   6.502   2.372
  600SOL     OW 2698   2.621   0.363   0.278
  600SOL    HW1 2699   2.665   0.347   0.367
  600SOL    HW2 2700   2.525   0.333   0.282
  601SOL     OW 2701   3.047   5.182   3.667
  601SOL    HW1 2702   3.063   5.097   3.717
  601SOL    HW2 2703   3.128   5.204   3.612
  602SOL     OW 2704   1.314   1.054   1.266
  602SOL    HW1 2705   1.366   1.011   1.340
  602SOL    HW2 2706   1.338   1.011   1.179
  603SOL     OW 2707   3.882   2.181   3.269
  603SOL    HW1 2708   3.946   2.235   3.215
  603SOL    HW2 2709   3.886   2.086   3.238
  604SOL     OW 2710   0.444   4.122   5.800
  604SOL    HW1 2711   0.469   4.172   5.717
  604SOL    HW2 2712   0.350   4.145   5.826
  605SOL     OW 2713   5.866   0.340   4.728
  605SOL    HW1 2714   5.939   0.408   4.720
  605SOL    HW2 2715   5.904   0.248   4.726
  606SOL     OW 2716   3.551   0.229   3.277
  606SOL    HW1 2717   3.594   0.274   3.198
  606SOL    HW2 2718   3.593   0.263   3.361
  607SOL     OW 2719   4.563   0.893   4.263
  607SOL    HW1 2720   4.600   0.906   4.171
  607SOL    HW2 2721   4.510   0.808   4.266
  608SOL     OW 2722   4.742   1.382   1.305
  608SOL    HW1 2723   4.764   1.395   1.208
  608SOL    HW2 2724   4.744   1.471   1.352
  609SOL     OW 2725   3.288   3.850   4.311
  609SOL    HW1 2726   3.361   3.903   4.355
  609SOL    HW2 2727   3.327   3.776   4.258
  610SOL     OW 2728   4.855   2.350   4.553
  610SOL    HW1 2729   4.894   2.332   4.643
  610SOL    HW2 2730   4.779   2.287   4.537
  611SOL     OW 2731   0.497   0.124   1.104
  611SOL    HW1 2732   0.508   0.039   1.157
  611SOL    HW2 2733   0.409   0.166   1.127
  612SOL     OW 2734   3.443   5.784   5.645
  612SOL    HW1 2735   3.368   5.735   5.600
  612SOL    HW2 2736   3.427   5.883   5.638
  613SOL     OW 2737   3.576   2.316   6.683
  613SOL    HW1 2738   3.640   2.262   6.738
  613SOL    HW2 2739   3.497   2.259   6.660
  614SOL     OW 2740   4.895   4.431   1.200
  614SOL    HW1 2741   4.971   4.388   1.151
  614SOL    HW2 2742   4.905   4.530   1.196
  615SOL     OW 2743   6.166   6.653   0.962
  615SOL    HW1 2744   6.114   6.568   0.951
  615SOL    HW2 2745   6.104   6.730   0.975
  616SOL     OW 2746   5.640   1.355   4.960
  616SOL    HW1 2747   5.603   1.282   5.017
  616SOL    HW2 2748   5.731   1.330   4.927
  617SOL     OW 2749   0.017   5.056   5.597
  617SOL    HW1 2750   0.110   5.058   5.562
  617SOL    HW2 2751   0.018   5.048   5.697
  618SOL     OW 2752   6.416   3.765   0.764
  618SOL    HW1 2753   6.391   3.862   0.771
  618SOL    HW2 2754   6.493   3.754   0.701
  619SOL     OW 2755   2.812   0.690   6.065
  619SOL    HW1 2756   2.856   0.652   5.984
  619SOL    HW2 2757   2.738   0.629   6.095
  620SOL     OW 2758   6.088   1.804   2.282
  620SOL    HW1 2759   6.136   1.868   2.222
  620SOL    HW2 2760   6.155   1.749   2.332
  621SOL     OW 2761   2.886   1.065   6.806
  621SOL    HW1 2762   2.867   1.071   6.708
  621SOL    HW2 2763   2.814   1.011   6.850
  622SOL     OW 2764   1.372   1.909   4.942
  622SOL    HW1 2765   1.462   1.906   4.985
  622SOL    HW2 2766   1.349   2.004   4.918
  623SOL     OW 2767   6.005   0.335   3.800
  623SOL    HW1 2768   5.988   0.318   3.898
  623SOL    HW2 2769   5.950   0.412   3.770
  624SOL     OW 2770   6.677   0.758   6.387
  624SOL    HW1 2771   6.623   0.703   6.451
  624SOL    HW2 2772   6.669   0.719   6.295
  625SOL     OW 2773   2.495   1.929   0.697
  625SOL    HW1 2774   2.585   1.908   0.736
  625SOL    HW2 2775   2.503   2.007   0.635
  626SOL     OW 2776   6.679   5.624   4.108
  626SOL    HW1 2777   6.654   5.600   4.202
  626SOL    HW2 2778   6.678   5.541   4.052
  627SOL     OW 2779   6.490   0.412   0.330
  627SOL    HW1 2780   6.425   0.347   0.368
  627SOL    HW2 2781   6.492   0.495   0.387
  628SOL     OW 2782   4.263   4.287   5.990
  628SOL    HW1 2783   4.214   4.361   6.037
  628SOL    HW2 2784   4.353   4.320   5.961
  629SOL     OW 2785   1.457   6.778   6.424
  629SOL    HW1 2786   1.384   6.842   6.400
  629SOL    HW2 2787   1.427   6.685   6.406
  630SOL     OW 2788   6.211   1.282   1.571
  630SOL    HW1 2789   6.168   1.191   1.566
  630SOL    HW2 2790   6.306   1.272   1.598
  631SOL     OW 2791   1.794   2.966   3.688
  631SOL    HW1 2792   1.763   3.055   3.654
  631SOL    HW2 2793   1.767   2.894   3.623
  632SOL     OW 2794   3.791   4.051   6.753
  632SOL    HW1 2795   3.786   3.971   6.693
  632SOL    HW2 2796   3.858   4.115   6.717
  633SOL     OW 2797   1.671   6.238   1.637
  633SOL    HW1 2798   1.726   6.191   1.568
  633SOL    HW2 2799   1.585   6.189   1.651
  634SOL     OW 2800   3.149   3.003   4.771
  634SOL    HW1 2801   3.113   2.961   4.854
  634SOL    HW2 2802   3.234   2.956   4.745
  635SOL     OW 2803   5.590   0.475   6.632
  635SOL    HW1 2804   5.542   0.428   6.706
  635SOL    HW2 2805   5.531   0.546   6.593
  636SOL     OW 2806   2.825   0.383   5.767
  636SOL    HW1 2807   2.774   0.302   5.797
  636SOL    HW2 2808   2.761   0.451   5.732
  637SOL     OW 2809   6.544   0.330   2.693
  637SOL    HW1 2810   6.617   0.396   2.712
  637SOL    HW2 2811   6.574   0.238   2.720
  638SOL     OW 2812   6.912   3.425   4.571
  638SOL    HW1 2813   6.897   3.376   4.657
  638SOL    HW2 2814   7.008   3.452   4.564
  639SOL     OW 2815   5.293   4.633   2.179
  639SOL    HW1 2816   5.374   4.611   2.126
  639SOL    HW2 2817   5.297   4.587   2.268
  640SOL     OW 2818   0.307   2.401   1.801
  640SOL    HW1 2819   0.209   2.393   1.822
  640SOL    HW2 2820   0.357   2.421   1.885
  641SOL     OW 2821   2.066   4.966   4.389
  641SOL    HW1 2822   2.106   4.879   4.417
  641SOL    HW2 2823   2.087   5.036   4.458
  642SOL     OW 2824   1.001   4.100   4.887
  642SOL    HW1 2825   0.979   4.184   4.837
  642SOL    HW2 2826   1.078   4.054   4.843
  643SOL     OW 2827   4.911   5.229   0.778
  643SOL    HW1 2828   4.939   5.138   0.748
  643SOL    HW2 2829   4.963   5.256   0.858
  644SOL     OW 2830   0.062   6.917   5.131
  644SOL    HW1 2831   0.104   6.826   5.135
  644SOL    HW2 2832   7.018   6.919   5.058
  645SOL     OW 2833   4.032   5.270   2.376
  645SOL    HW1 2834   3.938   5.278   2.343
  645SOL    HW2 2835   4.088   5.341   2.333
  646SOL     OW 2836   3.844   1.907   4.693
  646SOL    HW1 2837   3.762   1.963   4.680
  646SOL    HW2 2838   3.819   1.819   4.733
  647SOL     OW 2839   4.089   2.401   5.772
  647SOL    HW1 2840   4.099   2.302   5.761
  647SOL    HW2 2841   4.003   2.421   5.819
  648SOL     OW 2842   6.063   1.286   2.954
  648SOL    HW1 2843   6.154   1.252   2.929
  648SOL    HW2 2844   6.044   1.370   2.904
  649SOL     OW 2845   2.011   5.583   0.380
  649SOL    HW1 2846   2.102   5.548   0.403
  649SOL    HW2 2847   1.953   5.583   0.461
  650SOL     OW 2848   0.157   3.930   1.028
  650SOL    HW1 2849   0.214   3.912   1.109
  650SOL    HW2 2850   0.215   3.963   0.954
  651SOL     OW 2851   1.210   0.626   4.439
  651SOL    HW1 2852   1.187   0.702   4.378
  651SOL    HW2 2853   1.175   0.646   4.531
  652SOL     OW 2854   3.773   6.473   1.937
  652SOL    HW1 2855   3.708   6.548   1.944
  652SOL    HW2 2856   3.724   6.386   1.940
  653SOL     OW 2857   1.152   0.403   2.053
  653SOL    HW1 2858   1.077   0.458   2.091
  653SOL    HW2 2859   1.180   0.334   2.120
  654SOL     OW 2860   0.299   6.788   5.019
  654SOL    HW1 2861   0.289   6.693   4.988
  654SOL    HW2 2862   0.267   6.849   4.946
  655SOL     OW 2863   0.360   4.101   1.913
  655SOL    HW1 2864   0.284   4.041   1.887
  655SOL    HW2 2865   0.446   4.063   1.881
  656SOL     OW 2866   3.718   6.060   0.252
  656SOL    HW1 2867   3.751   6.009   0.331
  656SOL    HW2 2868   3.620   6.075   0.261
  657SOL     OW 2869   3.830   3.352   2.706
  657SOL    HW1 2870   3.859   3.401   2.624
  657SOL    HW2 2871   3.882   3.267   2.715
  658SOL     OW 2872   1.658   1.598   5.165
  658SOL    HW1 2873   1.624   1.523   5.108
  658SOL    HW2 2874   1.704   1.560   5.245
  659SOL     OW 2875   1.722   5.935   6.132
  659SOL    HW1 2876   1.744   5.971   6.222
  659SOL    HW2 2877   1.652   5.991   6.088
  660SOL     OW 2878   4.772   4.669   2.988
  660SOL    HW1 2879   4.731   4.634   2.904
  660SOL    HW2 2880   4.719   4.748   3.019
  661SOL     OW 2881   4.713   4.223   4.601
  661SOL    HW1 2882   4.809   4.202   4.621
  661SOL    HW2 2883   4.656   4.194   4.677
  662SOL     OW 2884   5.188   3.185   6.610
  662SOL    HW1 2885   5.211   3.121   6.537
  662SOL    HW2 2886   5.091   3.175   6.633
  663SOL     OW 2887   6.889   4.142   6.995
  663SOL    HW1 2888   6.963   4.112   0.030
  663SOL    HW2 2889   6.857   4.065   6.940
  664SOL     OW 2890   1.830   6.810   6.886
  664SOL    HW1 2891   1.821   6.773   6.793
  664SOL    HW2 2892   1.922   6.792   6.920
  665SOL     OW 2893   3.449   5.055   1.296
  665SOL    HW1 2894   3.481   5.079   1.387
  665SOL    HW2 2895   3.526   5.026   1.239
  666SOL     OW 2896   2.921   0.889   0.323
  666SOL    HW1 2897   2.875   0.890   0.234
  666SOL    HW2 2898   2.996   0.956   0.322
  667SOL     OW 2899   0.818   3.610   3.649
  667SOL    HW1 2900   0.828   3.522   3.695
  667SOL    HW2 2901   0.848   3.600   3.553
  668SOL     OW 2902   5.410   0.075   0.607
  668SOL    HW1 2903   5.341   0.059   0.536
  668SOL    HW2 2904   5.368   0.116   0.687
  669SOL     OW 2905   2.069   6.213   2.855
  669SOL    HW1 2906   2.054   6.119   2.828
  669SOL    HW2 2907   1.981   6.261   2.862
  670SOL     OW 2908   3.689   2.942   3.171
  670SOL    HW1 2909   3.630   2.948   3.091
  670SOL    HW2 2910   3.785   2.940   3.141
  671SOL     OW 2911   1.035   0.023   6.451
  671SOL    HW1 2912   1.016   0.081   6.531
  671SOL    HW2 2913   0.995   0.065   6.370
  672SOL     OW 2914   2.485   1.815   3.785
  672SOL    HW1 2915   2.454   1.755   3.858
  672SOL    HW2 2916   2.541   1.763   3.720
  673SOL     OW 2917   5.687   6.469   0.577
  673SOL    HW1 2918   5.630   6.399   0.619
  673SOL    HW2 2919   5.712   6.537   0.645
  674SOL     OW 2920   6.724   2.007   3.140
  674SOL    HW1 2921   6.678   1.954   3.212
  674SOL    HW2 2922   6.715   2.104   3.161
  675SOL     OW 2923   5.862   1.280   4.820
  675SOL    HW1 2924   5.957   1.308   4.805
  675SOL    HW2 2925   5.824   1.247   4.734
  676SOL     OW 2926   2.127   4.895   4.890
  676SOL    HW1 2927   2.071   4.814   4.870
  676SOL    HW2 2928   2.222   4.876   4.866
  677SOL     OW 2929   4.948   6.985   1.162
  677SOL    HW1 2930   4.983   6.893   1.147
  677SOL    HW2 2931   4.852   6.981   1.188
  678SOL     OW 2932   2.273   1.533   5.978
  678SOL    HW1 2933   2.206   1.505   5.909
  678SOL    HW2 2934   2.275   1.633   5.983
  679SOL     OW 2935   5.630   6.721   2.862
  679SOL    HW1 2936   5.664   6.810   2.892
  679SOL    HW2 2937   5.538   6.706   2.898
  680SOL     OW 2938   5.549   3.960   5.088
  680SOL    HW1 2939   5.639   3.999   5.108
  680SOL    HW2 2940   5.557   3.861   5.077
  681SOL     OW 2941   2.093   6.795   2.072
  681SOL    HW1 2942   2.001   6.830   2.056
  681SOL    HW2 2943   2.152   6.819   1.994
  682SOL     OW 2944   1.555   6.302   0.045
  682SOL    HW1 2945   1.508   6.340   0.125
  682SOL    HW2 2946   1.564   6.203   0.056
  683SOL     OW 2947   5.315   1.968   0.307
  683SOL    HW1 2948   5.262   2.051   0.326
  683SOL    HW2 2949   5.343   1.926   0.393
  684SOL     OW 2950   0.371   5.995   6.568
  684SOL    HW1 2951   0.366   6.094   6.556
  684SOL    HW2 2952   0.404   5.974   6.660
  685SOL     OW 2953   5.964   0.994   5.886
  685SOL    HW1 2954   6.053   1.033   5.910
  685SOL    HW2 2955   5.898   1.067   5.871
  686SOL     OW 2956   5.607   4.591   3.004
  686SOL    HW1 2957   5.576   4.649   3.079
  686SOL    HW2 2958   5.668   4.520   3.039
  687SOL     OW 2959   6.206   2.401   4.672
  687SOL    HW1 2960   6.116   2.360   4.690
  687SOL    HW2 2961   6.196   2.501   4.665
  688SOL     OW 2962   0.359   3.505   4.761
  688SOL    HW1 2963   0.308   3.489   4.676
  688SOL    HW2 2964   0.439   3.445   4.763
  689SOL     OW 2965   6.093   4.175   5.714
  689SOL    HW1 2966   6.012   4.190   5.769
  689SOL    HW2 2967   6.172   4.220   5.757
  690SOL     OW 2968   0.695   2.628   3.528
  690SOL    HW1 2969   0.613   2.680   3.549
  690SOL    HW2 2970   0.776   2.677   3.561
  691SOL     OW 2971   0.515   3.117   6.972
  691SOL    HW1 2972   0.471   3.149   6.888
  691SOL    HW2 2973   0.478   3.028   6.997
  692SOL     OW 2974   1.738   6.968   3.373
  692SOL    HW1 2975   1.818   6.993   3.428
  692SOL    HW2 2976   1.663   6.943   3.433
  693SOL     OW 2977   6.569   0.735   2.500
  693SOL    HW1 2978   6.623   0.686   2.432
  693SOL    HW2 2979   6.526   0.814   2.457
  694SOL     OW 2980   1.720   0.442   2.400
  694SOL    HW1 2981   1.782   0.384   2.347
  694SOL    HW2 2982   1.625   0.420   2.376
  695SOL     OW 2983   4.241   5.868   6.014
  695SOL    HW1 2984   4.322   5.926   6.013
  695SOL    HW2 2985   4.265   5.778   6.051
  696SOL     OW 2986   4.540   5.730   2.718
  696SOL    HW1 2987   4.608   5.658   2.705
  696SOL    HW2 2988   4.453   5.702   2.678
  697SOL     OW 2989   1.453   3.718   4.075
  697SOL    HW1 2990   1.359   3.690   4.091
  697SOL    HW2 2991   1.464   3.815   4.095
  698SOL     OW 2992   3.765   6.525   3.884
  698SOL    HW1 2993   3.681   6.557   3.838
  698SOL    HW2 2994   3.821   6.604   3.908
  699SOL     OW 2995   1.986   4.443   0.089
  699SOL    HW1 2996   2.080   4.407   0.092
  699SOL    HW2 2997   1.981   4.526   0.144
  700SOL     OW 2998   2.384   1.027   3.884
  700SOL    HW1 2999   2.435   1.081   3.817
  700SOL    HW2 3000   2.421   1.045   3.975
  701SOL     OW 3001   0.799   5.001   6.067
  701SOL    HW1 3002   0.733   5.075   6.063
  701SOL    HW2 3003   0.822   4.982   6.162
  702SOL     OW 3004   5.593   5.211   4.833
  702SOL    HW1 3005   5.634   5.133   4.785
  702SOL    HW2 3006   5.626   5.296   4.791
  703SOL     OW 3007   4.413   3.624   0.101
  703SOL    HW1 3008   4.493   3.671   0.138
  703SOL    HW2 3009   4.336   3.688   0.096
  704SOL     OW 3010   2.509   0.380   0.691
  704SOL    HW1 3011   2.567   0.298   0.691
  704SOL    HW2 3012   2.448   0.377   0.612
  705SOL     OW 3013   5.976   2.711   3.147
  705SOL    HW1 3014   5.898   2.708   3.210
  705SOL    HW2 3015   6.057   2.743   3.196
  706SOL     OW 3016   4.384   2.065   3.688
  706SOL    HW1 3017   4.331   1.981   3.677
  706SOL    HW2 3018   4.422   2.093   3.599
  707SOL     OW 3019   4.918   1.679   1.582
  707SOL    HW1 3020   4.848   1.673   1.511
  707SOL    HW2 3021   4.995   1.733   1.547
  708SOL     OW 3022   3.945   1.017   1.758
  708SOL    HW1 3023   4.017   1.033   1.825
  708SOL    HW2 3024   3.936   1.097   1.699
  709SOL     OW 3025   1.204   5.137   6.909
  709SOL    HW1 3026   1.173   5.224   6.946
  709SOL    HW2 3027   1.230   5.149   6.813
  710SOL     OW 3028   2.877   3.698   2.512
  710SOL    HW1 3029   2.911   3.678   2.421
  710SOL    HW2 3030   2.779   3.678   2.516
  711SOL     OW 3031   0.956   0.441   3.787
  711SOL    HW1 3032   1.001   0.435   3.876
  711SOL    HW2 3033   0.890   0.366   3.778
  712SOL     OW 3034   1.354   3.877   1.522
  712SOL    HW1 3035   1.401   3.854   1.437
  712SOL    HW2 3036   1.421   3.881   1.597
  713SOL     OW 3037   4.112   3.271   3.150
  713SOL    HW1 3038   4.083   3.333   3.076
  713SOL    HW2 3039   4.201   3.302   3.185
  714SOL     OW 3040   4.797   5.168   5.409
  714SOL    HW1 3041   4.873   5.230   5.428
  714SOL    HW2 3042   4.721   5.220   5.370
  715SOL     OW 3043   4.304   0.338   6.277
  715SOL    HW1 3044   4.219   0.354   6.328
  715SOL    HW2 3045   4.366   0.284   6.333
  716SOL     OW 3046   6.791   4.724   1.789
  716SOL    HW1 3047   6.720   4.680   1.845
  716SOL    HW2 3048   6.848   4.781   1.848
  717SOL     OW 3049   6.052   3.009   0.332
  717SOL    HW1 3050   5.965   3.051   0.305
  717SOL    HW2 3051   6.106   2.990   0.251
  718SOL     OW 3052   3.768   3.835   6.593
  718SOL    HW1 3053   3.761   3.771   6.669
  718SOL    HW2 3054   3.700   3.812   6.523
  719SOL     OW 3055   5.054   4.573   0.199
  719SOL    HW1 3056   4.958   4.560   0.222
  719SOL    HW2 3057   5.064   4.655   0.141
  720SOL     OW 3058   2.208   0.398   6.247
  720SOL    HW1 3059   2.129   0.433   6.196
  720SOL    HW2 3060   2.203   0.431   6.341
  721SOL     OW 3061   1.633   7.003   6.042
  721SOL    HW1 3062   1.644   0.027   6.128
  721SOL    HW2 3063   1.631   6.905   6.060
  722SOL     OW 3064   4.706   6.997   5.690
  722SOL    HW1 3065   4.687   0.012   5.779
  722SOL    HW2 3066   4.777   6.926   5.699
  723SOL     OW 3067   1.377   3.085   2.235
  723SOL    HW1 3068   1.476   3.080   2.224
  723SOL    HW2 3069   1.352   3.175   2.269
  724SOL     OW 3070   6.547   1.096   4.724
  724SOL    HW1 3071   6.553   1.164   4.797
  724SOL    HW2 3072   6.639   1.071   4.694
  725SOL     OW 3073   2.056   5.583   0.833
  725SOL    HW1 3074   2.122   5.640   0.784
  725SOL    HW2 3075   2.030   5.629   0.918
  726SOL     OW 3076   4.075   0.102   6.705
  726SOL    HW1 3077   4.150   0.131   6.765
  726SOL    HW2 3078   4.008   0.176   6.698
  727SOL     OW 3079   2.749   4.696   4.291
  727SOL    HW1 3080   2.783   4.790   4.294
  727SOL    HW2 3081   2.725   4.666   4.383
  728SOL     OW 3082   6.751   3.577   4.858
  728SOL    HW1 3083   6.760   3.477   4.858
  728SOL    HW2 3084   6.842   3.618   4.855
  729SOL     OW 3085   3.088   0.199   1.126
  729SOL    HW1 3086   3.032   0.194   1.043
  729SOL    HW2 3087   3.098   0.107   1.165
  730SOL     OW 3088   6.433   0.038   4.680
  730SOL    HW1 3089   6.422   0.105   4.754
  730SOL    HW2 3090   6.506   0.068   4.619
  731SOL     OW 3091   6.069   3.456   3.632
  731SOL    HW1 3092   6.031   3.465   3.539
  731SOL    HW2 3093   6.056   3.543   3.681
  732SOL     OW 3094   0.160   2.956   2.115
  732SOL    HW1 3095   0.246   2.909   2.096
  732SOL    HW2 3096   0.118   2.917   2.197
  733SOL     OW 3097   4.669   4.237   3.487
  733SOL    HW1 3098   4.605   4.306   3.518
  733SOL    HW2 3099   4.711   4.267   3.401
  734SOL     OW 3100   0.049   4.668   0.941
  734SOL    HW1 3101   0.115   4.596   0.918
  734SOL    HW2 3102   7.001   4.669   0.873
  735SOL     OW 3103   1.243   4.622   6.611
  735SOL    HW1 3104   1.143   4.623   6.622
  735SOL    HW2 3105   1.282   4.706   6.647
  736SOL     OW 3106   6.008   1.282   3.221
  736SOL    HW1 3107   6.002   1.276   3.121
  736SOL    HW2 3108   6.031   1.192   3.259
  737SOL     OW 3109   5.593   3.642   0.395
  737SOL    HW1 3110   5.627   3.566   0.450
  737SOL    HW2 3111   5.533   3.607   0.323
  738SOL     OW 3112   0.425   4.102   4.174
  738SOL    HW1 3113   0.450   4.061   4.262
  738SOL    HW2 3114   0.350   4.051   4.133
  739SOL     OW 3115   4.949   6.070   0.115
  739SOL    HW1 3116   4.975   5.989   0.166
  739SOL    HW2 3117   5.020   6.141   0.127
  740SOL     OW 3118   5.550   6.696   1.284
  740SOL    HW1 3119   5.547   6.791   1.253
  740SOL    HW2 3120   5.474   6.645   1.243
  741SOL     OW 3121   1.916   1.071   3.099
  741SOL    HW1 3122   1.982   1.025   3.158
  741SOL    HW2 3123   1.892   1.160   3.138
  742SOL     OW 3124   1.004   0.018   3.428
  742SOL    HW1 3125   1.047   0.069   3.502
  742SOL    HW2 3126   0.905   0.034   3.430
  743SOL     OW 3127   1.665   3.953   4.251
  743SOL    HW1 3128   1.685   3.997   4.163
  743SOL    HW2 3129   1.618   4.019   4.310
  744SOL     OW 3130   0.729   6.242   1.077
  744SOL    HW1 3131   0.677   6.313   1.125
  744SOL    HW2 3132   0.712   6.250   0.979
  745SOL     OW 3133   1.718   5.798   2.859
  745SOL    HW1 3134   1.732   5.843   2.771
  745SOL    HW2 3135   1.765   5.710   2.859
  746SOL     OW 3136   1.817   0.347   4.565
  746SOL    HW1 3137   1.828   0.443   4.539
  746SOL    HW2 3138   1.761   0.341   4.648
  747SOL     OW 3139   5.356   4.924   2.687
  747SOL    HW1 3140   5.369   5.017   2.720
  747SOL    HW2 3141   5.265   4.891   2.713
  748SOL     OW 3142   4.277   3.400   1.662
  748SOL    HW1 3143   4.233   3.374   1.576
  748SOL    HW2 3144   4.329   3.323   1.698
  749SOL     OW 3145   6.775   1.681   5.288
  749SOL    HW1 3146   6.784   1.737   5.207
  749SOL    HW2 3147   6.854   1.620   5.296
  750SOL     OW 3148   2.438   4.057   0.744
  750SOL    HW1 3149   2.487   4.073   0.658
  750SOL    HW2 3150   2.354   4.111   0.745
  751SOL     OW 3151   4.786   0.713   0.401
  751SOL    HW1 3152   4.797   0.758   0.312
  751SOL    HW2 3153   4.871   0.721   0.453
  752SOL     OW 3154   5.178   1.747   1.960
  752SOL    HW1 3155   5.240   1.738   2.038
  752SOL    HW2 3156   5.084   1.728   1.990
  753SOL     OW 3157   2.022   2.664   3.746
  753SOL    HW1 3158   1.950   2.701   3.688
  753SOL    HW2 3159   2.002   2.569   3.768
  754SOL     OW 3160   4.704   5.504   6.969
  754SOL    HW1 3161   4.684   5.421   7.021
  754SOL    HW2 3162   4.641   5.511   6.892
  755SOL     OW 3163   0.235   6.425   1.377
  755SOL    HW1 3164   0.229   6.509   1.322
  755SOL    HW2 3165   0.146   6.403   1.416
  756SOL     OW 3166   4.681   0.071   3.687
  756SOL    HW1 3167   4.612   0.001   3.667
  756SOL    HW2 3168   4.666   0.150   3.627
  757SOL     OW 3169   0.627   0.598   3.517
  757SOL    HW1 3170   0.646   0.583   3.614
  757SOL    HW2 3171   0.680   0.534   3.462
  758SOL     OW 3172   4.069   2.516   1.006
  758SOL    HW1 3173   4.057   2.473   1.096
  758SOL    HW2 3174   3.998   2.585   0.993
  759SOL     OW 3175   1.726   1.581   0.115
  759SOL    HW1 3176   1.721   1.603   0.212
  759SOL    HW2 3177   1.636   1.557   0.081
  760SOL     OW 3178   4.560   1.635   6.257
  760SOL    HW1 3179   4.545   1.721   6.208
  760SOL    HW2 3180   4.522   1.642   6.349
  761SOL     OW 3181   6.267   2.502   6.525
  761SOL    HW1 3182   6.204   2.524   6.450
  761SOL    HW2 3183   6.341   2.570   6.527
  762SOL     OW 3184   2.425   5.566   3.604
  762SOL    HW1 3185   2.376   5.480   3.610
  762SOL    HW2 3186   2.445   5.600   3.696
  763SOL     OW 3187   4.567   6.096   6.804
  763SOL    HW1 3188   4.657   6.084   6.847
  763SOL    HW2 3189   4.534   6.008   6.771
  764SOL     OW 3190   4.296   0.941   2.170
  764SOL    HW1 3191   4.255   0.960   2.259
  764SOL    HW2 3192   4.371   0.875   2.182
  765SOL     OW 3193   0.242   6.890   3.392
  765SOL    HW1 3194   0.246   6.827   3.469
  765SOL    HW2 3195   0.268   6.842   3.308
  766SOL     OW 3196   0.155   6.265   6.840
  766SOL    HW1 3197   0.215   6.288   6.917
  766SOL    HW2 3198   0.064   6.304   6.856
  767SOL     OW 3199   5.625   0.014   2.236
  767SOL    HW1 3200   5.700   7.010   2.176
  767SOL    HW2 3201   5.585   0.098   2.201
  768SOL     OW 3202   3.091   6.649   3.622
  768SOL    HW1 3203   3.140   6.562   3.614
  768SOL    HW2 3204   3.007   6.646   3.568
  769SOL     OW 3205   3.883   1.073   5.991
  769SOL    HW1 3206   3.936   1.074   6.075
  769SOL    HW2 3207   3.901   1.156   5.939
  770SOL     OW 3208   3.194   5.134   4.232
  770SOL    HW1 3209   3.177   5.194   4.153
  770SOL    HW2 3210   3.268   5.071   4.211
  771SOL     OW 3211   0.724   5.511   3.921
  771SOL    HW1 3212   0.807   5.525   3.867
  771SOL    HW2 3213   0.676   5.598   3.934
  772SOL     OW 3214   6.723   4.374   5.986
  772SOL    HW1 3215   6.736   4.472   6.004
  772SOL    HW2 3216   6.659   4.362   5.910
  773SOL     OW 3217   0.122   4.351   2.453
  773SOL    HW1 3218   0.105   4.348   2.354
  773SOL    HW2 3219   0.064   4.284   2.499
  774SOL     OW 3220   1.490   1.208   2.103
  774SOL    HW1 3221   1.563   1.170   2.161
  774SOL    HW2 3222   1.513   1.195   2.007
  775SOL     OW 3223   1.944   1.913   4.588
  775SOL    HW1 3224   2.001   1.956   4.518
  775SOL    HW2 3225   2.003   1.865   4.653
  776SOL     OW 3226   1.781   0.574   6.161
  776SOL    HW1 3227   1.876   0.543   6.168
  776SOL    HW2 3228   1.758   0.630   6.240
  777SOL     OW 3229   3.937   1.194   0.418
  777SOL    HW1 3230   3.971   1.286   0.438
  777SOL    HW2 3231   3.925   1.183   0.319
  778SOL     OW 3232   4.157   6.884   4.540
  778SOL    HW1 3233   4.072   6.839   4.569
  778SOL    HW2 3234   4.138   6.979   4.516
  779SOL     OW 3235   0.863   1.228   2.543
  779SOL    HW1 3236   0.928   1.163   2.504
  779SOL    HW2 3237   0.874   1.231   2.642
  780SOL     OW 3238   5.702   3.012   5.057
  780SOL    HW1 3239   5.619   3.045   5.102
  780SOL    HW2 3240   5.741   3.085   5.002
  781SOL     OW 3241   0.265   1.401   5.503
  781SOL    HW1 3242   0.240   1.496   5.488
  781SOL    HW2 3243   0.209   1.362   5.576
  782SOL     OW 3244   0.200   2.878   0.644
  782SOL    HW1 3245   0.117   2.913   0.686
  782SOL    HW2 3246   0.263   2.847   0.716
  783SOL     OW 3247   3.314   4.412   0.482
  783SOL    HW1 3248   3.364   4.333   0.517
  783SOL    HW2 3249   3.273   4.389   0.394
  784SOL     OW 3250   4.708   0.411   5.077
  784SOL    HW1 3251   4.661   0.340   5.025
  784SOL    HW2 3252   4.641   0.467   5.126
  785SOL     OW 3253   6.258   2.818   3.225
  785SOL    HW1 3254   6.339   2.760   3.235
  785SOL    HW2 3255   6.228   2.848   3.315
  786SOL     OW 3256   6.973   6.747   0.031
  786SOL    HW1 3257   6.930   6.781   0.115
  786SOL    HW2 3258   0.044   6.727   0.049
  787SOL     OW 3259   3.168   1.924   6.103
  787SOL    HW1 3260   3.214   1.842   6.138
  787SOL    HW2 3261   3.075   1.900   6.074
  788SOL     OW 3262   1.441   4.068   4.046
  788SOL    HW1 3263   1.405   4.156   4.076
  788SOL    HW2 3264   1.381   4.030   3.976
  789SOL     OW 3265   5.582   3.859   0.940
  789SOL    HW1 3266   5.558   3.844   1.036
  789SOL    HW2 3267   5.597   3.956   0.925
  790SOL     OW 3268   3.201   1.489   3.696
  790SOL    HW1 3269   3.266   1.462   3.625
  790SOL    HW2 3270   3.132   1.550   3.657
  791SOL     OW 3271   3.478   1.772   4.194
  791SOL    HW1 3272   3.397   1.810   4.239
  791SOL    HW2 3273   3.545   1.746   4.264
  792SOL     OW 3274   6.119   0.373   3.411
  792SOL    HW1 3275   6.184   0.299   3.394
  792SOL    HW2 3276   6.131   0.444   3.341
  793SOL     OW 3277   6.181   0.256   0.094
  793SOL    HW1 3278   6.240   0.238   0.174
  793SOL    HW2 3279   6.179   0.354   0.076
  794SOL     OW 3280   2.190   5.347   5.648
  794SOL    HW1 3281   2.159   5.288   5.723
  794SOL    HW2 3282   2.285   5.327   5.627
  795SOL     OW 3283   4.941   4.954   6.085
  795SOL    HW1 3284   4.909   4.860   6.079
  795SOL    HW2 3285   5.036   4.956   6.117
  796SOL     OW 3286   0.474   2.330   6.236
  796SOL    HW1 3287   0.466   2.305   6.139
  796SOL    HW2 3288   0.420   2.266   6.291
  797SOL     OW 3289   5.769   2.810   3.968
  797SOL    HW1 3290   5.698   2.828   3.900
  797SOL    HW2 3291   5.731   2.819   4.060
  798SOL     OW 3292   5.925   1.042   6.161
  798SOL    HW1 3293   5.837   1.078   6.190
  798SOL    HW2 3294   5.915   0.996   6.073
  799SOL     OW 3295   6.960   3.303   3.192
  799SOL    HW1 3296   6.884   3.293   3.256
  799SOL    HW2 3297   7.023   3.226   3.203
  800SOL     OW 3298   6.113   1.505   2.141
  800SOL    HW1 3299   6.049   1.474   2.070
  800SOL    HW2 3300   6.151   1.594   2.115
  801SOL     OW 3301   0.206   2.581   3.082
  801SOL    HW1 3302   0.235   2.527   3.161
  801SOL    HW2 3303   0.173   2.670   3.112
  802SOL     OW 3304   5.542   1.136   0.856
  802SOL    HW1 3305   5.563   1.103   0.763
  802SOL    HW2 3306   5.443   1.134   0.870
  803SOL     OW 3307   6.824   6.987   4.992
  803SOL    HW1 3308   6.761   0.012   5.050
  803SOL    HW2 3309   6.857   0.021   4.918
  804SOL     OW 3310   0.093   0.160   0.525
  804SOL    HW1 3311   0.017   0.190   0.582
  804SOL    HW2 3312   0.148   0.094   0.576
  805SOL     OW 3313   2.991   3.288   6.221
  805SOL    HW1 3314   2.992   3.388   6.222
  805SOL    HW2 3315   3.082   3.252   6.240
  806SOL     OW 3316   5.123   0.981   0.768
  806SOL    HW1 3317   5.182   0.930   0.704
  806SOL    HW2 3318   5.029   0.980   0.734
  807SOL     OW 3319   1.574   6.952   3.607
  807SOL    HW1 3320   1.566   7.006   3.690
  807SOL    HW2 3321   1.489   6.957   3.555
  808SOL     OW 3322   5.089   3.541   5.312
  808SOL    HW1 3323   5.042   3.557   5.400
  808SOL    HW2 3324   5.079   3.445   5.286
  809SOL     OW 3325   0.108   4.690   5.980
  809SOL    HW1 3326   0.142   4.610   5.931
  809SOL    HW2 3327   0.060   4.661   6.063
  810SOL     OW 3328   5.764   4.540   6.863
  810SOL    HW1 3329   5.790   4.576   6.953
  810SOL    HW2 3330   5.825   4.464   6.840
  811SOL     OW 3331   4.989   4.877   4.347
  811SOL    HW1 3332   4.930   4.847   4.273
  811SOL    HW2 3333   4.935   4.887   4.431
  812SOL     OW 3334   0.270   6.841   2.143
  812SOL    HW1 3335   0.277   6.935   2.174
  812SOL    HW2 3336   0.205   6.836   2.067
  813SOL     OW 3337   5.201   5.622   2.646
  813SOL    HW1 3338   5.126   5.572   2.604
  813SOL    HW2 3339   5.181   5.637   2.743
  814SOL     OW 3340   5.127   6.187   1.330
  814SOL    HW1 3341   5.216   6.193   1.376
  814SOL    HW2 3342   5.071   6.117   1.375
  815SOL     OW 3343   0.019   2.517   0.997
  815SOL    HW1 3344   0.017   2.480   1.090
  815SOL    HW2 3345   6.951   2.532   0.965
  816SOL     OW 3346   6.402   0.111   1.130
  816SOL    HW1 3347   6.330   0.176   1.107
  816SOL    HW2 3348   6.383   0.023   1.087
  817SOL     OW 3349   1.830   2.542   2.850
  817SOL    HW1 3350   1.891   2.535   2.772
  817SOL    HW2 3351   1.773   2.461   2.856
  818SOL     OW 3352   6.606   1.429   1.065
  818SOL    HW1 3353   6.539   1.441   1.138
  818SOL    HW2 3354   6.697   1.453   1.099
  819SOL     OW 3355   6.989   3.459   4.009
  819SOL    HW1 3356   6.940   3.383   4.052
  819SOL    HW2 3357   6.966   3.544   4.057
  820SOL     OW 3358   1.182   3.025   4.787
  820SOL    HW1 3359   1.192   3.116   4.827
  820SOL    HW2 3360   1.228   3.022   4.699
  821SOL     OW 3361   1.428   3.350   6.777
  821SOL    HW1 3362   1.507   3.408   6.759
  821SOL    HW2 3363   1.366   3.397   6.839
  822SOL     OW 3364   1.542   3.724   4.883
  822SOL    HW1 3365   1.488   3.779   4.948
  822SOL    HW2 3366   1.484   3.700   4.805
  823SOL     OW 3367   3.177   4.129   1.004
  823SOL    HW1 3368   3.152   4.077   0.922
  823SOL    HW2 3369   3.125   4.094   1.082
  824SOL     OW 3370   5.491   1.749   5.685
  824SOL    HW1 3371   5.474   1.759   5.587
  824SOL    HW2 3372   5.486   1.652   5.710
  825SOL     OW 3373   2.089   4.247   2.231
  825SOL    HW1 3374   2.177   4.260   2.276
  825SOL    HW2 3375   2.015   4.269   2.294
  826SOL     OW 3376   0.530   3.846   5.803
  826SOL    HW1 3377   0.608   3.830   5.864
  826SOL    HW2 3378   0.512   3.944   5.799
  827SOL     OW 3379   4.073   5.666   6.996
  827SOL    HW1 3380   4.162   5.707   7.017
  827SOL    HW2 3381   4.002   5.712   0.024
  828SOL     OW 3382   6.483   0.028   5.862
  828SOL    HW1 3383   6.456   0.116   5.902
  828SOL    HW2 3384   6.417   6.983   5.888
  829SOL     OW 3385   3.402   2.899   4.770
  829SOL    HW1 3386   3.393   2.816   4.825
  829SOL    HW2 3387   3.477   2.955   4.806
  830SOL     OW 3388   4.542   3.970   5.316
  830SOL    HW1 3389   4.451   3.930   5.332
  830SOL    HW2 3390   4.610   3.919   5.369
  831SOL     OW 3391   6.800   0.931   4.948
  831SOL    HW1 3392   6.795   0.953   4.850
  831SOL    HW2 3393   6.858   0.851   4.961
  832SOL     OW 3394   2.274   1.823   5.975
  832SOL    HW1 3395   2.178   1.815   6.001
  832SOL    HW2 3396   2.289   1.912   5.931
  833SOL     OW 3397   0.045   0.049   6.023
  833SOL    HW1 3398   0.020   7.001   5.961
  833SOL    HW2 3399   0.080   0.127   5.971
  834SOL     OW 3400   3.379   4.247   5.242
  834SOL    HW1 3401   3.285   4.276   5.260
  834SOL    HW2 3402   3.442   4.320   5.267
  835SOL     OW 3403   3.992   0.314   3.456
  835SOL    HW1 3404   4.006   0.287   3.551
  835SOL    HW2 3405   4.075   0.355   3.420
  836SOL     OW 3406   2.351   1.271   0.400
  836SOL    HW1 3407   2.311   1.354   0.362
  836SOL    HW2 3408   2.354   1.279   0.500
  837SOL     OW 3409   4.467   0.916   5.669
  837SOL    HW1 3410   4.523   0.833   5.671
  837SOL    HW2 3411   4.512   0.985   5.613
  838SOL     OW 3412   2.538   5.308   2.976
  838SOL    HW1 3413   2.619   5.316   2.918
  838SOL    HW2 3414   2.459   5.285   2.919
  839SOL     OW 3415   2.995   1.568   2.540
  839SOL    HW1 3416   2.939   1.486   2.555
  839SOL    HW2 3417   2.944   1.649   2.567
  840SOL     OW 3418   0.758   1.149   6.720
  840SOL    HW1 3419   0.786   1.222   6.782
  840SOL    HW2 3420   0.813   1.068   6.737
  841SOL     OW 3421   0.809   3.612   6.817
  841SOL    HW1 3422   0.722   3.662   6.817
  841SOL    HW2 3423   0.884   3.674   6.793
  842SOL     OW 3424   3.615   5.576   3.301
  842SOL    HW1 3425   3.642   5.671   3.286
  842SOL    HW2 3426   3.678   5.515   3.253
  843SOL     OW 3427   6.393   2.262   1.832
  843SOL    HW1 3428   6.376   2.308   1.745
  843SOL    HW2 3429   6.320   2.285   1.897
  844SOL     OW 3430   5.535   5.405   0.574
  844SOL    HW1 3431   5.495   5.369   0.658
  844SOL    HW2 3432   5.528   5.505   0.575
  845SOL     OW 3433   0.631   4.275   5.265
  845SOL    HW1 3434   0.646   4.373   5.275
  845SOL    HW2 3435   0.588   4.256   5.176
  846SOL     OW 3436   5.977   1.721   6.543
  846SOL    HW1 3437   6.018   1.687   6.458
  846SOL    HW2 3438   6.049   1.752   6.604
  847SOL     OW 3439   4.953   3.365   2.129
  847SOL    HW1 3440   4.923   3.384   2.035
  847SOL    HW2 3441   4.946   3.266   2.146
  848SOL     OW 3442   6.150   0.265   5.830
  848SOL    HW1 3443   6.155   0.183   5.887
  848SOL    HW2 3444   6.177   0.345   5.884
  849SOL     OW 3445   0.122   5.169   4.393
  849SOL    HW1 3446   0.159   5.177   4.301
  849SOL    HW2 3447   0.147   5.249   4.447
  850SOL     OW 3448   3.628   0.540   2.894
  850SOL    HW1 3449   3.697   0.538   2.822
  850SOL    HW2 3450   3.540   0.569   2.855
  851SOL     OW 3451   0.739   0.752   6.423
  851SOL    HW1 3452   0.699   0.672   6.378
  851SOL    HW2 3453   0.838   0.753   6.408
  852SOL     OW 3454   2.128   4.183   6.394
  852SOL    HW1 3455   2.149   4.277   6.422
  852SOL    HW2 3456   2.212   4.130   6.390
  853SOL     OW 3457   1.539   3.853   1.311
  853SOL    HW1 3458   1.560   3.798   1.231
  853SOL    HW2 3459   1.615   3.914   1.331
  854SOL     OW 3460   5.650   5.080   1.812
  854SOL    HW1 3461   5.724   5.144   1.794
  854SOL    HW2 3462   5.669   5.029   1.896
  855SOL     OW 3463   5.448   0.243   1.582
  855SOL    HW1 3464   5.512   0.230   1.506
  855SOL    HW2 3465   5.370   0.182   1.570
  856SOL     OW 3466   1.704   6.989   5.222
  856SOL    HW1 3467   1.766   6.957   5.151
  856SOL    HW2 3468   1.670   6.911   5.274
  857SOL     OW 3469   6.704   3.670   2.130
  857SOL    HW1 3470   6.748   3.755   2.158
  857SOL    HW2 3471   6.675   3.618   2.210
  858SOL     OW 3472   2.904   4.399   1.110
  858SOL    HW1 3473   2.959   4.418   1.029
  858SOL    HW2 3474   2.958   4.417   1.192
  859SOL     OW 3475   6.558   4.811   6.911
  859SOL    HW1 3476   6.580   4.896   6.863
  859SOL    HW2 3477   6.469   4.778   6.882
  860SOL     OW 3478   2.016   4.590   1.618
  860SOL    HW1 3479   1.952   4.647   1.566
  860SOL    HW2 3480   2.094   4.646   1.648
  861SOL     OW 3481   3.205   5.573   5.702
  861SOL    HW1 3482   3.219   5.562   5.801
  861SOL    HW2 3483   3.232   5.489   5.655
  862SOL     OW 3484   4.371   4.669   4.588
  862SOL    HW1 3485   4.321   4.755   4.591
  862SOL    HW2 3486   4.397   4.643   4.681
  863SOL     OW 3487   5.922   1.210   1.276
  863SOL    HW1 3488   5.827   1.182   1.259
  863SOL    HW2 3489   5.983   1.141   1.236
  864SOL     OW 3490   6.055   4.466   2.808
  864SOL    HW1 3491   6.111   4.408   2.749
  864SOL    HW2 3492   6.104   4.552   2.825
  865SOL     OW 3493   1.285   0.168   4.449
  865SOL    HW1 3494   1.382   0.182   4.430
  865SOL    HW2 3495   1.238   0.138   4.366
  866SOL     OW 3496   3.532   1.783   1.298
  866SOL    HW1 3497   3.589   1.745   1.225
  866SOL    HW2 3498   3.454   1.831   1.258
  867SOL     OW 3499   1.315   2.748   5.995
  867SOL    HW1 3500   1.278   2.819   6.055
  867SOL    HW2 3501   1.369   2.791   5.923
  868SOL     OW 3502   5.027   2.473   3.180
  868SOL    HW1 3503   5.060   2.403   3.117
  868SOL    HW2 3504   5.012   2.558   3.130
  869SOL     OW 3505   6.766   4.695   2.799
  869SOL    HW1 3506   6.745   4.604   2.834
  869SOL    HW2 3507   6.857   4.694   2.756
  870SOL     OW 3508   6.948   2.185   1.087
  870SOL    HW1 3509   6.868   2.163   1.143
  870SOL    HW2 3510   7.020   2.223   1.144
  871SOL     OW 3511   6.179   3.309   0.630
  871SOL    HW1 3512   6.166   3.374   0.705
  871SOL    HW2 3513   6.163   3.355   0.543
  872SOL     OW 3514   6.058   2.713   2.753
  872SOL    HW1 3515   6.117   2.792   2.761
  872SOL    HW2 3516   6.077   2.649   2.828
  873SOL     OW 3517   4.638   6.620   5.536
  873SOL    HW1 3518   4.602   6.594   5.626
  873SOL    HW2 3519   4.577   6.585   5.465
  874SOL     OW 3520   0.481   3.764   6.313
  874SOL    HW1 3521   0.472   3.857   6.277
  874SOL    HW2 3522   0.577   3.742   6.326
  875SOL     OW 3523   6.057   4.778   6.719
  875SOL    HW1 3524   6.060   4.679   6.733
  875SOL    HW2 3525   6.023   4.823   6.801
  876SOL     OW 3526   1.054   3.306   1.906
  876SOL    HW1 3527   1.097   3.388   1.944
  876SOL    HW2 3528   0.985   3.272   1.969
  877SOL     OW 3529   5.516   5.686   0.560
  877SOL    HW1 3530   5.429   5.728   0.534
  877SOL    HW2 3531   5.591   5.749   0.537
  878SOL     OW 3532   2.891   3.842   0.186
  878SOL    HW1 3533   2.966   3.778   0.203
  878SOL    HW2 3534   2.910   3.895   0.103
  879SOL     OW 3535   4.644   1.960   2.234
  879SOL    HW1 3536   4.693   1.941   2.319
  879SOL    HW2 3537   4.615   1.875   2.192
  880SOL     OW 3538   4.064   5.564   0.733
  880SOL    HW1 3539   4.088   5.639   0.794
  880SOL    HW2 3540   3.964   5.556   0.727
  881SOL     OW 3541   4.227   5.170   4.841
  881SOL    HW1 3542   4.155   5.168   4.772
  881SOL    HW2 3543   4.188   5.198   4.929
  882SOL     OW 3544   0.941   1.009   4.792
  882SOL    HW1 3545   0.964   0.918   4.824
  882SOL    HW2 3546   1.020   1.050   4.746
  883SOL     OW 3547   3.101   5.096   6.406
  883SOL    HW1 3548   3.175   5.033   6.431
  883SOL    HW2 3549   3.017   5.044   6.391
  884SOL     OW 3550   4.919   3.951   1.627
  884SOL    HW1 3551   4.946   4.043   1.597
  884SOL    HW2 3552   4.819   3.947   1.634
  885SOL     OW 3553   4.430   6.012   0.221
  885SOL    HW1 3554   4.415   6.090   0.160
  885SOL    HW2 3555   4.481   6.042   0.302
  886SOL     OW 3556   4.825   1.582   6.203
  886SOL    HW1 3557   4.737   1.600   6.247
  886SOL    HW2 3558   4.809   1.532   6.118
  887SOL     OW 3559   4.922   0.488   6.104
  887SOL    HW1 3560   4.995   0.503   6.038
  887SOL    HW2 3561   4.950   0.420   6.171
  888SOL     OW 3562   6.068   6.393   3.300
  888SOL    HW1 3563   6.016   6.376   3.384
  888SOL    HW2 3564   6.011   6.375   3.221
  889SOL     OW 3565   0.920   6.665   4.588
  889SOL    HW1 3566   0.901   6.583   4.534
  889SOL    HW2 3567   0.918   6.746   4.529
  890SOL     OW 3568   2.401   4.885   1.961
  890SOL    HW1 3569   2.437   4.793   1.975
  890SOL    HW2 3570   2.422   4.916   1.868
  891SOL     OW 3571   5.987   3.194   6.190
  891SOL    HW1 3572   6.048   3.117   6.208
  891SOL    HW2 3573   6.023   3.249   6.115
  892SOL     OW 3574   2.866   5.151   1.775
  892SOL    HW1 3575   2.961   5.120   1.778
  892SOL    HW2 3576   2.833   5.170   1.868
  893SOL     OW 3577   2.046   0.594   0.564
  893SOL    HW1 3578   2.022   0.590   0.467
  893SOL    HW2 3579   2.047   0.502   0.602
  894SOL     OW 3580   0.863   5.544   3.455
  894SOL    HW1 3581   0.947   5.495   3.428
  894SOL    HW2 3582   0.791   5.478   3.474
  895SOL     OW 3583   1.947   0.130   4.858
  895SOL    HW1 3584   1.949   0.060   4.786
  895SOL    HW2 3585   1.889   0.206   4.829
  896SOL     OW 3586   5.568   6.779   3.399
  896SOL    HW1 3587   5.627   6.853   3.366
  896SOL    HW2 3588   5.486   6.818   3.441
  897SOL     OW 3589   5.300   2.881   5.994
  897SOL    HW1 3590   5.394   2.901   6.021
  897SOL    HW2 3591   5.250   2.968   5.983
  898SOL     OW 3592   6.227   6.655   4.225
  898SOL    HW1 3593   6.239   6.754   4.231
  898SOL    HW2 3594   6.223   6.627   4.129
  899SOL     OW 3595   0.878   5.110   6.779
  899SOL    HW1 3596   0.852   5.119   6.875
  899SOL    HW2 3597   0.829   5.033   6.738
  900SOL     OW 3598   0.897   5.893   3.926
  900SOL    HW1 3599   0.949   5.809   3.932
  900SOL    HW2 3600   0.927   5.946   3.846
  901SOL     OW 3601   5.526   2.640   3.346
  901SOL    HW1 3602   5.472   2.605   3.423
  901SOL    HW2 3603   5.607   2.583   3.334
  902SOL     OW 3604   0.075   6.050   0.106
  902SOL    HW1 3605   0.006   6.001   0.160
  902SOL    HW2 3606   0.101   6.134   0.153
  903SOL     OW 3607   0.618   4.439   0.365
  903SOL    HW1 3608   0.587   4.437   0.460
  903SOL    HW2 3609   0.718   4.452   0.363
  904SOL     OW 3610   1.521   1.729   3.410
  904SOL    HW1 3611   1.519   1.684   3.500
  904SOL    HW2 3612   1.605   1.781   3.400
  905SOL     OW 3613   5.707   1.621   5.366
  905SOL    HW1 3614   5.643   1.568   5.310
  905SOL    HW2 3615   5.800   1.603   5.334
  906SOL     OW 3616   6.111   4.015   5.127
  906SOL    HW1 3617   6.201   4.030   5.168
  906SOL    HW2 3618   6.047   3.984   5.198
  907SOL     OW 3619   6.752   3.321   1.503
  907SOL    HW1 3620   6.821   3.255   1.534
  907SOL    HW2 3621   6.747   3.397   1.568
  908SOL     OW 3622   1.380   0.682   3.380
  908SOL    HW1 3623   1.311   0.616   3.348
  908SOL    HW2 3624   1.376   0.688   3.479
  909SOL     OW 3625   3.929   0.458   1.098
  909SOL    HW1 3626   4.000   0.469   1.029
  909SOL    HW2 3627   3.955   0.508   1.181
  910SOL     OW 3628   2.039   1.902   1.740
  910SOL    HW1 3629   2.109   1.973   1.744
  910SOL    HW2 3630   2.063   1.836   1.669
  911SOL     OW 3631   0.184   4.306   0.927
  911SOL    HW1 3632   0.131   4.222   0.914
  911SOL    HW2 3633   0.281   4.283   0.940
  912SOL     OW 3634   0.677   0.515   6.226
  912SOL    HW1 3635   0.776   0.519   6.214
  912SOL    HW2 3636   0.632   0.520   6.137
  913SOL     OW 3637   2.466   1.274   1.661
  913SOL    HW1 3638   2.524   1.229   1.729
  913SOL    HW2 3639   2.432   1.361   1.698
  914SOL     OW 3640   2.933   6.754   3.323
  914SOL    HW1 3641   2.893   6.773   3.233
  914SOL    HW2 3642   3.029   6.783   3.323
  915SOL     OW 3643   0.972   2.167   6.739
  915SOL    HW1 3644   0.919   2.133   6.816
  915SOL    HW2 3645   1.031   2.094   6.704
  916SOL     OW 3646   1.466   3.239   3.136
  916SOL    HW1 3647   1.562   3.267   3.138
  916SOL    HW2 3648   1.439   3.218   3.042
  917SOL     OW 3649   3.192   2.545   6.591
  917SOL    HW1 3650   3.189   2.451   6.555
  917SOL    HW2 3651   3.283   2.562   6.630
  918SOL     OW 3652   1.205   0.878   5.451
  918SOL    HW1 3653   1.299   0.873   5.484
  918SOL    HW2 3654   1.176   0.974   5.445
  919SOL     OW 3655   2.363   6.747   0.990
  919SOL    HW1 3656   2.382   6.756   1.088
  919SOL    HW2 3657   2.280   6.693   0.977
  920SOL     OW 3658   2.200   0.509   4.363
  920SOL    HW1 3659   2.136   0.536   4.435
  920SOL    HW2 3660   2.251   0.589   4.332
  921SOL     OW 3661   5.328   5.147   6.532
  921SOL    HW1 3662   5.307   5.245   6.542
  921SOL    HW2 3663   5.250   5.101   6.489
  922SOL     OW 3664   2.122   3.754   6.275
  922SOL    HW1 3665   2.152   3.700   6.196
  922SOL    HW2 3666   2.111   3.849   6.248
  923SOL     OW 3667   4.047   0.990   6.612
  923SOL    HW1 3668   3.981   0.917   6.592
  923SOL    HW2 3669   3.999   1.077   6.617
  924SOL     OW 3670   6.322   3.954   3.302
  924SOL    HW1 3671   6.347   3.858   3.309
  924SOL    HW2 3672   6.244   3.965   3.241
  925SOL     OW 3673   6.046   2.266   3.000
  925SOL    HW1 3674   6.128   2.216   3.030
  925SOL    HW2 3675   5.964   2.215   3.027
  926SOL     OW 3676   5.373   6.329   0.561
  926SOL    HW1 3677   5.308   6.253   0.561
  926SOL    HW2 3678   5.448   6.310   0.625
  927SOL     OW 3679   4.471   5.064   4.842
  927SOL    HW1 3680   4.378   5.098   4.833
  927SOL    HW2 3681   4.534   5.123   4.792
  928SOL     OW 3682   0.648   1.206   1.417
  928SOL    HW1 3683   0.702   1.156   1.350
  928SOL    HW2 3684   0.636   1.150   1.499
  929SOL     OW 3685   0.792   2.380   2.693
  929SOL    HW1 3686   0.748   2.359   2.781
  929SOL    HW2 3687   0.751   2.324   2.622
  930SOL     OW 3688   4.887   6.308   3.195
  930SOL    HW1 3689   4.948   6.353   3.130
  930SOL    HW2 3690   4.933   6.297   3.283
  931SOL     OW 3691   1.996   2.781   2.026
  931SOL    HW1 3692   1.998   2.860   1.964
  931SOL    HW2 3693   1.949   2.705   1.982
  932SOL     OW 3694   4.523   6.479   1.034
  932SOL    HW1 3695   4.455   6.495   0.962
  932SOL    HW2 3696   4.479   6.484   1.123
  933SOL     OW 3697   1.776   6.117   3.372
  933SOL    HW1 3698   1.860   6.109   3.317
  933SOL    HW2 3699   1.696   6.108   3.313
  934SOL     OW 3700   3.015   1.116   5.478
  934SOL    HW1 3701   2.953   1.048   5.518
  934SOL    HW2 3702   2.968   1.204   5.473
  935SOL     OW 3703   2.533   3.092   6.503
  935SOL    HW1 3704   2.560   3.171   6.448
  935SOL    HW2 3705   2.580   3.095   6.591
  936SOL     OW 3706   0.007   1.559   1.805
  936SOL    HW1 3707   6.939   1.527   1.787
  936SOL    HW2 3708   0.060   1.555   1.721
  937SOL     OW 3709   4.659   2.272   3.796
  937SOL    HW1 3710   4.661   2.291   3.894
  937SOL    HW2 3711   4.712   2.190   3.777
  938SOL     OW 3712   6.760   2.170   0.347
  938SOL    HW1 3713   6.856   2.146   0.360
  938SOL    HW2 3714   6.743   2.184   0.249
  939SOL     OW 3715   6.375   0.807   6.119
  939SOL    HW1 3716   6.285   0.807   6.077
  939SOL    HW2 3717   6.431   0.880   6.078
  940SOL     OW 3718   0.662   0.854   4.333
  940SOL    HW1 3719   0.676   0.953   4.332
  940SOL    HW2 3720   0.577   0.833   4.381
  941SOL     OW 3721   5.351   2.899   4.899
  941SOL    HW1 3722   5.407   2.817   4.895
  941SOL    HW2 3723   5.255   2.874   4.900
  942SOL     OW 3724   5.084   0.140   5.537
  942SOL    HW1 3725   5.000   0.156   5.487
  942SOL    HW2 3726   5.107   0.043   5.534
  943SOL     OW 3727   5.843   1.940   6.860
  943SOL    HW1 3728   5.865   1.959   6.765
  943SOL    HW2 3729   5.831   1.841   6.873
  944SOL     OW 3730   5.904   3.978   4.694
  944SOL    HW1 3731   5.997   3.983   4.728
  944SOL    HW2 3732   5.886   4.056   4.634
  945SOL     OW 3733   5.400   3.965   5.375
  945SOL    HW1 3734   5.396   3.865   5.373
  945SOL    HW2 3735   5.357   4.002   5.292
  946SOL     OW 3736   5.984   3.137   5.843
  946SOL    HW1 3737   5.917   3.197   5.801
  946SOL    HW2 3738   5.937   3.066   5.896
  947SOL     OW 3739   1.414   3.104   5.703
  947SOL    HW1 3740   1.502   3.149   5.722
  947SOL    HW2 3741   1.371   3.148   5.624
  948SOL     OW 3742   4.023   1.858   0.292
  948SOL    HW1 3743   3.965   1.922   0.242
  948SOL    HW2 3744   3.966   1.792   0.341
  949SOL     OW 3745   5.994   5.650   6.493
  949SOL    HW1 3746   6.053   5.713   6.544
  949SOL    HW2 3747   5.929   5.702   6.438
  950SOL     OW 3748   4.224   5.318   1.010
  950SOL    HW1 3749   4.316   5.351   1.031
  950SOL    HW2 3750   4.210   5.228   1.050
  951SOL     OW 3751   1.009   2.401   3.358
  951SOL    HW1 3752   1.075   2.476   3.370
  951SOL    HW2 3753   0.948   2.422   3.282
  952SOL     OW 3754   5.379   1.528   1.523
  952SOL    HW1 3755   5.454   1.522   1.456
  952SOL    HW2 3756   5.417   1.521   1.615
  953SOL     OW 3757   3.543   0.095   6.172
  953SOL    HW1 3758   3.460   0.045   6.149
  953SOL    HW2 3759   3.534   0.190   6.143
  954SOL     OW 3760   0.523   6.445   1.118
  954SOL    HW1 3761   0.497   6.391   1.037
  954SOL    HW2 3762   0.480   6.405   1.199
  955SOL     OW 3763   6.324   6.714   2.023
  955SOL    HW1 3764   6.281   6.804   2.024
  955SOL    HW2 3765   6.275   6.652   2.084
  956SOL     OW 3766   0.616   2.461   0.244
  956SOL    HW1 3767   0.697   2.483   0.190
  956SOL    HW2 3768   0.535   2.501   0.201
  957SOL     OW 3769   2.608   6.300   5.608
  957SOL    HW1 3770   2.615   6.323   5.511
  957SOL    HW2 3771   2.617   6.201   5.619
  958SOL     OW 3772   4.920   2.417   0.357
  958SOL    HW1 3773   4.894   2.322   0.377
  958SOL    HW2 3774   5.020   2.425   0.363
  959SOL     OW 3775   1.528   4.286   2.250
  959SOL    HW1 3776   1.594   4.347   2.294
  959SOL    HW2 3777   1.483   4.230   2.320
  960SOL     OW 3778   1.679   5.723   5.308
  960SOL    HW1 3779   1.705   5.811   5.269
  960SOL    HW2 3780   1.730   5.706   5.392
  961SOL     OW 3781   3.739   0.164   1.853
  961SOL    HW1 3782   3.696   0.226   1.787
  961SOL    HW2 3783   3.764   0.215   1.935
  962SOL     OW 3784   1.549   6.476   4.044
  962SOL    HW1 3785   1.566   6.568   4.007
  962SOL    HW2 3786   1.611   6.411   4.000
  963SOL     OW 3787   5.954   0.736   1.886
  963SOL    HW1 3788   5.932   0.684   1.968
  963SOL    HW2 3789   5.895   0.816   1.881
  964SOL     OW 3790   5.058   3.948   1.295
  964SOL    HW1 3791   5.090   4.042   1.298
  964SOL    HW2 3792   4.968   3.944   1.252
  965SOL     OW 3793   1.386   2.137   0.910
  965SOL    HW1 3794   1.333   2.164   0.991
  965SOL    HW2 3795   1.390   2.214   0.846
  966SOL     OW 3796   0.021   1.844   1.487
  966SOL    HW1 3797   0.026   1.846   1.587
  966SOL    HW2 3798   0.071   1.923   1.450
  967SOL     OW 3799   0.621   5.797   2.487
  967SOL    HW1 3800   0.662   5.886   2.507
  967SOL    HW2 3801   0.668   5.756   2.409
  968SOL     OW 3802   6.268   4.199   2.346
  968SOL    HW1 3803   6.346   4.218   2.287
  968SOL    HW2 3804   6.216   4.283   2.361
  969SOL     OW 3805   4.497   6.299   6.416
  969SOL    HW1 3806   4.437   6.248   6.354
  969SOL    HW2 3807   4.443   6.336   6.492
  970SOL     OW 3808   4.448   2.305   5.313
  970SOL    HW1 3809   4.482   2.213   5.331
  970SOL    HW2 3810   4.516   2.357   5.261
  971SOL     OW 3811   0.294   2.277   1.546
  971SOL    HW1 3812   0.298   2.336   1.627
  971SOL    HW2 3813   0.250   2.191   1.570
  972SOL     OW 3814   6.736   5.690   1.794
  972SOL    HW1 3815   6.691   5.779   1.805
  972SOL    HW2 3816   6.691   5.640   1.720
  973SOL     OW 3817   6.312   4.015   5.665
  973SOL    HW1 3818   6.297   4.107   5.701
  973SOL    HW2 3819   6.406   4.007   5.633
  974SOL     OW 3820   2.762   1.357   4.136
  974SOL    HW1 3821   2.665   1.349   4.159
  974SOL    HW2 3822   2.812   1.394   4.215
  975SOL     OW 3823   3.874   6.919   5.611
  975SOL    HW1 3824   3.872   6.938   5.709
  975SOL    HW2 3825   3.889   6.821   5.596
  976SOL     OW 3826   0.356   5.729   3.692
  976SOL    HW1 3827   0.332   5.722   3.595
  976SOL    HW2 3828   0.303   5.663   3.745
  977SOL     OW 3829   1.307   2.220   2.963
  977SOL    HW1 3830   1.207   2.223   2.974
  977SOL    HW2 3831   1.331   2.251   2.871
  978SOL     OW 3832   5.943   3.068   4.887
  978SOL    HW1 3833   6.031   3.112   4.874
  978SOL    HW2 3834   5.872   3.137   4.905
  979SOL     OW 3835   5.227   0.886   3.372
  979SOL    HW1 3836   5.242   0.809   3.310
  979SOL    HW2 3837   5.167   0.857   3.447
  980SOL     OW 3838   6.204   0.862   4.726
  980SOL    HW1 3839   6.120   0.862   4.780
  980SOL    HW2 3840   6.202   0.940   4.663
  981SOL     OW 3841   6.975   3.171   5.406
  981SOL    HW1 3842   6.960   3.183   5.504
  981SOL    HW2 3843   0.012   3.242   5.373
  982SOL     OW 3844   1.321   3.009   1.606
  982SOL    HW1 3845   1.412   2.969   1.593
  982SOL    HW2 3846   1.314   3.047   1.698
  983SOL     OW 3847   5.508   1.622   3.018
  983SOL    HW1 3848   5.598   1.592   3.048
  983SOL    HW2 3849   5.490   1.587   2.926
  984SOL     OW 3850   4.800   1.125   4.639
  984SOL    HW1 3851   4.707   1.117   4.675
  984SOL    HW2 3852   4.798   1.173   4.551
  985SOL     OW 3853   3.117   5.176   0.044
  985SOL    HW1 3854   3.181   5.244   0.010
  985SOL    HW2 3855   3.161   5.123   0.116
  986SOL     OW 3856   4.479   5.161   6.477
  986SOL    HW1 3857   4.563   5.120   6.441
  986SOL    HW2 3858   4.455   5.117   6.563
  987SOL     OW 3859   3.443   6.903   2.479
  987SOL    HW1 3860   3.389   6.908   2.394
  987SOL    HW2 3861   3.467   6.808   2.498
  988SOL     OW 3862   3.551   4.162   2.019
  988SOL    HW1 3863   3.568   4.235   1.953
  988SOL    HW2 3864   3.536   4.201   2.110
  989SOL     OW 3865   1.118   0.038   4.651
  989SOL    HW1 3866   1.128   6.966   4.674
  989SOL    HW2 3867   1.197   0.067   4.596
  990SOL     OW 3868   4.722   6.199   3.717
  990SOL    HW1 3869   4.686   6.119   3.669
  990SOL    HW2 3870   4.745   6.174   3.811
  991SOL     OW 3871   6.301   1.387   5.036
  991SOL    HW1 3872   6.281   1.300   4.992
  991SOL    HW2 3873   6.372   1.435   4.984
  992SOL     OW 3874   0.426   3.505   0.931
  992SOL    HW1 3875   0.397   3.519   0.836
  992SOL    HW2 3876   0.374   3.430   0.972
  993SOL     OW 3877   3.629   4.964   4.011
  993SOL    HW1 3878   3.607   4.900   4.085
  993SOL    HW2 3879   3.682   4.916   3.941
  994SOL     OW 3880   2.935   3.383   2.301
  994SOL    HW1 3881   2.979   3.328   2.373
  994SOL    HW2 3882   2.900   3.322   2.230
  995SOL     OW 3883   0.944   1.391   4.991
  995SOL    HW1 3884   0.983   1.463   5.049
  995SOL    HW2 3885   0.889   1.330   5.046
  996SOL     OW 3886   1.448   3.912   2.173
  996SOL    HW1 3887   1.414   3.899   2.080
  996SOL    HW2 3888   1.473   3.823   2.213
  997SOL     OW 3889   6.512   0.903   1.516
  997SOL    HW1 3890   6.500   0.916   1.614
  997SOL    HW2 3891   6.447   0.960   1.465
  998SOL     OW 3892   5.121   0.336   3.184
  998SOL    HW1 3893   5.219   0.315   3.177
  998SOL    HW2 3894   5.107   0.404   3.255
  999SOL     OW 3895   0.060   5.711   1.136
  999SOL    HW1 3896   0.126   5.636   1.139
  999SOL    HW2 3897   0.001   5.700   1.056
 1000SOL     OW 3898   3.881   1.826   3.755
 1000SOL    HW1 3899   3.822   1.802   3.678
 1000SOL    HW2 3900   3.828   1.820   3.840
 1001SOL     OW 3901   4.616   0.098   5.921
 1001SOL    HW1 3902   4.521   0.128   5.934
 1001SOL    HW2 3903   4.670   0.126   6.000
 1002SOL     OW 3904   6.657   1.548   0.839
 1002SOL    HW1 3905   6.619   1.510   0.924
 1002SOL    HW2 3906   6.735   1.494   0.810
 1003SOL     OW 3907   4.293   5.199   2.405
 1003SOL    HW1 3908   4.194   5.214   2.410
 1003SOL    HW2 3909   4.340   5.287   2.410
 1004SOL     OW 3910   6.054   5.748   0.171
 1004SOL    HW1 3911   6.054   5.804   0.088
 1004SOL    HW2 3912   6.109   5.666   0.155
 1005SOL     OW 3913   6.548   6.239   4.022
 1005SOL    HW1 3914   6.564   6.313   3.958
 1005SOL    HW2 3915   6.635   6.200   4.052
 1006SOL     OW 3916   2.319   4.352   1.161
 1006SOL    HW1 3917   2.235   4.387   1.202
 1006SOL    HW2 3918   2.347   4.268   1.208
 1007SOL     OW 3919   0.489   0.820   3.469
 1007SOL    HW1 3920   0.547   0.880   3.415
 1007SOL    HW2 3921   0.535   0.732   3.483
 1008SOL     OW 3922   2.181   3.066   3.345
 1008SOL    HW1 3923   2.171   3.164   3.361
 1008SOL    HW2 3924   2.154   3.016   3.428
 1009SOL     OW 3925   1.731   5.873   4.951
 1009SOL    HW1 3926   1.764   5.839   4.863
 1009SOL    HW2 3927   1.639   5.910   4.940
 1010SOL     OW 3928   4.946   1.290   6.667
 1010SOL    HW1 3929   4.951   1.382   6.708
 1010SOL    HW2 3930   4.868   1.241   6.706
 1011SOL     OW 3931   3.481   6.141   3.555
 1011SOL    HW1 3932   3.464   6.213   3.488
 1011SOL    HW2 3933   3.422   6.062   3.535
 1012SOL     OW 3934   5.010   5.410   0.069
 1012SOL    HW1 3935   5.072   5.488   0.075
 1012SOL    HW2 3936   5.011   5.373   7.001
 1013SOL     OW 3937   0.405   1.252   1.368
 1013SOL    HW1 3938   0.502   1.244   1.388
 1013SOL    HW2 3939   0.392   1.253   1.269
 1014SOL     OW 3940   4.920   0.222   5.940
 1014SOL    HW1 3941   4.940   0.141   5.995
 1014SOL    HW2 3942   4.842   0.271   5.979
 1015SOL     OW 3943   3.191   5.960   4.254
 1015SOL    HW1 3944   3.278   5.945   4.302
 1015SOL    HW2 3945   3.191   6.052   4.214
 1016SOL     OW 3946   4.585   2.897   1.463
 1016SOL    HW1 3947   4.676   2.932   1.442
 1016SOL    HW2 3948   4.584   2.856   1.554
 1017SOL     OW 3949   4.298   2.041   6.589
 1017SOL    HW1 3950   4.285   1.963   6.527
 1017SOL    HW2 3951   4.324   2.121   6.535
 1018SOL     OW 3952   1.454   3.516   2.519
 1018SOL    HW1 3953   1.441   3.587   2.587
 1018SOL    HW2 3954   1.520   3.448   2.553
 1019SOL     OW 3955   6.330   0.959   0.639
 1019SOL    HW1 3956   6.336   0.862   0.613
 1019SOL    HW2 3957   6.410   1.007   0.605
 1020SOL     OW 3958   2.649   1.570   1.695
 1020SOL    HW1 3959   2.706   1.576   1.777
 1020SOL    HW2 3960   2.667   1.483   1.649
 1021SOL     OW 3961   6.845   1.543   1.202
 1021SOL    HW1 3962   6.938   1.512   1.180
 1021SOL    HW2 3963   6.838   1.558   1.301
 1022SOL     OW 3964   4.259   2.962   6.544
 1022SOL    HW1 3965   4.308   2.956   6.457
 1022SOL    HW2 3966   4.316   2.921   6.616
 1023SOL     OW 3967   5.275   1.331   3.629
 1023SOL    HW1 3968   5.291   1.365   3.722
 1023SOL    HW2 3969   5.216   1.396   3.580
 1024SOL     OW 3970   6.200   1.643   3.469
 1024SOL    HW1 3971   6.188   1.612   3.374
 1024SOL    HW2 3972   6.241   1.569   3.523
 1025SOL     OW 3973   3.032   4.695   1.170
 1025SOL    HW1 3974   2.951   4.742   1.205
 1025SOL    HW2 3975   3.097   4.680   1.245
 1026SOL     OW 3976   1.041   2.727   0.022
 1026SOL    HW1 3977   1.085   2.638   0.020
 1026SOL    HW2 3978   1.004   2.745   0.113
 1027SOL     OW 3979   2.785   4.960   2.440
 1027SOL    HW1 3980   2.703   4.945   2.386
 1027SOL    HW2 3981   2.839   4.876   2.442
 1028SOL     OW 3982   1.824   6.108   0.830
 1028SOL    HW1 3983   1.885   6.070   0.761
 1028SOL    HW2 3984   1.735   6.126   0.789
 1029SOL     OW 3985   2.698   1.123   6.165
 1029SOL    HW1 3986   2.688   1.056   6.092
 1029SOL    HW2 3987   2.792   1.122   6.199
 1030SOL     OW 3988   3.451   4.128   4.799
 1030SOL    HW1 3989   3.512   4.205   4.818
 1030SOL    HW2 3990   3.501   4.043   4.807
 1031SOL     OW 3991   2.192   5.216   1.092
 1031SOL    HW1 3992   2.174   5.291   1.156
 1031SOL    HW2 3993   2.147   5.235   1.005
 1032SOL     OW 3994   1.960   0.585   4.512
 1032SOL    HW1 3995   1.966   0.638   4.596
 1032SOL    HW2 3996   1.923   0.642   4.439
 1033SOL     OW 3997   2.017   5.899   3.528
 1033SOL    HW1 3998   2.107   5.942   3.538
 1033SOL    HW2 3999   1.982   5.917   3.436
 1034SOL     OW 4000   1.385   5.116   3.461
 1034SOL    HW1 4001   1.292   5.081   3.473
 1034SOL    HW2 4002   1.397   5.200   3.513
 1035SOL     OW 4003   2.352   1.509   4.470
 1035SOL    HW1 4004   2.255   1.514   4.495
 1035SOL    HW2 4005   2.393   1.429   4.514
 1036SOL     OW 4006   5.105   1.907   0.119
 1036SOL    HW1 4007   5.077   1.819   0.080
 1036SOL    HW2 4008   5.177   1.892   0.187
 1037SOL     OW 4009   2.937   2.315   6.808
 1037SOL    HW1 4010   3.024   2.279   6.841
 1037SOL    HW2 4011   2.871   2.240   6.798
 1038SOL     OW 4012   2.479   1.075   4.124
 1038SOL    HW1 4013   2.469   1.170   4.153
 1038SOL    HW2 4014   2.556   1.033   4.173
 1039SOL     OW 4015   4.057   1.384   3.445
 1039SOL    HW1 4016   4.074   1.457   3.379
 1039SOL    HW2 4017   3.961   1.384   3.473
 1040SOL     OW 4018   6.697   4.406   3.251
 1040SOL    HW1 4019   6.603   4.373   3.242
 1040SOL    HW2 4020   6.757   4.329   3.270
 1041SOL     OW 4021   0.584   6.786   4.409
 1041SOL    HW1 4022   0.496   6.822   4.439
 1041SOL    HW2 4023   0.649   6.861   4.401
 1042SOL     OW 4024   5.284   4.151   0.754
 1042SOL    HW1 4025   5.291   4.250   0.768
 1042SOL    HW2 4026   5.252   4.108   0.838
 1043SOL     OW 4027   2.816   1.134   6.520
 1043SOL    HW1 4028   2.797   1.232   6.518
 1043SOL    HW2 4029   2.857   1.105   6.434
 1044SOL     OW 4030   4.052   3.633   1.806
 1044SOL    HW1 4031   4.137   3.649   1.757
 1044SOL    HW2 4032   3.981   3.602   1.743
 1045SOL     OW 4033   3.303   1.417   3.392
 1045SOL    HW1 4034   3.281   1.418   3.295
 1045SOL    HW2 4035   3.306   1.510   3.427
 1046SOL     OW 4036   3.782   0.914   2.085
 1046SOL    HW1 4037   3.699   0.959   2.050
 1046SOL    HW2 4038   3.862   0.968   2.060
 1047SOL     OW 4039   1.178   5.158   2.179
 1047SOL    HW1 4040   1.114   5.186   2.252
 1047SOL    HW2 4041   1.146   5.073   2.137
 1048SOL     OW 4042   5.922   4.505   5.556
 1048SOL    HW1 4043   5.945   4.409   5.541
 1048SOL    HW2 4044   5.918   4.524   5.654
 1049SOL     OW 4045   0.793   3.251   5.028
 1049SOL    HW1 4046   0.795   3.275   4.931
 1049SOL    HW2 4047   0.886   3.245   5.063
 1050SOL     OW 4048   3.511   0.462   6.619
 1050SOL    HW1 4049   3.458   0.425   6.543
 1050SOL    HW2 4050   3.480   0.555   6.639
 1051SOL     OW 4051   4.434   4.763   1.657
 1051SOL    HW1 4052   4.472   4.687   1.605
 1051SOL    HW2 4053   4.383   4.729   1.735
 1052SOL     OW 4054   3.587   6.876   4.489
 1052SOL    HW1 4055   3.511   6.841   4.544
 1052SOL    HW2 4056   3.552   6.941   4.421
 1053SOL     OW 4057   4.133   4.690   3.187
 1053SOL    HW1 4058   4.159   4.596   3.209
 1053SOL    HW2 4059   4.210   4.737   3.144
 1054SOL     OW 4060   3.467   6.137   4.234
 1054SOL    HW1 4061   3.498   6.062   4.292
 1054SOL    HW2 4062   3.482   6.114   4.138
 1055SOL     OW 4063   4.575   5.223   4.456
 1055SOL    HW1 4064   4.623   5.281   4.391
 1055SOL    HW2 4065   4.588   5.260   4.549
 1056SOL     OW 4066   1.423   6.399   5.133
 1056SOL    HW1 4067   1.329   6.430   5.116
 1056SOL    HW2 4068   1.465   6.458   5.202
 1057SOL     OW 4069   3.743   3.936   1.874
 1057SOL    HW1 4070   3.826   3.908   1.922
 1057SOL    HW2 4071   3.697   4.008   1.926
 1058SOL     OW 4072   3.773   0.981   1.439
 1058SOL    HW1 4073   3.769   0.976   1.339
 1058SOL    HW2 4074   3.859   0.941   1.470
 1059SOL     OW 4075   3.311   1.935   1.183
 1059SOL    HW1 4076   3.284   2.030   1.166
 1059SOL    HW2 4077   3.233   1.882   1.215
 1060SOL     OW 4078   2.587   2.335   4.775
 1060SOL    HW1 4079   2.683   2.311   4.757
 1060SOL    HW2 4080   2.561   2.299   4.865
 1061SOL     OW 4081   3.259   6.051   1.846
 1061SOL    HW1 4082   3.203   6.108   1.907
 1061SOL    HW2 4083   3.279   6.101   1.762
 1062SOL     OW 4084   5.047   4.478   5.293
 1062SOL    HW1 4085   5.126   4.497   5.236
 1062SOL    HW2 4086   5.052   4.533   5.377
 1063SOL     OW 4087   2.194   2.550   5.861
 1063SOL    HW1 4088   2.280   2.552   5.911
 1063SOL    HW2 4089   2.204   2.490   5.781
 1064SOL     OW 4090   0.203   3.325   1.597
 1064SOL    HW1 4091   0.205   3.416   1.556
 1064SOL    HW2 4092   0.264   3.323   1.677
 1065SOL     OW 4093   5.754   6.040   5.313
 1065SOL    HW1 4094   5.816   6.079   5.381
 1065SOL    HW2 4095   5.724   6.113   5.250
 1066SOL     OW 4096   3.930   0.490   3.872
 1066SOL    HW1 4097   4.028   0.470   3.866
 1066SOL    HW2 4098   3.885   0.422   3.930
 1067SOL     OW 4099   1.783   3.352   1.678
 1067SOL    HW1 4100   1.815   3.446   1.686
 1067SOL    HW2 4101   1.698   3.341   1.729
 1068SOL     OW 4102   0.823   3.763   1.643
 1068SOL    HW1 4103   0.751   3.694   1.639
 1068SOL    HW2 4104   0.815   3.813   1.730
 1069SOL     OW 4105   3.630   3.916   1.431
 1069SOL    HW1 4106   3.640   3.845   1.500
 1069SOL    HW2 4107   3.567   3.987   1.464
 1070SOL     OW 4108   1.902   0.505   6.873
 1070SOL    HW1 4109   1.877   0.430   6.934
 1070SOL    HW2 4110   1.996   0.493   6.841
 1071SOL     OW 4111   3.783   6.249   3.551
 1071SOL    HW1 4112   3.688   6.261   3.578
 1071SOL    HW2 4113   3.842   6.261   3.630
 1072SOL     OW 4114   3.590   5.753   3.030
 1072SOL    HW1 4115   3.608   5.808   3.111
 1072SOL    HW2 4116   3.656   5.774   2.959
 1073SOL     OW 4117   2.819   4.750   2.775
 1073SOL    HW1 4118   2.880   4.815   2.822
 1073SOL    HW2 4119   2.739   4.732   2.832
 1074SOL     OW 4120   1.517   5.328   2.564
 1074SOL    HW1 4121   1.598   5.354   2.511
 1074SOL    HW2 4122   1.546   5.301   2.656
 1075SOL     OW 4123   0.260   4.293   2.936
 1075SOL    HW1 4124   0.275   4.205   2.981
 1075SOL    HW2 4125   0.245   4.364   3.005
 1076SOL     OW 4126   0.111   4.968   3.639
 1076SOL    HW1 4127   0.137   4.939   3.547
 1076SOL    HW2 4128   0.084   5.064   3.638
 1077SOL     OW 4129   4.446   0.513   0.906
 1077SOL    HW1 4130   4.478   0.467   0.989
 1077SOL    HW2 4131   4.348   0.531   0.913
 1078SOL     OW 4132   1.237   2.469   1.773
 1078SOL    HW1 4133   1.155   2.413   1.779
 1078SOL    HW2 4134   1.295   2.453   1.852
 1079SOL     OW 4135   2.427   5.103   2.777
 1079SOL    HW1 4136   2.425   5.048   2.861
 1079SOL    HW2 4137   2.510   5.082   2.726
 1080SOL     OW 4138   1.543   5.391   4.042
 1080SOL    HW1 4139   1.609   5.464   4.053
 1080SOL    HW2 4140   1.537   5.337   4.126
 1081SOL     OW 4141   1.257   1.137   0.179
 1081SOL    HW1 4142   1.249   1.204   0.105
 1081SOL    HW2 4143   1.221   1.176   0.263
 1082SOL     OW 4144   2.314   6.973   6.833
 1082SOL    HW1 4145   2.225   7.009   6.859
 1082SOL    HW2 4146   2.375   0.023   6.807
 1083SOL     OW 4147   3.820   2.974   1.277
 1083SOL    HW1 4148   3.765   2.952   1.358
 1083SOL    HW2 4149   3.901   2.915   1.275
 1084SOL     OW 4150   6.730   3.798   0.457
 1084SOL    HW1 4151   6.676   3.882   0.448
 1084SOL    HW2 4152   6.677   3.720   0.423
 1085SOL     OW 4153   2.187   3.992   3.964
 1085SOL    HW1 4154   2.165   3.905   4.009
 1085SOL    HW2 4155   2.112   4.019   3.903
 1086SOL     OW 4156   4.296   5.370   2.111
 1086SOL    HW1 4157   4.342   5.428   2.044
 1086SOL    HW2 4158   4.365   5.318   2.162
 1087SOL     OW 4159   4.168   2.942   5.462
 1087SOL    HW1 4160   4.097   2.879   5.432
 1087SOL    HW2 4161   4.179   3.014   5.394
 1088SOL     OW 4162   5.164   3.887   3.573
 1088SOL    HW1 4163   5.123   3.798   3.553
 1088SOL    HW2 4164   5.237   3.876   3.640
 1089SOL     OW 4165   6.023   0.175   3.025
 1089SOL    HW1 4166   6.001   0.125   2.941
 1089SOL    HW2 4167   5.947   0.237   3.048
 1090SOL     OW 4168   0.990   1.977   5.202
 1090SOL    HW1 4169   0.964   1.880   5.205
 1090SOL    HW2 4170   1.090   1.984   5.192
 1091SOL     OW 4171   1.331   2.158   4.792
 1091SOL    HW1 4172   1.316   2.083   4.727
 1091SOL    HW2 4173   1.412   2.209   4.765
 1092SOL     OW 4174   2.142   4.498   1.315
 1092SOL    HW1 4175   2.176   4.541   1.398
 1092SOL    HW2 4176   2.091   4.564   1.261
 1093SOL     OW 4177   0.082   1.620   2.886
 1093SOL    HW1 4178   0.095   1.717   2.866
 1093SOL    HW2 4179   0.080   1.568   2.801
 1094SOL     OW 4180   0.826   6.295   1.803
 1094SOL    HW1 4181   0.847   6.369   1.867
 1094SOL    HW2 4182   0.911   6.254   1.770
 1095SOL     OW 4183   6.373   3.613   5.952
 1095SOL    HW1 4184   6.344   3.601   6.046
 1095SOL    HW2 4185   6.439   3.688   5.947
 1096SOL     OW 4186   3.622   4.335   1.775
 1096SOL    HW1 4187   3.624   4.330   1.675
 1096SOL    HW2 4188   3.648   4.427   1.804
 1097SOL     OW 4189   1.739   4.482   5.519
 1097SOL    HW1 4190   1.828   4.469   5.562
 1097SOL    HW2 4191   1.666   4.464   5.585
 1098SOL     OW 4192   3.945   1.070   3.344
 1098SOL    HW1 4193   3.934   0.971   3.338
 1098SOL    HW2 4194   4.024   1.099   3.289
 1099SOL     OW 4195   3.657   1.676   2.619
 1099SOL    HW1 4196   3.605   1.685   2.534
 1099SOL    HW2 4197   3.734   1.741   2.618
 1100SOL     OW 4198   0.851   0.175   0.810
 1100SOL    HW1 4199   0.870   0.273   0.818
 1100SOL    HW2 4200   0.861   0.147   0.714
 1101SOL     OW 4201   5.851   2.327   0.686
 1101SOL    HW1 4202   5.792   2.318   0.606
 1101SOL    HW2 4203   5.796   2.350   0.766
 1102SOL     OW 4204   0.662   4.664   3.873
 1102SOL    HW1 4205   0.673   4.575   3.831
 1102SOL    HW2 4206   0.609   4.655   3.957
 1103SOL     OW 4207   0.800   3.040   1.522
 1103SOL    HW1 4208   0.819   3.138   1.532
 1103SOL    HW2 4209   0.882   2.989   1.549
 1104SOL     OW 4210   3.051   5.144   5.870
 1104SOL    HW1 4211   2.953   5.140   5.851
 1104SOL    HW2 4212   3.074   5.235   5.905
 1105SOL     OW 4213   4.271   5.787   0.251
 1105SOL    HW1 4214   4.297   5.707   0.305
 1105SOL    HW2 4215   4.342   5.857   0.258
 1106SOL     OW 4216   0.841   1.914   5.918
 1106SOL    HW1 4217   0.827   1.861   5.835
 1106SOL    HW2 4218   0.798   2.004   5.908
 1107SOL     OW 4219   1.212   0.578   1.527
 1107SOL    HW1 4220   1.218   0.607   1.431
 1107SOL    HW2 4221   1.299   0.599   1.573
 1108SOL     OW 4222   1.222   1.656   6.062
 1108SOL    HW1 4223   1.217   1.653   5.962
 1108SOL    HW2 4224   1.316   1.681   6.089
 1109SOL     OW 4225   4.643   1.048   3.774
 1109SOL    HW1 4226   4.633   1.146   3.756
 1109SOL    HW2 4227   4.571   0.998   3.727
 1110SOL     OW 4228   3.723   3.041   1.887
 1110SOL    HW1 4229   3.819   3.040   1.859
 1110SOL    HW2 4230   3.690   2.947   1.896
 1111SOL     OW 4231   5.480   0.046   0.034
 1111SOL    HW1 4232   5.564   0.035   7.006
 1111SOL    HW2 4233   5.466   6.991   0.091
 1112SOL     OW 4234   6.702   1.212   2.967
 1112SOL    HW1 4235   6.760   1.130   2.964
 1112SOL    HW2 4236   6.758   1.293   2.953
 1113SOL     OW 4237   6.340   3.764   1.399
 1113SOL    HW1 4238   6.430   3.745   1.358
 1113SOL    HW2 4239   6.350   3.772   1.498
 1114SOL     OW 4240   5.739   1.590   4.766
 1114SOL    HW1 4241   5.813   1.650   4.797
 1114SOL    HW2 4242   5.724   1.518   4.834
 1115SOL     OW 4243   2.301   3.017   0.555
 1115SOL    HW1 4244   2.343   3.030   0.645
 1115SOL    HW2 4245   2.276   3.106   0.517
 1116SOL     OW 4246   4.227   5.490   4.835
 1116SOL    HW1 4247   4.191   5.475   4.743
 1116SOL    HW2 4248   4.190   5.421   4.897
 1117SOL     OW 4249   2.639   3.255   1.096
 1117SOL    HW1 4250   2.709   3.214   1.155
 1117SOL    HW2 4251   2.595   3.184   1.042
 1118SOL     OW 4252   1.901   3.707   3.594
 1118SOL    HW1 4253   1.921   3.609   3.603
 1118SOL    HW2 4254   1.983   3.756   3.567
 1119SOL     OW 4255   3.285   3.992   2.455
 1119SOL    HW1 4256   3.371   3.942   2.443
 1119SOL    HW2 4257   3.213   3.949   2.400
 1120SOL     OW 4258   4.200   0.588   4.744
 1120SOL    HW1 4259   4.274   0.542   4.792
 1120SOL    HW2 4260   4.175   0.535   4.663
 1121SOL     OW 4261   5.391   3.287   2.446
 1121SOL    HW1 4262   5.320   3.348   2.481
 1121SOL    HW2 4263   5.383   3.280   2.347
 1122SOL     OW 4264   5.091   4.693   6.848
 1122SOL    HW1 4265   5.001   4.691   6.805
 1122SOL    HW2 4266   5.152   4.754   6.797
 1123SOL     OW 4267   3.762   0.801   1.834
 1123SOL    HW1 4268   3.818   0.866   1.782
 1123SOL    HW2 4269   3.773   0.819   1.932
 1124SOL     OW 4270   1.181   4.547   4.786
 1124SOL    HW1 4271   1.184   4.564   4.884
 1124SOL    HW2 4272   1.169   4.634   4.737
 1125SOL     OW 4273   4.088   3.282   5.076
 1125SOL    HW1 4274   4.001   3.236   5.095
 1125SOL    HW2 4275   4.114   3.267   4.980
 1126SOL     OW 4276   5.617   6.945   2.514
 1126SOL    HW1 4277   5.648   7.007   2.441
 1126SOL    HW2 4278   5.678   6.866   2.517
 1127SOL     OW 4279   1.259   4.874   6.778
 1127SOL    HW1 4280   1.229   4.866   6.873
 1127SOL    HW2 4281   1.182   4.903   6.721
 1128SOL     OW 4282   3.088   1.603   4.772
 1128SOL    HW1 4283   3.147   1.546   4.829
 1128SOL    HW2 4284   3.142   1.644   4.698
 1129SOL     OW 4285   5.447   0.350   6.835
 1129SOL    HW1 4286   5.361   0.401   6.840
 1129SOL    HW2 4287   5.505   0.373   6.913
 1130SOL     OW 4288   0.263   4.855   5.836
 1130SOL    HW1 4289   0.221   4.790   5.899
 1130SOL    HW2 4290   0.329   4.911   5.885
 1131SOL     OW 4291   0.636   5.242   6.033
 1131SOL    HW1 4292   0.692   5.285   5.962
 1131SOL    HW2 4293   0.582   5.313   6.079
 1132SOL     OW 4294   4.849   0.123   5.413
 1132SOL    HW1 4295   4.788   0.118   5.492
 1132SOL    HW2 4296   4.801   0.088   5.332
 1133SOL     OW 4297   0.943   2.718   0.809
 1133SOL    HW1 4298   0.936   2.707   0.710
 1133SOL    HW2 4299   1.014   2.785   0.830
 1134SOL     OW 4300   6.454   3.037   5.820
 1134SOL    HW1 4301   6.370   3.068   5.776
 1134SOL    HW2 4302   6.496   3.113   5.868
 1135SOL     OW 4303   4.934   1.664   3.227
 1135SOL    HW1 4304   5.014   1.646   3.169
 1135SOL    HW2 4305   4.907   1.580   3.274
 1136SOL     OW 4306   3.840   5.411   3.945
 1136SOL    HW1 4307   3.861   5.505   3.972
 1136SOL    HW2 4308   3.915   5.351   3.973
 1137SOL     OW 4309   1.760   1.463   5.376
 1137SOL    HW1 4310   1.814   1.391   5.330
 1137SOL    HW2 4311   1.774   1.457   5.475
 1138SOL     OW 4312   0.513   4.238   5.557
 1138SOL    HW1 4313   0.454   4.203   5.484
 1138SOL    HW2 4314   0.591   4.286   5.516
 1139SOL     OW 4315   1.188   6.634   1.892
 1139SOL    HW1 4316   1.100   6.682   1.902
 1139SOL    HW2 4317   1.262   6.697   1.914
 1140SOL     OW 4318   3.394   1.664   3.468
 1140SOL    HW1 4319   3.461   1.614   3.522
 1140SOL    HW2 4320   3.369   1.748   3.515
 1141SOL     OW 4321   6.581   5.679   5.905
 1141SOL    HW1 4322   6.611   5.683   6.000
 1141SOL    HW2 4323   6.483   5.695   5.899
 1142SOL     OW 4324   5.943   0.964   3.940
 1142SOL    HW1 4325   6.001   1.000   4.014
 1142SOL    HW2 4326   5.859   1.017   3.935
 1143SOL     OW 4327   4.356   1.539   2.632
 1143SOL    HW1 4328   4.325   1.590   2.552
 1143SOL    HW2 4329   4.456   1.536   2.633
 1144SOL     OW 4330   0.819   6.129   5.248
 1144SOL    HW1 4331   0.784   6.214   5.210
 1144SOL    HW2 4332   0.773   6.051   5.206
 1145SOL     OW 4333   1.407   5.123   5.334
 1145SOL    HW1 4334   1.455   5.199   5.291
 1145SOL    HW2 4335   1.308   5.137   5.328
 1146SOL     OW 4336   5.770   1.949   0.565
 1146SOL    HW1 4337   5.838   2.018   0.588
 1146SOL    HW2 4338   5.722   1.921   0.648
 1147SOL     OW 4339   6.256   2.706   1.747
 1147SOL    HW1 4340   6.179   2.761   1.780
 1147SOL    HW2 4341   6.259   2.711   1.647
 1148SOL     OW 4342   4.537   0.611   0.365
 1148SOL    HW1 4343   4.634   0.628   0.386
 1148SOL    HW2 4344   4.482   0.624   0.447
 1149SOL     OW 4345   0.421   3.667   2.666
 1149SOL    HW1 4346   0.357   3.727   2.619
 1149SOL    HW2 4347   0.440   3.587   2.609
 1150SOL     OW 4348   1.072   4.656   6.070
 1150SOL    HW1 4349   1.050   4.561   6.091
 1150SOL    HW2 4350   1.138   4.691   6.136
 1151SOL     OW 4351   4.450   5.395   0.109
 1151SOL    HW1 4352   4.433   5.408   0.012
 1151SOL    HW2 4353   4.536   5.345   0.122
 1152SOL     OW 4354   0.520   0.708   5.108
 1152SOL    HW1 4355   0.441   0.647   5.112
 1152SOL    HW2 4356   0.547   0.734   5.201
 1153SOL     OW 4357   2.137   5.065   2.836
 1153SOL    HW1 4358   2.100   5.052   2.744
 1153SOL    HW2 4359   2.233   5.095   2.830
 1154SOL     OW 4360   2.005   4.672   1.905
 1154SOL    HW1 4361   1.917   4.667   1.858
 1154SOL    HW2 4362   2.074   4.621   1.853
 1155SOL     OW 4363   3.093   5.507   1.960
 1155SOL    HW1 4364   3.174   5.557   1.992
 1155SOL    HW2 4365   3.070   5.436   2.027
 1156SOL     OW 4366   1.907   0.753   4.271
 1156SOL    HW1 4367   1.851   0.812   4.213
 1156SOL    HW2 4368   1.946   0.679   4.217
 1157SOL     OW 4369   1.309   1.896   4.005
 1157SOL    HW1 4370   1.254   1.931   3.929
 1157SOL    HW2 4371   1.358   1.814   3.976
 1158SOL     OW 4372   4.424   5.291   5.673
 1158SOL    HW1 4373   4.450   5.194   5.675
 1158SOL    HW2 4374   4.432   5.325   5.579
 1159SOL     OW 4375   5.276   5.194   3.173
 1159SOL    HW1 4376   5.316   5.163   3.259
 1159SOL    HW2 4377   5.255   5.114   3.116
 1160SOL     OW 4378   2.689   2.879   0.570
 1160SOL    HW1 4379   2.605   2.863   0.519
 1160SOL    HW2 4380   2.709   2.977   0.571
 1161SOL     OW 4381   4.169   0.116   4.384
 1161SOL    HW1 4382   4.101   0.152   4.320
 1161SOL    HW2 4383   4.214   0.192   4.431
 1162SOL     OW 4384   3.866   4.484   1.570
 1162SOL    HW1 4385   3.956   4.457   1.603
 1162SOL    HW2 4386   3.835   4.418   1.501
 1163SOL     OW 4387   4.710   2.137   2.596
 1163SOL    HW1 4388   4.728   2.230   2.628
 1163SOL    HW2 4389   4.621   2.107   2.630
 1164SOL     OW 4390   6.114   3.208   4.030
 1164SOL    HW1 4391   6.061   3.268   3.970
 1164SOL    HW2 4392   6.196   3.177   3.983
 1165SOL     OW 4393   1.543   4.853   1.971
 1165SOL    HW1 4394   1.552   4.941   2.016
 1165SOL    HW2 4395   1.458   4.809   1.999
 1166SOL     OW 4396   3.785   3.089   6.258
 1166SOL    HW1 4397   3.748   2.996   6.268
 1166SOL    HW2 4398   3.862   3.087   6.195
 1167SOL     OW 4399   4.386   1.573   4.373
 1167SOL    HW1 4400   4.410   1.537   4.283
 1167SOL    HW2 4401   4.445   1.651   4.394
 1168SOL     OW 4402   6.292   5.703   3.499
 1168SOL    HW1 4403   6.310   5.793   3.540
 1168SOL    HW2 4404   6.235   5.714   3.418
 1169SOL     OW 4405   1.063   3.249   1.650
 1169SOL    HW1 4406   1.058   3.249   1.750
 1169SOL    HW2 4407   0.976   3.279   1.612
 1170SOL     OW 4408   2.794   0.334   0.506
 1170SOL    HW1 4409   2.820   0.263   0.571
 1170SOL    HW2 4410   2.779   0.420   0.555
 1171SOL     OW 4411   2.338   0.358   0.481
 1171SOL    HW1 4412   2.372   0.448   0.454
 1171SOL    HW2 4413   2.327   0.300   0.400
 1172SOL     OW 4414   3.183   3.300   5.077
 1172SOL    HW1 4415   3.273   3.299   5.120
 1172SOL    HW2 4416   3.191   3.333   4.983
 1173SOL     OW 4417   4.676   0.930   6.164
 1173SOL    HW1 4418   4.657   1.027   6.173
 1173SOL    HW2 4419   4.775   0.914   6.175
 1174SOL     OW 4420   3.322   6.809   1.091
 1174SOL    HW1 4421   3.317   6.710   1.103
 1174SOL    HW2 4422   3.376   6.830   1.010
 1175SOL     OW 4423   6.710   4.996   5.052
 1175SOL    HW1 4424   6.667   4.914   5.016
 1175SOL    HW2 4425   6.803   4.975   5.082
 1176SOL     OW 4426   6.622   3.695   1.009
 1176SOL    HW1 4427   6.719   3.678   1.029
 1176SOL    HW2 4428   6.588   3.623   0.948
 1177SOL     OW 4429   6.348   3.448   0.174
 1177SOL    HW1 4430   6.436   3.439   0.221
 1177SOL    HW2 4431   6.341   3.539   0.133
 1178SOL     OW 4432   5.769   4.189   1.889
 1178SOL    HW1 4433   5.825   4.107   1.903
 1178SOL    HW2 4434   5.719   4.210   1.973
 1179SOL     OW 4435   2.521   5.765   6.864
 1179SOL    HW1 4436   2.471   5.846   6.833
 1179SOL    HW2 4437   2.477   5.683   6.829
 1180SOL     OW 4438   2.837   1.774   3.949
 1180SOL    HW1 4439   2.917   1.772   4.010
 1180SOL    HW2 4440   2.770   1.707   3.980
 1181SOL     OW 4441   2.391   4.295   3.137
 1181SOL    HW1 4442   2.476   4.253   3.168
 1181SOL    HW2 4443   2.386   4.389   3.171
 1182SOL     OW 4444   1.361   4.758   3.114
 1182SOL    HW1 4445   1.336   4.852   3.090
 1182SOL    HW2 4446   1.294   4.722   3.179
 1183SOL     OW 4447   4.814   5.275   1.212
 1183SOL    HW1 4448   4.758   5.201   1.175
 1183SOL    HW2 4449   4.856   5.244   1.297
 1184SOL     OW 4450   3.083   2.953   5.510
 1184SOL    HW1 4451   3.086   2.882   5.439
 1184SOL    HW2 4452   3.005   3.013   5.493
 1185SOL     OW 4453   2.023   2.049   0.167
 1185SOL    HW1 4454   2.097   2.085   0.110
 1185SOL    HW2 4455   2.019   2.100   0.253
 1186SOL     OW 4456   3.981   1.082   5.209
 1186SOL    HW1 4457   3.938   1.163   5.247
 1186SOL    HW2 4458   4.070   1.068   5.252
 1187SOL     OW 4459   6.869   1.131   5.416
 1187SOL    HW1 4460   6.777   1.146   5.382
 1187SOL    HW2 4461   6.928   1.100   5.341
 1188SOL     OW 4462   1.212   0.032   5.597
 1188SOL    HW1 4463   1.233   0.097   5.670
 1188SOL    HW2 4464   1.174   0.082   5.519
 1189SOL     OW 4465   6.741   0.811   1.411
 1189SOL    HW1 4466   6.724   0.772   1.320
 1189SOL    HW2 4467   6.686   0.894   1.422
 1190SOL     OW 4468   4.477   4.646   3.064
 1190SOL    HW1 4469   4.398   4.641   3.002
 1190SOL    HW2 4470   4.511   4.740   3.067
 1191SOL     OW 4471   3.785   4.535   6.689
 1191SOL    HW1 4472   3.758   4.603   6.621
 1191SOL    HW2 4473   3.714   4.530   6.760
 1192SOL     OW 4474   4.491   5.005   2.483
 1192SOL    HW1 4475   4.398   5.042   2.474
 1192SOL    HW2 4476   4.557   5.080   2.485
 1193SOL     OW 4477   4.105   6.637   3.853
 1193SOL    HW1 4478   4.184   6.651   3.912
 1193SOL    HW2 4479   4.021   6.658   3.903
 1194SOL     OW 4480   6.125   0.493   1.184
 1194SOL    HW1 4481   6.097   0.508   1.279
 1194SOL    HW2 4482   6.125   0.580   1.136
 1195SOL     OW 4483   4.246   0.791   6.905
 1195SOL    HW1 4484   4.295   0.809   6.990
 1195SOL    HW2 4485   4.252   0.871   6.845
 1196SOL     OW 4486   6.786   5.602   2.463
 1196SOL    HW1 4487   6.714   5.557   2.516
 1196SOL    HW2 4488   6.814   5.542   2.388
 1197SOL     OW 4489   3.177   5.607   6.246
 1197SOL    HW1 4490   3.258   5.567   6.289
 1197SOL    HW2 4491   3.099   5.546   6.258
 1198SOL     OW 4492   3.340   1.369   2.815
 1198SOL    HW1 4493   3.269   1.339   2.879
 1198SOL    HW2 4494   3.319   1.462   2.784
 1199SOL     OW 4495   3.426   4.145   3.619
 1199SOL    HW1 4496   3.340   4.096   3.602
 1199SOL    HW2 4497   3.447   4.142   3.717
 1200SOL     OW 4498   4.047   4.132   0.224
 1200SOL    HW1 4499   4.003   4.052   0.263
 1200SOL    HW2 4500   4.121   4.103   0.163
 1201SOL     OW 4501   1.236   1.000   4.506
 1201SOL    HW1 4502   1.280   0.950   4.581
 1201SOL    HW2 4503   1.142   0.967   4.496
 1202SOL     OW 4504   6.214   0.158   4.930
 1202SOL    HW1 4505   6.277   0.226   4.892
 1202SOL    HW2 4506   6.175   0.193   5.015
 1203SOL     OW 4507   5.740   6.906   1.861
 1203SOL    HW1 4508   5.764   6.813   1.888
 1203SOL    HW2 4509   5.642   6.920   1.873
 1204SOL     OW 4510   3.124   0.376   0.349
 1204SOL    HW1 4511   3.072   0.452   0.387
 1204SOL    HW2 4512   3.062   0.301   0.326
 1205SOL     OW 4513   0.594   2.252   5.092
 1205SOL    HW1 4514   0.660   2.204   5.035
 1205SOL    HW2 4515   0.639   2.328   5.139
 1206SOL     OW 4516   0.676   1.448   4.642
 1206SOL    HW1 4517   0.604   1.473   4.707
 1206SOL    HW2 4518   0.744   1.391   4.687
 1207SOL     OW 4519   5.570   6.077   6.745
 1207SOL    HW1 4520   5.581   6.133   6.662
 1207SOL    HW2 4521   5.475   6.081   6.775
 1208SOL     OW 4522   3.699   4.023   3.620
 1208SOL    HW1 4523   3.638   3.987   3.691
 1208SOL    HW2 4524   3.665   4.111   3.588
 1209SOL     OW 4525   6.298   5.114   4.795
 1209SOL    HW1 4526   6.326   5.019   4.779
 1209SOL    HW2 4527   6.302   5.164   4.708
 1210SOL     OW 4528   2.833   6.647   2.753
 1210SOL    HW1 4529   2.820   6.724   2.816
 1210SOL    HW2 4530   2.913   6.664   2.696
 1211SOL     OW 4531   1.121   3.532   4.427
 1211SOL    HW1 4532   1.060   3.580   4.364
 1211SOL    HW2 4533   1.216   3.543   4.397
 1212SOL     OW 4534   2.102   3.998   4.951
 1212SOL    HW1 4535   2.044   4.074   4.922
 1212SOL    HW2 4536   2.181   4.032   5.001
 1213SOL     OW 4537   5.850   3.001   5.519
 1213SOL    HW1 4538   5.873   2.924   5.579
 1213SOL    HW2 4539   5.758   3.033   5.539
 1214SOL     OW 4540   1.936   2.215   3.104
 1214SOL    HW1 4541   1.999   2.159   3.157
 1214SOL    HW2 4542   1.902   2.290   3.162
 1215SOL     OW 4543   0.569   5.296   1.960
 1215SOL    HW1 4544   0.528   5.386   1.974
 1215SOL    HW2 4545   0.573   5.246   2.046
 1216SOL     OW 4546   3.067   0.361   1.681
 1216SOL    HW1 4547   3.000   0.411   1.735
 1216SOL    HW2 4548   3.159   0.380   1.717
 1217SOL     OW 4549   1.310   1.347   2.819
 1217SOL    HW1 4550   1.384   1.411   2.798
 1217SOL    HW2 4551   1.342   1.254   2.807
 1218SOL     OW 4552   0.346   3.667   4.153
 1218SOL    HW1 4553   0.285   3.634   4.081
 1218SOL    HW2 4554   0.327   3.764   4.170
 1219SOL     OW 4555   2.453   5.987   3.293
 1219SOL    HW1 4556   2.428   5.939   3.378
 1219SOL    HW2 4557   2.438   5.927   3.215
 1220SOL     OW 4558   6.868   4.279   2.995
 1220SOL    HW1 4559   6.793   4.327   2.950
 1220SOL    HW2 4560   6.834   4.194   3.035
 1221SOL     OW 4561   4.844   3.362   0.004
 1221SOL    HW1 4562   4.747   3.386   7.024
 1221SOL    HW2 4563   4.866   3.331   0.097
 1222SOL     OW 4564   5.938   6.269   1.256
 1222SOL    HW1 4565   5.940   6.317   1.344
 1222SOL    HW2 4566   5.866   6.200   1.258
 1223SOL     OW 4567   5.814   5.725   5.238
 1223SOL    HW1 4568   5.902   5.760   5.209
 1223SOL    HW2 4569   5.819   5.699   5.335
 1224SOL     OW 4570   4.698   4.598   1.864
 1224SOL    HW1 4571   4.740   4.544   1.937
 1224SOL    HW2 4572   4.661   4.682   1.903
 1225SOL     OW 4573   4.815   1.183   0.253
 1225SOL    HW1 4574   4.880   1.108   0.261
 1225SOL    HW2 4575   4.786   1.191   0.158
 1226SOL     OW 4576   4.920   4.720   0.488
 1226SOL    HW1 4577   4.995   4.769   0.442
 1226SOL    HW2 4578   4.899   4.636   0.437
 1227SOL     OW 4579   5.194   4.881   6.688
 1227SOL    HW1 4580   5.287   4.869   6.651
 1227SOL    HW2 4581   5.146   4.951   6.636
 1228SOL     OW 4582   3.786   3.547   4.424
 1228SOL    HW1 4583   3.770   3.567   4.520
 1228SOL    HW2 4584   3.723   3.601   4.368
 1229SOL     OW 4585   2.069   5.534   2.964
 1229SOL    HW1 4586   2.015   5.583   3.033
 1229SOL    HW2 4587   2.139   5.595   2.928
 1230SOL     OW 4588   5.371   5.030   1.939
 1230SOL    HW1 4589   5.333   5.080   2.017
 1230SOL    HW2 4590   5.466   5.059   1.925
 1231SOL     OW 4591   1.805   2.313   6.768
 1231SOL    HW1 4592   1.812   2.320   6.668
 1231SOL    HW2 4593   1.888   2.272   6.804
 1232SOL     OW 4594   2.981   0.642   4.899
 1232SOL    HW1 4595   2.929   0.714   4.853
 1232SOL    HW2 4596   2.930   0.610   4.979
 1233SOL     OW 4597   6.918   5.207   5.409
 1233SOL    HW1 4598   6.965   5.165   5.486
 1233SOL    HW2 4599   6.828   5.240   5.439
 1234SOL     OW 4600   6.611   3.595   6.936
 1234SOL    HW1 4601   6.673   3.551   6.870
 1234SOL    HW2 4602   6.534   3.635   6.887
 1235SOL     OW 4603   6.034   4.861   0.987
 1235SOL    HW1 4604   6.063   4.870   1.082
 1235SOL    HW2 4605   6.065   4.774   0.950
 1236SOL     OW 4606   1.495   1.571   2.944
 1236SOL    HW1 4607   1.563   1.528   3.003
 1236SOL    HW2 4608   1.519   1.554   2.848
 1237SOL     OW 4609   0.697   6.868   4.968
 1237SOL    HW1 4610   0.631   6.908   5.032
 1237SOL    HW2 4611   0.650   6.843   4.883
 1238SOL     OW 4612   0.808   0.383   4.312
 1238SOL    HW1 4613   0.804   0.466   4.367
 1238SOL    HW2 4614   0.857   0.312   4.363
 1239SOL     OW 4615   5.303   4.790   4.216
 1239SOL    HW1 4616   5.239   4.780   4.292
 1239SOL    HW2 4617   5.366   4.865   4.236
 1240SOL     OW 4618   0.991   3.774   2.154
 1240SOL    HW1 4619   0.931   3.836   2.203
 1240SOL    HW2 4620   0.951   3.682   2.153
 1241SOL     OW 4621   4.156   5.259   5.306
 1241SOL    HW1 4622   4.110   5.173   5.329
 1241SOL    HW2 4623   4.231   5.275   5.371
 1242SOL     OW 4624   2.266   4.254   0.915
 1242SOL    HW1 4625   2.278   4.301   1.002
 1242SOL    HW2 4626   2.239   4.320   0.845
 1243SOL     OW 4627   0.738   4.056   4.542
 1243SOL    HW1 4628   0.648   4.040   4.502
 1243SOL    HW2 4629   0.728   4.080   4.638
 1244SOL     OW 4630   5.999   0.525   5.518
 1244SOL    HW1 4631   6.063   0.533   5.442
 1244SOL    HW2 4632   5.906   0.539   5.486
 1245SOL     OW 4633   4.738   6.016   1.405
 1245SOL    HW1 4634   4.647   6.054   1.394
 1245SOL    HW2 4635   4.778   6.048   1.491
 1246SOL     OW 4636   5.050   0.676   0.504
 1246SOL    HW1 4637   5.110   0.756   0.514
 1246SOL    HW2 4638   5.065   0.634   0.415
 1247SOL     OW 4639   6.690   0.077   2.746
 1247SOL    HW1 4640   6.694   7.004   2.728
 1247SOL    HW2 4641   6.779   0.110   2.775
 1248SOL     OW 4642   1.256   6.582   4.677
 1248SOL    HW1 4643   1.209   6.533   4.751
 1248SOL    HW2 4644   1.234   6.679   4.682
 1249SOL     OW 4645   5.680   5.740   6.358
 1249SOL    HW1 4646   5.633   5.763   6.272
 1249SOL    HW2 4647   5.633   5.784   6.434
 1250SOL     OW 4648   0.135   3.129   4.704
 1250SOL    HW1 4649   0.190   3.045   4.702
 1250SOL    HW2 4650   0.038   3.105   4.700
 1251SOL     OW 4651   2.742   1.155   2.781
 1251SOL    HW1 4652   2.655   1.116   2.751
 1251SOL    HW2 4653   2.794   1.086   2.831
 1252SOL     OW 4654   1.731   6.085   6.374
 1252SOL    HW1 4655   1.722   6.143   6.292
 1252SOL    HW2 4656   1.812   6.112   6.425
 1253SOL     OW 4657   3.380   6.992   0.217
 1253SOL    HW1 4658   3.300   6.994   0.277
 1253SOL    HW2 4659   3.356   6.949   0.130
 1254SOL     OW 4660   5.882   0.343   3.194
 1254SOL    HW1 4661   5.877   0.297   3.282
 1254SOL    HW2 4662   5.961   0.403   3.192
 1255SOL     OW 4663   5.497   1.115   5.445
 1255SOL    HW1 4664   5.490   1.214   5.453
 1255SOL    HW2 4665   5.406   1.077   5.425
 1256SOL     OW 4666   0.514   5.762   4.766
 1256SOL    HW1 4667   0.613   5.776   4.761
 1256SOL    HW2 4668   0.469   5.819   4.696
 1257SOL     OW 4669   0.850   6.382   3.504
 1257SOL    HW1 4670   0.778   6.330   3.458
 1257SOL    HW2 4671   0.912   6.319   3.551
 1258SOL     OW 4672   4.460   6.031   6.072
 1258SOL    HW1 4673   4.541   6.064   6.023
 1258SOL    HW2 4674   4.488   5.977   6.151
 1259SOL     OW 4675   5.732   0.252   5.511
 1259SOL    HW1 4676   5.806   0.296   5.560
 1259SOL    HW2 4677   5.647   0.302   5.526
 1260SOL     OW 4678   2.954   1.576   1.070
 1260SOL    HW1 4679   3.053   1.562   1.067
 1260SOL    HW2 4680   2.909   1.496   1.109
 1261SOL     OW 4681   6.656   4.294   5.462
 1261SOL    HW1 4682   6.578   4.356   5.465
 1261SOL    HW2 4683   6.636   4.212   5.516
 1262SOL     OW 4684   3.951   4.786   1.069
 1262SOL    HW1 4685   3.958   4.745   0.978
 1262SOL    HW2 4686   3.933   4.714   1.137
 1263SOL     OW 4687   6.247   2.179   1.048
 1263SOL    HW1 4688   6.291   2.159   0.961
 1263SOL    HW2 4689   6.304   2.243   1.100
 1264SOL     OW 4690   6.873   2.848   3.916
 1264SOL    HW1 4691   6.970   2.826   3.904
 1264SOL    HW2 4692   6.861   2.897   4.003
 1265SOL     OW 4693   6.964   5.881   4.713
 1265SOL    HW1 4694   6.909   5.800   4.691
 1265SOL    HW2 4695   0.036   5.857   4.709
 1266SOL     OW 4696   1.948   1.386   4.484
 1266SOL    HW1 4697   1.982   1.313   4.424
 1266SOL    HW2 4698   1.911   1.460   4.428
 1267SOL     OW 4699   6.324   4.832   2.242
 1267SOL    HW1 4700   6.232   4.809   2.275
 1267SOL    HW2 4701   6.348   4.924   2.271
 1268SOL     OW 4702   6.334   3.679   0.032
 1268SOL    HW1 4703   6.359   3.753   0.094
 1268SOL    HW2 4704   6.373   3.697   6.966
 1269SOL     OW 4705   6.798   5.484   6.186
 1269SOL    HW1 4706   6.777   5.573   6.144
 1269SOL    HW2 4707   6.776   5.411   6.122
 1270SOL     OW 4708   1.623   2.536   5.062
 1270SOL    HW1 4709   1.625   2.565   5.158
 1270SOL    HW2 4710   1.672   2.603   5.006
 1271SOL     OW 4711   5.139   1.925   2.955
 1271SOL    HW1 4712   5.059   1.954   3.009
 1271SOL    HW2 4713   5.169   1.835   2.986
 1272SOL     OW 4714   0.402   6.490   1.827
 1272SOL    HW1 4715   0.333   6.562   1.830
 1272SOL    HW2 4716   0.438   6.475   1.919
 1273SOL     OW 4717   2.515   6.511   6.560
 1273SOL    HW1 4718   2.514   6.572   6.481
 1273SOL    HW2 4719   2.504   6.416   6.529
 1274SOL     OW 4720   6.505   2.858   1.681
 1274SOL    HW1 4721   6.603   2.838   1.688
 1274SOL    HW2 4722   6.480   2.927   1.748
 1275SOL     OW 4723   3.762   1.427   3.890
 1275SOL    HW1 4724   3.765   1.523   3.919
 1275SOL    HW2 4725   3.855   1.396   3.871
 1276SOL     OW 4726   6.341   0.199   3.371
 1276SOL    HW1 4727   6.348   0.212   3.272
 1276SOL    HW2 4728   6.386   0.275   3.418
 1277SOL     OW 4729   0.593   1.052   5.087
 1277SOL    HW1 4730   0.550   1.131   5.042
 1277SOL    HW2 4731   0.527   1.010   5.149
 1278SOL     OW 4732   2.787   1.772   5.427
 1278SOL    HW1 4733   2.772   1.776   5.328
 1278SOL    HW2 4734   2.791   1.865   5.464
 1279SOL     OW 4735   2.593   5.445   0.007
 1279SOL    HW1 4736   2.672   5.477   0.060
 1279SOL    HW2 4737   2.609   5.351   7.002
 1280SOL     OW 4738   2.076   6.336   3.306
 1280SOL    HW1 4739   2.008   6.335   3.233
 1280SOL    HW2 4740   2.031   6.325   3.395
 1281SOL     OW 4741   0.970   6.926   3.792
 1281SOL    HW1 4742   1.011   6.850   3.841
 1281SOL    HW2 4743   0.915   6.891   3.716
 1282SOL     OW 4744   1.311   0.647   2.241
 1282SOL    HW1 4745   1.293   0.557   2.280
 1282SOL    HW2 4746   1.237   0.673   2.179
 1283SOL     OW 4747   5.061   5.403   5.946
 1283SOL    HW1 4748   5.071   5.463   6.026
 1283SOL    HW2 4749   4.964   5.392   5.925
 1284SOL     OW 4750   2.273   2.054   1.997
 1284SOL    HW1 4751   2.207   2.059   2.072
 1284SOL    HW2 4752   2.235   2.098   1.916
 1285SOL     OW 4753   4.907   2.314   5.479
 1285SOL    HW1 4754   4.893   2.371   5.560
 1285SOL    HW2 4755   4.966   2.363   5.415
 1286SOL     OW 4756   6.259   5.476   1.855
 1286SOL    HW1 4757   6.252   5.525   1.769
 1286SOL    HW2 4758   6.317   5.395   1.843
 1287SOL     OW 4759   6.489   4.710   6.094
 1287SOL    HW1 4760   6.456   4.646   6.164
 1287SOL    HW2 4761   6.443   4.798   6.105
 1288SOL     OW 4762   6.913   2.780   2.472
 1288SOL    HW1 4763   6.940   2.685   2.483
 1288SOL    HW2 4764   6.814   2.786   2.463
 1289SOL     OW 4765   6.416   6.129   2.648
 1289SOL    HW1 4766   6.323   6.105   2.677
 1289SOL    HW2 4767   6.428   6.105   2.552
 1290SOL     OW 4768   0.749   6.705   1.870
 1290SOL    HW1 4769   0.691   6.764   1.925
 1290SOL    HW2 4770   0.834   6.752   1.847
 1291SOL     OW 4771   2.241   6.668   0.415
 1291SOL    HW1 4772   2.329   6.709   0.390
 1291SOL    HW2 4773   2.216   6.696   0.507
 1292SOL     OW 4774   1.403   6.069   0.537
 1292SOL    HW1 4775   1.471   6.086   0.466
 1292SOL    HW2 4776   1.398   5.972   0.558
 1293SOL     OW 4777   0.280   2.783   5.704
 1293SOL    HW1 4778   0.207   2.839   5.742
 1293SOL    HW2 4779   0.356   2.778   5.769
 1294SOL     OW 4780   0.175   2.119   2.427
 1294SOL    HW1 4781   0.217   2.030   2.406
 1294SOL    HW2 4782   0.082   2.121   2.391
 1295SOL     OW 4783   6.122   3.108   1.752
 1295SOL    HW1 4784   6.085   3.131   1.662
 1295SOL    HW2 4785   6.104   3.012   1.772
 1296SOL     OW 4786   3.976   2.474   6.337
 1296SOL    HW1 4787   3.984   2.570   6.312
 1296SOL    HW2 4788   3.966   2.418   6.255
 1297SOL     OW 4789   6.836   1.606   5.996
 1297SOL    HW1 4790   6.881   1.669   5.933
 1297SOL    HW2 4791   6.764   1.556   5.947
 1298SOL     OW 4792   5.390   3.128   3.609
 1298SOL    HW1 4793   5.409   3.031   3.593
 1298SOL    HW2 4794   5.295   3.139   3.639
 1299SOL     OW 4795   0.803   3.945   4.044
 1299SOL    HW1 4796   0.824   3.869   4.105
 1299SOL    HW2 4797   0.763   4.020   4.097
 1300SOL     OW 4798   2.699   3.482   1.297
 1300SOL    HW1 4799   2.799   3.489   1.291
 1300SOL    HW2 4800   2.665   3.428   1.220
 1301SOL     OW 4801   0.368   0.318   2.976
 1301SOL    HW1 4802   0.370   0.284   2.882
 1301SOL    HW2 4803   0.414   0.406   2.981
 1302SOL     OW 4804   2.874   5.853   4.935
 1302SOL    HW1 4805   2.889   5.912   4.855
 1302SOL    HW2 4806   2.818   5.776   4.909
 1303SOL     OW 4807   3.964   1.385   1.251
 1303SOL    HW1 4808   3.875   1.347   1.226
 1303SOL    HW2 4809   4.036   1.321   1.225
 1304SOL     OW 4810   2.631   0.916   6.612
 1304SOL    HW1 4811   2.706   0.948   6.553
 1304SOL    HW2 4812   2.580   0.995   6.646
 1305SOL     OW 4813   4.842   6.712   4.792
 1305SOL    HW1 4814   4.937   6.744   4.786
 1305SOL    HW2 4815   4.792   6.766   4.858
 1306SOL     OW 4816   0.949   4.678   3.883
 1306SOL    HW1 4817   0.982   4.616   3.812
 1306SOL    HW2 4818   0.864   4.721   3.852
 1307SOL     OW 4819   1.772   1.732   4.461
 1307SOL    HW1 4820   1.838   1.801   4.491
 1307SOL    HW2 4821   1.809   1.682   4.383
 1308SOL     OW 4822   4.902   6.060   2.915
 1308SOL    HW1 4823   4.946   5.982   2.870
 1308SOL    HW2 4824   4.946   6.145   2.884
 1309SOL     OW 4825   5.559   2.798   4.633
 1309SOL    HW1 4826   5.497   2.771   4.559
 1309SOL    HW2 4827   5.567   2.898   4.634
 1310SOL     OW 4828   4.805   3.788   5.309
 1310SOL    HW1 4829   4.841   3.755   5.396
 1310SOL    HW2 4830   4.765   3.711   5.258
 1311SOL     OW 4831   5.074   5.668   5.226
 1311SOL    HW1 4832   5.081   5.754   5.277
 1311SOL    HW2 4833   5.152   5.610   5.248
 1312SOL     OW 4834   0.458   6.714   1.061
 1312SOL    HW1 4835   0.428   6.729   0.967
 1312SOL    HW2 4836   0.485   6.618   1.072
 1313SOL     OW 4837   3.334   5.304   5.257
 1313SOL    HW1 4838   3.289   5.286   5.344
 1313SOL    HW2 4839   3.397   5.229   5.236
 1314SOL     OW 4840   6.333   1.814   4.621
 1314SOL    HW1 4841   6.278   1.824   4.538
 1314SOL    HW2 4842   6.308   1.885   4.686
 1315SOL     OW 4843   2.214   0.917   2.766
 1315SOL    HW1 4844   2.223   0.857   2.686
 1315SOL    HW2 4845   2.140   0.982   2.751
 1316SOL     OW 4846   3.100   6.735   2.639
 1316SOL    HW1 4847   3.112   6.680   2.556
 1316SOL    HW2 4848   3.092   6.831   2.614
 1317SOL     OW 4849   0.064   5.880   3.989
 1317SOL    HW1 4850   0.038   5.967   4.030
 1317SOL    HW2 4851   7.006   5.825   3.974
 1318SOL     OW 4852   0.046   6.482   0.588
 1318SOL    HW1 4853   0.026   6.387   0.613
 1318SOL    HW2 4854   0.001   6.503   0.501
 1319SOL     OW 4855   6.243   1.014   0.033
 1319SOL    HW1 4856   6.231   1.052   6.966
 1319SOL    HW2 4857   6.340   0.996   0.048
 1320SOL     OW 4858   5.439   5.153   6.266
 1320SOL    HW1 4859   5.450   5.067   6.216
 1320SOL    HW2 4860   5.419   5.133   6.362
 1321SOL     OW 4861   3.916   2.456   6.763
 1321SOL    HW1 4862   3.921   2.420   6.856
 1321SOL    HW2 4863   3.909   2.381   6.698
 1322SOL     OW 4864   5.883   1.434   5.205
 1322SOL    HW1 4865   5.919   1.360   5.261
 1322SOL    HW2 4866   5.793   1.408   5.169
 1323SOL     OW 4867   6.664   1.931   4.624
 1323SOL    HW1 4868   6.613   2.016   4.636
 1323SOL    HW2 4869   6.623   1.877   4.550
 1324SOL     OW 4870   1.147   3.988   0.734
 1324SOL    HW1 4871   1.224   3.933   0.765
 1324SOL    HW2 4872   1.178   4.080   0.711
 1325SOL     OW 4873   3.433   5.982   2.965
 1325SOL    HW1 4874   3.484   6.028   2.892
 1325SOL    HW2 4875   3.461   5.886   2.969
 1326SOL     OW 4876   5.730   3.226   4.247
 1326SOL    HW1 4877   5.791   3.168   4.193
 1326SOL    HW2 4878   5.664   3.169   4.295
 1327SOL     OW 4879   3.278   5.171   3.496
 1327SOL    HW1 4880   3.294   5.082   3.540
 1327SOL    HW2 4881   3.326   5.174   3.409
 1328SOL     OW 4882   1.401   2.418   6.715
 1328SOL    HW1 4883   1.419   2.357   6.792
 1328SOL    HW2 4884   1.402   2.513   6.746
 1329SOL     OW 4885   0.943   0.426   0.956
 1329SOL    HW1 4886   1.008   0.477   0.900
 1329SOL    HW2 4887   0.988   0.397   1.040
 1330SOL     OW 4888   6.356   6.627   1.391
 1330SOL    HW1 4889   6.263   6.597   1.413
 1330SOL    HW2 4890   6.356   6.668   1.300
 1331SOL     OW 4891   5.733   0.504   2.002
 1331SOL    HW1 4892   5.721   0.453   1.917
 1331SOL    HW2 4893   5.665   0.475   2.069
 1332SOL     OW 4894   4.462   1.701   1.414
 1332SOL    HW1 4895   4.450   1.610   1.454
 1332SOL    HW2 4896   4.388   1.719   1.350
 1333SOL     OW 4897   3.964   4.444   5.373
 1333SOL    HW1 4898   4.035   4.384   5.335
 1333SOL    HW2 4899   3.953   4.425   5.470
 1334SOL     OW 4900   0.365   3.712   4.460
 1334SOL    HW1 4901   0.355   3.665   4.372
 1334SOL    HW2 4902   0.280   3.706   4.512
 1335SOL     OW 4903   2.766   4.992   2.924
 1335SOL    HW1 4904   2.717   4.980   3.010
 1335SOL    HW2 4905   2.864   4.988   2.940
 1336SOL     OW 4906   0.692   0.333   5.534
 1336SOL    HW1 4907   0.620   0.386   5.491
 1336SOL    HW2 4908   0.684   0.237   5.506
 1337SOL     OW 4909   2.339   1.377   6.192
 1337SOL    HW1 4910   2.382   1.300   6.145
 1337SOL    HW2 4911   2.310   1.445   6.125
 1338SOL     OW 4912   3.836   5.769   0.543
 1338SOL    HW1 4913   3.934   5.791   0.541
 1338SOL    HW2 4914   3.805   5.747   0.451
 1339SOL     OW 4915   0.264   4.293   4.407
 1339SOL    HW1 4916   0.333   4.339   4.463
 1339SOL    HW2 4917   0.308   4.251   4.328
 1340SOL     OW 4918   2.020   1.795   6.087
 1340SOL    HW1 4919   1.932   1.831   6.057
 1340SOL    HW2 4920   2.010   1.752   6.176
 1341SOL     OW 4921   4.183   1.907   3.291
 1341SOL    HW1 4922   4.240   1.979   3.251
 1341SOL    HW2 4923   4.149   1.936   3.381
 1342SOL     OW 4924   0.398   6.372   0.859
 1342SOL    HW1 4925   0.313   6.353   0.908
 1342SOL    HW2 4926   0.410   6.305   0.785
 1343SOL     OW 4927   3.902   4.949   2.828
 1343SOL    HW1 4928   3.851   4.945   2.741
 1343SOL    HW2 4929   3.996   4.921   2.812
 1344SOL     OW 4930   6.123   1.201   2.544
 1344SOL    HW1 4931   6.139   1.115   2.593
 1344SOL    HW2 4932   6.037   1.196   2.493
 1345SOL     OW 4933   0.793   6.820   3.581
 1345SOL    HW1 4934   0.698   6.844   3.559
 1345SOL    HW2 4935   0.815   6.731   3.542
 1346SOL     OW 4936   0.089   0.858   3.842
 1346SOL    HW1 4937   0.176   0.900   3.816
 1346SOL    HW2 4938   0.058   0.798   3.768
 1347SOL     OW 4939   6.081   0.522   3.196
 1347SOL    HW1 4940   6.158   0.535   3.134
 1347SOL    HW2 4941   6.015   0.596   3.183
 1348SOL     OW 4942   5.156   4.333   4.482
 1348SOL    HW1 4943   5.084   4.400   4.462
 1348SOL    HW2 4944   5.243   4.379   4.492
 1349SOL     OW 4945   4.830   2.738   6.951
 1349SOL    HW1 4946   4.836   2.681   0.008
 1349SOL    HW2 4947   4.734   2.748   6.924
 1350SOL     OW 4948   3.428   0.257   5.696
 1350SOL    HW1 4949   3.522   0.277   5.669
 1350SOL    HW2 4950   3.413   0.288   5.790
 1351SOL     OW 4951   0.764   0.637   4.447
 1351SOL    HW1 4952   0.726   0.712   4.393
 1351SOL    HW2 4953   0.721   0.637   4.538
 1352SOL     OW 4954   0.345   0.801   3.707
 1352SOL    HW1 4955   0.408   0.824   3.632
 1352SOL    HW2 4956   0.394   0.805   3.794
 1353SOL     OW 4957   1.536   4.549   3.925
 1353SOL    HW1 4958   1.610   4.601   3.969
 1353SOL    HW2 4959   1.508   4.596   3.841
 1354SOL     OW 4960   0.501   0.489   1.941
 1354SOL    HW1 4961   0.427   0.499   1.875
 1354SOL    HW2 4962   0.482   0.546   2.021
 1355SOL     OW 4963   4.809   3.002   6.416
 1355SOL    HW1 4964   4.734   3.037   6.472
 1355SOL    HW2 4965   4.772   2.943   6.344
 1356SOL     OW 4966   3.054   3.949   2.330
 1356SOL    HW1 4967   2.956   3.933   2.340
 1356SOL    HW2 4968   3.076   3.964   2.234
 1357SOL     OW 4969   2.958   2.526   5.732
 1357SOL    HW1 4970   3.006   2.461   5.672
 1357SOL    HW2 4971   2.922   2.602   5.677
 1358SOL     OW 4972   2.422   2.529   5.530
 1358SOL    HW1 4973   2.354   2.592   5.491
 1358SOL    HW2 4974   2.497   2.517   5.465
 1359SOL     OW 4975   6.926   1.191   0.548
 1359SOL    HW1 4976   6.829   1.205   0.529
 1359SOL    HW2 4977   6.976   1.179   0.462
 1360SOL     OW 4978   3.106   3.566   4.458
 1360SOL    HW1 4979   3.020   3.591   4.503
 1360SOL    HW2 4980   3.134   3.640   4.397
 1361SOL     OW 4981   1.182   6.097   0.734
 1361SOL    HW1 4982   1.227   6.121   0.648
 1361SOL    HW2 4983   1.222   6.151   0.808
 1362SOL     OW 4984   3.137   2.963   6.132
 1362SOL    HW1 4985   3.204   2.894   6.159
 1362SOL    HW2 4986   3.179   3.026   6.067
 1363SOL     OW 4987   5.788   6.691   2.205
 1363SOL    HW1 4988   5.727   6.669   2.130
 1363SOL    HW2 4989   5.742   6.672   2.292
 1364SOL     OW 4990   0.823   3.562   1.216
 1364SOL    HW1 4991   0.835   3.464   1.228
 1364SOL    HW2 4992   0.763   3.579   1.137
 1365SOL     OW 4993   0.133   3.691   5.371
 1365SOL    HW1 4994   0.227   3.693   5.406
 1365SOL    HW2 4995   0.123   3.757   5.297
 1366SOL     OW 4996   5.035   0.701   1.172
 1366SOL    HW1 4997   4.943   0.671   1.147
 1366SOL    HW2 4998   5.058   0.783   1.121
 1367SOL     OW 4999   0.622   6.373   4.358
 1367SOL    HW1 5000   0.558   6.372   4.281
 1367SOL    HW2 5001   0.664   6.282   4.367
 1368SOL     OW 5002   1.301   6.389   5.729
 1368SOL    HW1 5003   1.215   6.435   5.708
 1368SOL    HW2 5004   1.319   6.318   5.661
 1369SOL     OW 5005   2.829   6.618   3.524
 1369SOL    HW1 5006   2.855   6.662   3.439
 1369SOL    HW2 5007   2.833   6.518   3.514
 1370SOL     OW 5008   6.501   2.390   2.673
 1370SOL    HW1 5009   6.453   2.343   2.598
 1370SOL    HW2 5010   6.597   2.364   2.673
 1371SOL     OW 5011   5.864   1.973   5.665
 1371SOL    HW1 5012   5.799   1.974   5.741
 1371SOL    HW2 5013   5.887   1.878   5.642
 1372SOL     OW 5014   6.540   2.941   0.154
 1372SOL    HW1 5015   6.513   2.878   0.228
 1372SOL    HW2 5016   6.622   2.906   0.109
 1373SOL     OW 5017   5.179   2.430   1.862
 1373SOL    HW1 5018   5.263   2.467   1.903
 1373SOL    HW2 5019   5.133   2.371   1.929
 1374SOL     OW 5020   4.125   3.635   0.545
 1374SOL    HW1 5021   4.152   3.552   0.594
 1374SOL    HW2 5022   4.167   3.715   0.588
 1375SOL     OW 5023   5.469   5.520   4.156
 1375SOL    HW1 5024   5.483   5.564   4.245
 1375SOL    HW2 5025   5.411   5.440   4.167
 1376SOL     OW 5026   2.669   4.748   6.262
 1376SOL    HW1 5027   2.571   4.742   6.243
 1376SOL    HW2 5028   2.716   4.787   6.182
 1377SOL     OW 5029   1.543   1.200   3.086
 1377SOL    HW1 5030   1.507   1.153   3.005
 1377SOL    HW2 5031   1.592   1.135   3.144
 1378SOL     OW 5032   4.499   1.991   4.106
 1378SOL    HW1 5033   4.460   2.063   4.048
 1378SOL    HW2 5034   4.473   2.007   4.201
 1379SOL     OW 5035   5.047   5.640   1.043
 1379SOL    HW1 5036   4.999   5.629   1.130
 1379SOL    HW2 5037   5.111   5.717   1.050
 1380SOL     OW 5038   0.017   6.395   1.882
 1380SOL    HW1 5039   6.995   6.360   1.962
 1380SOL    HW2 5040   0.096   6.337   1.860
 1381SOL     OW 5041   6.345   2.241   5.709
 1381SOL    HW1 5042   6.317   2.333   5.682
 1381SOL    HW2 5043   6.423   2.247   5.772
 1382SOL     OW 5044   4.799   2.576   0.148
 1382SOL    HW1 5045   4.863   2.522   0.202
 1382SOL    HW2 5046   4.785   2.665   0.190
 1383SOL     OW 5047   0.711   1.519   2.105
 1383SOL    HW1 5048   0.616   1.537   2.132
 1383SOL    HW2 5049   0.753   1.458   2.172
 1384SOL     OW 5050   5.709   1.744   1.564
 1384SOL    HW1 5051   5.721   1.840   1.588
 1384SOL    HW2 5052   5.795   1.709   1.526
 1385SOL     OW 5053   0.896   5.887   1.708
 1385SOL    HW1 5054   0.933   5.939   1.632
 1385SOL    HW2 5055   0.896   5.943   1.791
 1386SOL     OW 5056   2.359   5.797   4.389
 1386SOL    HW1 5057   2.405   5.806   4.301
 1386SOL    HW2 5058   2.360   5.700   4.416
 1387SOL     OW 5059   2.678   5.803   2.357
 1387SOL    HW1 5060   2.747   5.739   2.324
 1387SOL    HW2 5061   2.707   5.842   2.444
 1388SOL     OW 5062   6.410   0.590   1.900
 1388SOL    HW1 5063   6.447   0.671   1.854
 1388SOL    HW2 5064   6.329   0.558   1.850
 1389SOL     OW 5065   6.152   0.944   2.645
 1389SOL    HW1 5066   6.200   0.869   2.692
 1389SOL    HW2 5067   6.057   0.948   2.677
 1390SOL     OW 5068   0.650   1.859   6.243
 1390SOL    HW1 5069   0.718   1.799   6.201
 1390SOL    HW2 5070   0.562   1.811   6.249
 1391SOL     OW 5071   0.485   3.039   2.635
 1391SOL    HW1 5072   0.556   2.983   2.678
 1391SOL    HW2 5073   0.444   3.099   2.703
 1392SOL     OW 5074   5.072   4.690   5.513
 1392SOL    HW1 5075   5.131   4.724   5.440
 1392SOL    HW2 5076   5.115   4.706   5.602
 1393SOL     OW 5077   3.894   6.543   5.733
 1393SOL    HW1 5078   3.944   6.601   5.670
 1393SOL    HW2 5079   3.943   6.538   5.820
 1394SOL     OW 5080   2.266   5.930   5.816
 1394SOL    HW1 5081   2.304   5.853   5.867
 1394SOL    HW2 5082   2.311   5.937   5.727
 1395SOL     OW 5083   3.277   4.773   5.621
 1395SOL    HW1 5084   3.274   4.728   5.531
 1395SOL    HW2 5085   3.249   4.869   5.612
 1396SOL     OW 5086   5.623   6.189   4.372
 1396SOL    HW1 5087   5.550   6.257   4.380
 1396SOL    HW2 5088   5.712   6.234   4.374
 1397SOL     OW 5089   4.213   6.092   4.881
 1397SOL    HW1 5090   4.280   6.036   4.833
 1397SOL    HW2 5091   4.202   6.058   4.974
 1398SOL     OW 5092   1.411   1.382   4.691
 1398SOL    HW1 5093   1.465   1.325   4.754
 1398SOL    HW2 5094   1.354   1.445   4.744
 1399SOL     OW 5095   3.211   6.407   1.618
 1399SOL    HW1 5096   3.300   6.370   1.644
 1399SOL    HW2 5097   3.224   6.485   1.557
 1400SOL     OW 5098   0.910   0.515   2.093
 1400SOL    HW1 5099   0.841   0.583   2.117
 1400SOL    HW2 5100   0.902   0.492   1.996
 1401SOL     OW 5101   7.001   1.179   4.759
 1401SOL    HW1 5102   0.014   1.219   4.675
 1401SOL    HW2 5103   6.929   1.239   4.795
 1402SOL     OW 5104   6.893   3.133   0.178
 1402SOL    HW1 5105   6.975   3.187   0.197
 1402SOL    HW2 5106   6.862   3.089   0.262
 1403SOL     OW 5107   2.536   0.435   2.147
 1403SOL    HW1 5108   2.555   0.414   2.051
 1403SOL    HW2 5109   2.486   0.521   2.153
 1404SOL     OW 5110   6.034   0.560   0.346
 1404SOL    HW1 5111   6.036   0.469   0.387
 1404SOL    HW2 5112   5.976   0.620   0.400
 1405SOL     OW 5113   2.237   3.708   1.128
 1405SOL    HW1 5114   2.335   3.707   1.107
 1405SOL    HW2 5115   2.190   3.769   1.064
 1406SOL     OW 5116   1.729   3.982   0.997
 1406SOL    HW1 5117   1.650   4.010   1.051
 1406SOL    HW2 5118   1.723   3.885   0.977
 1407SOL     OW 5119   6.639   2.062   2.392
 1407SOL    HW1 5120   6.629   2.098   2.484
 1407SOL    HW2 5121   6.596   1.972   2.386
 1408SOL     OW 5122   6.188   0.472   6.784
 1408SOL    HW1 5123   6.217   0.512   6.871
 1408SOL    HW2 5124   6.090   0.490   6.771
 1409SOL     OW 5125   0.389   0.758   4.605
 1409SOL    HW1 5126   0.309   0.707   4.636
 1409SOL    HW2 5127   0.472   0.716   4.644
 1410SOL     OW 5128   0.388   2.879   6.940
 1410SOL    HW1 5129   0.335   2.825   7.006
 1410SOL    HW2 5130   0.435   2.817   6.877
 1411SOL     OW 5131   1.371   6.825   1.944
 1411SOL    HW1 5132   1.462   6.851   1.978
 1411SOL    HW2 5133   1.342   6.890   1.873
 1412SOL     OW 5134   0.899   2.745   0.251
 1412SOL    HW1 5135   0.846   2.828   0.231
 1412SOL    HW2 5136   0.850   2.665   0.215
 1413SOL     OW 5137   2.460   0.561   3.924
 1413SOL    HW1 5138   2.399   0.624   3.876
 1413SOL    HW2 5139   2.534   0.534   3.863
 1414SOL     OW 5140   1.906   1.838   1.992
 1414SOL    HW1 5141   1.948   1.885   1.915
 1414SOL    HW2 5142   1.945   1.873   2.077
 1415SOL     OW 5143   3.989   6.118   5.927
 1415SOL    HW1 5144   4.068   6.133   5.868
 1415SOL    HW2 5145   3.993   6.025   5.965
 1416SOL     OW 5146   4.420   5.472   1.875
 1416SOL    HW1 5147   4.425   5.440   1.780
 1416SOL    HW2 5148   4.479   5.553   1.886
 1417SOL     OW 5149   2.846   1.995   6.302
 1417SOL    HW1 5150   2.774   2.063   6.297
 1417SOL    HW2 5151   2.860   1.954   6.211
 1418SOL     OW 5152   3.563   4.159   3.067
 1418SOL    HW1 5153   3.547   4.255   3.045
 1418SOL    HW2 5154   3.528   4.140   3.159
 1419SOL     OW 5155   4.117   6.413   5.093
 1419SOL    HW1 5156   4.119   6.465   5.008
 1419SOL    HW2 5157   4.200   6.357   5.100
 1420SOL     OW 5158   0.850   5.729   2.255
 1420SOL    HW1 5159   0.855   5.672   2.173
 1420SOL    HW2 5160   0.809   5.817   2.231
 1421SOL     OW 5161   3.268   1.770   2.308
 1421SOL    HW1 5162   3.242   1.674   2.324
 1421SOL    HW2 5163   3.307   1.779   2.217
 1422SOL     OW 5164   3.001   5.206   0.469
 1422SOL    HW1 5165   2.925   5.244   0.522
 1422SOL    HW2 5166   2.969   5.181   0.378
 1423SOL     OW 5167   4.822   0.066   2.605
 1423SOL    HW1 5168   4.889   0.038   2.674
 1423SOL    HW2 5169   4.730   0.038   2.634
 1424SOL     OW 5170   5.852   5.379   5.171
 1424SOL    HW1 5171   5.801   5.305   5.127
 1424SOL    HW2 5172   5.936   5.396   5.120
 1425SOL     OW 5173   2.313   6.746   4.190
 1425SOL    HW1 5174   2.263   6.661   4.174
 1425SOL    HW2 5175   2.262   6.823   4.152
 1426SOL     OW 5176   1.031   1.517   5.479
 1426SOL    HW1 5177   0.960   1.472   5.423
 1426SOL    HW2 5178   1.018   1.493   5.575
 1427SOL     OW 5179   5.910   0.683   4.025
 1427SOL    HW1 5180   5.928   0.782   4.020
 1427SOL    HW2 5181   5.992   0.637   4.058
 1428SOL     OW 5182   5.867   2.343   6.631
 1428SOL    HW1 5183   5.957   2.322   6.670
 1428SOL    HW2 5184   5.826   2.419   6.681
 1429SOL     OW 5185   0.171   0.902   0.472
 1429SOL    HW1 5186   0.244   0.955   0.514
 1429SOL    HW2 5187   0.169   0.920   0.374
 1430SOL     OW 5188   1.802   5.022   3.334
 1430SOL    HW1 5189   1.806   5.014   3.433
 1430SOL    HW2 5190   1.715   5.062   3.307
 1431SOL     OW 5191   2.271   0.800   1.204
 1431SOL    HW1 5192   2.293   0.732   1.134
 1431SOL    HW2 5193   2.237   0.754   1.286
 1432SOL     OW 5194   1.876   1.364   2.495
 1432SOL    HW1 5195   1.846   1.424   2.421
 1432SOL    HW2 5196   1.927   1.287   2.457
 1433SOL     OW 5197   3.951   0.666   4.442
 1433SOL    HW1 5198   4.051   0.662   4.447
 1433SOL    HW2 5199   3.923   0.754   4.403
 1434SOL     OW 5200   1.143   1.162   5.525
 1434SOL    HW1 5201   1.096   1.132   5.608
 1434SOL    HW2 5202   1.113   1.254   5.501
 1435SOL     OW 5203   6.219   1.983   2.514
 1435SOL    HW1 5204   6.207   1.891   2.477
 1435SOL    HW2 5205   6.289   1.982   2.586
 1436SOL     OW 5206   4.090   3.547   0.095
 1436SOL    HW1 5207   4.120   3.453   0.080
 1436SOL    HW2 5208   4.129   3.606   0.024
 1437SOL     OW 5209   3.222   0.894   2.361
 1437SOL    HW1 5210   3.177   0.979   2.389
 1437SOL    HW2 5211   3.225   0.889   2.261
 1438SOL     OW 5212   3.188   6.866   1.536
 1438SOL    HW1 5213   3.264   6.931   1.532
 1438SOL    HW2 5214   3.101   6.915   1.533
 1439SOL     OW 5215   0.382   5.943   2.379
 1439SOL    HW1 5216   0.469   5.904   2.410
 1439SOL    HW2 5217   0.329   5.973   2.458
 1440SOL     OW 5218   2.857   3.195   1.247
 1440SOL    HW1 5219   2.895   3.207   1.156
 1440SOL    HW2 5220   2.906   3.122   1.294
 1441SOL     OW 5221   5.548   6.326   1.031
 1441SOL    HW1 5222   5.639   6.285   1.031
 1441SOL    HW2 5223   5.554   6.422   1.058
 1442SOL     OW 5224   6.015   5.078   0.599
 1442SOL    HW1 5225   6.019   5.024   0.515
 1442SOL    HW2 5226   5.936   5.139   0.596
 1443SOL     OW 5227   0.976   2.683   3.064
 1443SOL    HW1 5228   0.916   2.607   3.089
 1443SOL    HW2 5229   0.990   2.742   3.143
 1444SOL     OW 5230   6.210   5.537   0.194
 1444SOL    HW1 5231   6.153   5.458   0.217
 1444SOL    HW2 5232   6.273   5.512   0.121
 1445SOL     OW 5233   1.053   3.554   2.778
 1445SOL    HW1 5234   1.031   3.506   2.692
 1445SOL    HW2 5235   0.987   3.628   2.792
 1446SOL     OW 5236   6.471   0.469   6.784
 1446SOL    HW1 5237   6.506   0.440   6.873
 1446SOL    HW2 5238   6.371   0.467   6.785
 1447SOL     OW 5239   5.940   4.955   4.452
 1447SOL    HW1 5240   6.009   4.962   4.380
 1447SOL    HW2 5241   5.894   5.044   4.462
 1448SOL     OW 5242   1.283   3.368   5.685
 1448SOL    HW1 5243   1.234   3.342   5.769
 1448SOL    HW2 5244   1.360   3.427   5.709
 1449SOL     OW 5245   2.117   4.206   4.580
 1449SOL    HW1 5246   2.061   4.286   4.556
 1449SOL    HW2 5247   2.189   4.194   4.512
 1450SOL     OW 5248   2.111   2.325   4.568
 1450SOL    HW1 5249   2.020   2.285   4.583
 1450SOL    HW2 5250   2.102   2.407   4.511
 1451SOL     OW 5251   2.340   0.183   1.962
 1451SOL    HW1 5252   2.339   0.260   1.899
 1451SOL    HW2 5253   2.280   0.203   2.040
 1452SOL     OW 5254   4.963   2.890   5.551
 1452SOL    HW1 5255   5.060   2.874   5.563
 1452SOL    HW2 5256   4.942   2.986   5.573
 1453SOL     OW 5257   0.755   4.839   5.257
 1453SOL    HW1 5258   0.814   4.765   5.226
 1453SOL    HW2 5259   0.766   4.852   5.356
 1454SOL     OW 5260   3.343   1.886   3.632
 1454SOL    HW1 5261   3.259   1.931   3.600
 1454SOL    HW2 5262   3.334   1.865   3.729
 1455SOL     OW 5263   1.033   5.765   2.016
 1455SOL    HW1 5264   1.076   5.714   2.090
 1455SOL    HW2 5265   1.102   5.787   1.947
 1456SOL     OW 5266   6.204   5.430   5.434
 1456SOL    HW1 5267   6.105   5.421   5.423
 1456SOL    HW2 5268   6.248   5.342   5.418
 1457SOL     OW 5269   0.353   4.497   6.177
 1457SOL    HW1 5270   0.390   4.500   6.085
 1457SOL    HW2 5271   0.410   4.552   6.238
 1458SOL     OW 5272   5.010   4.948   5.164
 1458SOL    HW1 5273   4.934   5.004   5.130
 1458SOL    HW2 5274   4.975   4.859   5.193
 1459SOL     OW 5275   5.271   6.505   5.398
 1459SOL    HW1 5276   5.240   6.591   5.438
 1459SOL    HW2 5277   5.351   6.472   5.449
 1460SOL     OW 5278   1.553   6.427   5.366
 1460SOL    HW1 5279   1.566   6.339   5.320
 1460SOL    HW2 5280   1.606   6.430   5.450
 1461SOL     OW 5281   0.443   3.108   3.245
 1461SOL    HW1 5282   0.401   3.033   3.296
 1461SOL    HW2 5283   0.431   3.092   3.147
 1462SOL     OW 5284   0.763   0.290   0.453
 1462SOL    HW1 5285   0.724   0.347   0.525
 1462SOL    HW2 5286   0.736   0.326   0.364
 1463SOL     OW 5287   2.104   5.350   6.671
 1463SOL    HW1 5288   2.052   5.266   6.656
 1463SOL    HW2 5289   2.169   5.362   6.596
 1464SOL     OW 5290   0.537   4.453   4.302
 1464SOL    HW1 5291   0.476   4.405   4.240
 1464SOL    HW2 5292   0.494   4.462   4.392
 1465SOL     OW 5293   1.105   2.169   3.274
 1465SOL    HW1 5294   1.077   2.260   3.305
 1465SOL    HW2 5295   1.202   2.156   3.294
 1466SOL     OW 5296   4.352   2.181   1.413
 1466SOL    HW1 5297   4.286   2.107   1.422
 1466SOL    HW2 5298   4.443   2.143   1.394
 1467SOL     OW 5299   1.254   1.083   4.240
 1467SOL    HW1 5300   1.254   1.052   4.335
 1467SOL    HW2 5301   1.193   1.162   4.232
 1468SOL     OW 5302   2.442   6.098   2.474
 1468SOL    HW1 5303   2.415   6.044   2.394
 1468SOL    HW2 5304   2.542   6.105   2.478
 1469SOL     OW 5305   6.344   4.811   3.241
 1469SOL    HW1 5306   6.334   4.762   3.154
 1469SOL    HW2 5307   6.253   4.829   3.279
 1470SOL     OW 5308   6.185   1.928   0.614
 1470SOL    HW1 5309   6.211   1.902   0.521
 1470SOL    HW2 5310   6.096   1.973   0.613
 1471SOL     OW 5311   5.144   6.758   1.328
 1471SOL    HW1 5312   5.105   6.742   1.238
 1471SOL    HW2 5313   5.093   6.830   1.375
 1472SOL     OW 5314   1.698   0.142   6.260
 1472SOL    HW1 5315   1.797   0.132   6.270
 1472SOL    HW2 5316   1.677   0.227   6.213
 1473SOL     OW 5317   2.677   5.320   4.612
 1473SOL    HW1 5318   2.626   5.246   4.655
 1473SOL    HW2 5319   2.704   5.294   4.520
 1474SOL     OW 5320   3.555   5.317   1.059
 1474SOL    HW1 5321   3.603   5.400   1.086
 1474SOL    HW2 5322   3.461   5.339   1.033
 1475SOL     OW 5323   5.056   0.312   0.148
 1475SOL    HW1 5324   5.154   0.291   0.144
 1475SOL    HW2 5325   5.021   0.325   0.055
 1476SOL     OW 5326   4.478   0.940   1.305
 1476SOL    HW1 5327   4.500   0.931   1.402
 1476SOL    HW2 5328   4.516   1.025   1.270
 1477SOL     OW 5329   4.157   4.896   1.211
 1477SOL    HW1 5330   4.067   4.870   1.175
 1477SOL    HW2 5331   4.171   4.853   1.300
 1478SOL     OW 5332   5.085   5.683   6.170
 1478SOL    HW1 5333   5.023   5.722   6.101
 1478SOL    HW2 5334   5.159   5.635   6.124
 1479SOL     OW 5335   3.807   3.987   1.218
 1479SOL    HW1 5336   3.735   3.945   1.274
 1479SOL    HW2 5337   3.891   3.933   1.226
 1480SOL     OW 5338   3.102   0.197   4.901
 1480SOL    HW1 5339   3.019   0.163   4.857
 1480SOL    HW2 5340   3.080   0.278   4.956
 1481SOL     OW 5341   5.406   2.255   5.894
 1481SOL    HW1 5342   5.443   2.163   5.885
 1481SOL    HW2 5343   5.307   2.252   5.883
 1482SOL     OW 5344   4.555   1.012   0.121
 1482SOL    HW1 5345   4.540   1.037   0.217
 1482SOL    HW2 5346   4.577   1.093   0.068
 1483SOL     OW 5347   5.378   1.262   5.882
 1483SOL    HW1 5348   5.327   1.213   5.954
 1483SOL    HW2 5349   5.331   1.249   5.795
 1484SOL     OW 5350   3.366   5.644   5.295
 1484SOL    HW1 5351   3.391   5.547   5.284
 1484SOL    HW2 5352   3.344   5.682   5.205
 1485SOL     OW 5353   5.322   2.314   2.772
 1485SOL    HW1 5354   5.247   2.337   2.709
 1485SOL    HW2 5355   5.398   2.376   2.757
 1486SOL     OW 5356   5.144   0.112   4.030
 1486SOL    HW1 5357   5.151   0.020   3.993
 1486SOL    HW2 5358   5.065   0.159   3.992
 1487SOL     OW 5359   6.832   0.277   0.959
 1487SOL    HW1 5360   6.770   0.228   1.021
 1487SOL    HW2 5361   6.781   0.313   0.882
 1488SOL     OW 5362   5.868   0.866   2.652
 1488SOL    HW1 5363   5.855   0.778   2.697
 1488SOL    HW2 5364   5.785   0.921   2.663
 1489SOL     OW 5365   3.974   4.539   6.334
 1489SOL    HW1 5366   3.972   4.486   6.419
 1489SOL    HW2 5367   3.945   4.632   6.353
 1490SOL     OW 5368   0.206   2.254   2.680
 1490SOL    HW1 5369   0.278   2.318   2.651
 1490SOL    HW2 5370   0.174   2.202   2.601
 1491SOL     OW 5371   6.899   3.121   2.536
 1491SOL    HW1 5372   6.877   3.215   2.562
 1491SOL    HW2 5373   6.878   3.060   2.613
 1492SOL     OW 5374   6.027   1.569   2.901
 1492SOL    HW1 5375   6.028   1.612   2.812
 1492SOL    HW2 5376   6.083   1.622   2.965
 1493SOL     OW 5377   4.514   2.981   5.681
 1493SOL    HW1 5378   4.568   3.013   5.758
 1493SOL    HW2 5379   4.497   2.883   5.692
 1494SOL     OW 5380   6.458   4.481   5.458
 1494SOL    HW1 5381   6.469   4.548   5.532
 1494SOL    HW2 5382   6.416   4.526   5.379
 1495SOL     OW 5383   6.215   4.487   4.483
 1495SOL    HW1 5384   6.163   4.458   4.403
 1495SOL    HW2 5385   6.207   4.586   4.494
 1496SOL     OW 5386   6.201   5.802   6.615
 1496SOL    HW1 5387   6.224   5.877   6.553
 1496SOL    HW2 5388   6.250   5.814   6.702
 1497SOL     OW 5389   5.798   3.351   2.978
 1497SOL    HW1 5390   5.762   3.282   2.915
 1497SOL    HW2 5391   5.896   3.362   2.964
 1498SOL     OW 5392   3.286   4.622   0.749
 1498SOL    HW1 5393   3.347   4.548   0.774
 1498SOL    HW2 5394   3.216   4.588   0.686
 1499SOL     OW 5395   0.623   3.958   5.309
 1499SOL    HW1 5396   0.617   4.049   5.270
 1499SOL    HW2 5397   0.554   3.899   5.267
 1500SOL     OW 5398   0.884   5.494   1.880
 1500SOL    HW1 5399   0.852   5.585   1.907
 1500SOL    HW2 5400   0.842   5.469   1.793
 1501SOL     OW 5401   5.865   1.685   6.990
 1501SOL    HW1 5402   5.921   1.625   6.933
 1501SOL    HW2 5403   5.922   1.756   0.005
 1502SOL     OW 5404   6.380   6.932   6.702
 1502SOL    HW1 5405   6.448   7.004   6.682
 1502SOL    HW2 5406   6.377   6.917   6.801
 1503SOL     OW 5407   0.590   4.500   1.804
 1503SOL    HW1 5408   0.590   4.589   1.758
 1503SOL    HW2 5409   0.665   4.496   1.870
 1504SOL     OW 5410   0.682   0.476   2.462
 1504SOL    HW1 5411   0.588   0.507   2.477
 1504SOL    HW2 5412   0.712   0.422   2.541
 1505SOL     OW 5413   4.856   5.838   4.883
 1505SOL    HW1 5414   4.822   5.750   4.916
 1505SOL    HW2 5415   4.924   5.823   4.811
 1506SOL     OW 5416   0.718   1.232   0.649
 1506SOL    HW1 5417   0.765   1.191   0.571
 1506SOL    HW2 5418   0.628   1.265   0.619
 1507SOL     OW 5419   1.826   2.225   4.465
 1507SOL    HW1 5420   1.803   2.323   4.470
 1507SOL    HW2 5421   1.787   2.179   4.545
 1508SOL     OW 5422   1.453   0.876   0.639
 1508SOL    HW1 5423   1.540   0.836   0.611
 1508SOL    HW2 5424   1.460   0.975   0.639
 1509SOL     OW 5425   4.971   0.834   3.988
 1509SOL    HW1 5426   5.067   0.825   4.015
 1509SOL    HW2 5427   4.927   0.745   3.990
 1510SOL     OW 5428   3.640   5.574   3.855
 1510SOL    HW1 5429   3.605   5.549   3.765
 1510SOL    HW2 5430   3.720   5.518   3.876
 1511SOL     OW 5431   3.643   3.272   4.718
 1511SOL    HW1 5432   3.688   3.296   4.632
 1511SOL    HW2 5433   3.546   3.293   4.712
 1512SOL     OW 5434   6.710   6.270   1.140
 1512SOL    HW1 5435   6.641   6.319   1.193
 1512SOL    HW2 5436   6.666   6.226   1.061
 1513SOL     OW 5437   3.207   0.226   6.232
 1513SOL    HW1 5438   3.244   0.133   6.240
 1513SOL    HW2 5439   3.202   0.252   6.136
 1514SOL     OW 5440   3.384   1.826   5.651
 1514SOL    HW1 5441   3.433   1.896   5.704
 1514SOL    HW2 5442   3.339   1.763   5.714
 1515SOL     OW 5443   5.817   1.885   1.944
 1515SOL    HW1 5444   5.848   1.826   2.019
 1515SOL    HW2 5445   5.720   1.906   1.956
 1516SOL     OW 5446   6.037   0.106   4.693
 1516SOL    HW1 5447   6.005   0.015   4.666
 1516SOL    HW2 5448   6.097   0.098   4.772
 1517SOL     OW 5449   3.894   6.275   3.829
 1517SOL    HW1 5450   3.876   6.208   3.900
 1517SOL    HW2 5451   3.846   6.360   3.850
 1518SOL     OW 5452   0.402   2.598   0.042
 1518SOL    HW1 5453   0.314   2.576   0.001
 1518SOL    HW2 5454   0.475   2.557   7.013
 1519SOL     OW 5455   6.857   4.294   6.720
 1519SOL    HW1 5456   6.887   4.278   6.814
 1519SOL    HW2 5457   6.766   4.256   6.706
 1520SOL     OW 5458   6.758   5.994   2.207
 1520SOL    HW1 5459   6.854   6.019   2.204
 1520SOL    HW2 5460   6.739   5.943   2.291
 1521SOL     OW 5461   1.808   4.801   6.232
 1521SOL    HW1 5462   1.896   4.848   6.227
 1521SOL    HW2 5463   1.734   4.866   6.215
 1522SOL     OW 5464   4.867   5.180   4.124
 1522SOL    HW1 5465   4.863   5.082   4.141
 1522SOL    HW2 5466   4.882   5.228   4.211
 1523SOL     OW 5467   3.868   5.870   0.018
 1523SOL    HW1 5468   3.820   5.951   0.053
 1523SOL    HW2 5469   3.860   5.868   6.943
 1524SOL     OW 5470   2.164   1.684   2.313
 1524SOL    HW1 5471   2.188   1.668   2.408
 1524SOL    HW2 5472   2.177   1.599   2.261
 1525SOL     OW 5473   6.110   2.670   6.842
 1525SOL    HW1 5474   6.139   2.586   6.888
 1525SOL    HW2 5475   6.041   2.717   6.898
 1526SOL     OW 5476   1.013   1.053   0.403
 1526SOL    HW1 5477   1.107   1.065   0.434
 1526SOL    HW2 5478   0.973   1.143   0.382
 1527SOL     OW 5479   3.828   1.090   4.098
 1527SOL    HW1 5480   3.825   1.145   4.015
 1527SOL    HW2 5481   3.735   1.079   4.134
 1528SOL     OW 5482   4.676   3.493   1.372
 1528SOL    HW1 5483   4.775   3.504   1.366
 1528SOL    HW2 5484   4.639   3.557   1.440
 1529SOL     OW 5485   4.999   1.388   5.717
 1529SOL    HW1 5486   5.003   1.472   5.771
 1529SOL    HW2 5487   4.990   1.411   5.620
 1530SOL     OW 5488   3.369   6.379   1.975
 1530SOL    HW1 5489   3.382   6.335   1.886
 1530SOL    HW2 5490   3.431   6.456   1.984
 1531SOL     OW 5491   3.504   6.538   4.467
 1531SOL    HW1 5492   3.455   6.506   4.387
 1531SOL    HW2 5493   3.452   6.612   4.511
 1532SOL     OW 5494   2.601   5.268   6.331
 1532SOL    HW1 5495   2.598   5.325   6.413
 1532SOL    HW2 5496   2.518   5.214   6.325
 1533SOL     OW 5497   5.877   5.347   1.441
 1533SOL    HW1 5498   5.837   5.436   1.460
 1533SOL    HW2 5499   5.812   5.291   1.389
 1534SOL     OW 5500   3.668   5.240   6.525
 1534SOL    HW1 5501   3.618   5.327   6.534
 1534SOL    HW2 5502   3.629   5.186   6.451
 1535SOL     OW 5503   5.961   6.868   4.615
 1535SOL    HW1 5504   5.958   6.804   4.537
 1535SOL    HW2 5505   5.880   6.854   4.672
 1536SOL     OW 5506   4.371   3.882   6.744
 1536SOL    HW1 5507   4.286   3.906   6.697
 1536SOL    HW2 5508   4.433   3.837   6.681
 1537SOL     OW 5509   3.142   5.258   3.952
 1537SOL    HW1 5510   3.202   5.295   3.881
 1537SOL    HW2 5511   3.049   5.293   3.936
 1538SOL     OW 5512   2.876   1.486   6.779
 1538SOL    HW1 5513   2.892   1.475   6.878
 1538SOL    HW2 5514   2.779   1.506   6.763
 1539SOL     OW 5515   5.682   3.257   0.738
 1539SOL    HW1 5516   5.777   3.286   0.753
 1539SOL    HW2 5517   5.630   3.271   0.822
 1540SOL     OW 5518   3.040   0.103   5.296
 1540SOL    HW1 5519   3.122   0.161   5.301
 1540SOL    HW2 5520   3.068   0.008   5.284
 1541SOL     OW 5521   3.814   3.257   4.917
 1541SOL    HW1 5522   3.747   3.258   4.844
 1541SOL    HW2 5523   3.772   3.224   5.001
 1542SOL     OW 5524   6.836   0.317   3.023
 1542SOL    HW1 5525   6.844   0.309   3.123
 1542SOL    HW2 5526   6.852   0.227   2.981
 1543SOL     OW 5527   2.933   4.685   6.721
 1543SOL    HW1 5528   2.999   4.728   6.782
 1543SOL    HW2 5529   2.968   4.685   6.627
 1544SOL     OW 5530   4.078   3.249   4.260
 1544SOL    HW1 5531   4.019   3.202   4.195
 1544SOL    HW2 5532   4.142   3.184   4.300
 1545SOL     OW 5533   6.101   6.741   2.532
 1545SOL    HW1 5534   6.100   6.739   2.432
 1545SOL    HW2 5535   6.189   6.708   2.566
 1546SOL     OW 5536   5.367   6.514   5.980
 1546SOL    HW1 5537   5.277   6.477   6.002
 1546SOL    HW2 5538   5.364   6.614   5.982
 1547SOL     OW 5539   1.737   3.449   6.676
 1547SOL    HW1 5540   1.749   3.351   6.658
 1547SOL    HW2 5541   1.814   3.499   6.638
 1548SOL     OW 5542   6.129   2.331   6.702
 1548SOL    HW1 5543   6.177   2.386   6.634
 1548SOL    HW2 5544   6.144   2.369   6.793
 1549SOL     OW 5545   4.355   1.065   5.068
 1549SOL    HW1 5546   4.304   1.046   4.984
 1549SOL    HW2 5547   4.448   1.094   5.044
 1550SOL     OW 5548   3.501   2.981   2.980
 1550SOL    HW1 5549   3.493   3.072   2.941
 1550SOL    HW2 5550   3.410   2.947   3.005
 1551SOL     OW 5551   6.999   5.255   6.090
 1551SOL    HW1 5552   6.900   5.238   6.097
 1551SOL    HW2 5553   0.013   5.259   6.182
 1552SOL     OW 5554   2.318   4.247   2.016
 1552SOL    HW1 5555   2.285   4.168   2.067
 1552SOL    HW2 5556   2.391   4.219   1.953
 1553SOL     OW 5557   0.451   1.875   5.762
 1553SOL    HW1 5558   0.482   1.917   5.847
 1553SOL    HW2 5559   0.365   1.826   5.778
 1554SOL     OW 5560   2.665   1.687   3.621
 1554SOL    HW1 5561   2.723   1.627   3.675
 1554SOL    HW2 5562   2.669   1.660   3.525
 1555SOL     OW 5563   0.131   3.452   6.510
 1555SOL    HW1 5564   0.183   3.496   6.437
 1555SOL    HW2 5565   0.091   3.366   6.476
 1556SOL     OW 5566   2.083   1.229   6.000
 1556SOL    HW1 5567   2.106   1.318   5.962
 1556SOL    HW2 5568   2.045   1.171   5.928
 1557SOL     OW 5569   0.349   3.288   6.653
 1557SOL    HW1 5570   0.415   3.213   6.655
 1557SOL    HW2 5571   0.397   3.375   6.648
 1558SOL     OW 5572   6.729   0.559   4.984
 1558SOL    HW1 5573   6.730   0.464   5.014
 1558SOL    HW2 5574   6.699   0.618   5.060
 1559SOL     OW 5575   0.500   2.247   5.985
 1559SOL    HW1 5576   0.405   2.226   5.960
 1559SOL    HW2 5577   0.555   2.164   5.976
 1560SOL     OW 5578   6.985   0.762   6.462
 1560SOL    HW1 5579   6.894   0.784   6.426
 1560SOL    HW2 5580   6.978   0.686   6.525
 1561SOL     OW 5581   5.719   5.845   3.025
 1561SOL    HW1 5582   5.647   5.801   2.972
 1561SOL    HW2 5583   5.678   5.894   3.103
 1562SOL     OW 5584   5.749   0.670   3.371
 1562SOL    HW1 5585   5.721   0.763   3.396
 1562SOL    HW2 5586   5.815   0.674   3.296
 1563SOL     OW 5587   3.427   0.981   5.805
 1563SOL    HW1 5588   3.360   0.970   5.879
 1563SOL    HW2 5589   3.515   0.944   5.834
 1564SOL     OW 5590   1.628   2.323   2.882
 1564SOL    HW1 5591   1.557   2.361   2.823
 1564SOL    HW2 5592   1.649   2.229   2.853
 1565SOL     OW 5593   5.178   3.624   1.944
 1565SOL    HW1 5594   5.188   3.564   2.024
 1565SOL    HW2 5595   5.081   3.638   1.925
 1566SOL     OW 5596   5.418   4.117   3.582
 1566SOL    HW1 5597   5.509   4.148   3.610
 1566SOL    HW2 5598   5.348   4.173   3.627
 1567SOL     OW 5599   7.009   5.783   5.874
 1567SOL    HW1 5600   0.066   5.744   5.916
 1567SOL    HW2 5601   0.002   5.799   5.776
 1568SOL     OW 5602   0.383   0.472   1.022
 1568SOL    HW1 5603   0.366   0.393   1.080
 1568SOL    HW2 5604   0.331   0.462   0.936
 1569SOL     OW 5605   3.480   6.114   5.705
 1569SOL    HW1 5606   3.533   6.089   5.786
 1569SOL    HW2 5607   3.542   6.124   5.627
 1570SOL     OW 5608   3.247   2.082   1.548
 1570SOL    HW1 5609   3.261   2.118   1.640
 1570SOL    HW2 5610   3.172   2.016   1.550
 1571SOL     OW 5611   6.712   4.212   1.375
 1571SOL    HW1 5612   6.754   4.303   1.381
 1571SOL    HW2 5613   6.634   4.207   1.437
 1572SOL     OW 5614   1.585   6.850   2.120
 1572SOL    HW1 5615   1.568   6.783   2.193
 1572SOL    HW2 5616   1.581   6.942   2.158
 1573SOL     OW 5617   4.250   0.475   1.494
 1573SOL    HW1 5618   4.182   0.403   1.507
 1573SOL    HW2 5619   4.213   0.562   1.526
 1574SOL     OW 5620   6.783   2.481   2.029
 1574SOL    HW1 5621   6.730   2.396   2.033
 1574SOL    HW2 5622   6.772   2.523   1.940
 1575SOL     OW 5623   1.958   2.352   0.600
 1575SOL    HW1 5624   1.911   2.287   0.661
 1575SOL    HW2 5625   1.964   2.441   0.645
 1576SOL     OW 5626   6.155   6.487   4.035
 1576SOL    HW1 5627   6.082   6.428   4.070
 1576SOL    HW2 5628   6.191   6.449   3.950
 1577SOL     OW 5629   2.783   0.129   6.351
 1577SOL    HW1 5630   2.721   0.082   6.287
 1577SOL    HW2 5631   2.834   0.200   6.302
 1578SOL     OW 5632   5.922   4.503   5.187
 1578SOL    HW1 5633   5.950   4.412   5.218
 1578SOL    HW2 5634   6.002   4.564   5.187
 1579SOL     OW 5635   1.075   0.641   3.641
 1579SOL    HW1 5636   1.173   0.634   3.659
 1579SOL    HW2 5637   1.026   0.584   3.707
 1580SOL     OW 5638   3.319   4.487   5.430
 1580SOL    HW1 5639   3.382   4.466   5.504
 1580SOL    HW2 5640   3.234   4.436   5.443
 1581SOL     OW 5641   6.461   4.371   4.389
 1581SOL    HW1 5642   6.377   4.415   4.420
 1581SOL    HW2 5643   6.469   4.379   4.290
 1582SOL     OW 5644   6.471   5.447   4.827
 1582SOL    HW1 5645   6.536   5.375   4.803
 1582SOL    HW2 5646   6.394   5.445   4.764
 1583SOL     OW 5647   1.636   2.939   2.936
 1583SOL    HW1 5648   1.553   2.994   2.945
 1583SOL    HW2 5649   1.710   2.996   2.900
 1584SOL     OW 5650   2.332   6.909   6.177
 1584SOL    HW1 5651   2.323   6.817   6.140
 1584SOL    HW2 5652   2.424   6.944   6.158
 1585SOL     OW 5653   5.222   1.574   4.795
 1585SOL    HW1 5654   5.132   1.618   4.795
 1585SOL    HW2 5655   5.226   1.509   4.719
 1586SOL     OW 5656   3.450   3.860   3.079
 1586SOL    HW1 5657   3.517   3.872   3.152
 1586SOL    HW2 5658   3.413   3.950   3.053
 1587SOL     OW 5659   3.528   6.498   6.687
 1587SOL    HW1 5660   3.454   6.438   6.720
 1587SOL    HW2 5661   3.529   6.498   6.587
 1588SOL     OW 5662   5.885   3.281   1.992
 1588SOL    HW1 5663   5.846   3.270   1.901
 1588SOL    HW2 5664   5.985   3.284   1.986
 1589SOL     OW 5665   5.846   4.142   3.895
 1589SOL    HW1 5666   5.802   4.057   3.922
 1589SOL    HW2 5667   5.938   4.123   3.860
 1590SOL     OW 5668   1.590   0.998   5.891
 1590SOL    HW1 5669   1.563   0.947   5.972
 1590SOL    HW2 5670   1.671   1.054   5.913
 1591SOL     OW 5671   1.388   4.721   1.640
 1591SOL    HW1 5672   1.370   4.624   1.624
 1591SOL    HW2 5673   1.455   4.754   1.573
 1592SOL     OW 5674   3.340   3.508   2.790
 1592SOL    HW1 5675   3.289   3.422   2.792
 1592SOL    HW2 5676   3.285   3.579   2.747
 1593SOL     OW 5677   1.061   5.569   5.290
 1593SOL    HW1 5678   1.077   5.486   5.343
 1593SOL    HW2 5679   1.149   5.607   5.261
 1594SOL     OW 5680   6.718   4.997   2.780
 1594SOL    HW1 5681   6.758   5.045   2.702
 1594SOL    HW2 5682   6.742   4.900   2.776
 1595SOL     OW 5683   6.377   4.947   6.138
 1595SOL    HW1 5684   6.429   5.032   6.136
 1595SOL    HW2 5685   6.290   4.962   6.184
 1596SOL     OW 5686   3.053   4.869   6.038
 1596SOL    HW1 5687   3.095   4.835   6.122
 1596SOL    HW2 5688   3.118   4.929   5.990
 1597SOL     OW 5689   2.610   6.806   1.482
 1597SOL    HW1 5690   2.590   6.711   1.504
 1597SOL    HW2 5691   2.670   6.845   1.552
 1598SOL     OW 5692   6.964   5.463   1.355
 1598SOL    HW1 5693   0.030   5.481   1.393
 1598SOL    HW2 5694   6.972   5.396   1.281
 1599SOL     OW 5695   3.810   4.702   0.094
 1599SOL    HW1 5696   3.868   4.698   0.012
 1599SOL    HW2 5697   3.861   4.668   0.173
 1600SOL     OW 5698   3.505   1.523   4.322
 1600SOL    HW1 5699   3.566   1.444   4.308
 1600SOL    HW2 5700   3.477   1.559   4.233
 1601SOL     OW 5701   0.546   5.124   3.668
 1601SOL    HW1 5702   0.582   5.189   3.735
 1601SOL    HW2 5703   0.510   5.043   3.716
 1602SOL     OW 5704   1.386   4.841   3.468
 1602SOL    HW1 5705   1.411   4.934   3.440
 1602SOL    HW2 5706   1.332   4.798   3.396
 1603SOL     OW 5707   6.798   6.818   1.393
 1603SOL    HW1 5708   6.825   6.730   1.354
 1603SOL    HW2 5709   6.784   6.884   1.320
 1604SOL     OW 5710   0.690   5.578   6.326
 1604SOL    HW1 5711   0.591   5.564   6.331
 1604SOL    HW2 5712   0.721   5.560   6.233
 1605SOL     OW 5713   5.103   6.557   3.285
 1605SOL    HW1 5714   5.088   6.623   3.212
 1605SOL    HW2 5715   5.170   6.489   3.254
 1606SOL     OW 5716   5.118   6.683   6.370
 1606SOL    HW1 5717   5.203   6.653   6.413
 1606SOL    HW2 5718   5.113   6.783   6.373
 1607SOL     OW 5719   4.146   1.788   0.731
 1607SOL    HW1 5720   4.225   1.771   0.671
 1607SOL    HW2 5721   4.136   1.711   0.794
 1608SOL     OW 5722   2.650   0.054   0.636
 1608SOL    HW1 5723   2.712   7.001   0.643
 1608SOL    HW2 5724   2.556   0.021   0.629
 1609SOL     OW 5725   4.835   2.053   5.410
 1609SOL    HW1 5726   4.842   2.151   5.429
 1609SOL    HW2 5727   4.750   2.017   5.447
 1610SOL     OW 5728   6.029   5.353   4.723
 1610SOL    HW1 5729   6.087   5.311   4.793
 1610SOL    HW2 5730   6.013   5.449   4.745
 1611SOL     OW 5731   2.915   3.579   1.602
 1611SOL    HW1 5732   2.948   3.497   1.555
 1611SOL    HW2 5733   2.861   3.552   1.682
 1612SOL     OW 5734   3.027   0.641   4.471
 1612SOL    HW1 5735   3.121   0.638   4.436
 1612SOL    HW2 5736   2.997   0.736   4.477
 1613SOL     OW 5737   2.415   5.793   0.612
 1613SOL    HW1 5738   2.484   5.778   0.682
 1613SOL    HW2 5739   2.459   5.791   0.522
 1614SOL     OW 5740   6.205   2.439   6.994
 1614SOL    HW1 5741   6.161   2.363   0.017
 1614SOL    HW2 5742   6.304   2.430   7.003
 1615SOL     OW 5743   6.622   5.038   6.767
 1615SOL    HW1 5744   6.686   5.066   6.696
 1615SOL    HW2 5745   6.628   5.102   6.844
 1616SOL     OW 5746   3.025   1.883   5.651
 1616SOL    HW1 5747   2.952   1.929   5.601
 1616SOL    HW2 5748   3.111   1.933   5.637
 1617SOL     OW 5749   4.404   7.014   3.605
 1617SOL    HW1 5750   4.362   0.071   3.567
 1617SOL    HW2 5751   4.388   7.011   3.704
 1618SOL     OW 5752   5.591   2.472   0.829
 1618SOL    HW1 5753   5.569   2.530   0.751
 1618SOL    HW2 5754   5.564   2.518   0.913
 1619SOL     OW 5755   1.448   3.366   4.614
 1619SOL    HW1 5756   1.546   3.382   4.606
 1619SOL    HW2 5757   1.413   3.411   4.696
 1620SOL     OW 5758   3.199   5.456   1.230
 1620SOL    HW1 5759   3.200   5.357   1.220
 1620SOL    HW2 5760   3.264   5.484   1.301
 1621SOL     OW 5761   1.735   1.114   1.640
 1621SOL    HW1 5762   1.730   1.023   1.599
 1621SOL    HW2 5763   1.830   1.144   1.642
 1622SOL     OW 5764   2.072   1.946   4.359
 1622SOL    HW1 5765   2.013   1.930   4.279
 1622SOL    HW2 5766   2.168   1.936   4.332
 1623SOL     OW 5767   2.841   2.189   5.277
 1623SOL    HW1 5768   2.928   2.167   5.234
 1623SOL    HW2 5769   2.837   2.286   5.299
 1624SOL     OW 5770   1.977   1.323   0.407
 1624SOL    HW1 5771   2.041   1.399   0.401
 1624SOL    HW2 5772   1.922   1.319   0.323
 1625SOL     OW 5773   0.618   4.950   1.907
 1625SOL    HW1 5774   0.664   5.027   1.865
 1625SOL    HW2 5775   0.664   4.927   1.993
 1626SOL     OW 5776   1.923   1.998   6.713
 1626SOL    HW1 5777   1.932   2.097   6.701
 1626SOL    HW2 5778   2.010   1.960   6.744
 1627SOL     OW 5779   5.447   3.138   3.948
 1627SOL    HW1 5780   5.395   3.074   3.890
 1627SOL    HW2 5781   5.544   3.121   3.937
 1628SOL     OW 5782   3.111   3.655   0.265
 1628SOL    HW1 5783   3.102   3.648   0.166
 1628SOL    HW2 5784   3.185   3.720   0.287
 1629SOL     OW 5785   4.224   2.271   3.459
 1629SOL    HW1 5786   4.128   2.253   3.479
 1629SOL    HW2 5787   4.269   2.304   3.542
 1630SOL     OW 5788   0.031   4.848   4.533
 1630SOL    HW1 5789   7.009   4.930   4.500
 1630SOL    HW2 5790   0.120   4.841   4.488
 1631SOL     OW 5791   0.524   6.841   5.536
 1631SOL    HW1 5792   0.470   6.789   5.470
 1631SOL    HW2 5793   0.542   6.785   5.616
 1632SOL     OW 5794   5.684   0.602   1.278
 1632SOL    HW1 5795   5.702   0.615   1.180
 1632SOL    HW2 5796   5.637   0.682   1.315
 1633SOL     OW 5797   5.273   2.844   3.998
 1633SOL    HW1 5798   5.194   2.851   4.058
 1633SOL    HW2 5799   5.243   2.840   3.903
 1634SOL     OW 5800   3.541   1.100   6.715
 1634SOL    HW1 5801   3.493   1.015   6.738
 1634SOL    HW2 5802   3.484   1.178   6.741
 1635SOL     OW 5803   0.332   5.760   4.038
 1635SOL    HW1 5804   0.251   5.818   4.035
 1635SOL    HW2 5805   0.312   5.673   3.995
 1636SOL     OW 5806   2.063   6.159   1.090
 1636SOL    HW1 5807   2.142   6.141   1.149
 1636SOL    HW2 5808   1.988   6.193   1.145
 1637SOL     OW 5809   6.949   3.307   1.865
 1637SOL    HW1 5810   0.020   3.286   1.883
 1637SOL    HW2 5811   6.892   3.259   1.931
 1638SOL     OW 5812   1.245   2.758   4.892
 1638SOL    HW1 5813   1.183   2.804   4.828
 1638SOL    HW2 5814   1.291   2.827   4.949
 1639SOL     OW 5815   4.938   4.829   1.981
 1639SOL    HW1 5816   4.938   4.821   1.881
 1639SOL    HW2 5817   4.845   4.813   2.015
 1640SOL     OW 5818   5.662   0.225   1.404
 1640SOL    HW1 5819   5.680   0.224   1.306
 1640SOL    HW2 5820   5.717   0.297   1.447
 1641SOL     OW 5821   6.353   2.345   5.432
 1641SOL    HW1 5822   6.283   2.352   5.362
 1641SOL    HW2 5823   6.429   2.289   5.398
 1642SOL     OW 5824   0.005   2.600   2.000
 1642SOL    HW1 5825   0.034   2.637   2.088
 1642SOL    HW2 5826   6.945   2.549   2.012
 1643SOL     OW 5827   4.181   0.417   5.303
 1643SOL    HW1 5828   4.091   0.398   5.341
 1643SOL    HW2 5829   4.200   0.515   5.307
 1644SOL     OW 5830   3.199   0.587   1.025
 1644SOL    HW1 5831   3.273   0.607   1.090
 1644SOL    HW2 5832   3.114   0.627   1.059
 1645SOL     OW 5833   2.260   0.204   6.655
 1645SOL    HW1 5834   2.204   0.123   6.673
 1645SOL    HW2 5835   2.356   0.183   6.670
 1646SOL     OW 5836   1.234   3.722   1.275
 1646SOL    HW1 5837   1.278   3.686   1.192
 1646SOL    HW2 5838   1.260   3.666   1.353
 1647SOL     OW 5839   5.819   3.263   3.520
 1647SOL    HW1 5840   5.845   3.174   3.558
 1647SOL    HW2 5841   5.809   3.255   3.421
 1648SOL     OW 5842   4.532   0.135   2.429
 1648SOL    HW1 5843   4.454   0.144   2.367
 1648SOL    HW2 5844   4.557   0.226   2.463
 1649SOL     OW 5845   2.922   0.692   3.071
 1649SOL    HW1 5846   2.834   0.666   3.111
 1649SOL    HW2 5847   2.994   0.683   3.139
 1650SOL     OW 5848   2.725   6.003   3.614
 1650SOL    HW1 5849   2.646   5.974   3.666
 1650SOL    HW2 5850   2.799   6.030   3.676
 1651SOL     OW 5851   1.431   7.017   0.788
 1651SOL    HW1 5852   1.387   6.991   0.874
 1651SOL    HW2 5853   1.367   7.004   0.713
 1652SOL     OW 5854   2.994   2.708   1.273
 1652SOL    HW1 5855   2.924   2.641   1.247
 1652SOL    HW2 5856   3.077   2.659   1.300
 1653SOL     OW 5857   0.763   6.245   1.511
 1653SOL    HW1 5858   0.748   6.202   1.600
 1653SOL    HW2 5859   0.676   6.284   1.479
 1654SOL     OW 5860   0.407   3.537   2.902
 1654SOL    HW1 5861   0.497   3.504   2.930
 1654SOL    HW2 5862   0.416   3.592   2.819
 1655SOL     OW 5863   4.689   4.983   6.282
 1655SOL    HW1 5864   4.747   4.987   6.201
 1655SOL    HW2 5865   4.712   4.902   6.336
 1656SOL     OW 5866   0.172   5.076   3.192
 1656SOL    HW1 5867   0.157   5.173   3.171
 1656SOL    HW2 5868   0.187   5.025   3.107
 1657SOL     OW 5869   1.308   0.552   5.142
 1657SOL    HW1 5870   1.401   0.577   5.170
 1657SOL    HW2 5871   1.260   0.634   5.110
 1658SOL     OW 5872   6.154   6.102   2.750
 1658SOL    HW1 5873   6.155   6.161   2.831
 1658SOL    HW2 5874   6.130   6.009   2.778
 1659SOL     OW 5875   4.267   2.071   5.862
 1659SOL    HW1 5876   4.245   2.132   5.938
 1659SOL    HW2 5877   4.216   1.986   5.872
 1660SOL     OW 5878   1.294   5.628   3.479
 1660SOL    HW1 5879   1.215   5.570   3.496
 1660SOL    HW2 5880   1.294   5.705   3.543
 1661SOL     OW 5881   2.986   0.134   2.365
 1661SOL    HW1 5882   3.079   0.134   2.400
 1661SOL    HW2 5883   2.933   0.205   2.412
 1662SOL     OW 5884   0.496   0.558   3.003
 1662SOL    HW1 5885   0.509   0.627   3.074
 1662SOL    HW2 5886   0.477   0.603   2.916
 1663SOL     OW 5887   2.873   6.953   3.526
 1663SOL    HW1 5888   2.956   7.009   3.529
 1663SOL    HW2 5889   2.874   6.897   3.444
 1664SOL     OW 5890   2.242   5.811   4.852
 1664SOL    HW1 5891   2.178   5.885   4.873
 1664SOL    HW2 5892   2.335   5.840   4.877
 1665SOL     OW 5893   6.988   0.209   4.076
 1665SOL    HW1 5894   0.050   0.167   4.102
 1665SOL    HW2 5895   7.000   0.260   3.991
 1666SOL     OW 5896   6.053   2.356   5.799
 1666SOL    HW1 5897   5.981   2.346   5.868
 1666SOL    HW2 5898   6.118   2.280   5.807
 1667SOL     OW 5899   6.596   0.634   6.156
 1667SOL    HW1 5900   6.510   0.676   6.130
 1667SOL    HW2 5901   6.660   0.637   6.079
 1668SOL     OW 5902   3.568   0.938   5.270
 1668SOL    HW1 5903   3.489   0.886   5.304
 1668SOL    HW2 5904   3.571   0.931   5.170
 1669SOL     OW 5905   5.922   7.015   6.606
 1669SOL    HW1 5906   5.903   6.952   6.682
 1669SOL    HW2 5907   5.835   0.022   6.568
 1670SOL     OW 5908   5.931   4.329   5.907
 1670SOL    HW1 5909   5.874   4.409   5.889
 1670SOL    HW2 5910   5.927   4.306   6.004
 1671SOL     OW 5911   5.680   3.890   0.336
 1671SOL    HW1 5912   5.606   3.942   0.378
 1671SOL    HW2 5913   5.666   3.792   0.353
 1672SOL     OW 5914   1.747   5.102   2.591
 1672SOL    HW1 5915   1.730   5.148   2.504
 1672SOL    HW2 5916   1.842   5.071   2.595
 1673SOL     OW 5917   6.856   2.067   4.064
 1673SOL    HW1 5918   6.786   2.003   4.031
 1673SOL    HW2 5919   6.934   2.015   4.100
 1674SOL     OW 5920   0.499   4.448   6.800
 1674SOL    HW1 5921   0.430   4.421   6.868
 1674SOL    HW2 5922   0.455   4.460   6.711
 1675SOL     OW 5923   4.852   2.122   6.638
 1675SOL    HW1 5924   4.760   2.140   6.605
 1675SOL    HW2 5925   4.907   2.205   6.629
 1676SOL     OW 5926   1.286   0.381   3.351
 1676SOL    HW1 5927   1.196   0.379   3.394
 1676SOL    HW2 5928   1.283   0.440   3.271
 1677SOL     OW 5929   6.116   1.560   5.509
 1677SOL    HW1 5930   6.142   1.464   5.499
 1677SOL    HW2 5931   6.194   1.618   5.485
 1678SOL     OW 5932   5.261   0.080   1.489
 1678SOL    HW1 5933   5.213   7.022   1.517
 1678SOL    HW2 5934   5.269   0.081   1.389
 1679SOL     OW 5935   0.194   3.548   6.958
 1679SOL    HW1 5936   0.177   3.643   6.983
 1679SOL    HW2 5937   0.288   3.523   6.983
 1680SOL     OW 5938   1.156   1.535   4.359
 1680SOL    HW1 5939   1.180   1.626   4.326
 1680SOL    HW2 5940   1.101   1.543   4.442
 1681SOL     OW 5941   6.510   5.524   0.974
 1681SOL    HW1 5942   6.548   5.474   0.897
 1681SOL    HW2 5943   6.451   5.463   1.027
 1682SOL     OW 5944   6.574   3.405   5.627
 1682SOL    HW1 5945   6.479   3.405   5.595
 1682SOL    HW2 5946   6.581   3.359   5.715
 1683SOL     OW 5947   5.466   5.590   0.869
 1683SOL    HW1 5948   5.395   5.618   0.804
 1683SOL    HW2 5949   5.553   5.631   0.843
 1684SOL     OW 5950   0.666   5.958   5.088
 1684SOL    HW1 5951   0.579   5.990   5.126
 1684SOL    HW2 5952   0.659   5.861   5.065
 1685SOL     OW 5953   1.230   1.559   0.210
 1685SOL    HW1 5954   1.305   1.507   0.251
 1685SOL    HW2 5955   1.267   1.634   0.156
 1686SOL     OW 5956   1.939   7.011   0.169
 1686SOL    HW1 5957   1.848   6.992   0.133
 1686SOL    HW2 5958   2.002   6.939   0.140
 1687SOL     OW 5959   1.665   0.061   1.673
 1687SOL    HW1 5960   1.599   0.135   1.662
 1687SOL    HW2 5961   1.631   7.003   1.628
 1688SOL     OW 5962   0.711   2.136   3.436
 1688SOL    HW1 5963   0.658   2.221   3.443
 1688SOL    HW2 5964   0.657   2.059   3.469
 1689SOL     OW 5965   1.903   1.389   3.228
 1689SOL    HW1 5966   1.917   1.333   3.310
 1689SOL    HW2 5967   1.842   1.465   3.250
 1690SOL     OW 5968   0.972   1.535   1.355
 1690SOL    HW1 5969   1.005   1.540   1.449
 1690SOL    HW2 5970   1.045   1.499   1.296
 1691SOL     OW 5971   5.204   4.216   2.263
 1691SOL    HW1 5972   5.108   4.191   2.247
 1691SOL    HW2 5973   5.208   4.289   2.331
 1692SOL     OW 5974   1.338   0.671   3.695
 1692SOL    HW1 5975   1.355   0.698   3.789
 1692SOL    HW2 5976   1.411   0.609   3.665
 1693SOL     OW 5977   2.917   2.179   3.430
 1693SOL    HW1 5978   2.875   2.269   3.438
 1693SOL    HW2 5979   2.855   2.110   3.469
 1694SOL     OW 5980   4.710   5.888   5.114
 1694SOL    HW1 5981   4.718   5.971   5.169
 1694SOL    HW2 5982   4.786   5.883   5.048
 1695SOL     OW 5983   2.665   2.175   5.742
 1695SOL    HW1 5984   2.600   2.250   5.755
 1695SOL    HW2 5985   2.753   2.200   5.782
 1696SOL     OW 5986   3.760   5.584   0.746
 1696SOL    HW1 5987   3.765   5.639   0.663
 1696SOL    HW2 5988   3.684   5.520   0.738
 1697SOL     OW 5989   0.684   1.200   2.113
 1697SOL    HW1 5990   0.679   1.101   2.102
 1697SOL    HW2 5991   0.772   1.224   2.154
 1698SOL     OW 5992   4.868   2.165   1.195
 1698SOL    HW1 5993   4.871   2.133   1.100
 1698SOL    HW2 5994   4.933   2.239   1.207
 1699SOL     OW 5995   2.034   3.488   1.020
 1699SOL    HW1 5996   2.021   3.391   1.037
 1699SOL    HW2 5997   2.020   3.539   1.104
 1700SOL     OW 5998   6.576   3.399   3.679
 1700SOL    HW1 5999   6.549   3.314   3.634
 1700SOL    HW2 6000   6.539   3.400   3.772
 1701SOL     OW 6001   5.836   2.993   4.643
 1701SOL    HW1 6002   5.745   3.035   4.639
 1701SOL    HW2 6003   5.870   2.996   4.736
 1702SOL     OW 6004   4.923   2.965   0.428
 1702SOL    HW1 6005   4.921   3.046   0.486
 1702SOL    HW2 6006   5.016   2.947   0.398
 1703SOL     OW 6007   1.807   3.703   0.193
 1703SOL    HW1 6008   1.745   3.781   0.187
 1703SOL    HW2 6009   1.793   3.642   0.115
 1704SOL     OW 6010   0.937   1.195   2.238
 1704SOL    HW1 6011   0.906   1.109   2.278
 1704SOL    HW2 6012   1.036   1.204   2.250
 1705SOL     OW 6013   4.368   3.171   1.749
 1705SOL    HW1 6014   4.309   3.162   1.829
 1705SOL    HW2 6015   4.442   3.104   1.754
 1706SOL     OW 6016   2.576   1.273   0.033
 1706SOL    HW1 6017   2.638   1.307   0.103
 1706SOL    HW2 6018   2.582   1.173   0.029
 1707SOL     OW 6019   5.568   2.101   3.111
 1707SOL    HW1 6020   5.522   2.097   3.022
 1707SOL    HW2 6021   5.500   2.121   3.182
 1708SOL     OW 6022   6.945   4.989   3.014
 1708SOL    HW1 6023   6.947   5.032   3.105
 1708SOL    HW2 6024   6.876   5.034   2.958
 1709SOL     OW 6025   2.800   5.924   3.125
 1709SOL    HW1 6026   2.753   5.981   3.193
 1709SOL    HW2 6027   2.897   5.949   3.123
 1710SOL     OW 6028   0.298   6.218   3.616
 1710SOL    HW1 6029   0.312   6.263   3.704
 1710SOL    HW2 6030   0.202   6.229   3.587
 1711SOL     OW 6031   1.538   4.383   5.702
 1711SOL    HW1 6032   1.489   4.460   5.742
 1711SOL    HW2 6033   1.529   4.303   5.761
 1712SOL     OW 6034   0.691   4.809   0.565
 1712SOL    HW1 6035   0.745   4.741   0.517
 1712SOL    HW2 6036   0.596   4.806   0.532
 1713SOL     OW 6037   1.248   3.217   1.025
 1713SOL    HW1 6038   1.198   3.163   1.093
 1713SOL    HW2 6039   1.275   3.157   0.949
 1714SOL     OW 6040   3.183   1.833   0.489
 1714SOL    HW1 6041   3.132   1.756   0.528
 1714SOL    HW2 6042   3.257   1.859   0.552
 1715SOL     OW 6043   0.484   3.318   3.648
 1715SOL    HW1 6044   0.384   3.320   3.640
 1715SOL    HW2 6045   0.523   3.305   3.557
 1716SOL     OW 6046   0.451   6.437   0.295
 1716SOL    HW1 6047   0.525   6.421   0.360
 1716SOL    HW2 6048   0.486   6.493   0.219
 1717SOL     OW 6049   3.466   0.431   7.013
 1717SOL    HW1 6050   3.419   0.378   0.058
 1717SOL    HW2 6051   3.482   0.373   6.933
 1718SOL     OW 6052   1.043   4.557   5.772
 1718SOL    HW1 6053   1.105   4.632   5.793
 1718SOL    HW2 6054   1.095   4.473   5.756
 1719SOL     OW 6055   2.177   3.539   1.699
 1719SOL    HW1 6056   2.225   3.465   1.651
 1719SOL    HW2 6057   2.187   3.526   1.798
 1720SOL     OW 6058   6.561   1.268   1.384
 1720SOL    HW1 6059   6.515   1.349   1.346
 1720SOL    HW2 6060   6.532   1.254   1.478
 1721SOL     OW 6061   1.697   6.282   3.873
 1721SOL    HW1 6062   1.716   6.300   3.777
 1721SOL    HW2 6063   1.599   6.268   3.885
 1722SOL     OW 6064   6.020   6.409   2.309
 1722SOL    HW1 6065   5.955   6.351   2.262
 1722SOL    HW2 6066   5.971   6.471   2.371
 1723SOL     OW 6067   5.978   1.462   2.382
 1723SOL    HW1 6068   5.899   1.522   2.387
 1723SOL    HW2 6069   6.032   1.482   2.300
 1724SOL     OW 6070   4.948   0.695   0.054
 1724SOL    HW1 6071   4.869   0.741   0.096
 1724SOL    HW2 6072   5.032   0.741   0.082
 1725SOL     OW 6073   3.895   4.760   1.463
 1725SOL    HW1 6074   3.862   4.694   1.396
 1725SOL    HW2 6075   3.892   4.852   1.424
 1726SOL     OW 6076   0.898   4.911   4.599
 1726SOL    HW1 6077   0.836   4.982   4.565
 1726SOL    HW2 6078   0.899   4.913   4.699
 1727SOL     OW 6079   3.330   3.906   5.437
 1727SOL    HW1 6080   3.292   3.816   5.461
 1727SOL    HW2 6081   3.308   3.926   5.342
 1728SOL     OW 6082   4.626   4.409   3.073
 1728SOL    HW1 6083   4.575   4.495   3.069
 1728SOL    HW2 6084   4.576   4.338   3.025
 1729SOL     OW 6085   2.099   3.601   3.301
 1729SOL    HW1 6086   2.118   3.547   3.219
 1729SOL    HW2 6087   2.143   3.691   3.293
 1730SOL     OW 6088   6.144   2.648   5.121
 1730SOL    HW1 6089   6.222   2.677   5.176
 1730SOL    HW2 6090   6.076   2.721   5.118
 1731SOL     OW 6091   1.820   5.288   0.585
 1731SOL    HW1 6092   1.889   5.215   0.583
 1731SOL    HW2 6093   1.754   5.274   0.511
 1732SOL     OW 6094   0.509   4.944   0.052
 1732SOL    HW1 6095   0.499   4.985   6.986
 1732SOL    HW2 6096   0.603   4.913   0.064
 1733SOL     OW 6097   1.584   3.862   0.667
 1733SOL    HW1 6098   1.548   3.885   0.757
 1733SOL    HW2 6099   1.604   3.764   0.663
 1734SOL     OW 6100   4.902   2.799   0.655
 1734SOL    HW1 6101   4.913   2.845   0.567
 1734SOL    HW2 6102   4.934   2.705   0.647
 1735SOL     OW 6103   5.987   5.140   1.627
 1735SOL    HW1 6104   6.077   5.153   1.585
 1735SOL    HW2 6105   5.920   5.198   1.580
 1736SOL     OW 6106   3.960   3.200   0.959
 1736SOL    HW1 6107   3.906   3.119   0.981
 1736SOL    HW2 6108   3.980   3.202   0.861
 1737SOL     OW 6109   2.040   6.719   3.618
 1737SOL    HW1 6110   2.082   6.808   3.638
 1737SOL    HW2 6111   1.992   6.686   3.699
 1738SOL     OW 6112   1.768   2.810   2.444
 1738SOL    HW1 6113   1.805   2.841   2.357
 1738SOL    HW2 6114   1.817   2.855   2.519
 1739SOL     OW 6115   4.089   1.694   5.070
 1739SOL    HW1 6116   4.016   1.755   5.100
 1739SOL    HW2 6117   4.055   1.600   5.066
 1740SOL     OW 6118   0.656   1.245   5.963
 1740SOL    HW1 6119   0.640   1.215   6.057
 1740SOL    HW2 6120   0.598   1.324   5.943
 1741SOL     OW 6121   1.334   0.012   2.988
 1741SOL    HW1 6122   1.351   6.953   2.938
 1741SOL    HW2 6123   1.290   7.016   3.076
 1742SOL     OW 6124   6.032   0.545   4.681
 1742SOL    HW1 6125   6.099   0.575   4.613
 1742SOL    HW2 6126   5.943   0.585   4.659
 1743SOL     OW 6127   4.200   1.153   0.695
 1743SOL    HW1 6128   4.118   1.208   0.710
 1743SOL    HW2 6129   4.228   1.160   0.599
 1744SOL     OW 6130   2.641   0.618   0.752
 1744SOL    HW1 6131   2.717   0.646   0.694
 1744SOL    HW2 6132   2.613   0.525   0.727
 1745SOL     OW 6133   6.878   2.368   3.421
 1745SOL    HW1 6134   6.930   2.345   3.503
 1745SOL    HW2 6135   6.878   2.467   3.408
 1746SOL     OW 6136   2.775   0.945   5.977
 1746SOL    HW1 6137   2.803   0.860   6.022
 1746SOL    HW2 6138   2.782   0.934   5.878
 1747SOL     OW 6139   3.369   0.507   1.687
 1747SOL    HW1 6140   3.379   0.579   1.618
 1747SOL    HW2 6141   3.367   0.549   1.778
 1748SOL     OW 6142   5.869   2.298   2.022
 1748SOL    HW1 6143   5.777   2.277   2.054
 1748SOL    HW2 6144   5.879   2.398   2.014
 1749SOL     OW 6145   4.058   6.828   6.375
 1749SOL    HW1 6146   3.993   6.798   6.305
 1749SOL    HW2 6147   4.128   6.759   6.388
 1750SOL     OW 6148   4.934   0.532   4.074
 1750SOL    HW1 6149   4.957   0.451   4.020
 1750SOL    HW2 6150   5.015   0.562   4.124
 1751SOL     OW 6151   1.941   5.649   3.625
 1751SOL    HW1 6152   1.962   5.732   3.574
 1751SOL    HW2 6153   1.928   5.573   3.562
 1752SOL     OW 6154   6.003   2.162   0.389
 1752SOL    HW1 6155   5.935   2.144   0.318
 1752SOL    HW2 6156   5.999   2.090   0.458
 1753SOL     OW 6157   2.155   0.304   2.135
 1753SOL    HW1 6158   2.077   0.240   2.143
 1753SOL    HW2 6159   2.203   0.308   2.222
 1754SOL     OW 6160   4.143   3.271   1.166
 1754SOL    HW1 6161   4.096   3.277   1.254
 1754SOL    HW2 6162   4.086   3.220   1.102
 1755SOL     OW 6163   5.201   3.811   0.563
 1755SOL    HW1 6164   5.264   3.787   0.637
 1755SOL    HW2 6165   5.138   3.882   0.595
 1756SOL     OW 6166   6.595   5.823   4.356
 1756SOL    HW1 6167   6.595   5.723   4.352
 1756SOL    HW2 6168   6.592   5.853   4.451
 1757SOL     OW 6169   3.024   6.578   4.633
 1757SOL    HW1 6170   2.947   6.515   4.644
 1757SOL    HW2 6171   3.074   6.555   4.549
 1758SOL     OW 6172   1.934   0.661   3.148
 1758SOL    HW1 6173   1.897   0.573   3.176
 1758SOL    HW2 6174   1.887   0.735   3.197
 1759SOL     OW 6175   1.076   5.647   6.686
 1759SOL    HW1 6176   0.983   5.611   6.679
 1759SOL    HW2 6177   1.136   5.597   6.623
 1760SOL     OW 6178   5.911   0.529   2.432
 1760SOL    HW1 6179   5.956   0.447   2.397
 1760SOL    HW2 6180   5.961   0.610   2.402
 1761SOL     OW 6181   6.656   2.590   1.250
 1761SOL    HW1 6182   6.627   2.680   1.215
 1761SOL    HW2 6183   6.695   2.600   1.341
 1762SOL     OW 6184   6.277   1.606   6.117
 1762SOL    HW1 6185   6.323   1.540   6.176
 1762SOL    HW2 6186   6.258   1.564   6.028
 1763SOL     OW 6187   2.303   4.202   4.083
 1763SOL    HW1 6188   2.296   4.121   4.025
 1763SOL    HW2 6189   2.376   4.261   4.049
 1764SOL     OW 6190   6.613   2.821   3.767
 1764SOL    HW1 6191   6.559   2.833   3.850
 1764SOL    HW2 6192   6.709   2.807   3.791
 1765SOL     OW 6193   2.842   2.641   6.033
 1765SOL    HW1 6194   2.886   2.692   5.959
 1765SOL    HW2 6195   2.756   2.686   6.059
 1766SOL     OW 6196   5.494   3.109   5.225
 1766SOL    HW1 6197   5.469   3.174   5.152
 1766SOL    HW2 6198   5.415   3.055   5.250
 1767SOL     OW 6199   5.977   3.372   2.673
 1767SOL    HW1 6200   5.937   3.287   2.707
 1767SOL    HW2 6201   5.963   3.378   2.574
 1768SOL     OW 6202   5.532   6.937   4.290
 1768SOL    HW1 6203   5.541   6.839   4.307
 1768SOL    HW2 6204   5.582   6.961   4.207
 1769SOL     OW 6205   4.299   1.643   2.375
 1769SOL    HW1 6206   4.332   1.703   2.302
 1769SOL    HW2 6207   4.199   1.642   2.374
 1770SOL     OW 6208   2.069   5.843   5.563
 1770SOL    HW1 6209   2.135   5.769   5.576
 1770SOL    HW2 6210   2.035   5.874   5.651
 1771SOL     OW 6211   4.899   5.901   6.717
 1771SOL    HW1 6212   4.886   5.806   6.746
 1771SOL    HW2 6213   4.851   5.916   6.630
 1772SOL     OW 6214   3.437   6.475   2.819
 1772SOL    HW1 6215   3.442   6.491   2.917
 1772SOL    HW2 6216   3.355   6.421   2.798
 1773SOL     OW 6217   1.170   5.268   6.514
 1773SOL    HW1 6218   1.209   5.359   6.507
 1773SOL    HW2 6219   1.113   5.262   6.596
 1774SOL     OW 6220   4.081   5.315   1.664
 1774SOL    HW1 6221   4.013   5.339   1.594
 1774SOL    HW2 6222   4.111   5.398   1.710
 1775SOL     OW 6223   0.938   4.317   2.207
 1775SOL    HW1 6224   0.861   4.256   2.186
 1775SOL    HW2 6225   0.992   4.277   2.281
 1776SOL     OW 6226   3.133   5.889   5.226
 1776SOL    HW1 6227   3.171   5.822   5.161
 1776SOL    HW2 6228   3.035   5.872   5.237
 1777SOL     OW 6229   4.438   5.826   0.697
 1777SOL    HW1 6230   4.383   5.813   0.779
 1777SOL    HW2 6231   4.446   5.739   0.648
 1778SOL     OW 6232   5.706   3.507   5.749
 1778SOL    HW1 6233   5.728   3.573   5.821
 1778SOL    HW2 6234   5.618   3.532   5.707
 1779SOL     OW 6235   3.423   6.764   4.894
 1779SOL    HW1 6236   3.431   6.724   4.985
 1779SOL    HW2 6237   3.326   6.767   4.867
 1780SOL     OW 6238   3.256   3.211   6.284
 1780SOL    HW1 6239   3.236   3.114   6.293
 1780SOL    HW2 6240   3.288   3.248   6.371
 1781SOL     OW 6241   3.476   5.507   2.960
 1781SOL    HW1 6242   3.440   5.459   3.040
 1781SOL    HW2 6243   3.519   5.593   2.990
 1782SOL     OW 6244   3.020   1.654   3.573
 1782SOL    HW1 6245   3.049   1.666   3.478
 1782SOL    HW2 6246   3.019   1.743   3.619
 1783SOL     OW 6247   1.844   5.842   6.682
 1783SOL    HW1 6248   1.831   5.906   6.758
 1783SOL    HW2 6249   1.887   5.758   6.715
 1784SOL     OW 6250   3.417   6.753   5.671
 1784SOL    HW1 6251   3.516   6.756   5.680
 1784SOL    HW2 6252   3.387   6.659   5.653
 1785SOL     OW 6253   6.684   4.148   2.575
 1785SOL    HW1 6254   6.665   4.073   2.638
 1785SOL    HW2 6255   6.678   4.114   2.481
 1786SOL     OW 6256   3.363   2.374   0.828
 1786SOL    HW1 6257   3.332   2.467   0.847
 1786SOL    HW2 6258   3.451   2.359   0.872
 1787SOL     OW 6259   3.223   0.817   6.240
 1787SOL    HW1 6260   3.200   0.867   6.157
 1787SOL    HW2 6261   3.266   0.879   6.305
 1788SOL     OW 6262   1.675   5.110   5.558
 1788SOL    HW1 6263   1.751   5.075   5.503
 1788SOL    HW2 6264   1.608   5.038   5.571
 1789SOL     OW 6265   6.755   1.869   0.372
 1789SOL    HW1 6266   6.713   1.956   0.346
 1789SOL    HW2 6267   6.718   1.839   0.460
 1790SOL     OW 6268   3.587   6.918   3.779
 1790SOL    HW1 6269   3.496   6.949   3.809
 1790SOL    HW2 6270   3.576   6.849   3.708
 1791SOL     OW 6271   6.721   6.821   2.680
 1791SOL    HW1 6272   6.642   6.795   2.624
 1791SOL    HW2 6273   6.714   6.777   2.770
 1792SOL     OW 6274   1.195   3.276   4.918
 1792SOL    HW1 6275   1.284   3.316   4.939
 1792SOL    HW2 6276   1.142   3.265   5.002
 1793SOL     OW 6277   6.854   6.845   3.850
 1793SOL    HW1 6278   6.893   6.858   3.759
 1793SOL    HW2 6279   6.852   6.932   3.898
 1794SOL     OW 6280   4.487   5.046   6.077
 1794SOL    HW1 6281   4.489   4.967   6.016
 1794SOL    HW2 6282   4.542   5.026   6.158
 1795SOL     OW 6283   0.711   2.611   0.874
 1795SOL    HW1 6284   0.791   2.641   0.822
 1795SOL    HW2 6285   0.639   2.581   0.812
 1796SOL     OW 6286   2.981   0.697   6.278
 1796SOL    HW1 6287   3.067   0.746   6.268
 1796SOL    HW2 6288   2.920   0.721   6.202
 1797SOL     OW 6289   1.162   6.606   0.446
 1797SOL    HW1 6290   1.186   6.597   0.349
 1797SOL    HW2 6291   1.144   6.515   0.485
 1798SOL     OW 6292   4.649   2.693   2.594
 1798SOL    HW1 6293   4.674   2.765   2.659
 1798SOL    HW2 6294   4.669   2.724   2.501
 1799SOL     OW 6295   1.281   2.168   6.514
 1799SOL    HW1 6296   1.248   2.210   6.430
 1799SOL    HW2 6297   1.213   2.103   6.548
 1800SOL     OW 6298   4.060   4.948   1.666
 1800SOL    HW1 6299   3.966   4.984   1.671
 1800SOL    HW2 6300   4.060   4.852   1.694
 1801SOL     OW 6301   6.693   6.691   1.820
 1801SOL    HW1 6302   6.721   6.602   1.782
 1801SOL    HW2 6303   6.605   6.717   1.781
 1802SOL     OW 6304   5.720   5.642   4.943
 1802SOL    HW1 6305   5.735   5.580   5.020
 1802SOL    HW2 6306   5.711   5.736   4.977
 1803SOL     OW 6307   0.378   5.941   0.812
 1803SOL    HW1 6308   0.425   5.888   0.883
 1803SOL    HW2 6309   0.367   5.885   0.730
 1804SOL     OW 6310   3.032   3.728   5.150
 1804SOL    HW1 6311   3.126   3.742   5.181
 1804SOL    HW2 6312   3.007   3.632   5.164
 1805SOL     OW 6313   4.856   3.206   6.122
 1805SOL    HW1 6314   4.762   3.180   6.104
 1805SOL    HW2 6315   4.915   3.125   6.116
 1806SOL     OW 6316   0.995   6.902   1.223
 1806SOL    HW1 6317   1.037   6.821   1.264
 1806SOL    HW2 6318   0.939   6.949   1.291
 1807SOL     OW 6319   6.154   1.687   4.846
 1807SOL    HW1 6320   6.179   1.639   4.930
 1807SOL    HW2 6321   6.221   1.759   4.828
 1808SOL     OW 6322   1.086   4.315   4.158
 1808SOL    HW1 6323   1.002   4.317   4.212
 1808SOL    HW2 6324   1.089   4.394   4.097
 1809SOL     OW 6325   3.476   1.496   5.619
 1809SOL    HW1 6326   3.512   1.441   5.543
 1809SOL    HW2 6327   3.407   1.559   5.583
 1810SOL     OW 6328   2.833   6.469   2.957
 1810SOL    HW1 6329   2.931   6.452   2.951
 1810SOL    HW2 6330   2.806   6.534   2.886
 1811SOL     OW 6331   5.916   5.521   3.350
 1811SOL    HW1 6332   5.820   5.530   3.323
 1811SOL    HW2 6333   5.969   5.487   3.272
 1812SOL     OW 6334   4.147   5.556   6.589
 1812SOL    HW1 6335   4.131   5.465   6.629
 1812SOL    HW2 6336   4.113   5.626   6.651
 1813SOL     OW 6337   6.329   4.717   6.803
 1813SOL    HW1 6338   6.359   4.683   6.715
 1813SOL    HW2 6339   6.237   4.754   6.795
 1814SOL     OW 6340   4.497   6.489   2.762
 1814SOL    HW1 6341   4.470   6.423   2.832
 1814SOL    HW2 6342   4.499   6.581   2.801
 1815SOL     OW 6343   0.100   0.265   3.016
 1815SOL    HW1 6344   0.052   0.306   3.093
 1815SOL    HW2 6345   0.186   0.314   3.001
 1816SOL     OW 6346   1.254   4.307   0.332
 1816SOL    HW1 6347   1.212   4.301   0.241
 1816SOL    HW2 6348   1.351   4.327   0.322
 1817SOL     OW 6349   2.177   5.439   2.084
 1817SOL    HW1 6350   2.100   5.448   2.147
 1817SOL    HW2 6351   2.189   5.343   2.059
 1818SOL     OW 6352   1.699   1.103   3.303
 1818SOL    HW1 6353   1.632   1.172   3.329
 1818SOL    HW2 6354   1.787   1.124   3.344
 1819SOL     OW 6355   1.585   4.790   1.476
 1819SOL    HW1 6356   1.585   4.889   1.459
 1819SOL    HW2 6357   1.679   4.757   1.476
 1820SOL     OW 6358   4.879   0.442   2.786
 1820SOL    HW1 6359   4.945   0.378   2.824
 1820SOL    HW2 6360   4.925   0.503   2.721
 1821SOL     OW 6361   2.978   1.769   2.770
 1821SOL    HW1 6362   3.040   1.841   2.739
 1821SOL    HW2 6363   2.892   1.775   2.719
 1822SOL     OW 6364   3.169   3.155   1.301
 1822SOL    HW1 6365   3.104   3.080   1.313
 1822SOL    HW2 6366   3.186   3.198   1.390
 1823SOL     OW 6367   4.189   6.844   2.382
 1823SOL    HW1 6368   4.255   6.897   2.329
 1823SOL    HW2 6369   4.180   6.883   2.474
 1824SOL     OW 6370   4.815   2.610   1.249
 1824SOL    HW1 6371   4.733   2.666   1.241
 1824SOL    HW2 6372   4.848   2.611   1.343
 1825SOL     OW 6373   1.507   0.614   1.944
 1825SOL    HW1 6374   1.408   0.615   1.958
 1825SOL    HW2 6375   1.546   0.700   1.977
 1826SOL     OW 6376   3.404   6.740   6.781
 1826SOL    HW1 6377   3.448   6.656   6.750
 1826SOL    HW2 6378   3.469   6.816   6.775
 1827SOL     OW 6379   0.252   6.248   1.851
 1827SOL    HW1 6380   0.288   6.159   1.879
 1827SOL    HW2 6381   0.328   6.313   1.842
 1828SOL     OW 6382   0.840   2.431   6.337
 1828SOL    HW1 6383   0.907   2.369   6.295
 1828SOL    HW2 6384   0.842   2.519   6.290
 1829SOL     OW 6385   5.488   5.864   2.891
 1829SOL    HW1 6386   5.449   5.871   2.800
 1829SOL    HW2 6387   5.479   5.951   2.939
 1830SOL     OW 6388   4.391   6.339   3.448
 1830SOL    HW1 6389   4.380   6.292   3.536
 1830SOL    HW2 6390   4.475   6.394   3.450
 1831SOL     OW 6391   5.129   6.568   2.136
 1831SOL    HW1 6392   5.224   6.543   2.155
 1831SOL    HW2 6393   5.126   6.662   2.101
 1832SOL     OW 6394   4.608   2.892   0.972
 1832SOL    HW1 6395   4.623   2.810   1.026
 1832SOL    HW2 6396   4.643   2.972   1.021
 1833SOL     OW 6397   4.943   0.937   5.030
 1833SOL    HW1 6398   4.910   0.849   5.062
 1833SOL    HW2 6399   5.004   0.924   4.952
 1834SOL     OW 6400   3.276   3.366   1.005
 1834SOL    HW1 6401   3.375   3.350   1.013
 1834SOL    HW2 6402   3.260   3.458   0.970
 1835SOL     OW 6403   1.798   5.292   0.862
 1835SOL    HW1 6404   1.712   5.282   0.910
 1835SOL    HW2 6405   1.783   5.284   0.764
 1836SOL     OW 6406   0.676   6.731   0.727
 1836SOL    HW1 6407   0.770   6.709   0.701
 1836SOL    HW2 6408   0.667   6.830   0.737
 1837SOL     OW 6409   1.158   2.360   4.827
 1837SOL    HW1 6410   1.115   2.358   4.917
 1837SOL    HW2 6411   1.237   2.299   4.826
 1838SOL     OW 6412   6.932   2.576   4.147
 1838SOL    HW1 6413   6.852   2.555   4.205
 1838SOL    HW2 6414   6.978   2.657   4.183
 1839SOL     OW 6415   6.919   2.396   5.507
 1839SOL    HW1 6416   6.991   2.464   5.510
 1839SOL    HW2 6417   6.951   2.311   5.547
 1840SOL     OW 6418   2.718   6.113   0.680
 1840SOL    HW1 6419   2.722   6.061   0.594
 1840SOL    HW2 6420   2.810   6.116   0.720
 1841SOL     OW 6421   2.185   2.851   3.161
 1841SOL    HW1 6422   2.106   2.845   3.100
 1841SOL    HW2 6423   2.176   2.932   3.220
 1842SOL     OW 6424   0.850   5.009   0.499
 1842SOL    HW1 6425   0.793   4.946   0.551
 1842SOL    HW2 6426   0.853   5.098   0.545
 1843SOL     OW 6427   2.635   1.758   4.715
 1843SOL    HW1 6428   2.609   1.790   4.806
 1843SOL    HW2 6429   2.690   1.674   4.724
 1844SOL     OW 6430   4.377   2.202   3.932
 1844SOL    HW1 6431   4.355   2.299   3.923
 1844SOL    HW2 6432   4.389   2.161   3.842
 1845SOL     OW 6433   4.588   0.438   0.136
 1845SOL    HW1 6434   4.569   0.496   0.215
 1845SOL    HW2 6435   4.657   0.369   0.160
 1846SOL     OW 6436   2.970   1.558   5.684
 1846SOL    HW1 6437   3.037   1.598   5.747
 1846SOL    HW2 6438   2.993   1.585   5.591
 1847SOL     OW 6439   0.249   0.642   0.771
 1847SOL    HW1 6440   0.216   0.567   0.714
 1847SOL    HW2 6441   0.345   0.660   0.752
 1848SOL     OW 6442   2.926   6.835   1.910
 1848SOL    HW1 6443   2.967   6.921   1.879
 1848SOL    HW2 6444   2.850   6.855   1.971
 1849SOL     OW 6445   3.243   1.691   6.225
 1849SOL    HW1 6446   3.207   1.618   6.168
 1849SOL    HW2 6447   3.254   1.658   6.318
 1850SOL     OW 6448   6.392   2.692   2.684
 1850SOL    HW1 6449   6.317   2.633   2.657
 1850SOL    HW2 6450   6.468   2.682   2.619
 1851SOL     OW 6451   0.269   2.828   2.632
 1851SOL    HW1 6452   0.337   2.902   2.637
 1851SOL    HW2 6453   0.293   2.756   2.696
 1852SOL     OW 6454   4.479   3.066   0.298
 1852SOL    HW1 6455   4.532   3.045   0.216
 1852SOL    HW2 6456   4.540   3.087   0.374
 1853SOL     OW 6457   0.951   4.712   1.054
 1853SOL    HW1 6458   1.019   4.743   1.120
 1853SOL    HW2 6459   0.983   4.734   0.961
 1854SOL     OW 6460   2.534   5.588   5.071
 1854SOL    HW1 6461   2.577   5.528   5.138
 1854SOL    HW2 6462   2.464   5.643   5.116
 1855SOL     OW 6463   5.287   5.040   0.781
 1855SOL    HW1 6464   5.379   5.003   0.792
 1855SOL    HW2 6465   5.293   5.140   0.770
 1856SOL     OW 6466   5.442   2.438   4.884
 1856SOL    HW1 6467   5.515   2.507   4.886
 1856SOL    HW2 6468   5.362   2.474   4.933
 1857SOL     OW 6469   4.411   0.858   3.344
 1857SOL    HW1 6470   4.434   0.883   3.250
 1857SOL    HW2 6471   4.312   0.850   3.353
 1858SOL     OW 6472   4.888   3.366   3.706
 1858SOL    HW1 6473   4.825   3.290   3.726
 1858SOL    HW2 6474   4.974   3.352   3.754
 1859SOL     OW 6475   5.050   2.211   2.933
 1859SOL    HW1 6476   5.144   2.236   2.908
 1859SOL    HW2 6477   5.011   2.154   2.861
 1860SOL     OW 6478   5.668   1.001   4.654
 1860SOL    HW1 6479   5.766   0.994   4.634
 1860SOL    HW2 6480   5.619   0.925   4.612
 1861SOL     OW 6481   5.217   6.300   3.151
 1861SOL    HW1 6482   5.238   6.204   3.128
 1861SOL    HW2 6483   5.151   6.336   3.085
 1862SOL     OW 6484   2.051   1.980   0.566
 1862SOL    HW1 6485   1.971   1.923   0.549
 1862SOL    HW2 6486   2.056   2.051   0.495
 1863SOL     OW 6487   3.323   2.770   1.043
 1863SOL    HW1 6488   3.298   2.838   0.973
 1863SOL    HW2 6489   3.418   2.743   1.030
 1864SOL     OW 6490   1.392   6.755   4.421
 1864SOL    HW1 6491   1.476   6.751   4.476
 1864SOL    HW2 6492   1.314   6.731   4.479
 1865SOL     OW 6493   4.675   2.456   6.367
 1865SOL    HW1 6494   4.599   2.520   6.354
 1865SOL    HW2 6495   4.640   2.362   6.362
 1866SOL     OW 6496   4.827   4.867   2.411
 1866SOL    HW1 6497   4.788   4.826   2.494
 1866SOL    HW2 6498   4.756   4.874   2.341
 1867SOL     OW 6499   0.806   4.400   0.028
 1867SOL    HW1 6500   0.870   4.364   0.097
 1867SOL    HW2 6501   0.732   4.449   0.073
 1868SOL     OW 6502   5.828   4.601   5.859
 1868SOL    HW1 6503   5.912   4.645   5.891
 1868SOL    HW2 6504   5.749   4.649   5.897
 1869SOL     OW 6505   6.240   1.156   4.935
 1869SOL    HW1 6506   6.319   1.096   4.947
 1869SOL    HW2 6507   6.163   1.123   4.990
 1870SOL     OW 6508   1.433   5.618   4.237
 1870SOL    HW1 6509   1.507   5.616   4.170
 1870SOL    HW2 6510   1.459   5.565   4.318
 1871SOL     OW 6511   2.175   0.217   0.847
 1871SOL    HW1 6512   2.240   0.280   0.889
 1871SOL    HW2 6513   2.084   0.260   0.844
 1872SOL     OW 6514   2.233   4.328   0.133
 1872SOL    HW1 6515   2.323   4.372   0.132
 1872SOL    HW2 6516   2.244   4.230   0.112
 1873SOL     OW 6517   4.950   1.660   6.519
 1873SOL    HW1 6518   4.998   1.603   6.452
 1873SOL    HW2 6519   4.877   1.711   6.473
 1874SOL     OW 6520   0.934   1.941   2.494
 1874SOL    HW1 6521   0.986   1.856   2.497
 1874SOL    HW2 6522   0.836   1.921   2.496
 1875SOL     OW 6523   1.357   6.399   6.708
 1875SOL    HW1 6524   1.436   6.350   6.670
 1875SOL    HW2 6525   1.323   6.350   6.788
 1876SOL     OW 6526   2.965   6.940   4.126
 1876SOL    HW1 6527   2.975   6.849   4.166
 1876SOL    HW2 6528   3.055   6.973   4.097
 1877SOL     OW 6529   0.489   6.973   3.154
 1877SOL    HW1 6530   0.433   6.996   3.075
 1877SOL    HW2 6531   0.471   0.012   3.228
 1878SOL     OW 6532   6.458   2.546   4.832
 1878SOL    HW1 6533   6.466   2.502   4.921
 1878SOL    HW2 6534   6.390   2.619   4.837
 1879SOL     OW 6535   1.461   3.765   5.354
 1879SOL    HW1 6536   1.477   3.700   5.429
 1879SOL    HW2 6537   1.380   3.820   5.376
 1880SOL     OW 6538   5.825   0.786   5.824
 1880SOL    HW1 6539   5.872   0.766   5.738
 1880SOL    HW2 6540   5.868   0.865   5.867
 1881SOL     OW 6541   6.535   2.269   0.784
 1881SOL    HW1 6542   6.534   2.343   0.717
 1881SOL    HW2 6543   6.630   2.246   0.808
 1882SOL     OW 6544   0.778   4.157   6.315
 1882SOL    HW1 6545   0.793   4.138   6.218
 1882SOL    HW2 6546   0.795   4.254   6.333
 1883SOL     OW 6547   0.160   2.288   3.621
 1883SOL    HW1 6548   0.194   2.291   3.715
 1883SOL    HW2 6549   0.128   2.195   3.600
 1884SOL     OW 6550   0.262   2.435   1.304
 1884SOL    HW1 6551   0.280   2.381   1.386
 1884SOL    HW2 6552   0.326   2.512   1.301
 1885SOL     OW 6553   2.432   1.814   5.184
 1885SOL    HW1 6554   2.470   1.723   5.200
 1885SOL    HW2 6555   2.409   1.857   5.271
 1886SOL     OW 6556   1.046   6.345   3.157
 1886SOL    HW1 6557   0.962   6.291   3.172
 1886SOL    HW2 6558   1.125   6.293   3.190
 1887SOL     OW 6559   1.358   5.821   6.716
 1887SOL    HW1 6560   1.348   5.736   6.767
 1887SOL    HW2 6561   1.437   5.815   6.656
 1888SOL     OW 6562   2.459   0.889   1.581
 1888SOL    HW1 6563   2.488   0.919   1.671
 1888SOL    HW2 6564   2.524   0.921   1.512
 1889SOL     OW 6565   1.169   3.403   3.488
 1889SOL    HW1 6566   1.171   3.316   3.538
 1889SOL    HW2 6567   1.246   3.459   3.517
 1890SOL     OW 6568   0.409   6.117   3.378
 1890SOL    HW1 6569   0.333   6.069   3.332
 1890SOL    HW2 6570   0.379   6.147   3.468
 1891SOL     OW 6571   4.092   3.776   2.688
 1891SOL    HW1 6572   4.120   3.789   2.783
 1891SOL    HW2 6573   4.049   3.860   2.654
 1892SOL     OW 6574   0.425   0.647   2.173
 1892SOL    HW1 6575   0.344   0.703   2.152
 1892SOL    HW2 6576   0.426   0.625   2.270
 1893SOL     OW 6577   3.507   3.402   3.549
 1893SOL    HW1 6578   3.476   3.495   3.571
 1893SOL    HW2 6579   3.540   3.399   3.455
 1894SOL     OW 6580   3.514   3.953   4.403
 1894SOL    HW1 6581   3.583   3.991   4.341
 1894SOL    HW2 6582   3.467   4.029   4.449
 1895SOL     OW 6583   3.270   6.399   0.023
 1895SOL    HW1 6584   3.273   6.468   0.095
 1895SOL    HW2 6585   3.216   6.433   6.972
 1896SOL     OW 6586   5.607   2.447   1.148
 1896SOL    HW1 6587   5.633   2.351   1.133
 1896SOL    HW2 6588   5.682   2.496   1.192
 1897SOL     OW 6589   1.924   5.053   3.836
 1897SOL    HW1 6590   1.923   5.133   3.777
 1897SOL    HW2 6591   1.865   5.070   3.915
 1898SOL     OW 6592   1.427   6.017   3.617
 1898SOL    HW1 6593   1.507   5.967   3.651
 1898SOL    HW2 6594   1.445   6.049   3.524
 1899SOL     OW 6595   0.030   0.064   2.007
 1899SOL    HW1 6596   7.018   0.085   1.917
 1899SOL    HW2 6597   6.984   0.072   2.076
 1900SOL     OW 6598   2.760   6.820   0.359
 1900SOL    HW1 6599   2.837   6.781   0.309
 1900SOL    HW2 6600   2.784   6.833   0.455
 1901SOL     OW 6601   2.776   3.734   1.355
 1901SOL    HW1 6602   2.869   3.701   1.369
 1901SOL    HW2 6603   2.711   3.660   1.374
 1902SOL     OW 6604   1.256   6.376   4.462
 1902SOL    HW1 6605   1.343   6.386   4.413
 1902SOL    HW2 6606   1.243   6.454   4.523
 1903SOL     OW 6607   1.498   2.295   4.574
 1903SOL    HW1 6608   1.570   2.325   4.636
 1903SOL    HW2 6609   1.483   2.363   4.503
 1904SOL     OW 6610   5.385   5.434   2.574
 1904SOL    HW1 6611   5.316   5.501   2.601
 1904SOL    HW2 6612   5.476   5.477   2.579
 1905SOL     OW 6613   6.740   0.431   3.767
 1905SOL    HW1 6614   6.785   0.473   3.688
 1905SOL    HW2 6615   6.641   0.446   3.761
 1906SOL     OW 6616   2.371   0.150   5.329
 1906SOL    HW1 6617   2.404   0.244   5.324
 1906SOL    HW2 6618   2.441   0.093   5.371
 1907SOL     OW 6619   5.396   2.837   0.242
 1907SOL    HW1 6620   5.403   2.789   0.329
 1907SOL    HW2 6621   5.449   2.922   0.246
 1908SOL     OW 6622   3.617   1.287   1.034
 1908SOL    HW1 6623   3.612   1.214   0.966
 1908SOL    HW2 6624   3.591   1.251   1.124
 1909SOL     OW 6625   6.805   4.355   5.048
 1909SOL    HW1 6626   6.898   4.323   5.066
 1909SOL    HW2 6627   6.776   4.323   4.958
 1910SOL     OW 6628   6.574   6.509   5.843
 1910SOL    HW1 6629   6.508   6.512   5.918
 1910SOL    HW2 6630   6.585   6.601   5.804
 1911SOL     OW 6631   6.608   4.945   4.034
 1911SOL    HW1 6632   6.672   4.892   4.089
 1911SOL    HW2 6633   6.562   5.012   4.092
 1912SOL     OW 6634   2.746   5.344   2.488
 1912SOL    HW1 6635   2.777   5.388   2.572
 1912SOL    HW2 6636   2.816   5.280   2.457
 1913SOL     OW 6637   2.755   4.439   5.372
 1913SOL    HW1 6638   2.688   4.514   5.369
 1913SOL    HW2 6639   2.805   4.436   5.285
 1914SOL     OW 6640   2.500   4.104   6.358
 1914SOL    HW1 6641   2.484   4.109   6.259
 1914SOL    HW2 6642   2.466   4.016   6.392
 1915SOL     OW 6643   4.531   2.220   6.182
 1915SOL    HW1 6644   4.474   2.302   6.177
 1915SOL    HW2 6645   4.495   2.151   6.119
 1916SOL     OW 6646   3.817   0.681   2.226
 1916SOL    HW1 6647   3.791   0.770   2.189
 1916SOL    HW2 6648   3.813   0.685   2.326
 1917SOL     OW 6649   2.693   3.973   1.612
 1917SOL    HW1 6650   2.656   4.050   1.664
 1917SOL    HW2 6651   2.711   4.002   1.518
 1918SOL     OW 6652   5.990   2.636   4.001
 1918SOL    HW1 6653   5.895   2.659   4.021
 1918SOL    HW2 6654   6.018   2.559   4.059
 1919SOL     OW 6655   0.778   1.945   1.038
 1919SOL    HW1 6656   0.732   1.963   1.125
 1919SOL    HW2 6657   0.820   1.854   1.041
 1920SOL     OW 6658   5.350   2.273   0.641
 1920SOL    HW1 6659   5.400   2.194   0.606
 1920SOL    HW2 6660   5.380   2.293   0.734
 1921SOL     OW 6661   1.871   2.792   0.227
 1921SOL    HW1 6662   1.842   2.735   0.150
 1921SOL    HW2 6663   1.952   2.845   0.202
 1922SOL     OW 6664   3.335   3.242   2.353
 1922SOL    HW1 6665   3.316   3.146   2.370
 1922SOL    HW2 6666   3.259   3.298   2.386
 1923SOL     OW 6667   3.805   0.155   5.259
 1923SOL    HW1 6668   3.817   0.243   5.214
 1923SOL    HW2 6669   3.715   0.152   5.303
 1924SOL     OW 6670   4.109   0.408   0.613
 1924SOL    HW1 6671   4.014   0.422   0.585
 1924SOL    HW2 6672   4.169   0.469   0.561
 1925SOL     OW 6673   1.524   4.484   1.089
 1925SOL    HW1 6674   1.431   4.509   1.061
 1925SOL    HW2 6675   1.520   4.438   1.178
 1926SOL     OW 6676   3.361   0.315   2.127
 1926SOL    HW1 6677   3.375   0.253   2.050
 1926SOL    HW2 6678   3.441   0.313   2.187
 1927SOL     OW 6679   2.286   5.259   1.604
 1927SOL    HW1 6680   2.311   5.224   1.513
 1927SOL    HW2 6681   2.334   5.207   1.674
 1928SOL     OW 6682   5.520   4.110   2.833
 1928SOL    HW1 6683   5.583   4.116   2.910
 1928SOL    HW2 6684   5.452   4.183   2.840
 1929SOL     OW 6685   3.135   6.969   2.989
 1929SOL    HW1 6686   3.214   6.930   3.036
 1929SOL    HW2 6687   3.149   0.042   2.977
 1930SOL     OW 6688   4.543   3.340   6.554
 1930SOL    HW1 6689   4.572   3.419   6.500
 1930SOL    HW2 6690   4.600   3.334   6.636
 1931SOL     OW 6691   0.628   1.745   4.231
 1931SOL    HW1 6692   0.644   1.840   4.258
 1931SOL    HW2 6693   0.623   1.739   4.131
 1932SOL     OW 6694   4.385   2.323   2.186
 1932SOL    HW1 6695   4.372   2.392   2.115
 1932SOL    HW2 6696   4.393   2.232   2.145
 1933SOL     OW 6697   1.285   1.503   1.166
 1933SOL    HW1 6698   1.302   1.600   1.150
 1933SOL    HW2 6699   1.371   1.457   1.186
 1934SOL     OW 6700   0.145   0.120   6.495
 1934SOL    HW1 6701   0.106   0.196   6.546
 1934SOL    HW2 6702   0.192   0.155   6.414
 1935SOL     OW 6703   6.349   5.513   3.979
 1935SOL    HW1 6704   6.435   5.477   3.943
 1935SOL    HW2 6705   6.304   5.442   4.033
 1936SOL     OW 6706   4.678   3.036   5.474
 1936SOL    HW1 6707   4.617   3.009   5.550
 1936SOL    HW2 6708   4.735   3.112   5.504
 1937SOL     OW 6709   5.588   5.217   6.705
 1937SOL    HW1 6710   5.574   5.229   6.803
 1937SOL    HW2 6711   5.632   5.299   6.667
 1938SOL     OW 6712   0.356   3.194   6.405
 1938SOL    HW1 6713   0.426   3.239   6.350
 1938SOL    HW2 6714   0.350   3.239   6.494
 1939SOL     OW 6715   0.789   0.348   4.666
 1939SOL    HW1 6716   0.863   0.389   4.719
 1939SOL    HW2 6717   0.826   0.305   4.584
 1940SOL     OW 6718   6.784   4.916   0.599
 1940SOL    HW1 6719   6.840   4.996   0.575
 1940SOL    HW2 6720   6.722   4.940   0.673
 1941SOL     OW 6721   6.285   1.989   4.108
 1941SOL    HW1 6722   6.330   2.019   4.024
 1941SOL    HW2 6723   6.330   2.030   4.187
 1942SOL     OW 6724   6.279   3.696   2.666
 1942SOL    HW1 6725   6.345   3.675   2.738
 1942SOL    HW2 6726   6.259   3.794   2.667
 1943SOL     OW 6727   0.827   1.697   2.929
 1943SOL    HW1 6728   0.918   1.657   2.916
 1943SOL    HW2 6729   0.835   1.796   2.934
 1944SOL     OW 6730   0.100   2.812   3.153
 1944SOL    HW1 6731   0.002   2.824   3.168
 1944SOL    HW2 6732   0.150   2.846   3.233
 1945SOL     OW 6733   4.487   1.318   2.188
 1945SOL    HW1 6734   4.544   1.398   2.169
 1945SOL    HW2 6735   4.443   1.329   2.277
 1946SOL     OW 6736   6.169   5.233   1.241
 1946SOL    HW1 6737   6.156   5.137   1.266
 1946SOL    HW2 6738   6.180   5.288   1.323
 1947SOL     OW 6739   5.917   4.713   3.512
 1947SOL    HW1 6740   5.984   4.684   3.580
 1947SOL    HW2 6741   5.856   4.781   3.552
 1948SOL     OW 6742   4.935   3.363   3.057
 1948SOL    HW1 6743   4.882   3.394   2.978
 1948SOL    HW2 6744   4.930   3.432   3.129
 1949SOL     OW 6745   3.946   4.366   6.837
 1949SOL    HW1 6746   3.993   4.410   6.914
 1949SOL    HW2 6747   3.872   4.426   6.805
 1950SOL     OW 6748   2.950   3.699   3.425
 1950SOL    HW1 6749   2.934   3.602   3.445
 1950SOL    HW2 6750   2.898   3.755   3.490
 1951SOL     OW 6751   6.066   5.174   5.720
 1951SOL    HW1 6752   5.975   5.159   5.682
 1951SOL    HW2 6753   6.128   5.103   5.688
 1952SOL     OW 6754   6.050   4.980   0.347
 1952SOL    HW1 6755   6.127   4.925   0.318
 1952SOL    HW2 6756   5.977   4.975   0.278
 1953SOL     OW 6757   0.706   0.878   0.019
 1953SOL    HW1 6758   0.664   0.819   0.088
 1953SOL    HW2 6759   0.635   0.925   6.993
 1954SOL     OW 6760   3.949   6.919   2.237
 1954SOL    HW1 6761   4.003   6.937   2.319
 1954SOL    HW2 6762   3.888   6.996   2.219
 1955SOL     OW 6763   0.240   2.148   3.257
 1955SOL    HW1 6764   0.277   2.219   3.317
 1955SOL    HW2 6765   0.140   2.151   3.261
 1956SOL     OW 6766   5.718   0.475   1.696
 1956SOL    HW1 6767   5.753   0.469   1.602
 1956SOL    HW2 6768   5.639   0.537   1.697
 1957SOL     OW 6769   5.534   2.116   4.512
 1957SOL    HW1 6770   5.591   2.184   4.558
 1957SOL    HW2 6771   5.590   2.061   4.450
 1958SOL     OW 6772   4.584   1.922   0.651
 1958SOL    HW1 6773   4.546   1.978   0.577
 1958SOL    HW2 6774   4.635   1.845   0.613
 1959SOL     OW 6775   0.680   0.809   4.911
 1959SOL    HW1 6776   0.654   0.906   4.902
 1959SOL    HW2 6777   0.613   0.763   4.969
 1960SOL     OW 6778   6.178   4.444   3.947
 1960SOL    HW1 6779   6.098   4.404   3.993
 1960SOL    HW2 6780   6.203   4.387   3.869
 1961SOL     OW 6781   6.912   3.953   4.109
 1961SOL    HW1 6782   6.839   3.975   4.045
 1961SOL    HW2 6783   6.894   3.997   4.197
 1962SOL     OW 6784   1.089   0.394   2.356
 1962SOL    HW1 6785   1.141   0.310   2.340
 1962SOL    HW2 6786   1.053   0.394   2.449
 1963SOL     OW 6787   0.473   2.622   1.270
 1963SOL    HW1 6788   0.523   2.634   1.356
 1963SOL    HW2 6789   0.531   2.648   1.194
 1964SOL     OW 6790   5.895   3.520   1.172
 1964SOL    HW1 6791   5.971   3.456   1.171
 1964SOL    HW2 6792   5.863   3.535   1.078
 1965SOL     OW 6793   6.831   4.297   4.077
 1965SOL    HW1 6794   6.899   4.267   4.010
 1965SOL    HW2 6795   6.739   4.290   4.036
 1966SOL     OW 6796   1.724   4.958   0.289
 1966SOL    HW1 6797   1.656   4.919   0.352
 1966SOL    HW2 6798   1.748   5.050   0.320
 1967SOL     OW 6799   6.650   3.566   3.455
 1967SOL    HW1 6800   6.624   3.506   3.531
 1967SOL    HW2 6801   6.673   3.656   3.491
 1968SOL     OW 6802   2.790   1.097   4.847
 1968SOL    HW1 6803   2.850   1.176   4.863
 1968SOL    HW2 6804   2.700   1.130   4.816
 1969SOL     OW 6805   2.756   6.695   6.972
 1969SOL    HW1 6806   2.782   6.725   6.881
 1969SOL    HW2 6807   2.660   6.718   6.989
 1970SOL     OW 6808   5.940   5.407   5.414
 1970SOL    HW1 6809   5.890   5.406   5.327
 1970SOL    HW2 6810   5.908   5.484   5.470
 1971SOL     OW 6811   1.876   5.720   4.754
 1971SOL    HW1 6812   1.909   5.745   4.663
 1971SOL    HW2 6813   1.948   5.669   4.802
 1972SOL     OW 6814   6.269   2.905   2.813
 1972SOL    HW1 6815   6.315   2.829   2.768
 1972SOL    HW2 6816   6.309   2.991   2.782
 1973SOL     OW 6817   2.383   3.072   0.264
 1973SOL    HW1 6818   2.443   3.020   0.204
 1973SOL    HW2 6819   2.376   3.026   0.352
 1974SOL     OW 6820   3.044   6.584   4.983
 1974SOL    HW1 6821   3.041   6.684   4.979
 1974SOL    HW2 6822   3.135   6.556   5.015
 1975SOL     OW 6823   2.065   2.957   3.559
 1975SOL    HW1 6824   1.972   2.975   3.590
 1975SOL    HW2 6825   2.124   2.941   3.638
 1976SOL     OW 6826   0.043   6.924   6.281
 1976SOL    HW1 6827   0.046   6.985   6.201
 1976SOL    HW2 6828   0.074   6.975   6.362
 1977SOL     OW 6829   2.166   4.271   5.653
 1977SOL    HW1 6830   2.221   4.351   5.630
 1977SOL    HW2 6831   2.095   4.296   5.719
 1978SOL     OW 6832   2.448   0.018   1.420
 1978SOL    HW1 6833   2.507   6.963   1.430
 1978SOL    HW2 6834   2.381   0.001   1.347
 1979SOL     OW 6835   0.097   4.952   6.166
 1979SOL    HW1 6836   0.070   4.922   6.257
 1979SOL    HW2 6837   0.069   4.883   6.099
 1980SOL     OW 6838   3.480   1.878   0.249
 1980SOL    HW1 6839   3.512   1.943   0.317
 1980SOL    HW2 6840   3.425   1.925   0.180
 1981SOL     OW 6841   3.256   2.170   2.771
 1981SOL    HW1 6842   3.262   2.127   2.861
 1981SOL    HW2 6843   3.206   2.257   2.779
 1982SOL     OW 6844   0.827   2.859   5.182
 1982SOL    HW1 6845   0.817   2.914   5.099
 1982SOL    HW2 6846   0.737   2.833   5.216
 1983SOL     OW 6847   0.008   0.449   2.576
 1983SOL    HW1 6848   7.018   0.547   2.583
 1983SOL    HW2 6849   6.993   0.415   2.491
 1984SOL     OW 6850   4.685   3.013   5.897
 1984SOL    HW1 6851   4.737   2.927   5.901
 1984SOL    HW2 6852   4.660   3.041   5.989
 1985SOL     OW 6853   6.260   3.702   2.392
 1985SOL    HW1 6854   6.166   3.676   2.371
 1985SOL    HW2 6855   6.275   3.694   2.491
 1986SOL     OW 6856   4.352   2.710   1.688
 1986SOL    HW1 6857   4.368   2.631   1.629
 1986SOL    HW2 6858   4.439   2.752   1.713
 1987SOL     OW 6859   2.809   1.285   1.159
 1987SOL    HW1 6860   2.848   1.290   1.251
 1987SOL    HW2 6861   2.711   1.265   1.165
 1988SOL     OW 6862   6.969   2.157   1.651
 1988SOL    HW1 6863   0.006   2.209   1.709
 1988SOL    HW2 6864   6.949   2.068   1.693
 1989SOL     OW 6865   2.435   4.817   4.554
 1989SOL    HW1 6866   2.526   4.788   4.585
 1989SOL    HW2 6867   2.432   4.917   4.547
 1990SOL     OW 6868   3.955   0.206   0.457
 1990SOL    HW1 6869   3.917   0.132   0.402
 1990SOL    HW2 6870   4.027   0.251   0.406
 1991SOL     OW 6871   2.592   5.136   0.803
 1991SOL    HW1 6872   2.630   5.046   0.784
 1991SOL    HW2 6873   2.546   5.135   0.892
 1992SOL     OW 6874   0.592   6.653   1.657
 1992SOL    HW1 6875   0.505   6.608   1.673
 1992SOL    HW2 6876   0.641   6.664   1.743
 1993SOL     OW 6877   2.442   2.489   3.511
 1993SOL    HW1 6878   2.408   2.536   3.429
 1993SOL    HW2 6879   2.469   2.557   3.579
 1994SOL     OW 6880   3.515   2.648   0.699
 1994SOL    HW1 6881   3.543   2.743   0.717
 1994SOL    HW2 6882   3.430   2.647   0.647
 1995SOL     OW 6883   5.889   2.052   3.806
 1995SOL    HW1 6884   5.947   2.045   3.887
 1995SOL    HW2 6885   5.934   2.005   3.729
 1996SOL     OW 6886   3.744   1.373   0.809
 1996SOL    HW1 6887   3.705   1.309   0.743
 1996SOL    HW2 6888   3.692   1.367   0.895
 1997SOL     OW 6889   3.989   0.257   4.208
 1997SOL    HW1 6890   3.966   0.354   4.206
 1997SOL    HW2 6891   3.918   0.206   4.257
 1998SOL     OW 6892   1.913   3.741   1.359
 1998SOL    HW1 6893   1.954   3.827   1.326
 1998SOL    HW2 6894   1.828   3.761   1.407
 1999SOL     OW 6895   1.305   0.143   0.196
 1999SOL    HW1 6896   1.372   0.145   0.122
 1999SOL    HW2 6897   1.351   0.162   0.283
 2000SOL     OW 6898   3.739   4.304   5.762
 2000SOL    HW1 6899   3.779   4.227   5.812
 2000SOL    HW2 6900   3.810   4.351   5.710
 2001SOL     OW 6901   2.150   1.943   0.820
 2001SOL    HW1 6902   2.067   1.925   0.871
 2001SOL    HW2 6903   2.128   1.957   0.723
 2002SOL     OW 6904   0.065   4.898   0.632
 2002SOL    HW1 6905   7.018   4.838   0.668
 2002SOL    HW2 6906   0.023   4.976   0.586
 2003SOL     OW 6907   6.563   4.642   3.073
 2003SOL    HW1 6908   6.624   4.699   3.129
 2003SOL    HW2 6909   6.574   4.666   2.977
 2004SOL     OW 6910   3.489   6.986   3.447
 2004SOL    HW1 6911   3.458   7.023   3.535
 2004SOL    HW2 6912   3.508   0.036   3.384
 2005SOL     OW 6913   1.655   6.432   0.376
 2005SOL    HW1 6914   1.744   6.395   0.349
 2005SOL    HW2 6915   1.643   6.522   0.335
 2006SOL     OW 6916   5.577   6.331   2.531
 2006SOL    HW1 6917   5.654   6.284   2.575
 2006SOL    HW2 6918   5.578   6.428   2.555
 2007SOL     OW 6919   5.554   4.488   6.713
 2007SOL    HW1 6920   5.462   4.490   6.752
 2007SOL    HW2 6921   5.620   4.521   6.780
 2008SOL     OW 6922   1.714   3.759   3.972
 2008SOL    HW1 6923   1.726   3.853   4.004
 2008SOL    HW2 6924   1.637   3.717   4.019
 2009SOL     OW 6925   6.318   0.190   3.065
 2009SOL    HW1 6926   6.347   0.097   3.041
 2009SOL    HW2 6927   6.245   0.219   3.003
 2010SOL     OW 6928   1.108   1.865   1.562
 2010SOL    HW1 6929   1.047   1.925   1.613
 2010SOL    HW2 6930   1.087   1.770   1.583
 2011SOL     OW 6931   1.040   6.565   5.722
 2011SOL    HW1 6932   1.070   6.650   5.677
 2011SOL    HW2 6933   1.046   6.577   5.822
 2012SOL     OW 6934   1.681   3.010   1.859
 2012SOL    HW1 6935   1.637   3.093   1.823
 2012SOL    HW2 6936   1.671   3.008   1.959
 2013SOL     OW 6937   0.878   3.494   2.181
 2013SOL    HW1 6938   0.945   3.427   2.214
 2013SOL    HW2 6939   0.800   3.497   2.243
 2014SOL     OW 6940   3.759   0.637   4.631
 2014SOL    HW1 6941   3.771   0.698   4.709
 2014SOL    HW2 6942   3.838   0.646   4.570
 2015SOL     OW 6943   4.495   0.774   2.215
 2015SOL    HW1 6944   4.575   0.774   2.275
 2015SOL    HW2 6945   4.437   0.695   2.237
 2016SOL     OW 6946   1.717   0.568   4.981
 2016SOL    HW1 6947   1.679   0.552   5.072
 2016SOL    HW2 6948   1.644   0.599   4.920
 2017SOL     OW 6949   3.739   6.481   3.363
 2017SOL    HW1 6950   3.678   6.432   3.299
 2017SOL    HW2 6951   3.766   6.419   3.436
 2018SOL     OW 6952   1.187   0.949   3.736
 2018SOL    HW1 6953   1.244   0.964   3.656
 2018SOL    HW2 6954   1.166   1.037   3.779
 2019SOL     OW 6955   5.734   5.314   6.284
 2019SOL    HW1 6956   5.649   5.345   6.325
 2019SOL    HW2 6957   5.801   5.295   6.356
 2020SOL     OW 6958   1.855   6.034   6.861
 2020SOL    HW1 6959   1.924   6.047   6.932
 2020SOL    HW2 6960   1.843   6.119   6.810
 2021SOL     OW 6961   6.872   5.913   4.369
 2021SOL    HW1 6962   6.801   5.850   4.336
 2021SOL    HW2 6963   6.905   5.882   4.458
 2022SOL     OW 6964   2.018   4.253   4.828
 2022SOL    HW1 6965   1.922   4.281   4.821
 2022SOL    HW2 6966   2.050   4.224   4.738
 2023SOL     OW 6967   6.680   6.690   0.384
 2023SOL    HW1 6968   6.708   6.605   0.428
 2023SOL    HW2 6969   6.632   6.747   0.450
 2024SOL     OW 6970   0.435   6.105   4.604
 2024SOL    HW1 6971   0.403   6.147   4.689
 2024SOL    HW2 6972   0.535   6.111   4.600
 2025SOL     OW 6973   1.450   6.462   4.302
 2025SOL    HW1 6974   1.478   6.487   4.209
 2025SOL    HW2 6975   1.501   6.518   4.368
 2026SOL     OW 6976   6.793   0.239   6.076
 2026SOL    HW1 6977   6.758   0.217   6.167
 2026SOL    HW2 6978   6.886   0.205   6.067
 2027SOL     OW 6979   6.695   6.025   1.944
 2027SOL    HW1 6980   6.723   6.010   2.039
 2027SOL    HW2 6981   6.674   6.122   1.932
 2028SOL     OW 6982   3.271   5.400   4.389
 2028SOL    HW1 6983   3.334   5.416   4.465
 2028SOL    HW2 6984   3.272   5.303   4.365
 2029SOL     OW 6985   6.614   2.596   6.442
 2029SOL    HW1 6986   6.547   2.582   6.369
 2029SOL    HW2 6987   6.704   2.569   6.410
 2030SOL     OW 6988   2.240   6.845   1.863
 2030SOL    HW1 6989   2.233   6.926   1.804
 2030SOL    HW2 6990   2.199   6.767   1.817
 2031SOL     OW 6991   0.066   6.061   4.288
 2031SOL    HW1 6992   0.152   6.012   4.274
 2031SOL    HW2 6993   7.016   5.995   4.294
 2032SOL     OW 6994   2.514   2.097   6.038
 2032SOL    HW1 6995   2.519   1.997   6.040
 2032SOL    HW2 6996   2.577   2.134   6.107
 2033SOL     OW 6997   2.385   2.117   0.892
 2033SOL    HW1 6998   2.413   2.037   0.839
 2033SOL    HW2 6999   2.288   2.109   0.916
 2034SOL     OW 7000   6.891   4.097   4.573
 2034SOL    HW1 7001   6.852   4.140   4.492
 2034SOL    HW2 7002   6.825   4.103   4.648
 2035SOL     OW 7003   5.386   0.097   2.869
 2035SOL    HW1 7004   5.409   0.160   2.794
 2035SOL    HW2 7005   5.311   0.038   2.841
 2036SOL     OW 7006   0.865   4.550   0.729
 2036SOL    HW1 7007   0.909   4.464   0.756
 2036SOL    HW2 7008   0.773   4.554   0.768
 2037SOL     OW 7009   0.636   2.084   6.695
 2037SOL    HW1 7010   0.539   2.058   6.703
 2037SOL    HW2 7011   0.648   2.142   6.614
 2038SOL     OW 7012   1.536   0.999   6.689
 2038SOL    HW1 7013   1.566   1.089   6.723
 2038SOL    HW2 7014   1.441   0.984   6.716
 2039SOL     OW 7015   5.539   6.211   2.977
 2039SOL    HW1 7016   5.630   6.179   2.949
 2039SOL    HW2 7017   5.488   6.241   2.897
 2040SOL     OW 7018   1.654   2.412   1.003
 2040SOL    HW1 7019   1.604   2.479   0.948
 2040SOL    HW2 7020   1.600   2.389   1.084
 2041SOL     OW 7021   2.185   0.523   6.790
 2041SOL    HW1 7022   2.228   0.462   6.856
 2041SOL    HW2 7023   2.225   0.509   6.699
 2042SOL     OW 7024   5.656   1.101   5.675
 2042SOL    HW1 7025   5.616   1.120   5.585
 2042SOL    HW2 7026   5.627   1.171   5.740
 2043SOL     OW 7027   0.380   3.950   1.213
 2043SOL    HW1 7028   0.408   3.858   1.184
 2043SOL    HW2 7029   0.425   3.973   1.299
 2044SOL     OW 7030   4.068   0.981   1.269
 2044SOL    HW1 7031   4.131   1.044   1.315
 2044SOL    HW2 7032   4.067   1.001   1.171
 2045SOL     OW 7033   1.093   6.516   5.360
 2045SOL    HW1 7034   1.123   6.441   5.418
 2045SOL    HW2 7035   0.995   6.531   5.373
 2046SOL     OW 7036   1.084   1.964   4.621
 2046SOL    HW1 7037   1.090   2.063   4.610
 2046SOL    HW2 7038   1.029   1.925   4.548
 2047SOL     OW 7039   0.450   1.030   0.511
 2047SOL    HW1 7040   0.431   1.123   0.479
 2047SOL    HW2 7041   0.535   0.997   0.469
 2048SOL     OW 7042   1.224   2.365   4.452
 2048SOL    HW1 7043   1.186   2.311   4.376
 2048SOL    HW2 7044   1.317   2.334   4.472
 2049SOL     OW 7045   4.708   1.817   4.889
 2049SOL    HW1 7046   4.687   1.904   4.844
 2049SOL    HW2 7047   4.779   1.833   4.959
 2050SOL     OW 7048   0.382   1.109   4.056
 2050SOL    HW1 7049   0.285   1.134   4.057
 2050SOL    HW2 7050   0.406   1.063   4.142
 2051SOL     OW 7051   3.047   6.750   6.784
 2051SOL    HW1 7052   2.958   6.741   6.741
 2051SOL    HW2 7053   3.094   6.662   6.783
 2052SOL     OW 7054   1.596   4.425   6.399
 2052SOL    HW1 7055   1.636   4.336   6.422
 2052SOL    HW2 7056   1.667   4.495   6.406
 2053SOL     OW 7057   6.912   6.046   3.304
 2053SOL    HW1 7058   6.850   6.122   3.283
 2053SOL    HW2 7059   6.934   5.997   3.220
 2054SOL     OW 7060   2.927   3.576   3.170
 2054SOL    HW1 7061   2.947   3.623   3.256
 2054SOL    HW2 7062   2.949   3.636   3.093
 2055SOL     OW 7063   3.274   2.334   5.592
 2055SOL    HW1 7064   3.298   2.294   5.681
 2055SOL    HW2 7065   3.174   2.331   5.581
 2056SOL     OW 7066   3.879   4.558   1.264
 2056SOL    HW1 7067   3.788   4.521   1.250
 2056SOL    HW2 7068   3.945   4.483   1.276
 2057SOL     OW 7069   4.846   2.609   4.525
 2057SOL    HW1 7070   4.807   2.640   4.611
 2057SOL    HW2 7071   4.852   2.509   4.526
 2058SOL     OW 7072   6.952   0.094   2.906
 2058SOL    HW1 7073   0.000   0.145   2.950
 2058SOL    HW2 7074   6.936   0.009   2.957
 2059SOL     OW 7075   1.030   0.650   5.495
 2059SOL    HW1 7076   1.072   0.595   5.567
 2059SOL    HW2 7077   1.098   0.713   5.457
 2060SOL     OW 7078   1.434   2.823   0.023
 2060SOL    HW1 7079   1.519   2.876   0.024
 2060SOL    HW2 7080   1.430   2.766   0.105
 2061SOL     OW 7081   2.140   2.564   2.378
 2061SOL    HW1 7082   2.218   2.562   2.440
 2061SOL    HW2 7083   2.158   2.627   2.303
 2062SOL     OW 7084   0.224   4.929   4.951
 2062SOL    HW1 7085   0.294   4.894   4.889
 2062SOL    HW2 7086   0.246   4.903   5.045
 2063SOL     OW 7087   1.024   1.582   4.593
 2063SOL    HW1 7088   0.994   1.491   4.623
 2063SOL    HW2 7089   1.087   1.619   4.661
 2064SOL     OW 7090   0.970   3.303   3.761
 2064SOL    HW1 7091   0.894   3.318   3.825
 2064SOL    HW2 7092   1.057   3.312   3.809
 2065SOL     OW 7093   4.167   3.794   5.479
 2065SOL    HW1 7094   4.234   3.725   5.453
 2065SOL    HW2 7095   4.155   3.794   5.578
 2066SOL     OW 7096   0.978   3.175   5.756
 2066SOL    HW1 7097   0.911   3.221   5.814
 2066SOL    HW2 7098   0.972   3.212   5.663
 2067SOL     OW 7099   6.239   5.206   1.547
 2067SOL    HW1 7100   6.300   5.158   1.610
 2067SOL    HW2 7101   6.279   5.295   1.523
 2068SOL     OW 7102   4.246   0.819   5.164
 2068SOL    HW1 7103   4.282   0.839   5.256
 2068SOL    HW2 7104   4.293   0.876   5.097
 2069SOL     OW 7105   0.181   1.444   3.621
 2069SOL    HW1 7106   0.188   1.346   3.604
 2069SOL    HW2 7107   0.264   1.476   3.667
 2070SOL     OW 7108   1.080   4.849   1.271
 2070SOL    HW1 7109   1.034   4.938   1.265
 2070SOL    HW2 7110   1.086   4.821   1.366
 2071SOL     OW 7111   0.239   1.689   5.480
 2071SOL    HW1 7112   0.207   1.783   5.488
 2071SOL    HW2 7113   0.225   1.656   5.387
 2072SOL     OW 7114   4.984   4.284   5.679
 2072SOL    HW1 7115   4.977   4.375   5.719
 2072SOL    HW2 7116   5.072   4.274   5.632
 2073SOL     OW 7117   2.867   5.281   6.773
 2073SOL    HW1 7118   2.875   5.364   6.828
 2073SOL    HW2 7119   2.918   5.292   6.688
 2074SOL     OW 7120   1.687   4.356   6.093
 2074SOL    HW1 7121   1.701   4.259   6.073
 2074SOL    HW2 7122   1.589   4.376   6.094
 2075SOL     OW 7123   6.459   2.831   1.267
 2075SOL    HW1 7124   6.392   2.842   1.194
 2075SOL    HW2 7125   6.464   2.916   1.320
 2076SOL     OW 7126   6.251   6.651   4.795
 2076SOL    HW1 7127   6.271   6.604   4.881
 2076SOL    HW2 7128   6.197   6.590   4.736
 2077SOL     OW 7129   6.145   4.616   0.919
 2077SOL    HW1 7130   6.185   4.593   1.009
 2077SOL    HW2 7131   6.117   4.531   0.874
 2078SOL     OW 7132   0.673   3.213   5.539
 2078SOL    HW1 7133   0.593   3.187   5.485
 2078SOL    HW2 7134   0.673   3.312   5.554
 2079SOL     OW 7135   5.065   1.160   2.452
 2079SOL    HW1 7136   5.120   1.115   2.382
 2079SOL    HW2 7137   4.971   1.171   2.419
 2080SOL     OW 7138   2.768   3.114   6.210
 2080SOL    HW1 7139   2.844   3.173   6.183
 2080SOL    HW2 7140   2.682   3.156   6.181
 2081SOL     OW 7141   6.213   5.749   2.231
 2081SOL    HW1 7142   6.143   5.736   2.301
 2081SOL    HW2 7143   6.293   5.694   2.254
 2082SOL     OW 7144   6.509   6.396   4.470
 2082SOL    HW1 7145   6.483   6.491   4.488
 2082SOL    HW2 7146   6.472   6.367   4.382
 2083SOL     OW 7147   0.214   6.739   3.658
 2083SOL    HW1 7148   0.153   6.662   3.677
 2083SOL    HW2 7149   0.306   6.704   3.637
 2084SOL     OW 7150   6.255   2.636   0.375
 2084SOL    HW1 7151   6.223   2.542   0.364
 2084SOL    HW2 7152   6.195   2.685   0.438
 2085SOL     OW 7153   5.792   5.812   1.208
 2085SOL    HW1 7154   5.822   5.717   1.202
 2085SOL    HW2 7155   5.812   5.847   1.299
 2086SOL     OW 7156   4.973   1.016   0.070
 2086SOL    HW1 7157   4.986   1.005   6.997
 2086SOL    HW2 7158   5.058   1.047   0.112
 2087SOL     OW 7159   4.053   1.448   6.573
 2087SOL    HW1 7160   4.150   1.439   6.547
 2087SOL    HW2 7161   4.046   1.449   6.672
 2088SOL     OW 7162   0.924   5.555   5.628
 2088SOL    HW1 7163   0.886   5.490   5.695
 2088SOL    HW2 7164   0.919   5.648   5.665
 2089SOL     OW 7165   2.335   3.342   0.252
 2089SOL    HW1 7166   2.402   3.412   0.226
 2089SOL    HW2 7167   2.371   3.252   0.231
 2090SOL     OW 7168   5.459   2.838   5.680
 2090SOL    HW1 7169   5.471   2.788   5.594
 2090SOL    HW2 7170   5.493   2.782   5.756
 2091SOL     OW 7171   5.281   6.464   1.078
 2091SOL    HW1 7172   5.294   6.537   1.010
 2091SOL    HW2 7173   5.270   6.377   1.032
 2092SOL     OW 7174   3.986   3.864   1.516
 2092SOL    HW1 7175   3.917   3.935   1.530
 2092SOL    HW2 7176   3.941   3.778   1.494
 2093SOL     OW 7177   4.232   1.244   1.416
 2093SOL    HW1 7178   4.231   1.233   1.317
 2093SOL    HW2 7179   4.275   1.164   1.457
 2094SOL     OW 7180   5.439   1.961   5.879
 2094SOL    HW1 7181   5.450   1.896   5.955
 2094SOL    HW2 7182   5.421   1.911   5.795
 2095SOL     OW 7183   5.205   5.733   4.028
 2095SOL    HW1 7184   5.174   5.664   3.962
 2095SOL    HW2 7185   5.289   5.775   3.995
 2096SOL     OW 7186   3.978   6.817   1.992
 2096SOL    HW1 7187   3.924   6.732   1.991
 2096SOL    HW2 7188   3.977   6.855   2.085
 2097SOL     OW 7189   0.895   5.900   6.061
 2097SOL    HW1 7190   0.829   5.968   6.093
 2097SOL    HW2 7191   0.892   5.896   5.961
 2098SOL     OW 7192   2.965   5.691   3.516
 2098SOL    HW1 7193   3.019   5.607   3.509
 2098SOL    HW2 7194   2.873   5.669   3.549
 2099SOL     OW 7195   4.789   1.862   6.401
 2099SOL    HW1 7196   4.721   1.790   6.386
 2099SOL    HW2 7197   4.743   1.951   6.404
 2100SOL     OW 7198   5.077   6.914   1.710
 2100SOL    HW1 7199   5.177   6.905   1.714
 2100SOL    HW2 7200   5.043   6.874   1.625
 2101SOL     OW 7201   0.478   0.400   2.705
 2101SOL    HW1 7202   0.572   0.365   2.695
 2101SOL    HW2 7203   0.414   0.335   2.664
 2102SOL     OW 7204   4.028   2.135   1.021
 2102SOL    HW1 7205   3.995   2.064   1.083
 2102SOL    HW2 7206   4.065   2.211   1.074
 2103SOL     OW 7207   2.347   6.273   0.331
 2103SOL    HW1 7208   2.376   6.233   0.418
 2103SOL    HW2 7209   2.294   6.357   0.349
 2104SOL     OW 7210   1.553   4.072   3.535
 2104SOL    HW1 7211   1.552   4.057   3.634
 2104SOL    HW2 7212   1.525   4.166   3.516
 2105SOL     OW 7213   5.394   5.975   5.004
 2105SOL    HW1 7214   5.426   6.046   4.940
 2105SOL    HW2 7215   5.302   5.947   4.978
 2106SOL     OW 7216   4.367   3.133   0.855
 2106SOL    HW1 7217   4.371   3.207   0.922
 2106SOL    HW2 7218   4.346   3.047   0.901
 2107SOL     OW 7219   5.463   4.646   5.034
 2107SOL    HW1 7220   5.395   4.717   5.051
 2107SOL    HW2 7221   5.435   4.562   5.081
 2108SOL     OW 7222   4.634   0.101   5.188
 2108SOL    HW1 7223   4.578   0.059   5.259
 2108SOL    HW2 7224   4.574   0.131   5.112
 2109SOL     OW 7225   2.581   6.514   2.087
 2109SOL    HW1 7226   2.532   6.459   2.020
 2109SOL    HW2 7227   2.542   6.606   2.089
 2110SOL     OW 7228   3.742   6.648   6.999
 2110SOL    HW1 7229   3.792   6.614   6.920
 2110SOL    HW2 7230   3.647   6.618   6.994
 2111SOL     OW 7231   1.123   2.176   5.837
 2111SOL    HW1 7232   1.162   2.095   5.880
 2111SOL    HW2 7233   1.158   2.186   5.744
 2112SOL     OW 7234   0.970   0.578   6.976
 2112SOL    HW1 7235   0.915   0.584   0.034
 2112SOL    HW2 7236   1.001   0.483   6.964
 2113SOL     OW 7237   0.046   1.251   4.508
 2113SOL    HW1 7238   7.024   1.335   4.482
 2113SOL    HW2 7239   0.012   1.175   4.452
 2114SOL     OW 7240   1.545   1.621   6.420
 2114SOL    HW1 7241   1.515   1.657   6.332
 2114SOL    HW2 7242   1.629   1.567   6.407
 2115SOL     OW 7243   6.396   6.108   2.996
 2115SOL    HW1 7244   6.475   6.116   2.935
 2115SOL    HW2 7245   6.321   6.164   2.960
 2116SOL     OW 7246   1.373   1.922   6.896
 2116SOL    HW1 7247   1.354   2.005   6.949
 2116SOL    HW2 7248   1.335   1.932   6.804
 2117SOL     OW 7249   6.279   1.682   2.458
 2117SOL    HW1 7250   6.287   1.614   2.531
 2117SOL    HW2 7251   6.369   1.717   2.434
 2118SOL     OW 7252   6.732   2.594   2.715
 2118SOL    HW1 7253   6.683   2.581   2.630
 2118SOL    HW2 7254   6.704   2.681   2.756
 2119SOL     OW 7255   1.226   1.300   0.436
 2119SOL    HW1 7256   1.269   1.259   0.517
 2119SOL    HW2 7257   1.157   1.366   0.465
 2120SOL     OW 7258   6.202   1.439   1.050
 2120SOL    HW1 7259   6.210   1.534   1.079
 2120SOL    HW2 7260   6.189   1.381   1.131
 2121SOL     OW 7261   1.669   0.577   6.734
 2121SOL    HW1 7262   1.661   0.487   6.690
 2121SOL    HW2 7263   1.755   0.582   6.785
 2122SOL     OW 7264   6.237   1.084   4.408
 2122SOL    HW1 7265   6.265   1.162   4.464
 2122SOL    HW2 7266   6.292   1.083   4.324
 2123SOL     OW 7267   1.189   5.335   2.828
 2123SOL    HW1 7268   1.227   5.388   2.904
 2123SOL    HW2 7269   1.227   5.242   2.831
 2124SOL     OW 7270   4.116   3.766   6.224
 2124SOL    HW1 7271   4.063   3.815   6.294
 2124SOL    HW2 7272   4.187   3.711   6.268
 2125SOL     OW 7273   1.555   6.101   4.526
 2125SOL    HW1 7274   1.591   6.146   4.444
 2125SOL    HW2 7275   1.459   6.076   4.512
 2126SOL     OW 7276   2.598   3.839   6.742
 2126SOL    HW1 7277   2.694   3.863   6.729
 2126SOL    HW2 7278   2.565   3.879   6.827
 2127SOL     OW 7279   0.858   2.591   4.497
 2127SOL    HW1 7280   0.948   2.589   4.541
 2127SOL    HW2 7281   0.827   2.498   4.481
 2128SOL     OW 7282   5.260   3.253   1.433
 2128SOL    HW1 7283   5.330   3.197   1.387
 2128SOL    HW2 7284   5.200   3.194   1.486
 2129SOL     OW 7285   5.382   3.986   4.372
 2129SOL    HW1 7286   5.410   4.034   4.454
 2129SOL    HW2 7287   5.318   4.042   4.320
 2130SOL     OW 7288   3.221   1.113   1.200
 2130SOL    HW1 7289   3.165   1.164   1.135
 2130SOL    HW2 7290   3.249   1.026   1.159
 2131SOL     OW 7291   5.350   0.356   5.088
 2131SOL    HW1 7292   5.383   0.270   5.126
 2131SOL    HW2 7293   5.272   0.388   5.142
 2132SOL     OW 7294   2.118   2.397   0.119
 2132SOL    HW1 7295   2.122   2.496   0.104
 2132SOL    HW2 7296   2.163   2.351   0.042
 2133SOL     OW 7297   3.207   2.564   1.591
 2133SOL    HW1 7298   3.282   2.502   1.614
 2133SOL    HW2 7299   3.195   2.567   1.492
 2134SOL     OW 7300   2.255   6.472   5.390
 2134SOL    HW1 7301   2.313   6.529   5.332
 2134SOL    HW2 7302   2.261   6.504   5.485
 2135SOL     OW 7303   0.746   6.535   4.171
 2135SOL    HW1 7304   0.838   6.568   4.194
 2135SOL    HW2 7305   0.711   6.479   4.245
 2136SOL     OW 7306   1.402   4.590   3.668
 2136SOL    HW1 7307   1.315   4.565   3.711
 2136SOL    HW2 7308   1.388   4.669   3.609
 2137SOL     OW 7309   1.143   1.188   4.688
 2137SOL    HW1 7310   1.179   1.170   4.597
 2137SOL    HW2 7311   1.199   1.257   4.733
 2138SOL     OW 7312   0.915   2.699   6.248
 2138SOL    HW1 7313   0.978   2.671   6.175
 2138SOL    HW2 7314   0.962   2.697   6.336
 2139SOL     OW 7315   2.191   0.956   4.555
 2139SOL    HW1 7316   2.098   0.943   4.589
 2139SOL    HW2 7317   2.239   1.021   4.614
 2140SOL     OW 7318   1.517   5.738   3.655
 2140SOL    HW1 7319   1.576   5.812   3.621
 2140SOL    HW2 7320   1.574   5.665   3.693
 2141SOL     OW 7321   6.732   1.382   0.196
 2141SOL    HW1 7322   6.699   1.324   0.271
 2141SOL    HW2 7323   6.703   1.476   0.212
 2142SOL     OW 7324   2.654   1.568   3.387
 2142SOL    HW1 7325   2.555   1.558   3.375
 2142SOL    HW2 7326   2.698   1.573   3.298
 2143SOL     OW 7327   3.821   6.328   6.541
 2143SOL    HW1 7328   3.840   6.269   6.619
 2143SOL    HW2 7329   3.731   6.306   6.503
 2144SOL     OW 7330   6.964   0.730   2.525
 2144SOL    HW1 7331   7.018   0.756   2.605
 2144SOL    HW2 7332   7.016   0.749   2.442
 2145SOL     OW 7333   4.145   5.543   2.909
 2145SOL    HW1 7334   4.214   5.602   2.951
 2145SOL    HW2 7335   4.141   5.456   2.958
 2146SOL     OW 7336   3.844   2.668   1.153
 2146SOL    HW1 7337   3.818   2.719   1.071
 2146SOL    HW2 7338   3.767   2.610   1.182
 2147SOL     OW 7339   6.994   1.046   5.186
 2147SOL    HW1 7340   0.060   1.066   5.148
 2147SOL    HW2 7341   6.933   1.019   5.112
 2148SOL     OW 7342   4.848   2.869   2.661
 2148SOL    HW1 7343   4.937   2.836   2.690
 2148SOL    HW2 7344   4.787   2.876   2.740
 2149SOL     OW 7345   3.535   0.590   3.209
 2149SOL    HW1 7346   3.635   0.595   3.221
 2149SOL    HW2 7347   3.505   0.663   3.148
 2150SOL     OW 7348   3.715   1.237   2.246
 2150SOL    HW1 7349   3.804   1.236   2.291
 2150SOL    HW2 7350   3.671   1.326   2.260
 2151SOL     OW 7351   3.703   2.945   5.808
 2151SOL    HW1 7352   3.635   2.908   5.744
 2151SOL    HW2 7353   3.662   3.020   5.859
 2152SOL     OW 7354   5.918   6.060   2.085
 2152SOL    HW1 7355   5.917   6.134   2.152
 2152SOL    HW2 7356   5.831   6.058   2.036
 2153SOL     OW 7357   4.791   2.421   2.477
 2153SOL    HW1 7358   4.698   2.449   2.452
 2153SOL    HW2 7359   4.841   2.394   2.394
 2154SOL     OW 7360   4.425   5.819   5.091
 2154SOL    HW1 7361   4.511   5.868   5.102
 2154SOL    HW2 7362   4.402   5.813   4.994
 2155SOL     OW 7363   5.847   3.969   6.582
 2155SOL    HW1 7364   5.938   4.009   6.572
 2155SOL    HW2 7365   5.779   4.041   6.583
 2156SOL     OW 7366   0.958   0.953   1.855
 2156SOL    HW1 7367   1.003   1.041   1.843
 2156SOL    HW2 7368   0.920   0.923   1.767
 2157SOL     OW 7369   0.299   1.246   4.595
 2157SOL    HW1 7370   0.210   1.259   4.552
 2157SOL    HW2 7371   0.317   1.148   4.607
 2158SOL     OW 7372   4.450   6.491   2.320
 2158SOL    HW1 7373   4.490   6.443   2.398
 2158SOL    HW2 7374   4.519   6.549   2.277
 2159SOL     OW 7375   1.770   6.703   5.278
 2159SOL    HW1 7376   1.834   6.627   5.290
 2159SOL    HW2 7377   1.799   6.781   5.332
 2160SOL     OW 7378   2.876   3.264   0.720
 2160SOL    HW1 7379   2.897   3.350   0.765
 2160SOL    HW2 7380   2.844   3.198   0.787
 2161SOL     OW 7381   4.878   2.096   3.788
 2161SOL    HW1 7382   4.947   2.155   3.829
 2161SOL    HW2 7383   4.921   2.039   3.717
 2162SOL     OW 7384   1.291   1.456   6.739
 2162SOL    HW1 7385   1.351   1.535   6.751
 2162SOL    HW2 7386   1.280   1.437   6.641
 2163SOL     OW 7387   2.692   2.357   0.611
 2163SOL    HW1 7388   2.639   2.396   0.686
 2163SOL    HW2 7389   2.660   2.396   0.524
 2164SOL     OW 7390   0.896   0.365   1.315
 2164SOL    HW1 7391   0.827   0.436   1.328
 2164SOL    HW2 7392   0.850   0.276   1.309
 2165SOL     OW 7393   2.965   7.007   1.514
 2165SOL    HW1 7394   2.936   0.071   1.480
 2165SOL    HW2 7395   2.893   6.967   1.571
 2166SOL     OW 7396   6.159   2.463   6.181
 2166SOL    HW1 7397   6.092   2.393   6.205
 2166SOL    HW2 7398   6.124   2.553   6.207
 2167SOL     OW 7399   2.644   0.469   1.883
 2167SOL    HW1 7400   2.658   0.373   1.906
 2167SOL    HW2 7401   2.563   0.479   1.825
 2168SOL     OW 7402   5.923   5.910   4.955
 2168SOL    HW1 7403   5.834   5.910   5.001
 2168SOL    HW2 7404   5.995   5.885   5.021
 2169SOL     OW 7405   5.939   1.997   5.049
 2169SOL    HW1 7406   6.031   1.962   5.066
 2169SOL    HW2 7407   5.900   2.032   5.135
 2170SOL     OW 7408   5.494   5.263   4.389
 2170SOL    HW1 7409   5.421   5.267   4.320
 2170SOL    HW2 7410   5.489   5.344   4.447
 2171SOL     OW 7411   6.312   2.888   0.592
 2171SOL    HW1 7412   6.333   2.981   0.622
 2171SOL    HW2 7413   6.370   2.864   0.514
 2172SOL     OW 7414   2.386   0.787   0.681
 2172SOL    HW1 7415   2.476   0.751   0.707
 2172SOL    HW2 7416   2.380   0.794   0.582
 2173SOL     OW 7417   5.223   1.858   5.012
 2173SOL    HW1 7418   5.237   1.930   5.081
 2173SOL    HW2 7419   5.292   1.786   5.024
 2174SOL     OW 7420   1.350   5.241   4.659
 2174SOL    HW1 7421   1.443   5.277   4.663
 2174SOL    HW2 7422   1.324   5.209   4.750
 2175SOL     OW 7423   1.970   6.508   5.366
 2175SOL    HW1 7424   2.066   6.494   5.342
 2175SOL    HW2 7425   1.964   6.576   5.438
 2176SOL     OW 7426   2.036   2.346   2.234
 2176SOL    HW1 7427   1.988   2.273   2.284
 2176SOL    HW2 7428   2.101   2.391   2.295
 2177SOL     OW 7429   6.672   1.024   2.300
 2177SOL    HW1 7430   6.675   1.005   2.202
 2177SOL    HW2 7431   6.723   1.107   2.320
 2178SOL     OW 7432   0.654   5.428   0.958
 2178SOL    HW1 7433   0.704   5.395   0.878
 2178SOL    HW2 7434   0.619   5.350   1.011
 2179SOL     OW 7435   1.082   4.751   4.340
 2179SOL    HW1 7436   1.149   4.679   4.359
 2179SOL    HW2 7437   1.128   4.838   4.328
 2180SOL     OW 7438   4.171   3.166   1.943
 2180SOL    HW1 7439   4.137   3.259   1.955
 2180SOL    HW2 7440   4.179   3.121   2.032
 2181SOL     OW 7441   4.730   6.184   0.489
 2181SOL    HW1 7442   4.653   6.122   0.479
 2181SOL    HW2 7443   4.807   6.136   0.531
 2182SOL     OW 7444   5.400   1.830   0.515
 2182SOL    HW1 7445   5.460   1.801   0.441
 2182SOL    HW2 7446   5.431   1.918   0.551
 2183SOL     OW 7447   2.413   2.752   0.906
 2183SOL    HW1 7448   2.397   2.666   0.954
 2183SOL    HW2 7449   2.365   2.751   0.818
 2184SOL     OW 7450   4.320   2.861   5.872
 2184SOL    HW1 7451   4.415   2.834   5.857
 2184SOL    HW2 7452   4.297   2.937   5.811
 2185SOL     OW 7453   1.264   0.646   1.262
 2185SOL    HW1 7454   1.362   0.666   1.267
 2185SOL    HW2 7455   1.221   0.711   1.198
 2186SOL     OW 7456   0.000   4.922   2.595
 2186SOL    HW1 7457   0.090   4.962   2.577
 2186SOL    HW2 7458   7.020   4.894   2.691
 2187SOL     OW 7459   0.933   1.416   6.592
 2187SOL    HW1 7460   0.917   1.431   6.689
 2187SOL    HW2 7461   0.892   1.491   6.539
 2188SOL     OW 7462   5.391   1.124   3.485
 2188SOL    HW1 7463   5.337   1.188   3.539
 2188SOL    HW2 7464   5.331   1.055   3.445
 2189SOL     OW 7465   2.846   0.411   6.876
 2189SOL    HW1 7466   2.781   0.464   6.821
 2189SOL    HW2 7467   2.797   0.362   6.948
 2190SOL     OW 7468   5.021   1.828   1.224
 2190SOL    HW1 7469   4.982   1.885   1.297
 2190SOL    HW2 7470   5.089   1.766   1.262
 2191SOL     OW 7471   2.823   1.785   6.995
 2191SOL    HW1 7472   2.791   1.691   6.988
 2191SOL    HW2 7473   2.747   1.848   6.979
 2192SOL     OW 7474   4.006   5.455   3.498
 2192SOL    HW1 7475   3.945   5.393   3.547
 2192SOL    HW2 7476   4.016   5.540   3.550
 2193SOL     OW 7477   0.303   5.232   5.778
 2193SOL    HW1 7478   0.402   5.246   5.783
 2193SOL    HW2 7479   0.283   5.136   5.760
 2194SOL     OW 7480   3.417   0.208   1.331
 2194SOL    HW1 7481   3.351   0.273   1.369
 2194SOL    HW2 7482   3.393   0.189   1.236
 2195SOL     OW 7483   1.381   4.867   2.478
 2195SOL    HW1 7484   1.454   4.841   2.541
 2195SOL    HW2 7485   1.413   4.940   2.417
 2196SOL     OW 7486   4.434   2.923   6.781
 2196SOL    HW1 7487   4.489   2.846   6.813
 2196SOL    HW2 7488   4.355   2.935   6.841
 2197SOL     OW 7489   4.321   3.948   0.399
 2197SOL    HW1 7490   4.332   3.937   0.300
 2197SOL    HW2 7491   4.406   3.983   0.438
 2198SOL     OW 7492   5.920   4.473   0.225
 2198SOL    HW1 7493   5.919   4.533   0.145
 2198SOL    HW2 7494   5.965   4.519   0.302
 2199SOL     OW 7495   4.465   0.412   2.122
 2199SOL    HW1 7496   4.417   0.325   2.132
 2199SOL    HW2 7497   4.405   0.487   2.150
 2200SOL     OW 7498   2.194   6.839   4.600
 2200SOL    HW1 7499   2.189   6.766   4.667
 2200SOL    HW2 7500   2.284   6.838   4.557
 2201SOL     OW 7501   4.878   4.013   2.922
 2201SOL    HW1 7502   4.912   4.095   2.876
 2201SOL    HW2 7503   4.879   4.027   3.021
 2202SOL     OW 7504   4.960   6.023   3.571
 2202SOL    HW1 7505   4.924   5.936   3.537
 2202SOL    HW2 7506   4.885   6.076   3.612
 2203SOL     OW 7507   3.443   2.084   2.604
 2203SOL    HW1 7508   3.385   2.119   2.678
 2203SOL    HW2 7509   3.392   2.087   2.518
 2204SOL     OW 7510   2.969   2.839   0.960
 2204SOL    HW1 7511   2.945   2.771   1.029
 2204SOL    HW2 7512   2.999   2.792   0.877
 2205SOL     OW 7513   2.136   0.626   1.358
 2205SOL    HW1 7514   2.203   0.558   1.326
 2205SOL    HW2 7515   2.046   0.605   1.320
 2206SOL     OW 7516   1.995   3.074   0.430
 2206SOL    HW1 7517   1.899   3.099   0.441
 2206SOL    HW2 7518   2.053   3.152   0.456
 2207SOL     OW 7519   0.426   4.482   4.550
 2207SOL    HW1 7520   0.475   4.566   4.575
 2207SOL    HW2 7521   0.363   4.457   4.624
 2208SOL     OW 7522   6.559   4.452   1.753
 2208SOL    HW1 7523   6.466   4.455   1.715
 2208SOL    HW2 7524   6.625   4.478   1.682
 2209SOL     OW 7525   1.228   6.845   1.462
 2209SOL    HW1 7526   1.264   6.915   1.401
 2209SOL    HW2 7527   1.262   6.756   1.434
 2210SOL     OW 7528   1.587   5.250   3.797
 2210SOL    HW1 7529   1.537   5.164   3.787
 2210SOL    HW2 7530   1.569   5.289   3.887
 2211SOL     OW 7531   0.299   1.265   5.235
 2211SOL    HW1 7532   0.295   1.166   5.245
 2211SOL    HW2 7533   0.299   1.308   5.326
 2212SOL     OW 7534   2.068   6.999   6.717
 2212SOL    HW1 7535   2.014   6.959   6.643
 2212SOL    HW2 7536   2.160   6.962   6.714
 2213SOL     OW 7537   3.406   1.172   3.484
 2213SOL    HW1 7538   3.358   1.254   3.452
 2213SOL    HW2 7539   3.360   1.090   3.449
 2214SOL     OW 7540   4.134   6.994   5.482
 2214SOL    HW1 7541   4.178   6.961   5.566
 2214SOL    HW2 7542   4.191   0.040   5.441
 2215SOL     OW 7543   5.574   2.755   5.183
 2215SOL    HW1 7544   5.526   2.809   5.113
 2215SOL    HW2 7545   5.570   2.658   5.159
 2216SOL     OW 7546   2.163   0.613   2.302
 2216SOL    HW1 7547   2.216   0.630   2.220
 2216SOL    HW2 7548   2.067   0.638   2.286
 2217SOL     OW 7549   4.025   1.044   2.098
 2217SOL    HW1 7550   4.019   1.143   2.089
 2217SOL    HW2 7551   4.121   1.017   2.111
 2218SOL     OW 7552   1.276   6.514   2.433
 2218SOL    HW1 7553   1.320   6.577   2.368
 2218SOL    HW2 7554   1.177   6.526   2.428
 2219SOL     OW 7555   1.242   1.868   2.686
 2219SOL    HW1 7556   1.271   1.911   2.600
 2219SOL    HW2 7557   1.321   1.856   2.746
 2220SOL     OW 7558   0.879   0.630   1.123
 2220SOL    HW1 7559   0.878   0.561   1.050
 2220SOL    HW2 7560   0.829   0.596   1.202
 2221SOL     OW 7561   0.647   1.818   0.068
 2221SOL    HW1 7562   0.711   1.791   7.022
 2221SOL    HW2 7563   0.603   1.736   0.106
 2222SOL     OW 7564   6.086   5.951   3.177
 2222SOL    HW1 7565   6.116   5.862   3.212
 2222SOL    HW2 7566   6.103   6.021   3.247
 2223SOL     OW 7567   6.112   5.496   1.364
 2223SOL    HW1 7568   6.140   5.509   1.269
 2223SOL    HW2 7569   6.040   5.427   1.369
 2224SOL     OW 7570   0.926   4.951   2.315
 2224SOL    HW1 7571   0.964   4.926   2.226
 2224SOL    HW2 7572   0.937   5.049   2.330
 2225SOL     OW 7573   0.202   4.633   1.408
 2225SOL    HW1 7574   0.241   4.548   1.372
 2225SOL    HW2 7575   0.148   4.677   1.336
 2226SOL     OW 7576   4.259   3.875   1.493
 2226SOL    HW1 7577   4.162   3.891   1.511
 2226SOL    HW2 7578   4.300   3.830   1.572
 2227SOL     OW 7579   0.476   3.076   4.667
 2227SOL    HW1 7580   0.523   3.120   4.589
 2227SOL    HW2 7581   0.521   2.989   4.688
 2228SOL     OW 7582   2.847   4.872   4.697
 2228SOL    HW1 7583   2.796   4.788   4.715
 2228SOL    HW2 7584   2.785   4.950   4.703
 2229SOL     OW 7585   5.524   0.085   3.125
 2229SOL    HW1 7586   5.496   0.094   3.221
 2229SOL    HW2 7587   5.449   0.114   3.065
 2230SOL     OW 7588   2.796   5.262   0.634
 2230SOL    HW1 7589   2.698   5.258   0.650
 2230SOL    HW2 7590   2.845   5.227   0.714
 2231SOL     OW 7591   2.375   5.762   1.018
 2231SOL    HW1 7592   2.302   5.775   0.951
 2231SOL    HW2 7593   2.429   5.681   0.994
 2232SOL     OW 7594   6.298   3.011   3.887
 2232SOL    HW1 7595   6.217   2.953   3.890
 2232SOL    HW2 7596   6.361   2.985   3.960
 2233SOL     OW 7597   2.995   2.168   6.479
 2233SOL    HW1 7598   2.939   2.104   6.426
 2233SOL    HW2 7599   2.957   2.260   6.472
 2234SOL     OW 7600   3.332   2.266   1.365
 2234SOL    HW1 7601   3.302   2.193   1.427
 2234SOL    HW2 7602   3.430   2.283   1.380
 2235SOL     OW 7603   2.279   1.073   1.248
 2235SOL    HW1 7604   2.189   1.097   1.214
 2235SOL    HW2 7605   2.306   0.984   1.212
 2236SOL     OW 7606   0.152   3.993   5.862
 2236SOL    HW1 7607   0.189   3.905   5.831
 2236SOL    HW2 7608   0.168   4.002   5.960
 2237SOL     OW 7609   6.322   2.938   4.198
 2237SOL    HW1 7610   6.235   2.894   4.223
 2237SOL    HW2 7611   6.319   3.034   4.223
 2238SOL     OW 7612   6.723   6.369   1.440
 2238SOL    HW1 7613   6.717   6.272   1.466
 2238SOL    HW2 7614   6.650   6.390   1.375
 2239SOL     OW 7615   5.453   5.609   2.926
 2239SOL    HW1 7616   5.473   5.707   2.921
 2239SOL    HW2 7617   5.356   5.594   2.908
 2240SOL     OW 7618   5.772   3.627   2.003
 2240SOL    HW1 7619   5.859   3.593   2.038
 2240SOL    HW2 7620   5.775   3.629   1.903
 2241SOL     OW 7621   0.986   0.064   2.321
 2241SOL    HW1 7622   0.920   7.014   2.315
 2241SOL    HW2 7623   0.943   0.142   2.367
 2242SOL     OW 7624   4.336   1.991   2.696
 2242SOL    HW1 7625   4.386   2.064   2.743
 2242SOL    HW2 7626   4.361   1.902   2.735
 2243SOL     OW 7627   2.886   6.298   5.637
 2243SOL    HW1 7628   2.889   6.211   5.687
 2243SOL    HW2 7629   2.791   6.323   5.619
 2244SOL     OW 7630   2.968   0.602   5.196
 2244SOL    HW1 7631   3.002   0.691   5.224
 2244SOL    HW2 7632   3.045   0.542   5.173
 2245SOL     OW 7633   0.016   1.957   2.033
 2245SOL    HW1 7634   0.036   2.053   2.057
 2245SOL    HW2 7635   7.014   1.907   2.116
 2246SOL     OW 7636   1.594   4.722   4.989
 2246SOL    HW1 7637   1.675   4.671   5.019
 2246SOL    HW2 7638   1.514   4.689   5.038
 2247SOL     OW 7639   2.146   1.474   5.276
 2247SOL    HW1 7640   2.092   1.415   5.336
 2247SOL    HW2 7641   2.126   1.570   5.296
 2248SOL     OW 7642   4.569   4.429   5.206
 2248SOL    HW1 7643   4.657   4.388   5.183
 2248SOL    HW2 7644   4.527   4.467   5.124
 2249SOL     OW 7645   4.109   5.457   4.600
 2249SOL    HW1 7646   4.036   5.395   4.569
 2249SOL    HW2 7647   4.083   5.551   4.581
 2250SOL     OW 7648   5.366   5.317   0.795
 2250SOL    HW1 7649   5.324   5.407   0.803
 2250SOL    HW2 7650   5.433   5.305   0.868
 2251SOL     OW 7651   0.106   0.401   6.122
 2251SOL    HW1 7652   0.134   0.361   6.209
 2251SOL    HW2 7653   0.022   0.453   6.134
 2252SOL     OW 7654   3.491   1.221   5.938
 2252SOL    HW1 7655   3.565   1.252   5.878
 2252SOL    HW2 7656   3.445   1.143   5.897
 2253SOL     OW 7657   1.196   2.598   6.194
 2253SOL    HW1 7658   1.225   2.656   6.270
 2253SOL    HW2 7659   1.252   2.617   6.113
 2254SOL     OW 7660   1.723   3.450   6.018
 2254SOL    HW1 7661   1.811   3.422   5.978
 2254SOL    HW2 7662   1.686   3.526   5.966
 2255SOL     OW 7663   5.135   3.433   0.520
 2255SOL    HW1 7664   5.083   3.486   0.586
 2255SOL    HW2 7665   5.191   3.494   0.464
 2256SOL     OW 7666   3.375   4.895   1.950
 2256SOL    HW1 7667   3.385   4.993   1.931
 2256SOL    HW2 7668   3.465   4.851   1.951
 2257SOL     OW 7669   2.142   3.744   4.092
 2257SOL    HW1 7670   2.167   3.671   4.029
 2257SOL    HW2 7671   2.127   3.706   4.183
 2258SOL     OW 7672   1.965   4.962   5.383
 2258SOL    HW1 7673   1.903   4.889   5.353
 2258SOL    HW2 7674   2.059   4.940   5.358
 2259SOL     OW 7675   6.550   2.954   6.310
 2259SOL    HW1 7676   6.533   3.052   6.297
 2259SOL    HW2 7677   6.530   2.929   6.404
 2260SOL     OW 7678   4.541   4.099   1.019
 2260SOL    HW1 7679   4.595   4.156   1.080
 2260SOL    HW2 7680   4.602   4.052   0.955
 2261SOL     OW 7681   3.695   6.381   5.057
 2261SOL    HW1 7682   3.706   6.288   5.094
 2261SOL    HW2 7683   3.611   6.421   5.093
 2262SOL     OW 7684   3.340   1.719   3.199
 2262SOL    HW1 7685   3.369   1.677   3.285
 2262SOL    HW2 7686   3.339   1.818   3.209
 2263SOL     OW 7687   0.103   4.280   5.429
 2263SOL    HW1 7688   0.094   4.379   5.442
 2263SOL    HW2 7689   0.037   4.233   5.487
 2264SOL     OW 7690   3.176   3.983   3.633
 2264SOL    HW1 7691   3.096   4.006   3.688
 2264SOL    HW2 7692   3.230   3.913   3.681
 2265SOL     OW 7693   0.697   0.066   2.671
 2265SOL    HW1 7694   0.602   0.033   2.677
 2265SOL    HW2 7695   0.746   0.039   2.754
 2266SOL     OW 7696   6.256   0.160   6.848
 2266SOL    HW1 7697   6.184   0.183   6.783
 2266SOL    HW2 7698   6.234   0.199   6.938
 2267SOL     OW 7699   5.254   1.627   5.292
 2267SOL    HW1 7700   5.242   1.587   5.201
 2267SOL    HW2 7701   5.347   1.662   5.302
 2268SOL     OW 7702   6.439   4.958   0.084
 2268SOL    HW1 7703   6.497   4.903   0.023
 2268SOL    HW2 7704   6.483   5.045   0.102
 2269SOL     OW 7705   0.436   5.988   3.752
 2269SOL    HW1 7706   0.397   5.898   3.770
 2269SOL    HW2 7707   0.366   6.047   3.711
 2270SOL     OW 7708   4.110   3.502   2.703
 2270SOL    HW1 7709   4.134   3.466   2.612
 2270SOL    HW2 7710   4.089   3.600   2.695
 2271SOL     OW 7711   0.525   4.462   2.651
 2271SOL    HW1 7712   0.430   4.491   2.652
 2271SOL    HW2 7713   0.563   4.469   2.743
 2272SOL     OW 7714   4.961   2.301   6.061
 2272SOL    HW1 7715   4.877   2.326   6.012
 2272SOL    HW2 7716   5.040   2.340   6.013
 2273SOL     OW 7717   0.673   0.528   3.769
 2273SOL    HW1 7718   0.629   0.514   3.857
 2273SOL    HW2 7719   0.772   0.517   3.779
 2274SOL     OW 7720   1.325   4.025   3.191
 2274SOL    HW1 7721   1.416   4.059   3.168
 2274SOL    HW2 7722   1.269   4.019   3.108
 2275SOL     OW 7723   4.658   6.484   3.194
 2275SOL    HW1 7724   4.752   6.453   3.209
 2275SOL    HW2 7725   4.623   6.525   3.278
 2276SOL     OW 7726   3.469   5.368   1.624
 2276SOL    HW1 7727   3.560   5.334   1.649
 2276SOL    HW2 7728   3.427   5.412   1.703
 2277SOL     OW 7729   3.781   3.476   1.266
 2277SOL    HW1 7730   3.784   3.376   1.262
 2277SOL    HW2 7731   3.686   3.506   1.273
 2278SOL     OW 7732   5.025   6.723   1.081
 2278SOL    HW1 7733   5.098   6.678   1.029
 2278SOL    HW2 7734   4.941   6.670   1.073
 2279SOL     OW 7735   5.259   4.000   5.113
 2279SOL    HW1 7736   5.219   4.087   5.084
 2279SOL    HW2 7737   5.358   4.002   5.102
 2280SOL     OW 7738   5.815   0.079   6.149
 2280SOL    HW1 7739   5.841   0.173   6.171
 2280SOL    HW2 7740   5.896   0.021   6.148
 2281SOL     OW 7741   3.565   2.581   0.277
 2281SOL    HW1 7742   3.488   2.627   0.232
 2281SOL    HW2 7743   3.535   2.540   0.363
 2282SOL     OW 7744   4.469   5.917   2.072
 2282SOL    HW1 7745   4.462   5.946   2.167
 2282SOL    HW2 7746   4.380   5.922   2.028
 2283SOL     OW 7747   0.124   3.898   1.921
 2283SOL    HW1 7748   0.116   3.868   2.016
 2283SOL    HW2 7749   0.033   3.916   1.884
 2284SOL     OW 7750   2.682   2.283   2.215
 2284SOL    HW1 7751   2.626   2.207   2.181
 2284SOL    HW2 7752   2.758   2.299   2.153
 2285SOL     OW 7753   1.917   3.614   6.588
 2285SOL    HW1 7754   1.846   3.683   6.578
 2285SOL    HW2 7755   2.005   3.652   6.557
 2286SOL     OW 7756   5.290   7.024   4.402
 2286SOL    HW1 7757   5.360   6.986   4.342
 2286SOL    HW2 7758   5.247   0.077   4.358
 2287SOL     OW 7759   2.182   2.389   1.498
 2287SOL    HW1 7760   2.101   2.393   1.556
 2287SOL    HW2 7761   2.229   2.477   1.500
 2288SOL     OW 7762   1.946   5.811   4.491
 2288SOL    HW1 7763   1.909   5.872   4.421
 2288SOL    HW2 7764   2.040   5.837   4.513
 2289SOL     OW 7765   4.497   1.761   0.263
 2289SOL    HW1 7766   4.421   1.700   0.238
 2289SOL    HW2 7767   4.475   1.854   0.235
 2290SOL     OW 7768   3.298   3.304   3.161
 2290SOL    HW1 7769   3.357   3.380   3.188
 2290SOL    HW2 7770   3.208   3.340   3.134
 2291SOL     OW 7771   1.255   3.048   6.395
 2291SOL    HW1 7772   1.184   3.052   6.464
 2291SOL    HW2 7773   1.218   3.007   6.311
 2292SOL     OW 7774   5.105   1.643   2.592
 2292SOL    HW1 7775   5.048   1.671   2.515
 2292SOL    HW2 7776   5.178   1.711   2.606
 2293SOL     OW 7777   0.560   0.647   0.386
 2293SOL    HW1 7778   0.528   0.705   0.312
 2293SOL    HW2 7779   0.563   0.552   0.355
 2294SOL     OW 7780   6.835   1.056   5.681
 2294SOL    HW1 7781   6.851   1.112   5.600
 2294SOL    HW2 7782   6.769   0.984   5.661
 2295SOL     OW 7783   5.963   6.084   1.047
 2295SOL    HW1 7784   5.977   6.130   0.960
 2295SOL    HW2 7785   5.968   6.150   1.121
 2296SOL     OW 7786   3.432   4.931   4.260
 2296SOL    HW1 7787   3.454   4.836   4.280
 2296SOL    HW2 7788   3.462   4.989   4.336
 2297SOL     OW 7789   5.124   3.981   5.571
 2297SOL    HW1 7790   5.190   3.943   5.506
 2297SOL    HW2 7791   5.040   4.007   5.523
 2298SOL     OW 7792   3.730   4.048   4.289
 2298SOL    HW1 7793   3.817   4.013   4.323
 2298SOL    HW2 7794   3.745   4.099   4.205
 2299SOL     OW 7795   5.676   2.825   4.222
 2299SOL    HW1 7796   5.636   2.915   4.233
 2299SOL    HW2 7797   5.694   2.785   4.312
 2300SOL     OW 7798   4.806   6.864   2.088
 2300SOL    HW1 7799   4.774   6.777   2.124
 2300SOL    HW2 7800   4.742   6.937   2.113
 2301SOL     OW 7801   3.742   2.826   5.028
 2301SOL    HW1 7802   3.803   2.751   5.003
 2301SOL    HW2 7803   3.790   2.891   5.087
 2302SOL     OW 7804   6.335   2.842   5.957
 2302SOL    HW1 7805   6.347   2.747   5.928
 2302SOL    HW2 7806   6.385   2.902   5.895
 2303SOL     OW 7807   2.870   2.629   0.349
 2303SOL    HW1 7808   2.872   2.589   0.440
 2303SOL    HW2 7809   2.843   2.560   0.282
 2304SOL     OW 7810   6.471   6.448   2.404
 2304SOL    HW1 7811   6.440   6.408   2.318
 2304SOL    HW2 7812   6.569   6.467   2.399
 2305SOL     OW 7813   2.867   0.093   4.822
 2305SOL    HW1 7814   2.781   0.047   4.846
 2305SOL    HW2 7815   2.876   0.096   4.723
 2306SOL     OW 7816   1.603   4.935   4.829
 2306SOL    HW1 7817   1.526   4.930   4.765
 2306SOL    HW2 7818   1.604   4.853   4.886
 2307SOL     OW 7819   6.572   3.233   5.394
 2307SOL    HW1 7820   6.533   3.150   5.433
 2307SOL    HW2 7821   6.504   3.307   5.397
 2308SOL     OW 7822   1.464   5.174   1.787
 2308SOL    HW1 7823   1.425   5.084   1.767
 2308SOL    HW2 7824   1.554   5.162   1.829
 2309SOL     OW 7825   2.185   0.227   4.897
 2309SOL    HW1 7826   2.235   0.214   4.811
 2309SOL    HW2 7827   2.096   0.183   4.891
 2310SOL     OW 7828   4.228   0.153   1.250
 2310SOL    HW1 7829   4.153   0.108   1.203
 2310SOL    HW2 7830   4.290   0.194   1.183
 2311SOL     OW 7831   2.456   5.188   1.075
 2311SOL    HW1 7832   2.498   5.112   1.124
 2311SOL    HW2 7833   2.358   5.188   1.090
 2312SOL     OW 7834   3.591   5.042   1.516
 2312SOL    HW1 7835   3.597   4.942   1.513
 2312SOL    HW2 7836   3.592   5.073   1.611
 2313SOL     OW 7837   5.400   5.581   1.124
 2313SOL    HW1 7838   5.347   5.497   1.137
 2313SOL    HW2 7839   5.446   5.578   1.035
 2314SOL     OW 7840   2.136   5.065   4.668
 2314SOL    HW1 7841   2.127   4.997   4.742
 2314SOL    HW2 7842   2.079   5.144   4.689
 2315SOL     OW 7843   4.529   2.717   6.386
 2315SOL    HW1 7844   4.444   2.741   6.339
 2315SOL    HW2 7845   4.518   2.733   6.484
 2316SOL     OW 7846   5.763   3.889   2.118
 2316SOL    HW1 7847   5.758   3.796   2.082
 2316SOL    HW2 7848   5.775   3.885   2.218
 2317SOL     OW 7849   0.207   5.925   3.238
 2317SOL    HW1 7850   0.246   5.884   3.156
 2317SOL    HW2 7851   0.121   5.971   3.215
 2318SOL     OW 7852   6.680   0.846   4.114
 2318SOL    HW1 7853   6.734   0.918   4.156
 2318SOL    HW2 7854   6.584   0.874   4.109
 2319SOL     OW 7855   0.825   5.633   2.820
 2319SOL    HW1 7856   0.733   5.624   2.780
 2319SOL    HW2 7857   0.859   5.543   2.846
 2320SOL     OW 7858   6.580   5.283   5.490
 2320SOL    HW1 7859   6.558   5.290   5.392
 2320SOL    HW2 7860   6.516   5.220   5.534
 2321SOL     OW 7861   3.870   5.086   5.065
 2321SOL    HW1 7862   3.841   5.131   4.981
 2321SOL    HW2 7863   3.822   5.126   5.143
 2322SOL     OW 7864   3.239   0.420   5.439
 2322SOL    HW1 7865   3.159   0.362   5.455
 2322SOL    HW2 7866   3.234   0.459   5.347
 2323SOL     OW 7867   5.378   3.772   2.060
 2323SOL    HW1 7868   5.447   3.701   2.074
 2323SOL    HW2 7869   5.298   3.733   2.014
 2324SOL     OW 7870   6.864   5.212   3.346
 2324SOL    HW1 7871   6.778   5.229   3.394
 2324SOL    HW2 7872   6.936   5.188   3.412
 2325SOL     OW 7873   0.560   2.476   0.704
 2325SOL    HW1 7874   0.553   2.376   0.699
 2325SOL    HW2 7875   0.532   2.515   0.616
 2326SOL     OW 7876   1.511   4.106   0.521
 2326SOL    HW1 7877   1.527   4.012   0.553
 2326SOL    HW2 7878   1.427   4.141   0.561
 2327SOL     OW 7879   5.595   1.956   3.801
 2327SOL    HW1 7880   5.519   1.996   3.750
 2327SOL    HW2 7881   5.680   1.999   3.772
 2328SOL     OW 7882   6.134   6.831   3.909
 2328SOL    HW1 7883   6.137   6.773   3.827
 2328SOL    HW2 7884   6.226   6.866   3.927
 2329SOL     OW 7885   6.540   5.760   3.225
 2329SOL    HW1 7886   6.518   5.666   3.249
 2329SOL    HW2 7887   6.538   5.817   3.307
 2330SOL     OW 7888   0.552   3.354   1.697
 2330SOL    HW1 7889   0.546   3.451   1.674
 2330SOL    HW2 7890   0.484   3.332   1.767
 2331SOL     OW 7891   1.056   4.942   5.958
 2331SOL    HW1 7892   0.969   4.981   5.987
 2331SOL    HW2 7893   1.051   4.842   5.961
 2332SOL     OW 7894   5.245   2.456   4.529
 2332SOL    HW1 7895   5.282   2.370   4.564
 2332SOL    HW2 7896   5.192   2.438   4.446
 2333SOL     OW 7897   2.577   4.613   3.640
 2333SOL    HW1 7898   2.500   4.549   3.641
 2333SOL    HW2 7899   2.605   4.630   3.546
 2334SOL     OW 7900   3.203   0.236   0.569
 2334SOL    HW1 7901   3.185   0.301   0.496
 2334SOL    HW2 7902   3.289   0.260   0.614
 2335SOL     OW 7903   4.499   5.142   4.114
 2335SOL    HW1 7904   4.538   5.209   4.178
 2335SOL    HW2 7905   4.470   5.061   4.165
 2336SOL     OW 7906   4.388   2.210   5.633
 2336SOL    HW1 7907   4.417   2.151   5.557
 2336SOL    HW2 7908   4.338   2.155   5.700
 2337SOL     OW 7909   6.098   0.526   4.157
 2337SOL    HW1 7910   6.092   0.428   4.175
 2337SOL    HW2 7911   6.192   0.549   4.132
 2338SOL     OW 7912   1.267   0.286   6.266
 2338SOL    HW1 7913   1.167   0.281   6.265
 2338SOL    HW2 7914   1.305   0.205   6.222
 2339SOL     OW 7915   4.684   4.512   6.278
 2339SOL    HW1 7916   4.728   4.530   6.366
 2339SOL    HW2 7917   4.678   4.413   6.264
 2340SOL     OW 7918   3.978   5.141   3.189
 2340SOL    HW1 7919   3.980   5.048   3.152
 2340SOL    HW2 7920   3.935   5.140   3.280
 2341SOL     OW 7921   5.962   4.949   6.049
 2341SOL    HW1 7922   5.987   4.903   5.964
 2341SOL    HW2 7923   6.041   4.952   6.110
 2342SOL     OW 7924   6.224   0.140   5.591
 2342SOL    HW1 7925   6.173   0.192   5.659
 2342SOL    HW2 7926   6.322   0.161   5.599
 2343SOL     OW 7927   1.189   6.772   0.694
 2343SOL    HW1 7928   1.144   6.715   0.626
 2343SOL    HW2 7929   1.216   6.859   0.653
 2344SOL     OW 7930   2.504   1.372   3.045
 2344SOL    HW1 7931   2.431   1.334   2.987
 2344SOL    HW2 7932   2.538   1.302   3.107
 2345SOL     OW 7933   1.029   1.514   3.257
 2345SOL    HW1 7934   1.055   1.565   3.339
 2345SOL    HW2 7935   1.097   1.527   3.186
 2346SOL     OW 7936   5.236   3.409   5.596
 2346SOL    HW1 7937   5.191   3.387   5.683
 2346SOL    HW2 7938   5.228   3.331   5.534
 2347SOL     OW 7939   1.289   3.682   1.015
 2347SOL    HW1 7940   1.192   3.703   1.030
 2347SOL    HW2 7941   1.297   3.595   0.967
 2348SOL     OW 7942   2.589   5.470   1.825
 2348SOL    HW1 7943   2.539   5.540   1.775
 2348SOL    HW2 7944   2.681   5.460   1.785
 2349SOL     OW 7945   4.272   4.677   6.006
 2349SOL    HW1 7946   4.173   4.662   6.009
 2349SOL    HW2 7947   4.311   4.664   6.098
 2350SOL     OW 7948   1.814   5.690   5.519
 2350SOL    HW1 7949   1.898   5.742   5.532
 2350SOL    HW2 7950   1.835   5.594   5.502
 2351SOL     OW 7951   2.536   5.391   3.225
 2351SOL    HW1 7952   2.538   5.332   3.145
 2351SOL    HW2 7953   2.441   5.417   3.244
 2352SOL     OW 7954   5.964   3.865   1.679
 2352SOL    HW1 7955   6.035   3.879   1.610
 2352SOL    HW2 7956   5.879   3.908   1.650
 2353SOL     OW 7957   2.885   3.855   6.397
 2353SOL    HW1 7958   2.903   3.765   6.357
 2353SOL    HW2 7959   2.916   3.926   6.334
 2354SOL     OW 7960   3.983   2.522   1.631
 2354SOL    HW1 7961   3.884   2.521   1.643
 2354SOL    HW2 7962   4.026   2.470   1.705
 2355SOL     OW 7963   6.813   1.233   1.256
 2355SOL    HW1 7964   6.724   1.258   1.292
 2355SOL    HW2 7965   6.872   1.314   1.254
 2356SOL     OW 7966   2.665   5.004   3.578
 2356SOL    HW1 7967   2.729   4.930   3.555
 2356SOL    HW2 7968   2.693   5.088   3.532
 2357SOL     OW 7969   6.585   4.277   0.893
 2357SOL    HW1 7970   6.599   4.178   0.899
 2357SOL    HW2 7971   6.669   4.320   0.858
 2358SOL     OW 7972   3.693   1.979   5.310
 2358SOL    HW1 7973   3.719   2.070   5.277
 2358SOL    HW2 7974   3.691   1.978   5.410
 2359SOL     OW 7975   1.801   1.746   5.673
 2359SOL    HW1 7976   1.832   1.751   5.578
 2359SOL    HW2 7977   1.837   1.824   5.724
 2360SOL     OW 7978   3.404   4.799   6.902
 2360SOL    HW1 7979   3.466   4.774   6.976
 2360SOL    HW2 7980   3.413   4.896   6.883
 2361SOL     OW 7981   3.898   5.682   1.842
 2361SOL    HW1 7982   3.894   5.760   1.904
 2361SOL    HW2 7983   3.985   5.634   1.854
 2362SOL     OW 7984   3.806   5.344   3.638
 2362SOL    HW1 7985   3.728   5.293   3.603
 2362SOL    HW2 7986   3.799   5.350   3.738
 2363SOL     OW 7987   1.827   4.125   0.390
 2363SOL    HW1 7988   1.807   4.195   0.322
 2363SOL    HW2 7989   1.802   4.159   0.481
 2364SOL     OW 7990   3.597   1.017   2.995
 2364SOL    HW1 7991   3.690   1.032   2.962
 2364SOL    HW2 7992   3.559   1.103   3.028
 2365SOL     OW 7993   4.975   4.477   3.374
 2365SOL    HW1 7994   5.061   4.426   3.381
 2365SOL    HW2 7995   4.907   4.419   3.329
 2366SOL     OW 7996   2.763   4.750   5.300
 2366SOL    HW1 7997   2.784   4.847   5.286
 2366SOL    HW2 7998   2.800   4.697   5.224
 2367SOL     OW 7999   5.681   5.518   6.028
 2367SOL    HW1 8000   5.773   5.556   6.039
 2367SOL    HW2 8001   5.670   5.440   6.089
 2368SOL     OW 8002   6.252   6.910   4.548
 2368SOL    HW1 8003   6.179   6.868   4.602
 2368SOL    HW2 8004   6.299   6.978   4.604
 2369SOL     OW 8005   3.353   2.024   4.331
 2369SOL    HW1 8006   3.418   2.016   4.407
 2369SOL    HW2 8007   3.260   2.030   4.367
 2370SOL     OW 8008   5.689   2.547   1.935
 2370SOL    HW1 8009   5.763   2.593   1.985
 2370SOL    HW2 8010   5.719   2.531   1.841
 2371SOL     OW 8011   0.729   6.043   2.549
 2371SOL    HW1 8012   0.751   6.018   2.644
 2371SOL    HW2 8013   0.811   6.080   2.505
 2372SOL     OW 8014   6.318   6.442   6.620
 2372SOL    HW1 8015   6.413   6.469   6.637
 2372SOL    HW2 8016   6.269   6.518   6.578
 2373SOL     OW 8017   6.517   5.185   6.320
 2373SOL    HW1 8018   6.490   5.278   6.346
 2373SOL    HW2 8019   6.503   5.124   6.398
 2374SOL     OW 8020   5.912   6.557   2.515
 2374SOL    HW1 8021   5.939   6.486   2.580
 2374SOL    HW2 8022   5.977   6.632   2.520
 2375SOL     OW 8023   1.650   0.605   4.277
 2375SOL    HW1 8024   1.738   0.648   4.260
 2375SOL    HW2 8025   1.640   0.586   4.375
 2376SOL     OW 8026   5.218   1.892   2.652
 2376SOL    HW1 8027   5.279   1.970   2.643
 2376SOL    HW2 8028   5.176   1.893   2.743
 2377SOL     OW 8029   4.823   4.071   5.762
 2377SOL    HW1 8030   4.863   3.981   5.746
 2377SOL    HW2 8031   4.864   4.137   5.699
 2378SOL     OW 8032   6.992   1.259   0.102
 2378SOL    HW1 8033   6.917   1.285   0.163
 2378SOL    HW2 8034   0.045   1.320   0.118
 2379SOL     OW 8035   6.562   5.456   2.502
 2379SOL    HW1 8036   6.578   5.359   2.486
 2379SOL    HW2 8037   6.515   5.468   2.589
 2380SOL     OW 8038   4.976   5.853   5.994
 2380SOL    HW1 8039   5.067   5.848   5.952
 2380SOL    HW2 8040   4.908   5.872   5.923
 2381SOL     OW 8041   2.240   4.661   4.461
 2381SOL    HW1 8042   2.258   4.564   4.473
 2381SOL    HW2 8043   2.319   4.714   4.492
 2382SOL     OW 8044   6.955   5.581   2.697
 2382SOL    HW1 8045   6.932   5.504   2.756
 2382SOL    HW2 8046   6.928   5.561   2.603
 2383SOL     OW 8047   4.991   4.530   5.823
 2383SOL    HW1 8048   5.051   4.609   5.811
 2383SOL    HW2 8049   4.982   4.509   5.920
 2384SOL     OW 8050   6.950   1.811   3.275
 2384SOL    HW1 8051   6.976   1.715   3.262
 2384SOL    HW2 8052   6.850   1.819   3.276
 2385SOL     OW 8053   0.802   1.212   0.968
 2385SOL    HW1 8054   0.819   1.199   1.065
 2385SOL    HW2 8055   0.840   1.135   0.917
 2386SOL     OW 8056   6.240   6.103   4.787
 2386SOL    HW1 8057   6.297   6.125   4.708
 2386SOL    HW2 8058   6.282   6.029   4.839
 2387SOL     OW 8059   0.617   1.425   3.763
 2387SOL    HW1 8060   0.663   1.347   3.721
 2387SOL    HW2 8061   0.676   1.505   3.759
 2388SOL     OW 8062   0.345   2.812   5.444
 2388SOL    HW1 8063   0.307   2.812   5.537
 2388SOL    HW2 8064   0.385   2.902   5.425
 2389SOL     OW 8065   4.019   4.752   3.727
 2389SOL    HW1 8066   4.030   4.702   3.641
 2389SOL    HW2 8067   4.075   4.835   3.725
 2390SOL     OW 8068   5.039   3.015   6.118
 2390SOL    HW1 8069   5.106   2.953   6.160
 2390SOL    HW2 8070   5.074   3.047   6.030
 2391SOL     OW 8071   3.331   4.002   5.884
 2391SOL    HW1 8072   3.237   3.976   5.862
 2391SOL    HW2 8073   3.368   4.058   5.810
 2392SOL     OW 8074   4.646   4.223   5.527
 2392SOL    HW1 8075   4.617   4.132   5.557
 2392SOL    HW2 8076   4.567   4.272   5.489
 2393SOL     OW 8077   4.314   4.489   1.421
 2393SOL    HW1 8078   4.409   4.461   1.415
 2393SOL    HW2 8079   4.258   4.432   1.360
 2394SOL     OW 8080   0.438   2.073   3.772
 2394SOL    HW1 8081   0.485   2.037   3.692
 2394SOL    HW2 8082   0.377   2.003   3.810
 2395SOL     OW 8083   1.132   2.561   4.612
 2395SOL    HW1 8084   1.144   2.492   4.541
 2395SOL    HW2 8085   1.126   2.517   4.702
 2396SOL     OW 8086   0.616   0.593   5.964
 2396SOL    HW1 8087   0.620   0.691   5.943
 2396SOL    HW2 8088   0.521   0.568   5.986
 2397SOL     OW 8089   0.027   3.727   4.869
 2397SOL    HW1 8090   7.002   3.748   4.953
 2397SOL    HW2 8091   0.063   3.634   4.874
 2398SOL     OW 8092   3.580   6.544   4.119
 2398SOL    HW1 8093   3.638   6.540   4.038
 2398SOL    HW2 8094   3.586   6.634   4.161
 2399SOL     OW 8095   3.233   2.075   3.457
 2399SOL    HW1 8096   3.321   2.107   3.422
 2399SOL    HW2 8097   3.170   2.058   3.381
 2400SOL     OW 8098   1.734   4.213   0.626
 2400SOL    HW1 8099   1.646   4.168   0.613
 2400SOL    HW2 8100   1.777   4.179   0.710
 2401SOL     OW 8101   1.618   0.329   6.568
 2401SOL    HW1 8102   1.716   0.328   6.546
 2401SOL    HW2 8103   1.565   0.315   6.485
 2402SOL     OW 8104   1.206   4.117   2.105
 2402SOL    HW1 8105   1.304   4.124   2.123
 2402SOL    HW2 8106   1.155   4.149   2.185
 2403SOL     OW 8107   4.097   3.701   4.210
 2403SOL    HW1 8108   4.072   3.614   4.168
 2403SOL    HW2 8109   4.040   3.716   4.291
 2404SOL     OW 8110   6.118   1.033   1.131
 2404SOL    HW1 8111   6.086   1.077   1.047
 2404SOL    HW2 8112   6.209   1.067   1.154
 2405SOL     OW 8113   1.866   3.268   0.780
 2405SOL    HW1 8114   1.944   3.239   0.836
 2405SOL    HW2 8115   1.795   3.306   0.839
 2406SOL     OW 8116   2.585   5.990   4.624
 2406SOL    HW1 8117   2.591   5.968   4.527
 2406SOL    HW2 8118   2.636   6.074   4.642
 2407SOL     OW 8119   2.747   1.169   3.139
 2407SOL    HW1 8120   2.676   1.208   3.199
 2407SOL    HW2 8121   2.830   1.153   3.192
 2408SOL     OW 8122   3.136   6.340   5.565
 2408SOL    HW1 8123   3.041   6.353   5.595
 2408SOL    HW2 8124   3.163   6.418   5.508
 2409SOL     OW 8125   1.157   3.425   0.140
 2409SOL    HW1 8126   1.253   3.395   0.142
 2409SOL    HW2 8127   1.142   3.491   0.214
 2410SOL     OW 8128   0.501   2.778   4.532
 2410SOL    HW1 8129   0.519   2.832   4.614
 2410SOL    HW2 8130   0.505   2.681   4.556
 2411SOL     OW 8131   3.376   2.064   0.065
 2411SOL    HW1 8132   3.278   2.071   0.084
 2411SOL    HW2 8133   3.425   2.134   0.115
 2412SOL     OW 8134   3.164   1.734   5.828
 2412SOL    HW1 8135   3.100   1.799   5.786
 2412SOL    HW2 8136   3.204   1.774   5.910
 2413SOL     OW 8137   0.546   3.185   0.229
 2413SOL    HW1 8138   0.643   3.175   0.254
 2413SOL    HW2 8139   0.533   3.152   0.136
 2414SOL     OW 8140   6.250   1.991   4.890
 2414SOL    HW1 8141   6.307   1.951   4.961
 2414SOL    HW2 8142   6.275   2.087   4.877
 2415SOL     OW 8143   2.693   5.089   6.580
 2415SOL    HW1 8144   2.759   5.159   6.608
 2415SOL    HW2 8145   2.601   5.116   6.610
 2416SOL     OW 8146   0.113   3.329   2.295
 2416SOL    HW1 8147   0.135   3.259   2.362
 2416SOL    HW2 8148   0.049   3.395   2.335
 2417SOL     OW 8149   3.013   2.673   1.758
 2417SOL    HW1 8150   3.094   2.639   1.709
 2417SOL    HW2 8151   2.998   2.618   1.840
 2418SOL     OW 8152   4.952   3.954   6.903
 2418SOL    HW1 8153   5.052   3.964   6.904
 2418SOL    HW2 8154   4.910   4.031   6.950
 2419SOL     OW 8155   2.909   0.253   3.548
 2419SOL    HW1 8156   2.875   0.288   3.460
 2419SOL    HW2 8157   2.988   0.307   3.577
 2420SOL     OW 8158   1.677   4.104   2.811
 2420SOL    HW1 8159   1.732   4.120   2.729
 2420SOL    HW2 8160   1.686   4.008   2.838
 2421SOL     OW 8161   3.184   6.846   3.353
 2421SOL    HW1 8162   3.151   6.913   3.420
 2421SOL    HW2 8163   3.261   6.885   3.303
 2422SOL     OW 8164   4.487   5.402   1.016
 2422SOL    HW1 8165   4.564   5.348   1.051
 2422SOL    HW2 8166   4.520   5.494   0.991
 2423SOL     OW 8167   2.148   5.783   2.870
 2423SOL    HW1 8168   2.190   5.740   2.790
 2423SOL    HW2 8169   2.092   5.861   2.841
 2424SOL     OW 8170   5.134   6.960   6.411
 2424SOL    HW1 8171   5.048   6.996   6.447
 2424SOL    HW2 8172   5.197   6.941   6.486
 2425SOL     OW 8173   4.805   5.649   4.558
 2425SOL    HW1 8174   4.892   5.688   4.587
 2425SOL    HW2 8175   4.766   5.706   4.485
 2426SOL     OW 8176   1.973   2.981   5.539
 2426SOL    HW1 8177   2.059   3.001   5.491
 2426SOL    HW2 8178   1.971   2.885   5.565
 2427SOL     OW 8179   5.841   0.677   0.487
 2427SOL    HW1 8180   5.824   0.763   0.438
 2427SOL    HW2 8181   5.771   0.665   0.557
 2428SOL     OW 8182   0.661   1.003   3.336
 2428SOL    HW1 8183   0.731   0.989   3.267
 2428SOL    HW2 8184   0.703   1.029   3.423
 2429SOL     OW 8185   5.400   4.773   1.251
 2429SOL    HW1 8186   5.369   4.841   1.317
 2429SOL    HW2 8187   5.439   4.695   1.300
 2430SOL     OW 8188   6.254   0.661   6.506
 2430SOL    HW1 8189   6.245   0.691   6.601
 2430SOL    HW2 8190   6.251   0.561   6.501
 2431SOL     OW 8191   0.742   3.252   1.902
 2431SOL    HW1 8192   0.698   3.282   1.818
 2431SOL    HW2 8193   0.678   3.262   1.979
 2432SOL     OW 8194   2.590   5.015   1.756
 2432SOL    HW1 8195   2.674   5.057   1.722
 2432SOL    HW2 8196   2.613   4.943   1.821
 2433SOL     OW 8197   6.911   4.144   5.552
 2433SOL    HW1 8198   6.902   4.060   5.497
 2433SOL    HW2 8199   6.835   4.205   5.532
 2434SOL     OW 8200   4.289   0.594   2.239
 2434SOL    HW1 8201   4.209   0.583   2.180
 2434SOL    HW2 8202   4.263   0.569   2.333
 2435SOL     OW 8203   6.381   6.900   6.979
 2435SOL    HW1 8204   6.400   6.959   0.033
 2435SOL    HW2 8205   6.301   6.843   6.998
 2436SOL     OW 8206   1.470   1.973   1.480
 2436SOL    HW1 8207   1.442   2.031   1.556
 2436SOL    HW2 8208   1.395   1.967   1.414
 2437SOL     OW 8209   0.048   4.211   3.193
 2437SOL    HW1 8210   7.019   4.234   3.112
 2437SOL    HW2 8211   0.115   4.140   3.170
 2438SOL     OW 8212   3.301   1.316   4.582
 2438SOL    HW1 8213   3.333   1.243   4.641
 2438SOL    HW2 8214   3.316   1.292   4.486
 2439SOL     OW 8215   1.438   6.092   1.621
 2439SOL    HW1 8216   1.345   6.074   1.654
 2439SOL    HW2 8217   1.488   6.006   1.611
 2440SOL     OW 8218   5.593   0.898   5.263
 2440SOL    HW1 8219   5.596   0.970   5.193
 2440SOL    HW2 8220   5.583   0.940   5.353
 2441SOL     OW 8221   6.295   0.251   0.439
 2441SOL    HW1 8222   6.272   0.174   0.380
 2441SOL    HW2 8223   6.211   0.302   0.462
 2442SOL     OW 8224   5.420   3.074   1.162
 2442SOL    HW1 8225   5.430   3.055   1.260
 2442SOL    HW2 8226   5.349   3.015   1.123
 2443SOL     OW 8227   1.129   3.110   2.130
 2443SOL    HW1 8228   1.102   3.195   2.174
 2443SOL    HW2 8229   1.220   3.083   2.161
 2444SOL     OW 8230   3.111   5.749   2.224
 2444SOL    HW1 8231   3.034   5.686   2.234
 2444SOL    HW2 8232   3.077   5.842   2.218
 2445SOL     OW 8233   0.593   2.813   1.573
 2445SOL    HW1 8234   0.512   2.756   1.583
 2445SOL    HW2 8235   0.674   2.754   1.563
 2446SOL     OW 8236   1.504   5.413   1.675
 2446SOL    HW1 8237   1.483   5.396   1.579
 2446SOL    HW2 8238   1.497   5.328   1.726
 2447SOL     OW 8239   2.451   6.811   0.020
 2447SOL    HW1 8240   2.447   6.713   7.024
 2447SOL    HW2 8241   2.403   6.862   6.974
 2448SOL     OW 8242   5.375   1.226   4.404
 2448SOL    HW1 8243   5.413   1.196   4.492
 2448SOL    HW2 8244   5.327   1.150   4.361
 2449SOL     OW 8245   1.547   4.259   1.855
 2449SOL    HW1 8246   1.576   4.172   1.814
 2449SOL    HW2 8247   1.627   4.305   1.894
 2450SOL     OW 8248   1.403   6.744   5.905
 2450SOL    HW1 8249   1.458   6.761   5.986
 2450SOL    HW2 8250   1.346   6.824   5.885
 2451SOL     OW 8251   0.619   6.208   4.940
 2451SOL    HW1 8252   0.637   6.230   4.844
 2451SOL    HW2 8253   0.684   6.138   4.971
 2452SOL     OW 8254   1.959   2.120   3.631
 2452SOL    HW1 8255   2.058   2.119   3.645
 2452SOL    HW2 8256   1.939   2.121   3.534
 2453SOL     OW 8257   0.397   0.978   6.094
 2453SOL    HW1 8258   0.446   1.061   6.120
 2453SOL    HW2 8259   0.462   0.903   6.084
 2454SOL     OW 8260   3.660   5.565   1.260
 2454SOL    HW1 8261   3.739   5.536   1.315
 2454SOL    HW2 8262   3.692   5.616   1.180
 2455SOL     OW 8263   4.232   2.569   0.587
 2455SOL    HW1 8264   4.293   2.499   0.550
 2455SOL    HW2 8265   4.250   2.579   0.685
 2456SOL     OW 8266   0.907   4.087   6.602
 2456SOL    HW1 8267   0.843   4.071   6.527
 2456SOL    HW2 8268   0.860   4.134   6.677
 2457SOL     OW 8269   4.757   2.110   4.815
 2457SOL    HW1 8270   4.849   2.140   4.789
 2457SOL    HW2 8271   4.726   2.163   4.893
 2458SOL     OW 8272   0.702   0.715   2.173
 2458SOL    HW1 8273   0.605   0.710   2.151
 2458SOL    HW2 8274   0.714   0.748   2.267
 2459SOL     OW 8275   2.994   0.136   0.299
 2459SOL    HW1 8276   3.054   0.056   0.307
 2459SOL    HW2 8277   2.899   0.107   0.309
 2460SOL     OW 8278   1.283   0.912   4.779
 2460SOL    HW1 8279   1.242   0.946   4.863
 2460SOL    HW2 8280   1.224   0.841   4.739
 2461SOL     OW 8281   4.411   6.791   3.457
 2461SOL    HW1 8282   4.445   6.871   3.506
 2461SOL    HW2 8283   4.319   6.769   3.491
 2462SOL     OW 8284   0.184   3.938   0.299
 2462SOL    HW1 8285   0.106   3.896   0.346
 2462SOL    HW2 8286   0.266   3.883   0.316
 2463SOL     OW 8287   0.169   0.551   0.205
 2463SOL    HW1 8288   0.180   0.623   0.136
 2463SOL    HW2 8289   0.255   0.501   0.215
 2464SOL     OW 8290   0.863   2.946   3.716
 2464SOL    HW1 8291   0.916   2.867   3.683
 2464SOL    HW2 8292   0.914   3.030   3.698
 2465SOL     OW 8293   0.246   6.511   5.935
 2465SOL    HW1 8294   0.222   6.594   5.985
 2465SOL    HW2 8295   0.322   6.531   5.872
 2466SOL     OW 8296   0.348   2.126   2.058
 2466SOL    HW1 8297   0.382   2.189   2.128
 2466SOL    HW2 8298   0.259   2.157   2.025
 2467SOL     OW 8299   5.928   2.167   5.329
 2467SOL    HW1 8300   5.877   2.160   5.415
 2467SOL    HW2 8301   5.865   2.190   5.255
 2468SOL     OW 8302   3.212   6.579   5.366
 2468SOL    HW1 8303   3.275   6.563   5.443
 2468SOL    HW2 8304   3.157   6.661   5.385
 2469SOL     OW 8305   3.481   2.014   5.799
 2469SOL    HW1 8306   3.424   2.096   5.794
 2469SOL    HW2 8307   3.498   1.990   5.894
 2470SOL     OW 8308   2.932   4.427   5.993
 2470SOL    HW1 8309   2.835   4.420   6.014
 2470SOL    HW2 8310   2.945   4.484   5.912
 2471SOL     OW 8311   3.069   6.010   2.180
 2471SOL    HW1 8312   2.974   6.012   2.148
 2471SOL    HW2 8313   3.123   6.078   2.130
 2472SOL     OW 8314   4.353   1.473   3.629
 2472SOL    HW1 8315   4.260   1.493   3.661
 2472SOL    HW2 8316   4.370   1.523   3.544
 2473SOL     OW 8317   0.655   4.005   4.955
 2473SOL    HW1 8318   0.628   3.918   4.913
 2473SOL    HW2 8319   0.740   4.037   4.913
 2474SOL     OW 8320   1.547   5.845   1.632
 2474SOL    HW1 8321   1.519   5.832   1.727
 2474SOL    HW2 8322   1.627   5.790   1.613
 2475SOL     OW 8323   5.052   0.955   1.026
 2475SOL    HW1 8324   5.037   1.053   1.040
 2475SOL    HW2 8325   5.096   0.940   0.937
 2476SOL     OW 8326   5.351   0.816   6.960
 2476SOL    HW1 8327   5.395   0.898   6.998
 2476SOL    HW2 8328   5.417   0.764   6.907
 2477SOL     OW 8329   3.717   0.300   3.473
 2477SOL    HW1 8330   3.816   0.291   3.469
 2477SOL    HW2 8331   3.684   0.259   3.558
 2478SOL     OW 8332   4.215   0.145   3.996
 2478SOL    HW1 8333   4.166   0.147   4.084
 2478SOL    HW2 8334   4.258   0.056   3.984
 2479SOL     OW 8335   6.302   3.100   6.801
 2479SOL    HW1 8336   6.301   3.142   6.892
 2479SOL    HW2 8337   6.208   3.083   6.772
 2480SOL     OW 8338   3.495   2.694   1.686
 2480SOL    HW1 8339   3.429   2.767   1.669
 2480SOL    HW2 8340   3.454   2.606   1.660
 2481SOL     OW 8341   3.474   0.273   1.041
 2481SOL    HW1 8342   3.572   0.264   1.053
 2481SOL    HW2 8343   3.443   0.213   0.967
 2482SOL     OW 8344   6.064   3.242   6.510
 2482SOL    HW1 8345   6.039   3.196   6.425
 2482SOL    HW2 8346   6.017   3.330   6.515
 2483SOL     OW 8347   0.949   2.389   0.631
 2483SOL    HW1 8348   1.026   2.419   0.687
 2483SOL    HW2 8349   0.932   2.456   0.559
 2484SOL     OW 8350   5.030   1.530   1.314
 2484SOL    HW1 8351   4.964   1.538   1.239
 2484SOL    HW2 8352   4.982   1.514   1.400
 2485SOL     OW 8353   6.313   2.285   6.048
 2485SOL    HW1 8354   6.257   2.218   6.001
 2485SOL    HW2 8355   6.257   2.335   6.114
 2486SOL     OW 8356   6.842   3.915   5.413
 2486SOL    HW1 8357   6.763   3.857   5.434
 2486SOL    HW2 8358   6.914   3.860   5.371
 2487SOL     OW 8359   4.672   5.708   0.120
 2487SOL    HW1 8360   4.590   5.758   0.092
 2487SOL    HW2 8361   4.687   5.632   0.056
 2488SOL     OW 8362   6.672   3.924   1.395
 2488SOL    HW1 8363   6.681   4.023   1.382
 2488SOL    HW2 8364   6.584   3.894   1.361
 2489SOL     OW 8365   0.325   6.500   4.145
 2489SOL    HW1 8366   0.256   6.570   4.162
 2489SOL    HW2 8367   0.413   6.544   4.128
 2490SOL     OW 8368   2.723   6.137   2.191
 2490SOL    HW1 8369   2.751   6.199   2.264
 2490SOL    HW2 8370   2.698   6.189   2.109
 2491SOL     OW 8371   3.554   4.705   1.510
 2491SOL    HW1 8372   3.543   4.676   1.415
 2491SOL    HW2 8373   3.493   4.652   1.569
 2492SOL     OW 8374   6.906   4.442   1.293
 2492SOL    HW1 8375   6.989   4.412   1.339
 2492SOL    HW2 8376   6.912   4.418   1.196
 2493SOL     OW 8377   6.550   6.702   1.579
 2493SOL    HW1 8378   6.502   6.665   1.499
 2493SOL    HW2 8379   6.649   6.699   1.563
 2494SOL     OW 8380   6.042   3.574   2.024
 2494SOL    HW1 8381   6.071   3.496   1.969
 2494SOL    HW2 8382   6.089   3.656   1.992
 2495SOL     OW 8383   6.172   4.944   4.292
 2495SOL    HW1 8384   6.268   4.953   4.321
 2495SOL    HW2 8385   6.168   4.942   4.193
 2496SOL     OW 8386   6.215   5.155   6.524
 2496SOL    HW1 8387   6.310   5.125   6.536
 2496SOL    HW2 8388   6.200   5.240   6.573
 2497SOL     OW 8389   0.190   0.304   1.942
 2497SOL    HW1 8390   0.242   0.323   2.025
 2497SOL    HW2 8391   0.157   0.209   1.944
 2498SOL     OW 8392   1.968   3.449   5.899
 2498SOL    HW1 8393   2.038   3.483   5.962
 2498SOL    HW2 8394   2.003   3.369   5.850
 2499SOL     OW 8395   6.967   3.176   1.616
 2499SOL    HW1 8396   6.954   3.242   1.690
 2499SOL    HW2 8397   0.024   3.199   1.564
 2500SOL     OW 8398   4.072   4.137   6.938
 2500SOL    HW1 8399   4.024   4.223   6.917
 2500SOL    HW2 8400   4.005   4.063   6.942
 2501SOL     OW 8401   6.088   5.981   0.284
 2501SOL    HW1 8402   6.083   5.890   0.244
 2501SOL    HW2 8403   6.064   6.050   0.215
 2502SOL     OW 8404   2.947   5.693   4.674
 2502SOL    HW1 8405   2.887   5.676   4.752
 2502SOL    HW2 8406   2.966   5.791   4.666
 2503SOL     OW 8407   2.148   6.431   5.922
 2503SOL    HW1 8408   2.200   6.416   5.838
 2503SOL    HW2 8409   2.119   6.342   5.959
 2504SOL     OW 8410   3.121   5.476   2.680
 2504SOL    HW1 8411   3.086   5.382   2.684
 2504SOL    HW2 8412   3.057   5.534   2.631
 2505SOL     OW 8413   7.017   5.850   2.868
 2505SOL    HW1 8414   0.071   5.820   2.922
 2505SOL    HW2 8415   6.977   5.770   2.822
 2506SOL     OW 8416   5.172   5.606   5.638
 2506SOL    HW1 8417   5.178   5.506   5.645
 2506SOL    HW2 8418   5.079   5.632   5.613
 2507SOL     OW 8419   0.026   3.508   0.495
 2507SOL    HW1 8420   6.964   3.460   0.507
 2507SOL    HW2 8421   0.100   3.441   0.493
 2508SOL     OW 8422   4.050   1.979   3.574
 2508SOL    HW1 8423   3.990   1.945   3.646
 2508SOL    HW2 8424   4.017   2.068   3.542
 2509SOL     OW 8425   0.095   3.714   5.854
 2509SOL    HW1 8426   0.049   3.694   5.768
 2509SOL    HW2 8427   0.096   3.631   5.911
 2510SOL     OW 8428   3.164   4.019   2.079
 2510SOL    HW1 8429   3.129   4.103   2.037
 2510SOL    HW2 8430   3.152   3.943   2.016
 2511SOL     OW 8431   2.365   0.809   5.273
 2511SOL    HW1 8432   2.371   0.759   5.359
 2511SOL    HW2 8433   2.348   0.746   5.198
 2512SOL     OW 8434   3.738   4.933   4.604
 2512SOL    HW1 8435   3.670   4.896   4.668
 2512SOL    HW2 8436   3.809   4.980   4.656
 2513SOL     OW 8437   2.247   6.054   6.224
 2513SOL    HW1 8438   2.310   5.987   6.184
 2513SOL    HW2 8439   2.202   6.013   6.304
 2514SOL     OW 8440   1.055   3.103   3.417
 2514SOL    HW1 8441   1.124   3.155   3.367
 2514SOL    HW2 8442   1.100   3.040   3.480
 2515SOL     OW 8443   1.683   1.372   1.536
 2515SOL    HW1 8444   1.757   1.418   1.584
 2515SOL    HW2 8445   1.671   1.280   1.573
 2516SOL     OW 8446   5.577   1.636   3.501
 2516SOL    HW1 8447   5.576   1.637   3.601
 2516SOL    HW2 8448   5.628   1.556   3.469
 2517SOL     OW 8449   1.054   1.295   4.193
 2517SOL    HW1 8450   1.069   1.390   4.221
 2517SOL    HW2 8451   0.956   1.277   4.188
 2518SOL     OW 8452   2.744   4.623   1.072
 2518SOL    HW1 8453   2.817   4.559   1.097
 2518SOL    HW2 8454   2.657   4.592   1.110
 2519SOL     OW 8455   1.833   1.325   0.643
 2519SOL    HW1 8456   1.900   1.334   0.570
 2519SOL    HW2 8457   1.780   1.409   0.651
 2520SOL     OW 8458   3.639   2.492   1.221
 2520SOL    HW1 8459   3.677   2.430   1.290
 2520SOL    HW2 8460   3.586   2.564   1.265
 2521SOL     OW 8461   4.527   1.588   5.228
 2521SOL    HW1 8462   4.515   1.683   5.256
 2521SOL    HW2 8463   4.540   1.584   5.129
 2522SOL     OW 8464   0.491   1.781   5.400
 2522SOL    HW1 8465   0.497   1.861   5.459
 2522SOL    HW2 8466   0.404   1.734   5.417
 2523SOL     OW 8467   1.662   4.785   0.092
 2523SOL    HW1 8468   1.720   4.844   0.147
 2523SOL    HW2 8469   1.566   4.812   0.102
 2524SOL     OW 8470   1.674   6.624   3.804
 2524SOL    HW1 8471   1.662   6.719   3.775
 2524SOL    HW2 8472   1.596   6.570   3.771
 2525SOL     OW 8473   0.256   2.151   4.126
 2525SOL    HW1 8474   0.336   2.098   4.154
 2525SOL    HW2 8475   0.271   2.188   4.034
 2526SOL     OW 8476   1.153   6.368   0.574
 2526SOL    HW1 8477   1.117   6.285   0.529
 2526SOL    HW2 8478   1.251   6.356   0.590
 2527SOL     OW 8479   5.108   5.498   6.694
 2527SOL    HW1 8480   5.133   5.455   6.607
 2527SOL    HW2 8481   5.190   5.530   6.740
 2528SOL     OW 8482   4.880   5.001   6.660
 2528SOL    HW1 8483   4.866   4.932   6.588
 2528SOL    HW2 8484   4.847   4.965   6.747
 2529SOL     OW 8485   0.407   6.938   6.200
 2529SOL    HW1 8486   0.400   6.838   6.196
 2529SOL    HW2 8487   0.499   6.965   6.170
 2530SOL     OW 8488   2.392   5.971   5.547
 2530SOL    HW1 8489   2.299   6.005   5.566
 2530SOL    HW2 8490   2.403   5.959   5.448
 2531SOL     OW 8491   6.212   5.232   6.036
 2531SOL    HW1 8492   6.292   5.292   6.028
 2531SOL    HW2 8493   6.132   5.280   5.999
 2532SOL     OW 8494   0.372   0.025   0.881
 2532SOL    HW1 8495   0.436   7.006   0.819
 2532SOL    HW2 8496   0.420   0.051   0.965
 2533SOL     OW 8497   5.254   0.682   3.156
 2533SOL    HW1 8498   5.282   0.590   3.183
 2533SOL    HW2 8499   5.335   0.738   3.140
 2534SOL     OW 8500   4.913   1.722   2.034
 2534SOL    HW1 8501   4.911   1.754   2.129
 2534SOL    HW2 8502   4.904   1.623   2.031
 2535SOL     OW 8503   3.654   2.853   6.239
 2535SOL    HW1 8504   3.564   2.886   6.210
 2535SOL    HW2 8505   3.644   2.762   6.279
 2536SOL     OW 8506   1.388   0.604   6.754
 2536SOL    HW1 8507   1.339   0.675   6.703
 2536SOL    HW2 8508   1.486   0.616   6.742
 2537SOL     OW 8509   4.409   1.328   0.051
 2537SOL    HW1 8510   4.368   1.312   0.141
 2537SOL    HW2 8511   4.347   1.295   7.005
 2538SOL     OW 8512   6.760   3.703   3.878
 2538SOL    HW1 8513   6.841   3.740   3.923
 2538SOL    HW2 8514   6.692   3.678   3.946
 2539SOL     OW 8515   5.323   1.207   4.769
 2539SOL    HW1 8516   5.262   1.285   4.757
 2539SOL    HW2 8517   5.416   1.234   4.742
 2540SOL     OW 8518   3.524   1.727   2.386
 2540SOL    HW1 8519   3.568   1.816   2.372
 2540SOL    HW2 8520   3.425   1.738   2.381
 2541SOL     OW 8521   3.653   6.119   5.507
 2541SOL    HW1 8522   3.723   6.077   5.565
 2541SOL    HW2 8523   3.651   6.073   5.418
 2542SOL     OW 8524   1.180   4.901   0.013
 2542SOL    HW1 8525   1.167   4.996   7.009
 2542SOL    HW2 8526   1.269   4.892   0.057
 2543SOL     OW 8527   1.269   1.787   4.283
 2543SOL    HW1 8528   1.335   1.826   4.348
 2543SOL    HW2 8529   1.279   1.831   4.195
 2544SOL     OW 8530   0.762   5.445   0.718
 2544SOL    HW1 8531   0.823   5.380   0.673
 2544SOL    HW2 8532   0.794   5.539   0.701
 2545SOL     OW 8533   2.001   5.950   3.260
 2545SOL    HW1 8534   1.937   5.908   3.195
 2545SOL    HW2 8535   2.055   6.020   3.212
 2546SOL     OW 8536   6.129   1.732   1.107
 2546SOL    HW1 8537   6.104   1.795   1.181
 2546SOL    HW2 8538   6.047   1.686   1.072
 2547SOL     OW 8539   0.129   3.891   5.167
 2547SOL    HW1 8540   0.173   3.967   5.119
 2547SOL    HW2 8541   0.032   3.887   5.143
 2548SOL     OW 8542   0.351   6.383   3.876
 2548SOL    HW1 8543   0.447   6.390   3.848
 2548SOL    HW2 8544   0.337   6.431   3.962
 2549SOL     OW 8545   0.522   0.969   1.602
 2549SOL    HW1 8546   0.580   0.888   1.613
 2549SOL    HW2 8547   0.526   1.024   1.686
 2550SOL     OW 8548   6.303   6.404   0.443
 2550SOL    HW1 8549   6.388   6.396   0.390
 2550SOL    HW2 8550   6.313   6.477   0.510
 2551SOL     OW 8551   2.022   3.985   6.611
 2551SOL    HW1 8552   2.033   4.016   6.706
 2551SOL    HW2 8553   2.012   4.064   6.551
 2552SOL     OW 8554   2.884   5.284   3.211
 2552SOL    HW1 8555   2.837   5.222   3.273
 2552SOL    HW2 8556   2.871   5.378   3.241
 2553SOL     OW 8557   3.851   3.595   6.219
 2553SOL    HW1 8558   3.919   3.665   6.198
 2553SOL    HW2 8559   3.776   3.600   6.153
 2554SOL     OW 8560   1.433   1.643   0.747
 2554SOL    HW1 8561   1.361   1.573   0.750
 2554SOL    HW2 8562   1.412   1.715   0.813
 2555SOL     OW 8563   5.432   2.503   5.827
 2555SOL    HW1 8564   5.428   2.411   5.866
 2555SOL    HW2 8565   5.360   2.559   5.866
 2556SOL     OW 8566   3.693   5.678   1.004
 2556SOL    HW1 8567   3.651   5.761   0.966
 2556SOL    HW2 8568   3.708   5.612   0.932
 2557SOL     OW 8569   2.071   3.989   6.181
 2557SOL    HW1 8570   2.056   4.062   6.248
 2557SOL    HW2 8571   2.063   4.026   6.089
 2558SOL     OW 8572   4.624   1.096   5.572
 2558SOL    HW1 8573   4.608   1.119   5.476
 2558SOL    HW2 8574   4.614   1.178   5.628
 2559SOL     OW 8575   0.431   4.498   5.380
 2559SOL    HW1 8576   0.413   4.404   5.352
 2559SOL    HW2 8577   0.518   4.528   5.340
 2560SOL     OW 8578   5.958   1.740   5.908
 2560SOL    HW1 8579   5.887   1.778   5.849
 2560SOL    HW2 8580   5.937   1.763   6.003
 2561SOL     OW 8581   2.777   5.588   4.885
 2561SOL    HW1 8582   2.773   5.490   4.863
 2561SOL    HW2 8583   2.709   5.609   4.955
 2562SOL     OW 8584   1.827   3.617   0.459
 2562SOL    HW1 8585   1.833   3.633   0.360
 2562SOL    HW2 8586   1.897   3.551   0.486
 2563SOL     OW 8587   2.343   1.459   0.126
 2563SOL    HW1 8588   2.256   1.439   0.080
 2563SOL    HW2 8589   2.405   1.382   0.115
 2564SOL     OW 8590   1.937   4.989   1.590
 2564SOL    HW1 8591   1.925   5.016   1.685
 2564SOL    HW2 8592   1.908   5.065   1.530
 2565SOL     OW 8593   1.421   0.707   1.658
 2565SOL    HW1 8594   1.383   0.681   1.746
 2565SOL    HW2 8595   1.506   0.656   1.641
 2566SOL     OW 8596   2.095   6.777   6.965
 2566SOL    HW1 8597   2.175   6.748   6.913
 2566SOL    HW2 8598   2.114   6.769   0.038
 2567SOL     OW 8599   1.757   6.472   0.878
 2567SOL    HW1 8600   1.820   6.398   0.903
 2567SOL    HW2 8601   1.674   6.433   0.839
 2568SOL     OW 8602   4.318   2.317   6.918
 2568SOL    HW1 8603   4.410   2.284   6.899
 2568SOL    HW2 8604   4.256   2.239   6.926
 2569SOL     OW 8605   3.516   0.412   3.907
 2569SOL    HW1 8606   3.508   0.511   3.921
 2569SOL    HW2 8607   3.570   0.394   3.826
 2570SOL     OW 8608   5.488   1.712   6.271
 2570SOL    HW1 8609   5.459   1.721   6.366
 2570SOL    HW2 8610   5.473   1.618   6.240
 2571SOL     OW 8611   1.481   4.979   3.738
 2571SOL    HW1 8612   1.411   4.929   3.687
 2571SOL    HW2 8613   1.571   4.937   3.720
 2572SOL     OW 8614   2.609   5.020   3.136
 2572SOL    HW1 8615   2.580   5.106   3.093
 2572SOL    HW2 8616   2.544   4.996   3.208
 2573SOL     OW 8617   0.395   0.898   1.359
 2573SOL    HW1 8618   0.461   0.926   1.289
 2573SOL    HW2 8619   0.426   0.929   1.449
 2574SOL     OW 8620   5.895   3.498   0.418
 2574SOL    HW1 8621   5.954   3.419   0.402
 2574SOL    HW2 8622   5.948   3.582   0.406
 2575SOL     OW 8623   6.747   5.740   6.812
 2575SOL    HW1 8624   6.719   5.803   6.740
 2575SOL    HW2 8625   6.834   5.771   6.851
 2576SOL     OW 8626   5.260   6.196   3.770
 2576SOL    HW1 8627   5.246   6.126   3.700
 2576SOL    HW2 8628   5.245   6.155   3.861
 2577SOL     OW 8629   2.698   4.676   2.258
 2577SOL    HW1 8630   2.774   4.686   2.322
 2577SOL    HW2 8631   2.733   4.675   2.164
 2578SOL     OW 8632   3.598   1.836   3.632
 2578SOL    HW1 8633   3.617   1.811   3.727
 2578SOL    HW2 8634   3.507   1.878   3.626
 2579SOL     OW 8635   0.538   6.850   3.480
 2579SOL    HW1 8636   0.521   6.773   3.542
 2579SOL    HW2 8637   0.557   6.816   3.388
 2580SOL     OW 8638   2.374   2.742   0.211
 2580SOL    HW1 8639   2.305   2.708   0.148
 2580SOL    HW2 8640   2.465   2.730   0.171
 2581SOL     OW 8641   2.716   0.062   5.698
 2581SOL    HW1 8642   2.659   0.055   5.616
 2581SOL    HW2 8643   2.804   0.018   5.681
 2582SOL     OW 8644   0.167   3.139   1.252
 2582SOL    HW1 8645   0.069   3.146   1.272
 2582SOL    HW2 8646   0.217   3.123   1.337
 2583SOL     OW 8647   6.236   6.788   1.202
 2583SOL    HW1 8648   6.165   6.757   1.265
 2583SOL    HW2 8649   6.221   6.748   1.112
 2584SOL     OW 8650   4.512   4.700   5.410
 2584SOL    HW1 8651   4.473   4.792   5.421
 2584SOL    HW2 8652   4.592   4.690   5.469
 2585SOL     OW 8653   3.463   4.750   6.640
 2585SOL    HW1 8654   3.448   4.656   6.610
 2585SOL    HW2 8655   3.435   4.759   6.736
 2586SOL     OW 8656   1.862   0.670   5.234
 2586SOL    HW1 8657   1.911   0.657   5.148
 2586SOL    HW2 8658   1.775   0.621   5.231
 2587SOL     OW 8659   6.679   1.785   3.327
 2587SOL    HW1 8660   6.642   1.808   3.417
 2587SOL    HW2 8661   6.689   1.686   3.319
 2588SOL     OW 8662   4.624   1.105   4.981
 2588SOL    HW1 8663   4.711   1.111   5.029
 2588SOL    HW2 8664   4.631   1.152   4.893
 2589SOL     OW 8665   1.680   6.837   0.503
 2589SOL    HW1 8666   1.635   6.749   0.490
 2589SOL    HW2 8667   1.621   6.910   0.468
 2590SOL     OW 8668   2.897   5.159   0.214
 2590SOL    HW1 8669   2.838   5.105   0.154
 2590SOL    HW2 8670   2.978   5.188   0.163
 2591SOL     OW 8671   5.709   5.445   4.023
 2591SOL    HW1 8672   5.787   5.506   4.041
 2591SOL    HW2 8673   5.626   5.486   4.061
 2592SOL     OW 8674   2.693   4.398   6.667
 2592SOL    HW1 8675   2.698   4.464   6.592
 2592SOL    HW2 8676   2.715   4.307   6.632
 2593SOL     OW 8677   2.924   4.314   0.534
 2593SOL    HW1 8678   2.914   4.220   0.566
 2593SOL    HW2 8679   2.894   4.377   0.605
 2594SOL     OW 8680   2.029   3.935   4.665
 2594SOL    HW1 8681   2.070   3.994   4.596
 2594SOL    HW2 8682   2.079   3.945   4.752
 2595SOL     OW 8683   1.532   0.487   3.625
 2595SOL    HW1 8684   1.591   0.497   3.704
 2595SOL    HW2 8685   1.516   0.390   3.608
 2596SOL     OW 8686   0.840   2.512   0.103
 2596SOL    HW1 8687   0.813   2.497   0.009
 2596SOL    HW2 8688   0.930   2.470   0.119
 2597SOL     OW 8689   0.305   6.272   6.562
 2597SOL    HW1 8690   0.247   6.282   6.481
 2597SOL    HW2 8691   0.249   6.282   6.645
 2598SOL     OW 8692   5.651   2.764   2.491
 2598SOL    HW1 8693   5.689   2.746   2.582
 2598SOL    HW2 8694   5.618   2.678   2.452
 2599SOL     OW 8695   2.374   6.569   2.278
 2599SOL    HW1 8696   2.458   6.519   2.298
 2599SOL    HW2 8697   2.317   6.572   2.361
 2600SOL     OW 8698   6.151   3.978   4.363
 2600SOL    HW1 8699   6.208   4.052   4.326
 2600SOL    HW2 8700   6.201   3.930   4.435
 2601SOL     OW 8701   0.496   2.128   3.140
 2601SOL    HW1 8702   0.484   2.040   3.095
 2601SOL    HW2 8703   0.408   2.175   3.148
 2602SOL     OW 8704   1.723   5.559   3.770
 2602SOL    HW1 8705   1.749   5.463   3.771
 2602SOL    HW2 8706   1.795   5.612   3.726
 2603SOL     OW 8707   3.139   0.656   2.877
 2603SOL    HW1 8708   3.061   0.675   2.936
 2603SOL    HW2 8709   3.118   0.579   2.817
 2604SOL     OW 8710   4.468   2.163   2.878
 2604SOL    HW1 8711   4.416   2.176   2.962
 2604SOL    HW2 8712   4.541   2.097   2.893
 2605SOL     OW 8713   1.410   3.416   1.960
 2605SOL    HW1 8714   1.325   3.425   2.012
 2605SOL    HW2 8715   1.389   3.426   1.862
 2606SOL     OW 8716   4.154   3.874   0.995
 2606SOL    HW1 8717   4.111   3.960   0.966
 2606SOL    HW2 8718   4.097   3.829   1.064
 2607SOL     OW 8719   2.867   2.273   1.111
 2607SOL    HW1 8720   2.914   2.223   1.184
 2607SOL    HW2 8721   2.777   2.233   1.096
 2608SOL     OW 8722   2.275   5.635   6.358
 2608SOL    HW1 8723   2.182   5.605   6.338
 2608SOL    HW2 8724   2.330   5.631   6.275
 2609SOL     OW 8725   0.073   0.878   1.226
 2609SOL    HW1 8726   0.067   0.975   1.202
 2609SOL    HW2 8727   0.144   0.834   1.172
 2610SOL     OW 8728   1.522   4.586   4.698
 2610SOL    HW1 8729   1.494   4.498   4.736
 2610SOL    HW2 8730   1.570   4.639   4.769
 2611SOL     OW 8731   5.702   0.145   6.565
 2611SOL    HW1 8732   5.614   0.164   6.609
 2611SOL    HW2 8733   5.750   0.230   6.547
 2612SOL     OW 8734   5.904   0.371   5.708
 2612SOL    HW1 8735   5.936   0.430   5.634
 2612SOL    HW2 8736   5.978   0.354   5.772
 2613SOL     OW 8737   1.143   5.947   0.171
 2613SOL    HW1 8738   1.087   5.895   0.107
 2613SOL    HW2 8739   1.239   5.933   0.150
 2614SOL     OW 8740   0.135   1.671   0.016
 2614SOL    HW1 8741   0.217   1.726   0.032
 2614SOL    HW2 8742   0.054   1.723   0.043
 2615SOL     OW 8743   0.915   3.026   0.599
 2615SOL    HW1 8744   0.908   3.065   0.691
 2615SOL    HW2 8745   0.839   3.059   0.543
 2616SOL     OW 8746   1.592   0.282   5.217
 2616SOL    HW1 8747   1.573   0.214   5.288
 2616SOL    HW2 8748   1.554   0.251   5.130
 2617SOL     OW 8749   5.309   0.090   1.230
 2617SOL    HW1 8750   5.352   0.179   1.213
 2617SOL    HW2 8751   5.211   0.097   1.215
 2618SOL     OW 8752   1.753   6.555   6.320
 2618SOL    HW1 8753   1.725   6.479   6.261
 2618SOL    HW2 8754   1.740   6.530   6.416
 2619SOL     OW 8755   4.565   1.058   2.711
 2619SOL    HW1 8756   4.569   1.084   2.614
 2619SOL    HW2 8757   4.570   1.140   2.768
 2620SOL     OW 8758   6.287   0.248   1.526
 2620SOL    HW1 8759   6.346   0.226   1.604
 2620SOL    HW2 8760   6.262   0.163   1.479
 2621SOL     OW 8761   1.795   5.876   1.891
 2621SOL    HW1 8762   1.715   5.819   1.876
 2621SOL    HW2 8763   1.878   5.821   1.878
 2622SOL     OW 8764   3.696   3.352   6.182
 2622SOL    HW1 8765   3.786   3.396   6.178
 2622SOL    HW2 8766   3.707   3.256   6.208
 2623SOL     OW 8767   0.597   6.732   3.232
 2623SOL    HW1 8768   0.696   6.739   3.230
 2623SOL    HW2 8769   0.557   6.802   3.173
 2624SOL     OW 8770   0.030   1.776   4.461
 2624SOL    HW1 8771   0.103   1.767   4.393
 2624SOL    HW2 8772   0.070   1.781   4.553
 2625SOL     OW 8773   1.720   5.280   6.162
 2625SOL    HW1 8774   1.645   5.341   6.188
 2625SOL    HW2 8775   1.757   5.309   6.074
 2626SOL     OW 8776   6.715   5.103   6.164
 2626SOL    HW1 8777   6.637   5.131   6.219
 2626SOL    HW2 8778   6.758   5.023   6.205
 2627SOL     OW 8779   1.698   6.773   5.625
 2627SOL    HW1 8780   1.608   6.815   5.620
 2627SOL    HW2 8781   1.760   6.817   5.560
 2628SOL     OW 8782   0.760   4.784   2.076
 2628SOL    HW1 8783   0.817   4.730   2.139
 2628SOL    HW2 8784   0.669   4.744   2.072
 2629SOL     OW 8785   3.211   3.807   3.312
 2629SOL    HW1 8786   3.135   3.757   3.354
 2629SOL    HW2 8787   3.248   3.753   3.236
 2630SOL     OW 8788   4.013   0.740   3.683
 2630SOL    HW1 8789   3.917   0.757   3.704
 2630SOL    HW2 8790   4.071   0.799   3.740
 2631SOL     OW 8791   6.251   0.778   0.333
 2631SOL    HW1 8792   6.333   0.768   0.388
 2631SOL    HW2 8793   6.205   0.690   0.323
 2632SOL     OW 8794   5.488   4.131   2.342
 2632SOL    HW1 8795   5.411   4.194   2.337
 2632SOL    HW2 8796   5.456   4.038   2.322
 2633SOL     OW 8797   0.092   2.947   5.797
 2633SOL    HW1 8798   0.014   2.951   5.859
 2633SOL    HW2 8799   0.090   3.027   5.737
 2634SOL     OW 8800   6.830   1.157   5.930
 2634SOL    HW1 8801   6.810   1.092   6.003
 2634SOL    HW2 8802   6.844   1.108   5.844
 2635SOL     OW 8803   5.449   5.071   3.390
 2635SOL    HW1 8804   5.541   5.080   3.429
 2635SOL    HW2 8805   5.381   5.085   3.463
 2636SOL     OW 8806   4.006   6.010   5.428
 2636SOL    HW1 8807   4.039   6.035   5.519
 2636SOL    HW2 8808   3.990   6.093   5.375
 2637SOL     OW 8809   0.937   1.999   3.442
 2637SOL    HW1 8810   0.867   2.069   3.457
 2637SOL    HW2 8811   1.011   2.037   3.387
 2638SOL     OW 8812   1.028   6.232   4.392
 2638SOL    HW1 8813   1.110   6.272   4.433
 2638SOL    HW2 8814   1.025   6.254   4.295
 2639SOL     OW 8815   4.182   4.665   5.424
 2639SOL    HW1 8816   4.084   4.666   5.441
 2639SOL    HW2 8817   4.225   4.744   5.467
 2640SOL     OW 8818   1.282   6.705   4.170
 2640SOL    HW1 8819   1.362   6.707   4.110
 2640SOL    HW2 8820   1.311   6.721   4.265
 2641SOL     OW 8821   5.794   3.044   6.377
 2641SOL    HW1 8822   5.732   3.120   6.392
 2641SOL    HW2 8823   5.875   3.076   6.329
 2642SOL     OW 8824   6.261   1.257   3.739
 2642SOL    HW1 8825   6.168   1.258   3.703
 2642SOL    HW2 8826   6.323   1.300   3.674
 2643SOL     OW 8827   2.440   4.861   3.559
 2643SOL    HW1 8828   2.514   4.928   3.550
 2643SOL    HW2 8829   2.461   4.798   3.634
 2644SOL     OW 8830   4.800   4.882   4.147
 2644SOL    HW1 8831   4.728   4.887   4.217
 2644SOL    HW2 8832   4.758   4.862   4.059
 2645SOL     OW 8833   5.256   5.454   3.129
 2645SOL    HW1 8834   5.302   5.536   3.163
 2645SOL    HW2 8835   5.284   5.375   3.184
 2646SOL     OW 8836   0.503   2.726   6.761
 2646SOL    HW1 8837   0.551   2.789   6.700
 2646SOL    HW2 8838   0.491   2.638   6.714
 2647SOL     OW 8839   4.920   0.884   1.688
 2647SOL    HW1 8840   4.846   0.836   1.734
 2647SOL    HW2 8841   4.954   0.829   1.612
 2648SOL     OW 8842   1.001   0.198   6.654
 2648SOL    HW1 8843   1.095   0.192   6.689
 2648SOL    HW2 8844   0.937   0.200   6.731
 2649SOL     OW 8845   5.189   2.158   2.078
 2649SOL    HW1 8846   5.166   2.088   2.145
 2649SOL    HW2 8847   5.108   2.212   2.056
 2650SOL     OW 8848   3.039   6.206   4.422
 2650SOL    HW1 8849   3.019   6.111   4.398
 2650SOL    HW2 8850   2.966   6.265   4.389
 2651SOL     OW 8851   3.940   2.041   4.126
 2651SOL    HW1 8852   4.008   2.105   4.090
 2651SOL    HW2 8853   3.986   1.964   4.170
 2652SOL     OW 8854   4.774   4.460   5.586
 2652SOL    HW1 8855   4.720   4.379   5.567
 2652SOL    HW2 8856   4.864   4.433   5.622
 2653SOL     OW 8857   2.390   5.785   0.245
 2653SOL    HW1 8858   2.407   5.689   0.269
 2653SOL    HW2 8859   2.293   5.797   0.221
 2654SOL     OW 8860   6.525   0.994   0.088
 2654SOL    HW1 8861   6.541   1.041   0.001
 2654SOL    HW2 8862   6.550   1.054   0.163
 2655SOL     OW 8863   4.850   6.316   2.451
 2655SOL    HW1 8864   4.903   6.303   2.535
 2655SOL    HW2 8865   4.753   6.329   2.475
 2656SOL     OW 8866   3.996   6.247   2.555
 2656SOL    HW1 8867   3.967   6.214   2.645
 2656SOL    HW2 8868   4.094   6.267   2.557
 2657SOL     OW 8869   0.784   4.000   0.707
 2657SOL    HW1 8870   0.770   4.097   0.727
 2657SOL    HW2 8871   0.855   3.964   0.767
 2658SOL     OW 8872   3.511   5.045   6.868
 2658SOL    HW1 8873   3.476   5.090   6.786
 2658SOL    HW2 8874   3.606   5.018   6.854
 2659SOL     OW 8875   0.541   2.296   4.760
 2659SOL    HW1 8876   0.491   2.228   4.707
 2659SOL    HW2 8877   0.527   2.386   4.720
 2660SOL     OW 8878   0.469   1.986   2.556
 2660SOL    HW1 8879   0.406   1.936   2.616
 2660SOL    HW2 8880   0.435   1.985   2.462
 2661SOL     OW 8881   1.907   1.242   0.893
 2661SOL    HW1 8882   1.900   1.144   0.914
 2661SOL    HW2 8883   1.888   1.257   0.796
 2662SOL     OW 8884   2.376   0.653   2.083
 2662SOL    HW1 8885   2.329   0.621   2.001
 2662SOL    HW2 8886   2.446   0.719   2.057
 2663SOL     OW 8887   4.081   6.294   0.594
 2663SOL    HW1 8888   4.099   6.350   0.675
 2663SOL    HW2 8889   4.037   6.208   0.621
 2664SOL     OW 8890   4.593   3.781   5.583
 2664SOL    HW1 8891   4.545   3.858   5.624
 2664SOL    HW2 8892   4.682   3.771   5.627
 2665SOL     OW 8893   1.749   3.897   4.618
 2665SOL    HW1 8894   1.754   3.839   4.537
 2665SOL    HW2 8895   1.841   3.922   4.647
 2666SOL     OW 8896   2.119   3.787   2.258
 2666SOL    HW1 8897   2.038   3.827   2.301
 2666SOL    HW2 8898   2.094   3.751   2.168
 2667SOL     OW 8899   6.849   3.267   4.775
 2667SOL    HW1 8900   6.826   3.270   4.872
 2667SOL    HW2 8901   6.799   3.192   4.731
 2668SOL     OW 8902   6.471   0.433   3.773
 2668SOL    HW1 8903   6.390   0.491   3.770
 2668SOL    HW2 8904   6.459   0.364   3.845
 2669SOL     OW 8905   2.526   0.377   6.943
 2669SOL    HW1 8906   2.577   0.315   7.003
 2669SOL    HW2 8907   2.581   0.458   6.923
 2670SOL     OW 8908   0.406   6.698   6.879
 2670SOL    HW1 8909   0.452   6.641   6.948
 2670SOL    HW2 8910   0.384   6.642   6.799
 2671SOL     OW 8911   5.068   4.414   6.082
 2671SOL    HW1 8912   5.008   4.335   6.069
 2671SOL    HW2 8913   5.082   4.430   6.179
 2672SOL     OW 8914   3.414   0.736   1.521
 2672SOL    HW1 8915   3.510   0.709   1.512
 2672SOL    HW2 8916   3.408   0.820   1.576
 2673SOL     OW 8917   4.278   0.342   2.877
 2673SOL    HW1 8918   4.275   0.426   2.823
 2673SOL    HW2 8919   4.195   0.290   2.862
 2674SOL     OW 8920   0.265   5.072   2.290
 2674SOL    HW1 8921   0.316   4.988   2.273
 2674SOL    HW2 8922   0.176   5.067   2.245
 2675SOL     OW 8923   5.603   0.358   4.052
 2675SOL    HW1 8924   5.597   0.457   4.063
 2675SOL    HW2 8925   5.654   0.319   4.129
 2676SOL     OW 8926   3.824   4.024   3.015
 2676SOL    HW1 8927   3.876   4.007   3.098
 2676SOL    HW2 8928   3.734   4.061   3.039
 2677SOL     OW 8929   2.421   4.756   1.063
 2677SOL    HW1 8930   2.334   4.804   1.056
 2677SOL    HW2 8931   2.406   4.668   1.108
 2678SOL     OW 8932   4.123   1.939   2.923
 2678SOL    HW1 8933   4.134   1.841   2.909
 2678SOL    HW2 8934   4.187   1.988   2.864
 2679SOL     OW 8935   2.158   3.903   3.384
 2679SOL    HW1 8936   2.062   3.885   3.363
 2679SOL    HW2 8937   2.192   3.975   3.324
 2680SOL     OW 8938   6.280   1.434   0.237
 2680SOL    HW1 8939   6.341   1.457   0.161
 2680SOL    HW2 8940   6.213   1.367   0.206
 2681SOL     OW 8941   1.974   1.816   5.140
 2681SOL    HW1 8942   2.048   1.762   5.100
 2681SOL    HW2 8943   1.910   1.844   5.069
 2682SOL     OW 8944   4.081   4.054   1.765
 2682SOL    HW1 8945   4.065   4.010   1.854
 2682SOL    HW2 8946   4.054   3.991   1.692
 2683SOL     OW 8947   2.496   4.621   2.000
 2683SOL    HW1 8948   2.589   4.589   2.016
 2683SOL    HW2 8949   2.437   4.591   2.076
 2684SOL     OW 8950   6.581   6.590   3.671
 2684SOL    HW1 8951   6.574   6.656   3.747
 2684SOL    HW2 8952   6.631   6.632   3.595
 2685SOL     OW 8953   1.327   5.656   5.654
 2685SOL    HW1 8954   1.371   5.616   5.574
 2685SOL    HW2 8955   1.323   5.755   5.643
 2686SOL     OW 8956   0.504   1.316   5.054
 2686SOL    HW1 8957   0.457   1.289   5.138
 2686SOL    HW2 8958   0.567   1.390   5.073
 2687SOL     OW 8959   4.185   1.983   1.436
 2687SOL    HW1 8960   4.196   1.939   1.526
 2687SOL    HW2 8961   4.195   1.913   1.364
 2688SOL     OW 8962   3.914   2.893   6.059
 2688SOL    HW1 8963   3.826   2.939   6.066
 2688SOL    HW2 8964   3.942   2.891   5.963
 2689SOL     OW 8965   1.139   4.140   3.392
 2689SOL    HW1 8966   1.200   4.094   3.328
 2689SOL    HW2 8967   1.181   4.227   3.420
 2690SOL     OW 8968   3.718   1.378   5.484
 2690SOL    HW1 8969   3.776   1.459   5.477
 2690SOL    HW2 8970   3.774   1.297   5.495
 2691SOL     OW 8971   6.550   4.037   4.299
 2691SOL    HW1 8972   6.532   3.952   4.250
 2691SOL    HW2 8973   6.465   4.069   4.342
 2692SOL     OW 8974   2.422   5.855   2.268
 2692SOL    HW1 8975   2.416   5.898   2.178
 2692SOL    HW2 8976   2.518   5.841   2.292
 2693SOL     OW 8977   1.894   5.561   2.762
 2693SOL    HW1 8978   1.949   5.588   2.682
 2693SOL    HW2 8979   1.950   5.568   2.845
 2694SOL     OW 8980   2.689   0.661   2.858
 2694SOL    HW1 8981   2.721   0.676   2.952
 2694SOL    HW2 8982   2.747   0.592   2.815
 2695SOL     OW 8983   6.962   5.787   3.201
 2695SOL    HW1 8984   6.899   5.785   3.123
 2695SOL    HW2 8985   6.977   5.694   3.235
 2696SOL     OW 8986   5.524   4.831   6.263
 2696SOL    HW1 8987   5.576   4.898   6.317
 2696SOL    HW2 8988   5.452   4.791   6.320
 2697SOL     OW 8989   4.409   2.559   0.012
 2697SOL    HW1 8990   4.415   2.546   0.111
 2697SOL    HW2 8991   4.393   2.470   6.993
 2698SOL     OW 8992   1.842   4.573   6.056
 2698SOL    HW1 8993   1.819   4.647   6.118
 2698SOL    HW2 8994   1.781   4.495   6.071
 2699SOL     OW 8995   2.725   6.289   1.910
 2699SOL    HW1 8996   2.808   6.307   1.962
 2699SOL    HW2 8997   2.720   6.352   1.832
 2700SOL     OW 8998   3.424   1.863   1.828
 2700SOL    HW1 8999   3.468   1.952   1.837
 2700SOL    HW2 9000   3.406   1.845   1.731
 2701SOL     OW 9001   5.212   3.162   4.810
 2701SOL    HW1 9002   5.119   3.198   4.801
 2701SOL    HW2 9003   5.209   3.071   4.851
 2702SOL     OW 9004   2.834   0.847   4.544
 2702SOL    HW1 9005   2.821   0.847   4.643
 2702SOL    HW2 9006   2.764   0.790   4.501
 2703SOL     OW 9007   1.816   6.615   2.746
 2703SOL    HW1 9008   1.785   6.551   2.816
 2703SOL    HW2 9009   1.780   6.706   2.765
 2704SOL     OW 9010   5.421   0.400   3.766
 2704SOL    HW1 9011   5.413   0.314   3.817
 2704SOL    HW2 9012   5.513   0.407   3.727
 2705SOL     OW 9013   0.323   0.600   5.571
 2705SOL    HW1 9014   0.261   0.645   5.507
 2705SOL    HW2 9015   0.305   0.632   5.664
 2706SOL     OW 9016   0.236   3.430   3.603
 2706SOL    HW1 9017   0.228   3.481   3.517
 2706SOL    HW2 9018   0.172   3.353   3.602
 2707SOL     OW 9019   4.176   0.819   3.136
 2707SOL    HW1 9020   4.141   0.727   3.115
 2707SOL    HW2 9021   4.133   0.886   3.076
 2708SOL     OW 9022   6.074   3.561   6.305
 2708SOL    HW1 9023   6.049   3.585   6.211
 2708SOL    HW2 9024   6.015   3.488   6.338
 2709SOL     OW 9025   5.001   1.425   5.454
 2709SOL    HW1 9026   4.909   1.409   5.420
 2709SOL    HW2 9027   5.032   1.515   5.426
 2710SOL     OW 9028   1.245   2.793   4.194
 2710SOL    HW1 9029   1.148   2.804   4.173
 2710SOL    HW2 9030   1.255   2.763   4.289
 2711SOL     OW 9031   3.300   1.148   1.829
 2711SOL    HW1 9032   3.330   1.074   1.769
 2711SOL    HW2 9033   3.326   1.236   1.789
 2712SOL     OW 9034   3.842   6.205   2.106
 2712SOL    HW1 9035   3.821   6.122   2.157
 2712SOL    HW2 9036   3.765   6.227   2.046
 2713SOL     OW 9037   4.056   4.977   6.123
 2713SOL    HW1 9038   3.966   5.013   6.098
 2713SOL    HW2 9039   4.046   4.911   6.198
 2714SOL     OW 9040   3.209   4.822   6.246
 2714SOL    HW1 9041   3.243   4.747   6.190
 2714SOL    HW2 9042   3.284   4.861   6.300
 2715SOL     OW 9043   4.028   1.112   6.943
 2715SOL    HW1 9044   4.010   1.017   6.970
 2715SOL    HW2 9045   3.943   1.153   6.910
 2716SOL     OW 9046   3.679   1.131   3.310
 2716SOL    HW1 9047   3.776   1.112   3.298
 2716SOL    HW2 9048   3.668   1.203   3.379
 2717SOL     OW 9049   0.616   1.104   2.491
 2717SOL    HW1 9050   0.663   1.023   2.456
 2717SOL    HW2 9051   0.682   1.178   2.504
 2718SOL     OW 9052   7.011   0.768   5.799
 2718SOL    HW1 9053   6.978   0.854   5.761
 2718SOL    HW2 9054   0.076   0.781   5.839
 2719SOL     OW 9055   1.908   4.351   2.388
 2719SOL    HW1 9056   1.963   4.409   2.448
 2719SOL    HW2 9057   1.834   4.406   2.348
 2720SOL     OW 9058   2.380   6.322   6.770
 2720SOL    HW1 9059   2.456   6.303   6.707
 2720SOL    HW2 9060   2.307   6.369   6.720
 2721SOL     OW 9061   3.159   6.222   2.021
 2721SOL    HW1 9062   3.073   6.271   2.006
 2721SOL    HW2 9063   3.236   6.280   1.995
 2722SOL     OW 9064   4.385   6.213   0.003
 2722SOL    HW1 9065   4.437   6.291   6.991
 2722SOL    HW2 9066   4.378   6.142   6.958
 2723SOL     OW 9067   3.497   6.510   6.160
 2723SOL    HW1 9068   3.572   6.574   6.176
 2723SOL    HW2 9069   3.516   6.456   6.078
 2724SOL     OW 9070   0.789   6.537   1.227
 2724SOL    HW1 9071   0.702   6.532   1.178
 2724SOL    HW2 9072   0.772   6.546   1.325
 2725SOL     OW 9073   6.091   3.894   4.885
 2725SOL    HW1 9074   6.100   3.946   4.969
 2725SOL    HW2 9075   6.138   3.806   4.894
 2726SOL     OW 9076   6.251   1.911   2.056
 2726SOL    HW1 9077   6.173   1.974   2.060
 2726SOL    HW2 9078   6.260   1.876   1.963
 2727SOL     OW 9079   1.537   4.989   4.005
 2727SOL    HW1 9080   1.541   4.981   3.905
 2727SOL    HW2 9081   1.623   5.025   4.039
 2728SOL     OW 9082   5.236   5.082   5.525
 2728SOL    HW1 9083   5.233   5.167   5.578
 2728SOL    HW2 9084   5.222   5.004   5.586
 2729SOL     OW 9085   5.332   6.945   6.209
 2729SOL    HW1 9086   5.392   7.020   6.239
 2729SOL    HW2 9087   5.257   6.935   6.275
 2730SOL     OW 9088   0.984   6.054   1.983
 2730SOL    HW1 9089   1.010   6.100   2.067
 2730SOL    HW2 9090   0.997   5.955   1.994
 2731SOL     OW 9091   3.522   3.960   3.850
 2731SOL    HW1 9092   3.442   4.018   3.840
 2731SOL    HW2 9093   3.570   3.983   3.935
 2732SOL     OW 9094   5.288   0.881   2.019
 2732SOL    HW1 9095   5.326   0.789   2.016
 2732SOL    HW2 9096   5.334   0.939   1.952
 2733SOL     OW 9097   1.491   6.634   6.770
 2733SOL    HW1 9098   1.557   6.673   6.706
 2733SOL    HW2 9099   1.451   6.551   6.730
 2734SOL     OW 9100   3.226   6.408   2.313
 2734SOL    HW1 9101   3.324   6.394   2.301
 2734SOL    HW2 9102   3.176   6.339   2.262
 2735SOL     OW 9103   0.487   1.664   2.225
 2735SOL    HW1 9104   0.433   1.718   2.160
 2735SOL    HW2 9105   0.566   1.717   2.254
 2736SOL     OW 9106   5.624   4.410   2.764
 2736SOL    HW1 9107   5.659   4.482   2.824
 2736SOL    HW2 9108   5.527   4.395   2.782
 2737SOL     OW 9109   2.690   1.025   5.399
 2737SOL    HW1 9110   2.592   1.008   5.405
 2737SOL    HW2 9111   2.740   0.942   5.423
 2738SOL     OW 9112   5.048   6.515   1.528
 2738SOL    HW1 9113   4.985   6.510   1.451
 2738SOL    HW2 9114   5.118   6.584   1.509
 2739SOL     OW 9115   6.365   5.676   1.659
 2739SOL    HW1 9116   6.448   5.669   1.714
 2739SOL    HW2 9117   6.342   5.773   1.647
 2740SOL     OW 9118   6.397   5.777   3.947
 2740SOL    HW1 9119   6.448   5.774   3.861
 2740SOL    HW2 9120   6.355   5.688   3.964
 2741SOL     OW 9121   1.300   1.477   5.679
 2741SOL    HW1 9122   1.204   1.504   5.691
 2741SOL    HW2 9123   1.339   1.525   5.600
 2742SOL     OW 9124   2.874   5.900   1.924
 2742SOL    HW1 9125   2.864   5.941   1.833
 2742SOL    HW2 9126   2.796   5.927   1.981
 2743SOL     OW 9127   5.576   3.319   2.775
 2743SOL    HW1 9128   5.565   3.419   2.779
 2743SOL    HW2 9129   5.626   3.295   2.691
 2744SOL     OW 9130   3.020   3.800   2.722
 2744SOL    HW1 9131   3.042   3.881   2.668
 2744SOL    HW2 9132   2.949   3.747   2.675
 2745SOL     OW 9133   0.676   6.443   0.503
 2745SOL    HW1 9134   0.657   6.533   0.464
 2745SOL    HW2 9135   0.739   6.453   0.581
 2746SOL     OW 9136   1.157   1.186   3.278
 2746SOL    HW1 9137   1.152   1.254   3.205
 2746SOL    HW2 9138   1.146   1.094   3.239
 2747SOL     OW 9139   4.082   5.353   0.549
 2747SOL    HW1 9140   4.064   5.437   0.599
 2747SOL    HW2 9141   4.124   5.286   0.610
 2748SOL     OW 9142   4.223   6.286   1.111
 2748SOL    HW1 9143   4.279   6.365   1.135
 2748SOL    HW2 9144   4.141   6.284   1.168
 2749SOL     OW 9145   3.147   3.131   0.011
 2749SOL    HW1 9146   3.067   3.107   6.981
 2749SOL    HW2 9147   3.220   3.066   7.017
 2750SOL     OW 9148   2.494   6.198   1.792
 2750SOL    HW1 9149   2.540   6.269   1.845
 2750SOL    HW2 9150   2.433   6.147   1.851
 2751SOL     OW 9151   5.928   3.829   1.052
 2751SOL    HW1 9152   6.010   3.796   1.005
 2751SOL    HW2 9153   5.847   3.790   1.008
 2752SOL     OW 9154   4.209   5.135   0.158
 2752SOL    HW1 9155   4.153   5.206   0.200
 2752SOL    HW2 9156   4.302   5.141   0.193
 2753SOL     OW 9157   6.139   6.131   5.570
 2753SOL    HW1 9158   6.182   6.217   5.542
 2753SOL    HW2 9159   6.211   6.064   5.590
 2754SOL     OW 9160   1.226   6.898   6.331
 2754SOL    HW1 9161   1.173   6.851   6.260
 2754SOL    HW2 9162   1.164   6.942   6.396
 2755SOL     OW 9163   2.632   0.304   2.702
 2755SOL    HW1 9164   2.689   0.222   2.708
 2755SOL    HW2 9165   2.690   0.384   2.682
 2756SOL     OW 9166   4.678   6.047   0.777
 2756SOL    HW1 9167   4.679   6.136   0.731
 2756SOL    HW2 9168   4.640   5.978   0.717
 2757SOL     OW 9169   0.229   5.520   1.388
 2757SOL    HW1 9170   0.242   5.530   1.289
 2757SOL    HW2 9171   0.268   5.599   1.434
 2758SOL     OW 9172   4.821   0.652   5.790
 2758SOL    HW1 9173   4.863   0.562   5.803
 2758SOL    HW2 9174   4.882   0.709   5.734
 2759SOL     OW 9175   5.497   5.627   4.780
 2759SOL    HW1 9176   5.552   5.624   4.863
 2759SOL    HW2 9177   5.487   5.722   4.750
 2760SOL     OW 9178   2.796   5.527   3.308
 2760SOL    HW1 9179   2.750   5.539   3.396
 2760SOL    HW2 9180   2.736   5.556   3.234
 2761SOL     OW 9181   2.173   5.709   3.281
 2761SOL    HW1 9182   2.263   5.742   3.310
 2761SOL    HW2 9183   2.115   5.786   3.256
 2762SOL     OW 9184   0.863   6.464   4.786
 2762SOL    HW1 9185   0.950   6.433   4.824
 2762SOL    HW2 9186   0.878   6.544   4.728
 2763SOL     OW 9187   5.518   1.889   1.904
 2763SOL    HW1 9188   5.462   1.839   1.838
 2763SOL    HW2 9189   5.472   1.974   1.930
 2764SOL     OW 9190   6.271   1.241   2.281
 2764SOL    HW1 9191   6.214   1.310   2.236
 2764SOL    HW2 9192   6.223   1.206   2.361
 2765SOL     OW 9193   5.861   1.498   1.998
 2765SOL    HW1 9194   5.833   1.413   2.044
 2765SOL    HW2 9195   5.819   1.576   2.044
 2766SOL     OW 9196   6.021   0.776   2.428
 2766SOL    HW1 9197   5.982   0.817   2.510
 2766SOL    HW2 9198   5.999   0.834   2.349
 2767SOL     OW 9199   5.479   4.518   6.351
 2767SOL    HW1 9200   5.565   4.497   6.397
 2767SOL    HW2 9201   5.489   4.503   6.252
 2768SOL     OW 9202   5.764   1.277   6.574
 2768SOL    HW1 9203   5.713   1.336   6.637
 2768SOL    HW2 9204   5.829   1.222   6.626
 2769SOL     OW 9205   0.778   3.917   1.396
 2769SOL    HW1 9206   0.800   3.909   1.493
 2769SOL    HW2 9207   0.853   3.879   1.341
 2770SOL     OW 9208   0.109   5.883   1.550
 2770SOL    HW1 9209   0.076   5.912   1.460
 2770SOL    HW2 9210   0.108   5.962   1.611
 2771SOL     OW 9211   4.753   1.290   1.784
 2771SOL    HW1 9212   4.672   1.293   1.725
 2771SOL    HW2 9213   4.752   1.205   1.837
 2772SOL     OW 9214   3.348   2.782   5.909
 2772SOL    HW1 9215   3.312   2.840   5.836
 2772SOL    HW2 9216   3.288   2.704   5.923
 2773SOL     OW 9217   3.594   3.723   6.419
 2773SOL    HW1 9218   3.499   3.745   6.441
 2773SOL    HW2 9219   3.596   3.661   6.341
 2774SOL     OW 9220   5.975   3.581   2.858
 2774SOL    HW1 9221   6.019   3.653   2.804
 2774SOL    HW2 9222   5.997   3.492   2.818
 2775SOL     OW 9223   0.057   6.171   1.684
 2775SOL    HW1 9224   0.142   6.196   1.730
 2775SOL    HW2 9225   0.022   6.251   1.635
 2776SOL     OW 9226   2.728   5.918   6.079
 2776SOL    HW1 9227   2.759   5.990   6.016
 2776SOL    HW2 9228   2.798   5.847   6.085
 2777SOL     OW 9229   3.325   1.110   2.703
 2777SOL    HW1 9230   3.326   1.196   2.754
 2777SOL    HW2 9231   3.416   1.070   2.703
 2778SOL     OW 9232   2.211   1.842   5.680
 2778SOL    HW1 9233   2.273   1.768   5.706
 2778SOL    HW2 9234   2.258   1.929   5.687
 2779SOL     OW 9235   5.923   1.091   6.732
 2779SOL    HW1 9236   5.992   1.031   6.690
 2779SOL    HW2 9237   5.900   1.056   6.823
 2780SOL     OW 9238   5.000   5.302   6.826
 2780SOL    HW1 9239   4.926   5.271   6.767
 2780SOL    HW2 9240   5.045   5.381   6.785
 2781SOL     OW 9241   5.188   4.539   0.541
 2781SOL    HW1 9242   5.105   4.592   0.556
 2781SOL    HW2 9243   5.170   4.466   0.475
 2782SOL     OW 9244   2.422   2.456   5.987
 2782SOL    HW1 9245   2.342   2.396   5.977
 2782SOL    HW2 9246   2.478   2.423   6.062
 2783SOL     OW 9247   0.500   4.946   5.429
 2783SOL    HW1 9248   0.535   5.023   5.375
 2783SOL    HW2 9249   0.576   4.904   5.479
 2784SOL     OW 9250   1.760   1.608   1.984
 2784SOL    HW1 9251   1.805   1.692   2.012
 2784SOL    HW2 9252   1.686   1.629   1.919
 2785SOL     OW 9253   6.414   0.887   0.885
 2785SOL    HW1 9254   6.372   0.924   0.968
 2785SOL    HW2 9255   6.381   0.936   0.805
 2786SOL     OW 9256   4.002   6.525   1.158
 2786SOL    HW1 9257   3.943   6.507   1.079
 2786SOL    HW2 9258   3.948   6.518   1.242
 2787SOL     OW 9259   2.564   2.798   5.646
 2787SOL    HW1 9260   2.615   2.723   5.602
 2787SOL    HW2 9261   2.474   2.765   5.672
 2788SOL     OW 9262   0.991   3.667   0.909
 2788SOL    HW1 9263   1.006   3.581   0.959
 2788SOL    HW2 9264   0.947   3.646   0.821
 2789SOL     OW 9265   0.569   2.481   4.197
 2789SOL    HW1 9266   0.657   2.473   4.151
 2789SOL    HW2 9267   0.566   2.419   4.276
 2790SOL     OW 9268   3.920   5.536   3.122
 2790SOL    HW1 9269   3.915   5.623   3.171
 2790SOL    HW2 9270   4.016   5.513   3.106
 2791SOL     OW 9271   1.704   2.926   4.196
 2791SOL    HW1 9272   1.606   2.941   4.208
 2791SOL    HW2 9273   1.723   2.906   4.100
 2792SOL     OW 9274   1.231   2.158   5.590
 2792SOL    HW1 9275   1.229   2.180   5.492
 2792SOL    HW2 9276   1.303   2.091   5.607
 2793SOL     OW 9277   4.653   1.496   3.377
 2793SOL    HW1 9278   4.565   1.542   3.368
 2793SOL    HW2 9279   4.688   1.507   3.470
 2794SOL     OW 9280   0.873   0.943   0.915
 2794SOL    HW1 9281   0.788   0.914   0.870
 2794SOL    HW2 9282   0.945   0.877   0.896
 2795SOL     OW 9283   2.764   4.107   1.398
 2795SOL    HW1 9284   2.773   4.203   1.421
 2795SOL    HW2 9285   2.693   4.096   1.328
 2796SOL     OW 9286   5.348   3.715   2.562
 2796SOL    HW1 9287   5.320   3.758   2.475
 2796SOL    HW2 9288   5.328   3.778   2.637
 2797SOL     OW 9289   4.658   4.682   4.918
 2797SOL    HW1 9290   4.559   4.694   4.933
 2797SOL    HW2 9291   4.672   4.623   4.839
 2798SOL     OW 9292   1.138   3.894   4.432
 2798SOL    HW1 9293   1.191   3.905   4.348
 2798SOL    HW2 9294   1.187   3.833   4.494
 2799SOL     OW 9295   6.325   4.753   5.852
 2799SOL    HW1 9296   6.397   4.743   5.921
 2799SOL    HW2 9297   6.238   4.724   5.890
 2800SOL     OW 9298   3.061   4.082   6.742
 2800SOL    HW1 9299   3.080   4.092   6.644
 2800SOL    HW2 9300   3.058   4.173   6.784
 2801SOL     OW 9301   5.011   5.787   2.253
 2801SOL    HW1 9302   4.975   5.859   2.193
 2801SOL    HW2 9303   5.032   5.706   2.199
 2802SOL     OW 9304   4.533   1.430   6.107
 2802SOL    HW1 9305   4.520   1.503   6.174
 2802SOL    HW2 9306   4.444   1.404   6.070
 2803SOL     OW 9307   2.889   6.410   6.693
 2803SOL    HW1 9308   2.862   6.419   6.597
 2803SOL    HW2 9309   2.809   6.421   6.752
 2804SOL     OW 9310   6.863   4.591   3.344
 2804SOL    HW1 9311   6.856   4.667   3.280
 2804SOL    HW2 9312   6.808   4.514   3.310
 2805SOL     OW 9313   5.450   3.505   0.197
 2805SOL    HW1 9314   5.439   3.420   0.146
 2805SOL    HW2 9315   5.381   3.571   0.168
 2806SOL     OW 9316   6.266   5.423   3.456
 2806SOL    HW1 9317   6.196   5.392   3.520
 2806SOL    HW2 9318   6.269   5.523   3.456
 2807SOL     OW 9319   4.509   5.119   3.412
 2807SOL    HW1 9320   4.527   5.028   3.375
 2807SOL    HW2 9321   4.559   5.187   3.360
 2808SOL     OW 9322   5.320   0.418   4.415
 2808SOL    HW1 9323   5.293   0.342   4.357
 2808SOL    HW2 9324   5.298   0.398   4.511
 2809SOL     OW 9325   5.319   2.596   0.711
 2809SOL    HW1 9326   5.228   2.559   0.690
 2809SOL    HW2 9327   5.339   2.583   0.808
 2810SOL     OW 9328   2.199   6.958   5.524
 2810SOL    HW1 9329   2.119   6.966   5.584
 2810SOL    HW2 9330   2.230   0.024   5.498
 2811SOL     OW 9331   6.933   1.611   3.473
 2811SOL    HW1 9332   6.898   1.695   3.514
 2811SOL    HW2 9333   7.022   1.628   3.431
 2812SOL     OW 9334   4.874   3.514   2.373
 2812SOL    HW1 9335   4.778   3.532   2.352
 2812SOL    HW2 9336   4.921   3.484   2.290
 2813SOL     OW 9337   5.730   0.987   6.480
 2813SOL    HW1 9338   5.772   0.971   6.570
 2813SOL    HW2 9339   5.736   1.085   6.458
 2814SOL     OW 9340   4.755   4.069   5.184
 2814SOL    HW1 9341   4.661   4.068   5.219
 2814SOL    HW2 9342   4.788   4.163   5.180
 2815SOL     OW 9343   0.278   0.988   5.257
 2815SOL    HW1 9344   0.303   0.902   5.212
 2815SOL    HW2 9345   0.218   0.968   5.334
 2816SOL     OW 9346   5.740   6.971   3.336
 2816SOL    HW1 9347   5.816   7.010   3.285
 2816SOL    HW2 9348   5.741   7.006   3.430
 2817SOL     OW 9349   0.763   1.755   1.608
 2817SOL    HW1 9350   0.758   1.850   1.638
 2817SOL    HW2 9351   0.852   1.738   1.567
 2818SOL     OW 9352   0.276   4.507   5.061
 2818SOL    HW1 9353   0.191   4.462   5.088
 2818SOL    HW2 9354   0.307   4.567   5.135
 2819SOL     OW 9355   0.115   2.863   1.205
 2819SOL    HW1 9356   0.194   2.831   1.153
 2819SOL    HW2 9357   0.114   2.963   1.206
 2820SOL     OW 9358   6.517   3.190   4.089
 2820SOL    HW1 9359   6.575   3.119   4.050
 2820SOL    HW2 9360   6.516   3.182   4.189
 2821SOL     OW 9361   1.510   4.136   4.395
 2821SOL    HW1 9362   1.429   4.194   4.384
 2821SOL    HW2 9363   1.533   4.130   4.493
 2822SOL     OW 9364   4.723   1.909   6.736
 2822SOL    HW1 9365   4.785   1.983   6.707
 2822SOL    HW2 9366   4.770   1.849   6.800
 2823SOL     OW 9367   1.955   6.656   3.162
 2823SOL    HW1 9368   2.053   6.676   3.157
 2823SOL    HW2 9369   1.938   6.566   3.122
 2824SOL     OW 9370   3.092   1.449   5.153
 2824SOL    HW1 9371   3.126   1.447   5.247
 2824SOL    HW2 9372   2.998   1.483   5.153
 2825SOL     OW 9373   6.121   5.823   1.136
 2825SOL    HW1 9374   6.204   5.873   1.113
 2825SOL    HW2 9375   6.046   5.853   1.077
 2826SOL     OW 9376   4.876   1.933   4.347
 2826SOL    HW1 9377   4.822   1.931   4.263
 2826SOL    HW2 9378   4.817   1.914   4.425
 2827SOL     OW 9379   5.493   0.715   5.436
 2827SOL    HW1 9380   5.462   0.636   5.382
 2827SOL    HW2 9381   5.523   0.787   5.374
 2828SOL     OW 9382   3.671   1.394   5.215
 2828SOL    HW1 9383   3.614   1.476   5.219
 2828SOL    HW2 9384   3.694   1.364   5.307
 2829SOL     OW 9385   2.123   6.612   6.614
 2829SOL    HW1 9386   2.102   6.519   6.644
 2829SOL    HW2 9387   2.164   6.609   6.523
 2830SOL     OW 9388   3.783   3.686   0.073
 2830SOL    HW1 9389   3.709   3.673   0.138
 2830SOL    HW2 9390   3.863   3.634   0.102
 2831SOL     OW 9391   5.992   6.133   4.651
 2831SOL    HW1 9392   6.083   6.139   4.691
 2831SOL    HW2 9393   5.924   6.153   4.722
 2832SOL     OW 9394   0.298   0.893   2.305
 2832SOL    HW1 9395   0.353   0.976   2.304
 2832SOL    HW2 9396   0.233   0.896   2.229
 2833SOL     OW 9397   6.310   2.986   2.053
 2833SOL    HW1 9398   6.319   3.075   2.008
 2833SOL    HW2 9399   6.221   2.947   2.030
 2834SOL     OW 9400   3.869   1.163   5.551
 2834SOL    HW1 9401   3.855   1.076   5.504
 2834SOL    HW2 9402   3.919   1.147   5.637
 2835SOL     OW 9403   0.111   6.439   2.701
 2835SOL    HW1 9404   0.053   6.519   2.685
 2835SOL    HW2 9405   0.183   6.437   2.632
 2836SOL     OW 9406   6.947   0.653   1.166
 2836SOL    HW1 9407   7.015   0.724   1.184
 2836SOL    HW2 9408   6.964   0.574   1.226
 2837SOL     OW 9409   5.312   3.881   3.798
 2837SOL    HW1 9410   5.408   3.856   3.812
 2837SOL    HW2 9411   5.286   3.951   3.864
 2838SOL     OW 9412   3.268   4.894   2.765
 2838SOL    HW1 9413   3.262   4.903   2.666
 2838SOL    HW2 9414   3.360   4.917   2.796
 2839SOL     OW 9415   5.443   2.062   1.308
 2839SOL    HW1 9416   5.424   2.096   1.400
 2839SOL    HW2 9417   5.542   2.052   1.295
 2840SOL     OW 9418   6.602   1.510   5.132
 2840SOL    HW1 9419   6.649   1.422   5.126
 2840SOL    HW2 9420   6.655   1.572   5.190
 2841SOL     OW 9421   0.804   6.582   1.497
 2841SOL    HW1 9422   0.737   6.582   1.570
 2841SOL    HW2 9423   0.858   6.498   1.501
 2842SOL     OW 9424   0.323   3.944   2.823
 2842SOL    HW1 9425   0.387   3.903   2.888
 2842SOL    HW2 9426   0.230   3.911   2.841
 2843SOL     OW 9427   4.037   1.198   4.535
 2843SOL    HW1 9428   3.997   1.107   4.547
 2843SOL    HW2 9429   4.085   1.201   4.447
 2844SOL     OW 9430   7.022   4.107   6.517
 2844SOL    HW1 9431   7.018   4.123   6.418
 2844SOL    HW2 9432   6.986   4.187   6.565
 2845SOL     OW 9433   0.511   4.515   5.961
 2845SOL    HW1 9434   0.479   4.520   5.866
 2845SOL    HW2 9435   0.603   4.554   5.968
 2846SOL     OW 9436   5.050   2.004   6.444
 2846SOL    HW1 9437   4.971   1.974   6.498
 2846SOL    HW2 9438   5.134   1.985   6.494
 2847SOL     OW 9439   5.565   4.269   4.342
 2847SOL    HW1 9440   5.626   4.195   4.315
 2847SOL    HW2 9441   5.602   4.316   4.422
 2848SOL     OW 9442   0.947   5.537   4.549
 2848SOL    HW1 9443   1.045   5.534   4.570
 2848SOL    HW2 9444   0.896   5.490   4.620
 2849SOL     OW 9445   2.947   2.560   1.017
 2849SOL    HW1 9446   3.033   2.576   0.968
 2849SOL    HW2 9447   2.942   2.464   1.044
 2850SOL     OW 9448   3.595   0.657   0.313
 2850SOL    HW1 9449   3.534   0.644   0.391
 2850SOL    HW2 9450   3.549   0.714   0.244
 2851SOL     OW 9451   1.370   4.183   5.822
 2851SOL    HW1 9452   1.299   4.238   5.777
 2851SOL    HW2 9453   1.427   4.140   5.753
 2852SOL     OW 9454   0.183   3.252   6.875
 2852SOL    HW1 9455   0.201   3.343   6.912
 2852SOL    HW2 9456   0.241   3.237   6.794
 2853SOL     OW 9457   3.632   3.398   0.933
 2853SOL    HW1 9458   3.726   3.383   0.961
 2853SOL    HW2 9459   3.604   3.491   0.960
 2854SOL     OW 9460   2.394   1.186   3.636
 2854SOL    HW1 9461   2.381   1.167   3.539
 2854SOL    HW2 9462   2.465   1.256   3.648
 2855SOL     OW 9463   2.407   0.942   5.021
 2855SOL    HW1 9464   2.361   1.031   5.019
 2855SOL    HW2 9465   2.404   0.906   5.115
 2856SOL     OW 9466   2.500   2.715   5.201
 2856SOL    HW1 9467   2.449   2.644   5.152
 2856SOL    HW2 9468   2.469   2.805   5.170
 2857SOL     OW 9469   3.189   3.464   1.838
 2857SOL    HW1 9470   3.142   3.375   1.835
 2857SOL    HW2 9471   3.276   3.454   1.887
 2858SOL     OW 9472   0.283   3.848   2.552
 2858SOL    HW1 9473   0.302   3.887   2.642
 2858SOL    HW2 9474   0.206   3.896   2.510
 2859SOL     OW 9475   5.515   0.271   0.866
 2859SOL    HW1 9476   5.587   0.273   0.798
 2859SOL    HW2 9477   5.540   0.208   0.940
 2860SOL     OW 9478   3.864   1.944   2.374
 2860SOL    HW1 9479   3.767   1.948   2.399
 2860SOL    HW2 9480   3.880   2.004   2.296
 2861SOL     OW 9481   3.840   5.623   6.010
 2861SOL    HW1 9482   3.831   5.526   5.988
 2861SOL    HW2 9483   3.762   5.651   6.066
 2862SOL     OW 9484   5.505   1.331   4.136
 2862SOL    HW1 9485   5.494   1.431   4.132
 2862SOL    HW2 9486   5.485   1.299   4.229
 2863SOL     OW 9487   6.681   2.115   6.644
 2863SOL    HW1 9488   6.631   2.199   6.620
 2863SOL    HW2 9489   6.714   2.072   6.561
 2864SOL     OW 9490   3.575   1.370   0.266
 2864SOL    HW1 9491   3.516   1.395   0.343
 2864SOL    HW2 9492   3.612   1.452   0.224
 2865SOL     OW 9493   4.832   4.350   5.201
 2865SOL    HW1 9494   4.894   4.372   5.276
 2865SOL    HW2 9495   4.884   4.340   5.116
 2866SOL     OW 9496   0.715   6.407   6.583
 2866SOL    HW1 9497   0.753   6.315   6.576
 2866SOL    HW2 9498   0.632   6.414   6.529
 2867SOL     OW 9499   6.601   4.275   3.949
 2867SOL    HW1 9500   6.599   4.175   3.942
 2867SOL    HW2 9501   6.607   4.314   3.857
 2868SOL     OW 9502   1.667   3.910   5.434
 2868SOL    HW1 9503   1.745   3.921   5.372
 2868SOL    HW2 9504   1.591   3.868   5.384
 2869SOL     OW 9505   5.826   1.236   2.378
 2869SOL    HW1 9506   5.803   1.224   2.281
 2869SOL    HW2 9507   5.882   1.318   2.389
 2870SOL     OW 9508   5.703   2.254   2.607
 2870SOL    HW1 9509   5.762   2.206   2.672
 2870SOL    HW2 9510   5.759   2.315   2.551
 2871SOL     OW 9511   1.718   2.046   6.397
 2871SOL    HW1 9512   1.638   2.060   6.455
 2871SOL    HW2 9513   1.704   2.092   6.309
 2872SOL     OW 9514   2.420   0.152   3.661
 2872SOL    HW1 9515   2.508   0.126   3.621
 2872SOL    HW2 9516   2.380   0.226   3.607
 2873SOL     OW 9517   0.789   5.456   1.605
 2873SOL    HW1 9518   0.790   5.556   1.606
 2873SOL    HW2 9519   0.699   5.423   1.631
 2874SOL     OW 9520   6.203   2.492   2.545
 2874SOL    HW1 9521   6.128   2.489   2.479
 2874SOL    HW2 9522   6.169   2.469   2.636
 2875SOL     OW 9523   3.393   4.939   6.439
 2875SOL    HW1 9524   3.456   4.977   6.372
 2875SOL    HW2 9525   3.436   4.863   6.488
 2876SOL     OW 9526   6.971   0.942   1.477
 2876SOL    HW1 9527   6.884   0.893   1.478
 2876SOL    HW2 9528   7.022   0.918   1.394
 2877SOL     OW 9529   2.958   2.633   5.460
 2877SOL    HW1 9530   2.962   2.729   5.432
 2877SOL    HW2 9531   3.050   2.594   5.460
 2878SOL     OW 9532   2.663   4.625   5.853
 2878SOL    HW1 9533   2.760   4.641   5.834
 2878SOL    HW2 9534   2.623   4.705   5.898
 2879SOL     OW 9535   5.044   4.042   0.601
 2879SOL    HW1 9536   4.971   4.086   0.654
 2879SOL    HW2 9537   5.132   4.081   0.628
 2880SOL     OW 9538   1.312   6.473   1.710
 2880SOL    HW1 9539   1.263   6.540   1.765
 2880SOL    HW2 9540   1.276   6.474   1.617
 2881SOL     OW 9541   6.924   6.534   0.866
 2881SOL    HW1 9542   6.991   6.532   0.792
 2881SOL    HW2 9543   6.969   6.509   0.952
 2882SOL     OW 9544   0.241   2.914   3.365
 2882SOL    HW1 9545   0.186   2.858   3.426
 2882SOL    HW2 9546   0.194   3.000   3.348
 2883SOL     OW 9547   3.543   0.348   2.299
 2883SOL    HW1 9548   3.536   0.325   2.396
 2883SOL    HW2 9549   3.621   0.410   2.285
 2884SOL     OW 9550   0.800   5.922   3.275
 2884SOL    HW1 9551   0.799   5.829   3.238
 2884SOL    HW2 9552   0.730   5.930   3.346
 2885SOL     OW 9553   0.741   2.650   3.261
 2885SOL    HW1 9554   0.697   2.577   3.207
 2885SOL    HW2 9555   0.715   2.641   3.357
 2886SOL     OW 9556   2.655   2.212   6.292
 2886SOL    HW1 9557   2.564   2.250   6.301
 2886SOL    HW2 9558   2.713   2.274   6.239
 2887SOL     OW 9559   1.519   0.777   4.766
 2887SOL    HW1 9560   1.450   0.850   4.771
 2887SOL    HW2 9561   1.475   0.689   4.782
 2888SOL     OW 9562   5.997   4.910   6.961
 2888SOL    HW1 9563   6.074   4.972   6.973
 2888SOL    HW2 9564   5.912   4.962   6.953
 2889SOL     OW 9565   0.338   0.302   1.477
 2889SOL    HW1 9566   0.429   0.298   1.520
 2889SOL    HW2 9567   0.269   0.320   1.547
 2890SOL     OW 9568   4.139   0.418   2.041
 2890SOL    HW1 9569   4.183   0.371   1.965
 2890SOL    HW2 9570   4.124   0.514   2.018
 2891SOL     OW 9571   2.781   4.681   3.792
 2891SOL    HW1 9572   2.699   4.652   3.742
 2891SOL    HW2 9573   2.833   4.600   3.820
 2892SOL     OW 9574   4.534   3.806   6.243
 2892SOL    HW1 9575   4.485   3.893   6.246
 2892SOL    HW2 9576   4.539   3.774   6.148
 2893SOL     OW 9577   2.583   0.422   5.226
 2893SOL    HW1 9578   2.514   0.380   5.166
 2893SOL    HW2 9579   2.542   0.441   5.315
 2894SOL     OW 9580   3.958   2.935   6.980
 2894SOL    HW1 9581   3.967   2.836   6.994
 2894SOL    HW2 9582   3.926   2.978   0.039
 2895SOL     OW 9583   3.554   3.573   6.180
 2895SOL    HW1 9584   3.473   3.554   6.124
 2895SOL    HW2 9585   3.601   3.487   6.201
 2896SOL     OW 9586   2.749   4.922   0.731
 2896SOL    HW1 9587   2.836   4.912   0.682
 2896SOL    HW2 9588   2.714   4.831   0.754
 2897SOL     OW 9589   1.831   5.937   3.905
 2897SOL    HW1 9590   1.869   5.858   3.954
 2897SOL    HW2 9591   1.896   6.013   3.910
 2898SOL     OW 9592   3.418   5.468   1.873
 2898SOL    HW1 9593   3.518   5.479   1.873
 2898SOL    HW2 9594   3.377   5.543   1.925
 2899SOL     OW 9595   6.907   6.820   0.281
 2899SOL    HW1 9596   6.855   6.755   0.337
 2899SOL    HW2 9597   6.880   6.913   0.304
 2900SOL     OW 9598   1.672   5.201   5.809
 2900SOL    HW1 9599   1.726   5.179   5.728
 2900SOL    HW2 9600   1.645   5.297   5.807
 2901SOL     OW 9601   2.853   0.586   1.531
 2901SOL    HW1 9602   2.891   0.544   1.613
 2901SOL    HW2 9603   2.760   0.552   1.515
 2902SOL     OW 9604   5.605   5.953   0.866
 2902SOL    HW1 9605   5.670   5.994   0.802
 2902SOL    HW2 9606   5.650   5.879   0.916
 2903SOL     OW 9607   1.905   1.353   1.706
 2903SOL    HW1 9608   1.944   1.442   1.728
 2903SOL    HW2 9609   1.963   1.305   1.641
 2904SOL     OW 9610   2.269   2.524   5.023
 2904SOL    HW1 9611   2.305   2.593   4.960
 2904SOL    HW2 9612   2.239   2.444   4.971
 2905SOL     OW 9613   2.029   2.249   1.970
 2905SOL    HW1 9614   2.037   2.333   1.916
 2905SOL    HW2 9615   2.001   2.271   2.063
 2906SOL     OW 9616   5.525   5.484   1.961
 2906SOL    HW1 9617   5.520   5.419   2.037
 2906SOL    HW2 9618   5.499   5.575   1.993
 2907SOL     OW 9619   6.557   1.331   4.026
 2907SOL    HW1 9620   6.637   1.271   4.018
 2907SOL    HW2 9621   6.504   1.327   3.941
 2908SOL     OW 9622   3.594   5.960   4.437
 2908SOL    HW1 9623   3.620   6.010   4.519
 2908SOL    HW2 9624   3.505   5.917   4.450
 2909SOL     OW 9625   1.326   5.748   4.747
 2909SOL    HW1 9626   1.414   5.719   4.710
 2909SOL    HW2 9627   1.288   5.820   4.689
 2910SOL     OW 9628   4.655   6.073   6.530
 2910SOL    HW1 9629   4.615   6.151   6.481
 2910SOL    HW2 9630   4.593   6.046   6.604
 2911SOL     OW 9631   2.015   4.315   3.059
 2911SOL    HW1 9632   2.067   4.268   2.988
 2911SOL    HW2 9633   1.974   4.398   3.021
 2912SOL     OW 9634   2.471   6.200   0.552
 2912SOL    HW1 9635   2.506   6.293   0.550
 2912SOL    HW2 9636   2.546   6.135   0.566
 2913SOL     OW 9637   1.755   3.829   2.782
 2913SOL    HW1 9638   1.817   3.800   2.855
 2913SOL    HW2 9639   1.806   3.833   2.696
 2914SOL     OW 9640   5.464   5.593   5.882
 2914SOL    HW1 9641   5.540   5.580   5.947
 2914SOL    HW2 9642   5.499   5.589   5.789
 2915SOL     OW 9643   4.714   1.299   3.703
 2915SOL    HW1 9644   4.721   1.388   3.659
 2915SOL    HW2 9645   4.806   1.263   3.720
 2916SOL     OW 9646   5.207   5.613   4.768
 2916SOL    HW1 9647   5.209   5.565   4.856
 2916SOL    HW2 9648   5.299   5.643   4.743
 2917SOL     OW 9649   4.715   0.391   2.228
 2917SOL    HW1 9650   4.639   0.400   2.164
 2917SOL    HW2 9651   4.776   0.470   2.218
 2918SOL     OW 9652   0.326   3.904   3.828
 2918SOL    HW1 9653   0.302   3.849   3.748
 2918SOL    HW2 9654   0.426   3.902   3.841
 2919SOL     OW 9655   6.249   5.910   0.525
 2919SOL    HW1 9656   6.282   5.816   0.527
 2919SOL    HW2 9657   6.187   5.922   0.447
 2920SOL     OW 9658   4.091   2.208   2.979
 2920SOL    HW1 9659   4.089   2.250   2.888
 2920SOL    HW2 9660   4.051   2.117   2.974
 2921SOL     OW 9661   6.982   0.451   1.950
 2921SOL    HW1 9662   0.035   0.389   1.959
 2921SOL    HW2 9663   6.909   0.405   1.899
 2922SOL     OW 9664   4.262   6.777   5.633
 2922SOL    HW1 9665   4.259   6.763   5.732
 2922SOL    HW2 9666   4.357   6.777   5.602
 2923SOL     OW 9667   6.289   4.648   1.943
 2923SOL    HW1 9668   6.198   4.672   1.976
 2923SOL    HW2 9669   6.286   4.630   1.845
 2924SOL     OW 9670   0.262   1.549   5.231
 2924SOL    HW1 9671   0.284   1.617   5.161
 2924SOL    HW2 9672   0.279   1.457   5.195
 2925SOL     OW 9673   5.526   3.185   1.622
 2925SOL    HW1 9674   5.615   3.159   1.659
 2925SOL    HW2 9675   5.481   3.250   1.684
 2926SOL     OW 9676   0.224   1.530   4.630
 2926SOL    HW1 9677   0.272   1.452   4.670
 2926SOL    HW2 9678   0.133   1.502   4.600
 2927SOL     OW 9679   0.782   2.678   2.092
 2927SOL    HW1 9680   0.873   2.717   2.082
 2927SOL    HW2 9681   0.724   2.710   2.017
 2928SOL     OW 9682   5.863   7.003   0.800
 2928SOL    HW1 9683   5.890   6.989   0.704
 2928SOL    HW2 9684   5.928   0.040   0.844
 2929SOL     OW 9685   0.546   6.929   5.951
 2929SOL    HW1 9686   0.525   6.841   5.992
 2929SOL    HW2 9687   0.474   6.955   5.887
 2930SOL     OW 9688   3.788   6.472   4.788
 2930SOL    HW1 9689   3.729   6.446   4.864
 2930SOL    HW2 9690   3.884   6.465   4.817
 2931SOL     OW 9691   4.383   6.667   6.138
 2931SOL    HW1 9692   4.387   6.762   6.169
 2931SOL    HW2 9693   4.450   6.612   6.189
 2932SOL     OW 9694   1.223   4.345   1.429
 2932SOL    HW1 9695   1.196   4.250   1.413
 2932SOL    HW2 9696   1.150   4.406   1.398
 2933SOL     OW 9697   5.358   2.074   3.308
 2933SOL    HW1 9698   5.371   2.001   3.241
 2933SOL    HW2 9699   5.261   2.097   3.313
 2934SOL     OW 9700   2.514   1.004   0.067
 2934SOL    HW1 9701   2.447   1.018   0.140
 2934SOL    HW2 9702   2.514   0.908   0.040
 2935SOL     OW 9703   5.858   2.603   1.203
 2935SOL    HW1 9704   5.896   2.564   1.287
 2935SOL    HW2 9705   5.874   2.701   1.201
 2936SOL     OW 9706   5.023   5.844   0.252
 2936SOL    HW1 9707   5.085   5.792   0.193
 2936SOL    HW2 9708   5.075   5.889   0.324
 2937SOL     OW 9709   3.167   4.921   6.681
 2937SOL    HW1 9710   3.176   4.854   6.607
 2937SOL    HW2 9711   3.246   4.982   6.680
 2938SOL     OW 9712   4.576   5.351   5.142
 2938SOL    HW1 9713   4.525   5.331   5.058
 2938SOL    HW2 9714   4.579   5.450   5.156
 2939SOL     OW 9715   6.845   6.342   5.498
 2939SOL    HW1 9716   6.904   6.267   5.529
 2939SOL    HW2 9717   6.749   6.318   5.512
 2940SOL     OW 9718   5.127   6.710   4.836
 2940SOL    HW1 9719   5.130   6.612   4.822
 2940SOL    HW2 9720   5.220   6.745   4.851
 2941SOL     OW 9721   1.906   2.120   5.529
 2941SOL    HW1 9722   1.953   2.068   5.600
 2941SOL    HW2 9723   1.814   2.143   5.560
 2942SOL     OW 9724   3.060   6.412   3.168
 2942SOL    HW1 9725   3.055   6.469   3.250
 2942SOL    HW2 9726   3.103   6.464   3.094
 2943SOL     OW 9727   5.931   3.711   3.612
 2943SOL    HW1 9728   5.890   3.659   3.537
 2943SOL    HW2 9729   5.977   3.791   3.576
 2944SOL     OW 9730   4.145   6.088   5.657
 2944SOL    HW1 9731   4.206   6.154   5.614
 2944SOL    HW2 9732   4.192   6.000   5.667
 2945SOL     OW 9733   3.073   3.063   3.107
 2945SOL    HW1 9734   3.052   3.161   3.104
 2945SOL    HW2 9735   3.161   3.049   3.152
 2946SOL     OW 9736   7.021   5.948   6.629
 2946SOL    HW1 9737   6.967   6.030   6.611
 2946SOL    HW2 9738   0.066   5.969   6.697
 2947SOL     OW 9739   6.252   4.425   0.454
 2947SOL    HW1 9740   6.181   4.493   0.434
 2947SOL    HW2 9741   6.336   4.448   0.404
 2948SOL     OW 9742   5.466   3.992   4.761
 2948SOL    HW1 9743   5.515   4.060   4.705
 2948SOL    HW2 9744   5.524   3.964   4.837
 2949SOL     OW 9745   1.437   6.407   0.549
 2949SOL    HW1 9746   1.491   6.402   0.465
 2949SOL    HW2 9747   1.451   6.496   0.592
 2950SOL     OW 9748   5.289   3.256   4.396
 2950SOL    HW1 9749   5.270   3.163   4.426
 2950SOL    HW2 9750   5.266   3.265   4.299
 2951SOL     OW 9751   0.407   1.790   1.499
 2951SOL    HW1 9752   0.362   1.791   1.589
 2951SOL    HW2 9753   0.451   1.702   1.484
 2952SOL     OW 9754   1.849   4.108   2.524
 2952SOL    HW1 9755   1.819   4.204   2.524
 2952SOL    HW2 9756   1.886   4.084   2.435
 2953SOL     OW 9757   4.978   2.319   2.040
 2953SOL    HW1 9758   4.974   2.398   2.101
 2953SOL    HW2 9759   4.898   2.261   2.055
 2954SOL     OW 9760   6.338   6.612   2.614
 2954SOL    HW1 9761   6.395   6.552   2.558
 2954SOL    HW2 9762   6.315   6.567   2.700
 2955SOL     OW 9763   0.624   2.816   0.608
 2955SOL    HW1 9764   0.711   2.859   0.634
 2955SOL    HW2 9765   0.561   2.818   0.686
 2956SOL     OW 9766   6.873   5.290   2.783
 2956SOL    HW1 9767   6.971   5.288   2.760
 2956SOL    HW2 9768   6.863   5.301   2.882
 2957SOL     OW 9769   1.169   3.550   2.044
 2957SOL    HW1 9770   1.184   3.590   2.134
 2957SOL    HW2 9771   1.159   3.623   1.976
 2958SOL     OW 9772   2.115   4.665   6.041
 2958SOL    HW1 9773   2.016   4.647   6.042
 2958SOL    HW2 9774   2.150   4.668   6.134
 2959SOL     OW 9775   4.426   5.462   6.842
 2959SOL    HW1 9776   4.455   5.432   6.751
 2959SOL    HW2 9777   4.331   5.436   6.856
 2960SOL     OW 9778   1.602   1.676   0.455
 2960SOL    HW1 9779   1.516   1.725   0.463
 2960SOL    HW2 9780   1.585   1.584   0.420
 2961SOL     OW 9781   5.742   3.639   4.004
 2961SOL    HW1 9782   5.677   3.710   3.977
 2961SOL    HW2 9783   5.693   3.555   4.028
 2962SOL     OW 9784   4.693   0.836   3.414
 2962SOL    HW1 9785   4.599   0.868   3.403
 2962SOL    HW2 9786   4.750   0.911   3.446
 2963SOL     OW 9787   2.210   1.690   5.081
 2963SOL    HW1 9788   2.247   1.632   5.008
 2963SOL    HW2 9789   2.283   1.746   5.120
 2964SOL     OW 9790   3.341   6.050   0.665
 2964SOL    HW1 9791   3.280   6.114   0.618
 2964SOL    HW2 9792   3.310   5.957   0.649
 2965SOL     OW 9793   0.204   1.898   6.353
 2965SOL    HW1 9794   0.244   1.866   6.438
 2965SOL    HW2 9795   0.122   1.845   6.332
 2966SOL     OW 9796   4.760   4.615   3.919
 2966SOL    HW1 9797   4.795   4.534   3.966
 2966SOL    HW2 9798   4.835   4.678   3.902
 2967SOL     OW 9799   6.040   2.870   3.873
 2967SOL    HW1 9800   6.027   2.791   3.934
 2967SOL    HW2 9801   5.961   2.931   3.880
 2968SOL     OW 9802   0.681   4.420   3.745
 2968SOL    HW1 9803   0.751   4.382   3.806
 2968SOL    HW2 9804   0.604   4.356   3.739
 2969SOL     OW 9805   5.102   1.915   4.658
 2969SOL    HW1 9806   5.165   1.913   4.736
 2969SOL    HW2 9807   5.114   2.002   4.609
 2970SOL     OW 9808   1.186   4.109   6.468
 2970SOL    HW1 9809   1.121   4.062   6.528
 2970SOL    HW2 9810   1.145   4.194   6.434
 2971SOL     OW 9811   5.129   2.097   2.423
 2971SOL    HW1 9812   5.031   2.104   2.405
 2971SOL    HW2 9813   5.159   2.003   2.405
 2972SOL     OW 9814   6.743   3.649   5.253
 2972SOL    HW1 9815   6.651   3.666   5.219
 2972SOL    HW2 9816   6.765   3.552   5.242
 2973SOL     OW 9817   5.196   6.391   3.594
 2973SOL    HW1 9818   5.267   6.461   3.600
 2973SOL    HW2 9819   5.178   6.353   3.685
 2974SOL     OW 9820   6.961   4.154   2.564
 2974SOL    HW1 9821   6.998   4.204   2.642
 2974SOL    HW2 9822   6.864   4.136   2.578
 2975SOL     OW 9823   0.150   0.805   5.468
 2975SOL    HW1 9824   0.058   0.770   5.485
 2975SOL    HW2 9825   0.164   0.888   5.522
 2976SOL     OW 9826   3.307   0.518   2.496
 2976SOL    HW1 9827   3.271   0.528   2.403
 2976SOL    HW2 9828   3.386   0.457   2.495
 2977SOL     OW 9829   3.176   6.173   4.021
 2977SOL    HW1 9830   3.119   6.254   4.022
 2977SOL    HW2 9831   3.245   6.181   3.949
 2978SOL     OW 9832   5.144   4.815   0.082
 2978SOL    HW1 9833   5.173   4.910   0.069
 2978SOL    HW2 9834   5.144   4.769   7.019
 2979SOL     OW 9835   3.973   0.416   3.174
 2979SOL    HW1 9836   3.956   0.387   3.268
 2979SOL    HW2 9837   4.053   0.367   3.138
 2980SOL     OW 9838   0.304   5.937   4.285
 2980SOL    HW1 9839   0.375   5.866   4.276
 2980SOL    HW2 9840   0.347   6.026   4.294
 2981SOL     OW 9841   1.975   1.132   5.783
 2981SOL    HW1 9842   1.919   1.050   5.773
 2981SOL    HW2 9843   1.932   1.207   5.732
 2982SOL     OW 9844   4.646   6.656   2.211
 2982SOL    HW1 9845   4.620   6.635   2.116
 2982SOL    HW2 9846   4.717   6.593   2.240
 2983SOL     OW 9847   6.545   0.878   3.621
 2983SOL    HW1 9848   6.512   0.805   3.561
 2983SOL    HW2 9849   6.599   0.839   3.695
 2984SOL     OW 9850   5.688   5.839   1.811
 2984SOL    HW1 9851   5.613   5.830   1.876
 2984SOL    HW2 9852   5.768   5.790   1.845
 2985SOL     OW 9853   6.422   2.430   2.945
 2985SOL    HW1 9854   6.469   2.447   2.859
 2985SOL    HW2 9855   6.333   2.475   2.945
 2986SOL     OW 9856   1.839   3.544   5.182
 2986SOL    HW1 9857   1.938   3.552   5.170
 2986SOL    HW2 9858   1.808   3.454   5.151
 2987SOL     OW 9859   4.164   2.157   4.336
 2987SOL    HW1 9860   4.104   2.210   4.275
 2987SOL    HW2 9861   4.114   2.076   4.369
 2988SOL     OW 9862   1.086   0.313   1.525
 2988SOL    HW1 9863   1.026   0.330   1.447
 2988SOL    HW2 9864   1.159   0.382   1.527
 2989SOL     OW 9865   6.812   5.017   1.333
 2989SOL    HW1 9866   6.767   5.082   1.272
 2989SOL    HW2 9867   6.744   4.975   1.393
 2990SOL     OW 9868   3.932   1.265   1.590
 2990SOL    HW1 9869   3.888   1.268   1.500
 2990SOL    HW2 9870   4.031   1.270   1.579
 2991SOL     OW 9871   7.017   3.770   0.418
 2991SOL    HW1 9872   0.009   3.683   0.464
 2991SOL    HW2 9873   6.919   3.791   0.421
 2992SOL     OW 9874   3.397   5.442   6.316
 2992SOL    HW1 9875   3.342   5.359   6.307
 2992SOL    HW2 9876   3.456   5.434   6.396
 2993SOL     OW 9877   1.436   5.335   1.360
 2993SOL    HW1 9878   1.388   5.257   1.401
 2993SOL    HW2 9879   1.376   5.415   1.361
 2994SOL     OW 9880   5.010   6.748   0.064
 2994SOL    HW1 9881   4.993   6.818   7.020
 2994SOL    HW2 9882   5.067   6.786   0.136
 2995SOL     OW 9883   1.740   1.463   6.313
 2995SOL    HW1 9884   1.679   1.386   6.295
 2995SOL    HW2 9885   1.834   1.437   6.291
 2996SOL     OW 9886   4.246   5.150   6.345
 2996SOL    HW1 9887   4.338   5.173   6.375
 2996SOL    HW2 9888   4.229   5.191   6.256
 2997SOL     OW 9889   5.703   6.683   0.750
 2997SOL    HW1 9890   5.796   6.699   0.785
 2997SOL    HW2 9891   5.656   6.770   0.740
 2998SOL     OW 9892   6.088   5.805   4.613
 2998SOL    HW1 9893   6.051   5.895   4.639
 2998SOL    HW2 9894   6.049   5.735   4.673
 2999SOL     OW 9895   3.145   0.025   3.525
 2999SOL    HW1 9896   3.235   0.038   3.568
 2999SOL    HW2 9897   3.110   0.113   3.493
 3000SOL     OW 9898   1.044   2.956   5.587
 3000SOL    HW1 9899   1.038   3.029   5.655
 3000SOL    HW2 9900   1.028   2.994   5.496
 3001SOL     OW 9901   4.867   6.837   5.432
 3001SOL    HW1 9902   4.927   6.888   5.493
 3001SOL    HW2 9903   4.792   6.798   5.484
 3002SOL     OW 9904   3.668   0.403   6.100
 3002SOL    HW1 9905   3.764   0.417   6.077
 3002SOL    HW2 9906   3.660   0.368   6.193
 3003SOL     OW 9907   2.534   6.600   6.012
 3003SOL    HW1 9908   2.545   6.512   5.967
 3003SOL    HW2 9909   2.549   6.673   5.946
 3004SOL     OW 9910   5.920   2.764   4.480
 3004SOL    HW1 9911   5.838   2.707   4.470
 3004SOL    HW2 9912   5.895   2.852   4.519
 3005SOL     OW 9913   4.292   2.708   1.191
 3005SOL    HW1 9914   4.224   2.655   1.139
 3005SOL    HW2 9915   4.254   2.732   1.281
 3006SOL     OW 9916   5.481   0.835   1.371
 3006SOL    HW1 9917   5.384   0.858   1.383
 3006SOL    HW2 9918   5.529   0.848   1.458
 3007SOL     OW 9919   6.081   5.028   3.069
 3007SOL    HW1 9920   6.003   5.074   3.029
 3007SOL    HW2 9921   6.050   4.964   3.139
 3008SOL     OW 9922   3.294   6.456   5.795
 3008SOL    HW1 9923   3.223   6.418   5.735
 3008SOL    HW2 9924   3.251   6.510   5.868
 3009SOL     OW 9925   1.543   6.652   3.403
 3009SOL    HW1 9926   1.635   6.673   3.437
 3009SOL    HW2 9927   1.501   6.734   3.365
 3010SOL     OW 9928   3.558   6.030   2.668
 3010SOL    HW1 9929   3.638   6.032   2.608
 3010SOL    HW2 9930   3.496   6.104   2.643
 3011SOL     OW 9931   5.328   0.214   0.211
 3011SOL    HW1 9932   5.335   0.138   0.275
 3011SOL    HW2 9933   5.375   0.191   0.126
 3012SOL     OW 9934   0.509   4.038   3.292
 3012SOL    HW1 9935   0.522   3.951   3.340
 3012SOL    HW2 9936   0.502   4.112   3.358
 3013SOL     OW 9937   6.097   4.712   2.393
 3013SOL    HW1 9938   5.997   4.715   2.400
 3013SOL    HW2 9939   6.137   4.752   2.476
 3014SOL     OW 9940   4.547   0.745   4.542
 3014SOL    HW1 9941   4.606   0.669   4.573
 3014SOL    HW2 9942   4.592   0.794   4.468
 3015SOL     OW 9943   3.117   2.319   0.634
 3015SOL    HW1 9944   3.094   2.224   0.659
 3015SOL    HW2 9945   3.185   2.355   0.697
 3016SOL     OW 9946   3.807   6.724   3.298
 3016SOL    HW1 9947   3.791   6.628   3.322
 3016SOL    HW2 9948   3.891   6.756   3.342
 3017SOL     OW 9949   0.297   6.068   1.165
 3017SOL    HW1 9950   0.349   6.132   1.223
 3017SOL    HW2 9951   0.352   5.987   1.147
 3018SOL     OW 9952   3.849   6.166   6.759
 3018SOL    HW1 9953   3.811   6.075   6.778
 3018SOL    HW2 9954   3.844   6.222   6.841
 3019SOL     OW 9955   3.988   6.846   1.301
 3019SOL    HW1 9956   4.052   6.787   1.349
 3019SOL    HW2 9957   3.950   6.914   1.365
 3020SOL     OW 9958   2.438   3.031   1.060
 3020SOL    HW1 9959   2.457   2.933   1.065
 3020SOL    HW2 9960   2.410   3.065   1.150
 3021SOL     OW 9961   2.048   2.261   6.886
 3021SOL    HW1 9962   2.123   2.317   6.850
 3021SOL    HW2 9963   2.077   2.218   6.972
 3022SOL     OW 9964   4.978   0.009   2.827
 3022SOL    HW1 9965   4.970   0.037   2.922
 3022SOL    HW2 9966   5.051   6.966   2.819
 3023SOL     OW 9967   4.832   5.831   2.472
 3023SOL    HW1 9968   4.752   5.875   2.430
 3023SOL    HW2 9969   4.904   5.821   2.403
 3024SOL     OW 9970   3.252   6.814   7.021
 3024SOL    HW1 9971   3.304   6.806   6.936
 3024SOL    HW2 9972   3.155   6.806   7.001
 3025SOL     OW 9973   2.461   2.789   1.266
 3025SOL    HW1 9974   2.497   2.706   1.224
 3025SOL    HW2 9975   2.519   2.816   1.342
 3026SOL     OW 9976   2.029   4.055   0.632
 3026SOL    HW1 9977   1.981   4.079   0.716
 3026SOL    HW2 9978   2.009   3.961   0.607
 3027SOL     OW 9979   1.623   1.927   3.224
 3027SOL    HW1 9980   1.635   1.865   3.146
 3027SOL    HW2 9981   1.580   2.011   3.193
 3028SOL     OW 9982   1.513   6.530   5.785
 3028SOL    HW1 9983   1.475   6.621   5.802
 3028SOL    HW2 9984   1.439   6.463   5.784
 3029SOL     OW 9985   5.538   5.655   5.203
 3029SOL    HW1 9986   5.534   5.686   5.108
 3029SOL    HW2 9987   5.633   5.656   5.235
 3030SOL     OW 9988   1.657   2.175   5.595
 3030SOL    HW1 9989   1.605   2.182   5.680
 3030SOL    HW2 9990   1.598   2.144   5.521
 3031SOL     OW 9991   0.349   4.938   6.281
 3031SOL    HW1 9992   0.323   4.949   6.377
 3031SOL    HW2 9993   0.266   4.931   6.225
 3032SOL     OW 9994   5.194   0.385   5.551
 3032SOL    HW1 9995   5.288   0.376   5.583
 3032SOL    HW2 9996   5.147   0.297   5.560
 3033SOL     OW 9997   6.593   3.873   6.517
 3033SOL    HW1 9998   6.675   3.839   6.562
 3033SOL    HW2 9999   6.593   3.844   6.421
 3034SOL     OW10000   2.743   6.477   4.717
 3034SOL    HW110001   2.698   6.536   4.649
 3034SOL    HW210002   2.714   6.504   4.809
 3035SOL     OW10003   5.568   0.999   6.942
 3035SOL    HW110004   5.517   1.085   6.936
 3035SOL    HW210005   5.617   0.995   0.004
 3036SOL     OW10006   1.107   4.607   0.391
 3036SOL    HW110007   1.091   4.701   0.419
 3036SOL    HW210008   1.155   4.606   0.303
 3037SOL     OW10009   6.466   6.676   5.281
 3037SOL    HW110010   6.391   6.709   5.224
 3037SOL    HW210011   6.493   6.585   5.249
 3038SOL     OW10012   5.578   6.797   6.185
 3038SOL    HW110013   5.648   6.856   6.224
 3038SOL    HW210014   5.488   6.837   6.202
 3039SOL     OW10015   1.029   4.556   1.372
 3039SOL    HW110016   1.114   4.596   1.406
 3039SOL    HW210017   0.951   4.594   1.422
 3040SOL     OW10018   2.913   3.311   0.034
 3040SOL    HW110019   2.881   3.220   0.007
 3040SOL    HW210020   2.919   3.316   0.133
 3041SOL     OW10021   2.155   2.265   6.161
 3041SOL    HW110022   2.116   2.198   6.224
 3041SOL    HW210023   2.135   2.238   6.067
 3042SOL     OW10024   4.408   0.374   1.833
 3042SOL    HW110025   4.422   0.416   1.923
 3042SOL    HW210026   4.489   0.322   1.807
 3043SOL     OW10027   0.809   5.880   0.828
 3043SOL    HW110028   0.817   5.964   0.775
 3043SOL    HW210029   0.872   5.812   0.792
 3044SOL     OW10030   3.385   4.622   6.192
 3044SOL    HW110031   3.452   4.586   6.256
 3044SOL    HW210032   3.365   4.554   6.122
 3045SOL     OW10033   5.675   2.470   3.093
 3045SOL    HW110034   5.714   2.449   3.004
 3045SOL    HW210035   5.585   2.511   3.082
 3046SOL     OW10036   1.668   2.739   5.994
 3046SOL    HW110037   1.740   2.706   5.933
 3046SOL    HW210038   1.601   2.791   5.942
 3047SOL     OW10039   6.318   5.039   2.455
 3047SOL    HW110040   6.287   4.961   2.510
 3047SOL    HW210041   6.281   5.124   2.494
 3048SOL     OW10042   3.013   2.919   1.628
 3048SOL    HW110043   3.108   2.950   1.623
 3048SOL    HW210044   3.008   2.837   1.685
 3049SOL     OW10045   0.814   0.301   2.260
 3049SOL    HW110046   0.788   0.377   2.319
 3049SOL    HW210047   0.899   0.324   2.212
 3050SOL     OW10048   4.600   5.849   4.026
 3050SOL    HW110049   4.621   5.920   4.093
 3050SOL    HW210050   4.680   5.835   3.967
 3051SOL     OW10051   2.693   4.672   6.975
 3051SOL    HW110052   2.668   4.711   6.886
 3051SOL    HW210053   2.727   4.579   6.962
 3052SOL     OW10054   4.347   6.512   3.216
 3052SOL    HW110055   4.409   6.480   3.144
 3052SOL    HW210056   4.370   6.467   3.303
 3053SOL     OW10057   5.990   6.676   0.147
 3053SOL    HW110058   5.926   6.619   0.095
 3053SOL    HW210059   6.020   6.627   0.229
 3054SOL     OW10060   0.904   2.859   6.808
 3054SOL    HW110061   0.941   2.945   6.845
 3054SOL    HW210062   0.937   2.782   6.862
 3055SOL     OW10063   5.675   6.285   3.332
 3055SOL    HW110064   5.636   6.377   3.331
 3055SOL    HW210065   5.609   6.221   3.371
 3056SOL     OW10066   6.878   0.691   0.898
 3056SOL    HW110067   6.896   0.650   0.988
 3056SOL    HW210068   6.940   0.651   0.830
 3057SOL     OW10069   5.934   5.298   2.662
 3057SOL    HW110070   5.907   5.343   2.577
 3057SOL    HW210071   5.866   5.229   2.686
 3058SOL     OW10072   6.428   5.221   1.760
 3058SOL    HW110073   6.517   5.198   1.720
 3058SOL    HW210074   6.428   5.198   1.857
 3059SOL     OW10075   1.792   2.092   4.743
 3059SOL    HW110076   1.842   2.015   4.702
 3059SOL    HW210077   1.856   2.165   4.764
 3060SOL     OW10078   6.482   6.411   1.232
 3060SOL    HW110079   6.391   6.412   1.193
 3060SOL    HW210080   6.480   6.454   1.323
 3061SOL     OW10081   0.305   0.203   6.280
 3061SOL    HW110082   0.392   0.239   6.314
 3061SOL    HW210083   0.318   0.109   6.249
 3062SOL     OW10084   3.203   6.558   0.835
 3062SOL    HW110085   3.191   6.486   0.903
 3062SOL    HW210086   3.300   6.575   0.822
 3063SOL     OW10087   1.838   5.047   0.961
 3063SOL    HW110088   1.832   5.146   0.946
 3063SOL    HW210089   1.915   5.011   0.909
 3064SOL     OW10090   6.092   4.015   3.165
 3064SOL    HW110091   6.022   3.945   3.177
 3064SOL    HW210092   6.049   4.105   3.160
 3065SOL     OW10093   1.747   1.105   0.230
 3065SOL    HW110094   1.826   1.077   0.285
 3065SOL    HW210095   1.725   1.033   0.164
 3066SOL     OW10096   5.960   4.874   1.507
 3066SOL    HW110097   5.869   4.835   1.509
 3066SOL    HW210098   5.959   4.963   1.552
 3067SOL     OW10099   4.919   6.956   4.369
 3067SOL    HW110100   4.860   6.877   4.387
 3067SOL    HW210101   4.920   7.016   4.449
 3068SOL     OW10102   5.738   4.862   0.550
 3068SOL    HW110103   5.780   4.881   0.639
 3068SOL    HW210104   5.752   4.766   0.527
 3069SOL     OW10105   0.340   6.103   2.156
 3069SOL    HW110106   0.331   6.061   2.066
 3069SOL    HW210107   0.364   6.033   2.223
 3070SOL     OW10108   3.600   1.214   3.941
 3070SOL    HW110109   3.652   1.296   3.918
 3070SOL    HW210110   3.549   1.183   3.861
 3071SOL     OW10111   5.305   0.166   3.494
 3071SOL    HW110112   5.386   0.124   3.537
 3071SOL    HW210113   5.332   0.252   3.451
 3072SOL     OW10114   0.893   0.079   2.064
 3072SOL    HW110115   0.832   0.156   2.084
 3072SOL    HW210116   0.941   0.052   2.147
 3073SOL     OW10117   1.057   3.703   5.281
 3073SOL    HW110118   1.047   3.757   5.197
 3073SOL    HW210119   0.971   3.703   5.331
 3074SOL     OW10120   4.694   2.865   6.215
 3074SOL    HW110121   4.743   2.819   6.141
 3074SOL    HW210122   4.671   2.799   6.286
 3075SOL     OW10123   1.392   5.603   1.157
 3075SOL    HW110124   1.430   5.512   1.137
 3075SOL    HW210125   1.293   5.596   1.169
 3076SOL     OW10126   6.391   0.640   5.015
 3076SOL    HW110127   6.437   0.692   4.942
 3076SOL    HW210128   6.458   0.614   5.084
 3077SOL     OW10129   5.157   4.940   4.004
 3077SOL    HW110130   5.067   4.915   4.038
 3077SOL    HW210131   5.228   4.889   4.054
 3078SOL     OW10132   1.559   3.884   1.677
 3078SOL    HW110133   1.637   3.943   1.702
 3078SOL    HW210134   1.591   3.809   1.620
 3079SOL     OW10135   0.099   2.182   4.969
 3079SOL    HW110136   0.123   2.144   4.880
 3079SOL    HW210137   0.126   2.278   4.974
 3080SOL     OW10138   6.295   4.854   0.544
 3080SOL    HW110139   6.295   4.829   0.448
 3080SOL    HW210140   6.299   4.953   0.553
 3081SOL     OW10141   0.313   4.885   5.186
 3081SOL    HW110142   0.297   4.804   5.243
 3081SOL    HW210143   0.363   4.954   5.240
 3082SOL     OW10144   3.170   7.012   2.575
 3082SOL    HW110145   3.142   0.040   2.655
 3082SOL    HW210146   3.249   6.956   2.598
 3083SOL     OW10147   3.145   0.522   1.975
 3083SOL    HW110148   3.081   0.529   1.898
 3083SOL    HW210149   3.102   0.471   2.049
 3084SOL     OW10150   5.472   5.885   4.647
 3084SOL    HW110151   5.524   5.902   4.564
 3084SOL    HW210152   5.495   5.953   4.716
 3085SOL     OW10153   0.608   5.590   2.664
 3085SOL    HW110154   0.515   5.553   2.663
 3085SOL    HW210155   0.609   5.678   2.616
 3086SOL     OW10156   4.423   0.915   3.632
 3086SOL    HW110157   4.404   1.013   3.638
 3086SOL    HW210158   4.420   0.886   3.537
 3087SOL     OW10159   6.580   3.818   3.066
 3087SOL    HW110160   6.520   3.790   3.141
 3087SOL    HW210161   6.560   3.762   2.985
 3088SOL     OW10162   2.775   4.890   6.054
 3088SOL    HW110163   2.752   4.960   5.986
 3088SOL    HW210164   2.873   4.873   6.052
 3089SOL     OW10165   1.675   2.917   0.461
 3089SOL    HW110166   1.647   2.980   0.389
 3089SOL    HW210167   1.765   2.879   0.440
 3090SOL     OW10168   1.229   1.986   1.336
 3090SOL    HW110169   1.210   1.948   1.427
 3090SOL    HW210170   1.145   1.987   1.282
 3091SOL     OW10171   3.206   7.018   0.428
 3091SOL    HW110172   3.217   6.963   0.511
 3091SOL    HW210173   3.223   0.089   0.449
 3092SOL     OW10174   5.565   6.959   1.224
 3092SOL    HW110175   5.619   6.999   1.150
 3092SOL    HW210176   5.478   7.008   1.233
 3093SOL     OW10177   5.360   5.103   4.946
 3093SOL    HW110178   5.282   5.149   4.987
 3093SOL    HW210179   5.440   5.163   4.950
 3094SOL     OW10180   2.832   6.074   5.842
 3094SOL    HW110181   2.897   6.009   5.803
 3094SOL    HW210182   2.741   6.054   5.807
 3095SOL     OW10183   2.833   4.861   5.002
 3095SOL    HW110184   2.816   4.763   5.009
 3095SOL    HW210185   2.927   4.877   4.974
 3096SOL     OW10186   0.653   0.899   6.036
 3096SOL    HW110187   0.673   0.965   5.964
 3096SOL    HW210188   0.739   0.867   6.077
 3097SOL     OW10189   1.080   3.072   6.902
 3097SOL    HW110190   1.112   3.160   6.867
 3097SOL    HW210191   1.125   3.053   6.989
 3098SOL     OW10192   2.703   2.722   0.794
 3098SOL    HW110193   2.714   2.739   0.696
 3098SOL    HW210194   2.614   2.757   0.824
 3099SOL     OW10195   0.517   5.515   5.574
 3099SOL    HW110196   0.590   5.555   5.519
 3099SOL    HW210197   0.440   5.491   5.515
 3100SOL     OW10198   0.119   6.795   6.673
 3100SOL    HW110199   0.073   6.844   6.747
 3100SOL    HW210200   0.212   6.829   6.664
 3101SOL     OW10201   4.704   0.054   6.940
 3101SOL    HW110202   4.623   7.024   6.959
 3101SOL    HW210203   4.741   0.089   0.001
 3102SOL     OW10204   1.954   4.375   0.982
 3102SOL    HW110205   2.037   4.382   0.926
 3102SOL    HW210206   1.929   4.465   1.015
 3103SOL     OW10207   4.073   2.760   1.668
 3103SOL    HW110208   4.026   2.673   1.655
 3103SOL    HW210209   4.169   2.743   1.689
 3104SOL     OW10210   6.307   5.972   4.522
 3104SOL    HW110211   6.252   5.926   4.592
 3104SOL    HW210212   6.273   5.947   4.431
 3105SOL     OW10213   5.897   6.252   4.422
 3105SOL    HW110214   5.898   6.352   4.425
 3105SOL    HW210215   5.967   6.217   4.484
 3106SOL     OW10216   6.851   2.637   3.419
 3106SOL    HW110217   6.928   2.696   3.445
 3106SOL    HW210218   6.798   2.681   3.347
 3107SOL     OW10219   2.879   0.538   3.991
 3107SOL    HW110220   2.786   0.511   3.965
 3107SOL    HW210221   2.945   0.476   3.949
 3108SOL     OW10222   2.840   1.136   3.501
 3108SOL    HW110223   2.874   1.073   3.432
 3108SOL    HW210224   2.757   1.182   3.467
 3109SOL     OW10225   4.899   5.753   2.844
 3109SOL    HW110226   4.848   5.784   2.925
 3109SOL    HW210227   4.834   5.727   2.772
 3110SOL     OW10228   1.172   3.159   2.558
 3110SOL    HW110229   1.146   3.117   2.645
 3110SOL    HW210230   1.185   3.087   2.489
 3111SOL     OW10231   0.184   5.579   3.838
 3111SOL    HW110232   0.250   5.513   3.875
 3111SOL    HW210233   0.095   5.565   3.881
 3112SOL     OW10234   4.495   4.202   6.462
 3112SOL    HW110235   4.553   4.129   6.498
 3112SOL    HW210236   4.414   4.163   6.419
 3113SOL     OW10237   2.857   6.602   3.871
 3113SOL    HW110238   2.892   6.654   3.793
 3113SOL    HW210239   2.757   6.602   3.869
 3114SOL     OW10240   6.482   5.184   0.785
 3114SOL    HW110241   6.387   5.199   0.813
 3114SOL    HW210242   6.527   5.124   0.850
 3115SOL     OW10243   3.021   3.818   1.039
 3115SOL    HW110244   3.098   3.816   1.102
 3115SOL    HW210245   2.936   3.826   1.092
 3116SOL     OW10246   6.504   2.491   0.623
 3116SOL    HW110247   6.406   2.477   0.609
 3116SOL    HW210248   6.518   2.539   0.710
 3117SOL     OW10249   3.893   3.011   5.143
 3117SOL    HW110250   3.988   2.995   5.170
 3117SOL    HW210251   3.858   3.092   5.189
 3118SOL     OW10252   6.312   3.943   1.031
 3118SOL    HW110253   6.242   4.001   0.992
 3118SOL    HW210254   6.294   3.847   1.007
 3119SOL     OW10255   2.261   4.034   5.727
 3119SOL    HW110256   2.269   3.963   5.657
 3119SOL    HW210257   2.235   4.120   5.684
 3120SOL     OW10258   2.845   5.539   5.225
 3120SOL    HW110259   2.890   5.456   5.192
 3120SOL    HW210260   2.746   5.527   5.222
 3121SOL     OW10261   6.503   0.408   2.257
 3121SOL    HW110262   6.500   0.369   2.165
 3121SOL    HW210263   6.500   0.334   2.325
 3122SOL     OW10264   3.014   5.504   6.949
 3122SOL    HW110265   3.026   5.602   6.930
 3122SOL    HW210266   3.102   5.457   6.941
 3123SOL     OW10267   3.163   6.338   3.590
 3123SOL    HW110268   3.123   6.275   3.523
 3123SOL    HW210269   3.252   6.303   3.620
 3124SOL     OW10270   4.174   1.089   5.586
 3124SOL    HW110271   4.166   0.990   5.598
 3124SOL    HW210272   4.170   1.110   5.488
 3125SOL     OW10273   0.197   1.685   5.749
 3125SOL    HW110274   0.221   1.667   5.653
 3125SOL    HW210275   0.103   1.717   5.754
 3126SOL     OW10276   4.738   6.339   0.004
 3126SOL    HW110277   4.767   6.244   7.016
 3126SOL    HW210278   4.816   6.395   0.031
 3127SOL     OW10279   0.775   1.318   4.178
 3127SOL    HW110280   0.752   1.386   4.247
 3127SOL    HW210281   0.707   1.318   4.106
 3128SOL     OW10282   1.945   1.184   1.247
 3128SOL    HW110283   2.015   1.246   1.284
 3128SOL    HW210284   1.855   1.226   1.259
 3129SOL     OW10285   0.119   3.489   4.857
 3129SOL    HW110286   0.210   3.498   4.817
 3129SOL    HW210287   0.124   3.432   4.939
 3130SOL     OW10288   1.631   5.053   2.199
 3130SOL    HW110289   1.540   5.060   2.239
 3130SOL    HW210290   1.696   5.020   2.268
 3131SOL     OW10291   0.065   3.809   2.921
 3131SOL    HW110292   0.018   3.845   3.002
 3131SOL    HW210293   0.094   3.714   2.939
 3132SOL     OW10294   5.525   5.938   5.837
 3132SOL    HW110295   5.580   5.965   5.757
 3132SOL    HW210296   5.453   5.876   5.808
 3133SOL     OW10297   2.805   1.799   3.255
 3133SOL    HW110298   2.857   1.855   3.189
 3133SOL    HW210299   2.869   1.748   3.312
 3134SOL     OW10300   4.919   3.107   2.183
 3134SOL    HW110301   4.904   3.098   2.281
 3134SOL    HW210302   4.845   3.062   2.133
 3135SOL     OW10303   3.239   2.056   2.996
 3135SOL    HW110304   3.236   1.956   2.991
 3135SOL    HW210305   3.186   2.087   3.074
 3136SOL     OW10306   5.426   5.899   5.279
 3136SOL    HW110307   5.457   5.804   5.280
 3136SOL    HW210308   5.403   5.926   5.185
 3137SOL     OW10309   5.483   2.077   3.559
 3137SOL    HW110310   5.422   2.048   3.486
 3137SOL    HW210311   5.575   2.090   3.523
 3138SOL     OW10312   5.562   0.969   4.895
 3138SOL    HW110313   5.601   0.877   4.897
 3138SOL    HW210314   5.594   1.017   4.813
 3139SOL     OW10315   5.094   5.892   5.408
 3139SOL    HW110316   5.047   5.927   5.489
 3139SOL    HW210317   5.178   5.944   5.394
 3140SOL     OW10318   6.552   5.974   6.689
 3140SOL    HW110319   6.576   6.041   6.619
 3140SOL    HW210320   6.511   6.020   6.767
 3141SOL     OW10321   1.328   5.367   0.185
 3141SOL    HW110322   1.233   5.337   0.175
 3141SOL    HW210323   1.332   5.467   0.179
 3142SOL     OW10324   4.387   6.467   6.593
 3142SOL    HW110325   4.469   6.457   6.649
 3142SOL    HW210326   4.313   6.504   6.649
 3143SOL     OW10327   6.402   1.334   0.661
 3143SOL    HW110328   6.394   1.288   0.749
 3143SOL    HW210329   6.391   1.433   0.674
 3144SOL     OW10330   2.147   3.028   6.471
 3144SOL    HW110331   2.168   3.066   6.561
 3144SOL    HW210332   2.051   3.047   6.449
 3145SOL     OW10333   3.176   6.009   3.010
 3145SOL    HW110334   3.121   5.940   2.963
 3145SOL    HW210335   3.272   5.998   2.986
 3146SOL     OW10336   1.396   6.896   3.409
 3146SOL    HW110337   1.383   6.913   3.312
 3146SOL    HW210338   1.310   6.862   3.448
 3147SOL     OW10339   4.870   3.999   0.388
 3147SOL    HW110340   4.918   3.932   0.332
 3147SOL    HW210341   4.922   4.015   0.472
 3148SOL     OW10342   3.060   5.222   4.883
 3148SOL    HW110343   3.003   5.230   4.801
 3148SOL    HW210344   3.150   5.260   4.865
 3149SOL     OW10345   3.414   0.350   6.006
 3149SOL    HW110346   3.348   0.389   6.070
 3149SOL    HW210347   3.504   0.390   6.023
 3150SOL     OW10348   5.734   6.853   4.757
 3150SOL    HW110349   5.648   6.813   4.786
 3150SOL    HW210350   5.724   6.893   4.666
 3151SOL     OW10351   4.329   1.238   6.037
 3151SOL    HW110352   4.352   1.181   6.116
 3151SOL    HW210353   4.321   1.181   5.956
 3152SOL     OW10354   1.566   5.865   0.843
 3152SOL    HW110355   1.483   5.857   0.787
 3152SOL    HW210356   1.600   5.774   0.864
 3153SOL     OW10357   6.847   4.513   2.116
 3153SOL    HW110358   6.943   4.536   2.103
 3153SOL    HW210359   6.834   4.470   2.205
 3154SOL     OW10360   5.868   2.304   5.965
 3154SOL    HW110361   5.871   2.209   5.994
 3154SOL    HW210362   5.892   2.363   6.042
 3155SOL     OW10363   5.845   5.478   1.149
 3155SOL    HW110364   5.867   5.402   1.088
 3155SOL    HW210365   5.754   5.464   1.188
 3156SOL     OW10366   3.466   3.683   3.600
 3156SOL    HW110367   3.551   3.719   3.639
 3156SOL    HW210368   3.450   3.724   3.510
 3157SOL     OW10369   2.086   3.658   4.539
 3157SOL    HW110370   2.083   3.596   4.618
 3157SOL    HW210371   2.047   3.746   4.565
 3158SOL     OW10372   4.923   6.521   0.634
 3158SOL    HW110373   4.911   6.449   0.703
 3158SOL    HW210374   4.879   6.492   0.549
 3159SOL     OW10375   5.235   5.232   0.260
 3159SOL    HW110376   5.296   5.201   0.333
 3159SOL    HW210377   5.141   5.234   0.294
 3160SOL     OW10378   5.347   3.951   0.079
 3160SOL    HW110379   5.371   3.945   0.177
 3160SOL    HW210380   5.422   3.996   0.030
 3161SOL     OW10381   1.041   2.001   2.835
 3161SOL    HW110382   1.098   1.946   2.774
 3161SOL    HW210383   0.947   1.967   2.833
 3162SOL     OW10384   0.423   5.996   6.300
 3162SOL    HW110385   0.401   6.011   6.396
 3162SOL    HW210386   0.394   6.075   6.246
 3163SOL     OW10387   3.117   3.647   6.023
 3163SOL    HW110388   3.108   3.660   5.925
 3163SOL    HW210389   3.166   3.561   6.041
 3164SOL     OW10390   5.349   5.393   0.034
 3164SOL    HW110391   5.383   5.473   0.084
 3164SOL    HW210392   5.308   5.329   0.099
 3165SOL     OW10393   6.927   1.535   1.463
 3165SOL    HW110394   6.994   1.464   1.442
 3165SOL    HW210395   6.971   1.624   1.461
 3166SOL     OW10396   5.337   3.554   6.087
 3166SOL    HW110397   5.404   3.512   6.148
 3166SOL    HW210398   5.270   3.604   6.140
 3167SOL     OW10399   1.299   5.372   2.055
 3167SOL    HW110400   1.260   5.291   2.100
 3167SOL    HW210401   1.295   5.359   1.956
 3168SOL     OW10402   5.620   3.389   1.299
 3168SOL    HW110403   5.551   3.440   1.352
 3168SOL    HW210404   5.705   3.441   1.297
 3169SOL     OW10405   1.416   1.987   5.642
 3169SOL    HW110406   1.485   1.936   5.591
 3169SOL    HW210407   1.381   1.930   5.717
 3170SOL     OW10408   4.400   0.984   6.729
 3170SOL    HW110409   4.452   0.976   6.644
 3170SOL    HW210410   4.460   0.966   6.807
 3171SOL     OW10411   5.864   6.744   3.174
 3171SOL    HW110412   5.964   6.748   3.178
 3171SOL    HW210413   5.825   6.791   3.254
 3172SOL     OW10414   6.341   0.303   5.234
 3172SOL    HW110415   6.376   0.218   5.272
 3172SOL    HW210416   6.241   0.305   5.242
 3173SOL     OW10417   2.236   0.739   1.591
 3173SOL    HW110418   2.199   0.704   1.505
 3173SOL    HW210419   2.325   0.781   1.575
 3174SOL     OW10420   2.078   3.063   6.082
 3174SOL    HW110421   2.063   2.978   6.133
 3174SOL    HW210422   2.107   3.135   6.145
 3175SOL     OW10423   0.656   6.796   0.417
 3175SOL    HW110424   0.617   6.837   0.499
 3175SOL    HW210425   0.613   6.835   0.336
 3176SOL     OW10426   0.525   5.046   6.841
 3176SOL    HW110427   0.525   4.959   6.792
 3176SOL    HW210428   0.548   5.120   6.778
 3177SOL     OW10429   6.048   6.918   6.142
 3177SOL    HW110430   6.132   6.920   6.196
 3177SOL    HW210431   6.071   6.901   6.046
 3178SOL     OW10432   1.035   2.925   1.550
 3178SOL    HW110433   1.058   2.863   1.626
 3178SOL    HW210434   1.118   2.970   1.518
 3179SOL     OW10435   2.074   1.446   3.014
 3179SOL    HW110436   2.015   1.413   3.087
 3179SOL    HW210437   2.123   1.527   3.045
 3180SOL     OW10438   5.981   0.734   6.237
 3180SOL    HW110439   5.992   0.834   6.231
 3180SOL    HW210440   5.913   0.713   6.308
 3181SOL     OW10441   0.350   1.278   3.106
 3181SOL    HW110442   0.307   1.313   3.189
 3181SOL    HW210443   0.336   1.342   3.031
 3182SOL     OW10444   1.827   4.676   5.363
 3182SOL    HW110445   1.790   4.596   5.409
 3182SOL    HW210446   1.816   4.667   5.264
 3183SOL     OW10447   3.657   3.760   1.683
 3183SOL    HW110448   3.689   3.669   1.711
 3183SOL    HW210449   3.689   3.828   1.750
 3184SOL     OW10450   2.220   1.621   2.593
 3184SOL    HW110451   2.293   1.553   2.589
 3184SOL    HW210452   2.152   1.593   2.661
 3185SOL     OW10453   6.946   6.551   5.650
 3185SOL    HW110454   6.922   6.636   5.604
 3185SOL    HW210455   6.921   6.473   5.592
 3186SOL     OW10456   2.791   0.803   2.174
 3186SOL    HW110457   2.859   0.875   2.165
 3186SOL    HW210458   2.833   0.722   2.216
 3187SOL     OW10459   3.088   4.306   6.897
 3187SOL    HW110460   3.014   4.373   6.894
 3187SOL    HW210461   3.171   4.349   6.933
 3188SOL     OW10462   4.091   6.400   3.602
 3188SOL    HW110463   4.027   6.371   3.674
 3188SOL    HW210464   4.077   6.344   3.520
 3189SOL     OW10465   1.366   6.667   2.202
 3189SOL    HW110466   1.373   6.670   2.103
 3189SOL    HW210467   1.278   6.703   2.230
 3190SOL     OW10468   0.408   6.360   2.129
 3190SOL    HW110469   0.396   6.261   2.129
 3190SOL    HW210470   0.424   6.392   2.222
 3191SOL     OW10471   3.882   1.088   1.045
 3191SOL    HW110472   3.824   1.026   1.098
 3191SOL    HW210473   3.827   1.164   1.010
 3192SOL     OW10474   0.090   3.237   2.835
 3192SOL    HW110475   0.104   3.184   2.751
 3192SOL    HW210476   0.042   3.182   2.902
 3193SOL     OW10477   4.539   3.753   6.587
 3193SOL    HW110478   4.618   3.796   6.544
 3193SOL    HW210479   4.499   3.686   6.523
 3194SOL     OW10480   0.510   3.517   6.073
 3194SOL    HW110481   0.439   3.584   6.050
 3194SOL    HW210482   0.468   3.437   6.115
 3195SOL     OW10483   0.516   3.807   3.407
 3195SOL    HW110484   0.416   3.817   3.405
 3195SOL    HW210485   0.539   3.710   3.403
 3196SOL     OW10486   0.107   6.885   5.627
 3196SOL    HW110487   0.043   6.813   5.599
 3196SOL    HW210488   0.060   6.973   5.629
 3197SOL     OW10489   1.319   4.315   4.342
 3197SOL    HW110490   1.283   4.380   4.409
 3197SOL    HW210491   1.249   4.294   4.274
 3198SOL     OW10492   6.665   1.662   0.161
 3198SOL    HW110493   6.699   1.735   0.220
 3198SOL    HW210494   6.738   1.634   0.098
 3199SOL     OW10495   3.848   1.864   2.710
 3199SOL    HW110496   3.929   1.909   2.672
 3199SOL    HW210497   3.780   1.934   2.734
 3200SOL     OW10498   6.910   2.200   1.387
 3200SOL    HW110499   6.960   2.278   1.349
 3200SOL    HW210500   6.958   2.165   1.467
 3201SOL     OW10501   4.931   4.313   2.905
 3201SOL    HW110502   4.862   4.382   2.928
 3201SOL    HW210503   5.016   4.334   2.953
 3202SOL     OW10504   2.265   5.581   1.354
 3202SOL    HW110505   2.238   5.663   1.304
 3202SOL    HW210506   2.257   5.599   1.452
 3203SOL     OW10507   6.102   0.465   1.540
 3203SOL    HW110508   6.094   0.515   1.626
 3203SOL    HW210509   6.193   0.422   1.534
 3204SOL     OW10510   6.461   5.589   2.059
 3204SOL    HW110511   6.458   5.675   2.007
 3204SOL    HW210512   6.425   5.515   2.003
 3205SOL     OW10513   1.041   3.891   3.510
 3205SOL    HW110514   1.068   3.978   3.468
 3205SOL    HW210515   0.951   3.902   3.553
 3206SOL     OW10516   1.268   6.892   0.145
 3206SOL    HW110517   1.287   6.990   0.147
 3206SOL    HW210518   1.170   6.877   0.136
 3207SOL     OW10519   0.464   0.797   3.951
 3207SOL    HW110520   0.418   0.849   4.023
 3207SOL    HW210521   0.543   0.749   3.990
 3208SOL     OW10522   5.870   6.715   5.007
 3208SOL    HW110523   5.785   6.663   5.004
 3208SOL    HW210524   5.868   6.786   4.937
 3209SOL     OW10525   2.191   0.489   3.270
 3209SOL    HW110526   2.268   0.433   3.239
 3209SOL    HW210527   2.174   0.471   3.367
 3210SOL     OW10528   0.046   4.668   2.771
 3210SOL    HW110529   0.108   4.742   2.798
 3210SOL    HW210530   0.031   4.608   2.850
 3211SOL     OW10531   1.635   4.095   2.085
 3211SOL    HW110532   1.621   4.189   2.115
 3211SOL    HW210533   1.560   4.037   2.118
 3212SOL     OW10534   4.862   2.433   5.720
 3212SOL    HW110535   4.801   2.401   5.793
 3212SOL    HW210536   4.870   2.532   5.725
 3213SOL     OW10537   5.945   6.174   1.756
 3213SOL    HW110538   5.948   6.274   1.753
 3213SOL    HW210539   6.035   6.139   1.779
 3214SOL     OW10540   3.829   5.155   6.279
 3214SOL    HW110541   3.750   5.197   6.325
 3214SOL    HW210542   3.905   5.220   6.276
 3215SOL     OW10543   6.271   0.815   6.839
 3215SOL    HW110544   6.291   0.912   6.826
 3215SOL    HW210545   6.356   0.762   6.833
 3216SOL     OW10546   5.658   7.020   4.530
 3216SOL    HW110547   5.614   6.995   4.444
 3216SOL    HW210548   5.660   0.094   4.539
 3217SOL     OW10549   0.029   3.633   1.403
 3217SOL    HW110550   0.106   3.596   1.456
 3217SOL    HW210551   7.014   3.710   1.454
 3218SOL     OW10552   2.649   0.660   2.521
 3218SOL    HW110553   2.600   0.588   2.472
 3218SOL    HW210554   2.645   0.745   2.467
 3219SOL     OW10555   6.775   0.031   4.023
 3219SOL    HW110556   6.758   6.985   4.092
 3219SOL    HW210557   6.842   0.096   4.059
 3220SOL     OW10558   6.183   3.177   5.415
 3220SOL    HW110559   6.096   3.218   5.388
 3220SOL    HW210560   6.206   3.104   5.351
 3221SOL     OW10561   4.064   0.193   2.888
 3221SOL    HW110562   4.135   0.124   2.906
 3221SOL    HW210563   3.980   0.167   2.936
 3222SOL     OW10564   5.765   3.289   3.232
 3222SOL    HW110565   5.788   3.303   3.136
 3222SOL    HW210566   5.694   3.219   3.240
 3223SOL     OW10567   2.233   4.910   5.360
 3223SOL    HW110568   2.309   4.967   5.390
 3223SOL    HW210569   2.268   4.834   5.305
 3224SOL     OW10570   4.357   5.533   0.333
 3224SOL    HW110571   4.405   5.480   0.264
 3224SOL    HW210572   4.419   5.557   0.407
 3225SOL     OW10573   2.658   2.851   1.465
 3225SOL    HW110574   2.721   2.780   1.497
 3225SOL    HW210575   2.710   2.933   1.443
 3226SOL     OW10576   0.592   0.470   4.013
 3226SOL    HW110577   0.657   0.398   4.038
 3226SOL    HW210578   0.608   0.551   4.069
 3227SOL     OW10579   2.737   1.096   5.644
 3227SOL    HW110580   2.657   1.071   5.698
 3227SOL    HW210581   2.711   1.099   5.547
 3228SOL     OW10582   4.844   3.068   4.906
 3228SOL    HW110583   4.893   3.149   4.874
 3228SOL    HW210584   4.795   3.090   4.990
 3229SOL     OW10585   3.914   2.177   5.098
 3229SOL    HW110586   3.968   2.105   5.054
 3229SOL    HW210587   3.920   2.261   5.044
 3230SOL     OW10588   0.854   0.762   3.260
 3230SOL    HW110589   0.820   0.678   3.303
 3230SOL    HW210590   0.910   0.812   3.326
 3231SOL     OW10591   6.066   5.168   0.864
 3231SOL    HW110592   6.162   5.148   0.888
 3231SOL    HW210593   6.055   5.161   0.765
 3232SOL     OW10594   2.173   4.667   3.496
 3232SOL    HW110595   2.085   4.699   3.461
 3232SOL    HW210596   2.221   4.743   3.541
 3233SOL     OW10597   0.906   4.156   1.275
 3233SOL    HW110598   0.943   4.232   1.221
 3233SOL    HW210599   0.828   4.116   1.228
 3234SOL     OW10600   6.968   1.516   4.537
 3234SOL    HW110601   6.869   1.505   4.522
 3234SOL    HW210602   6.994   1.611   4.518
 3235SOL     OW10603   5.610   0.354   3.087
 3235SOL    HW110604   5.702   0.382   3.114
 3235SOL    HW210605   5.595   0.259   3.113
 3236SOL     OW10606   0.739   2.939   2.182
 3236SOL    HW110607   0.789   2.854   2.197
 3236SOL    HW210608   0.738   2.960   2.085
 3237SOL     OW10609   3.193   6.590   4.422
 3237SOL    HW110610   3.234   6.665   4.369
 3237SOL    HW210611   3.228   6.503   4.388
 3238SOL     OW10612   6.710   6.628   6.552
 3238SOL    HW110613   6.665   6.562   6.612
 3238SOL    HW210614   6.641   6.688   6.510
 3239SOL     OW10615   0.590   6.460   5.726
 3239SOL    HW110616   0.530   6.540   5.717
 3239SOL    HW210617   0.612   6.446   5.823
 3240SOL     OW10618   0.699   1.061   4.619
 3240SOL    HW110619   0.782   1.038   4.670
 3240SOL    HW210620   0.724   1.110   4.536
 3241SOL     OW10621   5.005   1.318   4.760
 3241SOL    HW110622   5.064   1.356   4.688
 3241SOL    HW210623   4.938   1.257   4.718
 3242SOL     OW10624   3.059   6.457   0.427
 3242SOL    HW110625   3.095   6.550   0.418
 3242SOL    HW210626   2.963   6.455   0.399
 3243SOL     OW10627   3.290   5.829   0.870
 3243SOL    HW110628   3.274   5.749   0.928
 3243SOL    HW210629   3.376   5.872   0.895
 3244SOL     OW10630   2.449   6.156   5.953
 3244SOL    HW110631   2.424   6.060   5.942
 3244SOL    HW210632   2.428   6.186   6.046
 3245SOL     OW10633   3.347   2.241   5.861
 3245SOL    HW110634   3.416   2.294   5.910
 3245SOL    HW210635   3.261   2.244   5.910
 3246SOL     OW10636   5.190   6.643   3.782
 3246SOL    HW110637   5.277   6.635   3.733
 3246SOL    HW210638   5.187   6.576   3.856
 3247SOL     OW10639   0.441   1.671   4.507
 3247SOL    HW110640   0.489   1.673   4.595
 3247SOL    HW210641   0.356   1.619   4.517
 3248SOL     OW10642   6.172   4.182   1.974
 3248SOL    HW110643   6.128   4.272   1.970
 3248SOL    HW210644   6.102   4.111   1.967
 3249SOL     OW10645   3.134   4.345   5.291
 3249SOL    HW110646   3.068   4.411   5.254
 3249SOL    HW210647   3.099   4.252   5.275
 3250SOL     OW10648   3.996   6.315   1.718
 3250SOL    HW110649   4.058   6.311   1.640
 3250SOL    HW210650   4.030   6.382   1.784
 3251SOL     OW10651   3.079   1.212   3.641
 3251SOL    HW110652   3.109   1.295   3.687
 3251SOL    HW210653   3.009   1.235   3.572
 3252SOL     OW10654   3.060   2.056   3.220
 3252SOL    HW110655   3.018   2.016   3.138
 3252SOL    HW210656   2.990   2.102   3.274
 3253SOL     OW10657   4.700   3.638   0.817
 3253SOL    HW110658   4.630   3.566   0.808
 3253SOL    HW210659   4.683   3.689   0.902
 3254SOL     OW10660   5.213   5.383   2.350
 3254SOL    HW110661   5.292   5.408   2.406
 3254SOL    HW210662   5.163   5.465   2.323
 3255SOL     OW10663   4.347   4.543   0.672
 3255SOL    HW110664   4.409   4.614   0.704
 3255SOL    HW210665   4.393   4.485   0.605
 3256SOL     OW10666   6.260   6.368   5.579
 3256SOL    HW110667   6.351   6.384   5.617
 3256SOL    HW210668   6.190   6.394   5.646
 3257SOL     OW10669   2.375   1.747   1.133
 3257SOL    HW110670   2.287   1.752   1.180
 3257SOL    HW210671   2.423   1.663   1.159
 3258SOL     OW10672   5.634   6.715   1.546
 3258SOL    HW110673   5.673   6.807   1.537
 3258SOL    HW210674   5.606   6.682   1.456
 3259SOL     OW10675   5.879   6.331   3.120
 3259SOL    HW110676   5.840   6.407   3.068
 3259SOL    HW210677   5.808   6.292   3.180
 3260SOL     OW10678   1.396   3.258   0.085
 3260SOL    HW110679   1.324   3.192   0.107
 3260SOL    HW210680   1.464   3.216   0.025
 3261SOL     OW10681   4.271   0.189   3.499
 3261SOL    HW110682   4.308   0.282   3.507
 3261SOL    HW210683   4.184   0.184   3.547
 3262SOL     OW10684   3.613   1.534   3.647
 3262SOL    HW110685   3.704   1.550   3.609
 3262SOL    HW210686   3.621   1.481   3.732
 3263SOL     OW10687   3.307   5.423   2.255
 3263SOL    HW110688   3.311   5.446   2.352
 3263SOL    HW210689   3.345   5.498   2.201
 3264SOL     OW10690   5.156   4.658   6.076
 3264SOL    HW110691   5.130   4.562   6.081
 3264SOL    HW210692   5.136   4.693   5.984
 3265SOL     OW10693   4.472   0.703   6.612
 3265SOL    HW110694   4.389   0.738   6.567
 3265SOL    HW210695   4.488   0.609   6.584
 3266SOL     OW10696   0.848   1.685   6.166
 3266SOL    HW110697   0.919   1.698   6.096
 3266SOL    HW210698   0.869   1.604   6.221
 3267SOL     OW10699   4.639   2.329   1.052
 3267SOL    HW110700   4.554   2.277   1.048
 3267SOL    HW210701   4.711   2.271   1.092
 3268SOL     OW10702   1.339   4.473   6.408
 3268SOL    HW110703   1.313   4.538   6.479
 3268SOL    HW210704   1.438   4.461   6.408
 3269SOL     OW10705   4.933   3.197   0.581
 3269SOL    HW110706   5.022   3.243   0.578
 3269SOL    HW210707   4.907   3.180   0.676
 3270SOL     OW10708   0.815   5.790   4.676
 3270SOL    HW110709   0.875   5.868   4.660
 3270SOL    HW210710   0.854   5.709   4.634
 3271SOL     OW10711   6.034   1.765   0.819
 3271SOL    HW110712   5.987   1.823   0.885
 3271SOL    HW210713   6.088   1.821   0.756
 3272SOL     OW10714   5.076   6.831   0.355
 3272SOL    HW110715   4.986   6.828   0.399
 3272SOL    HW210716   5.107   6.738   0.335
 3273SOL     OW10717   0.075   7.025   2.634
 3273SOL    HW110718   0.042   0.004   2.728
 3273SOL    HW210719   0.000   0.020   2.571
 3274SOL     OW10720   3.573   1.689   6.693
 3274SOL    HW110721   3.500   1.698   6.761
 3274SOL    HW210722   3.541   1.631   6.618
 3275SOL     OW10723   3.754   0.506   6.835
 3275SOL    HW110724   3.689   0.485   6.761
 3275SOL    HW210725   3.711   0.566   6.902
 3276SOL     OW10726   2.776   6.430   0.362
 3276SOL    HW110727   2.762   6.331   0.358
 3276SOL    HW210728   2.719   6.469   0.434
 3277SOL     OW10729   0.149   6.284   5.731
 3277SOL    HW110730   0.224   6.269   5.667
 3277SOL    HW210731   0.151   6.378   5.765
 3278SOL     OW10732   1.577   1.163   0.611
 3278SOL    HW110733   1.566   1.165   0.512
 3278SOL    HW210734   1.662   1.209   0.637
 3279SOL     OW10735   1.948   6.796   1.273
 3279SOL    HW110736   1.983   6.793   1.179
 3279SOL    HW210737   1.856   6.836   1.273
 3280SOL     OW10738   1.857   5.366   5.201
 3280SOL    HW110739   1.826   5.442   5.144
 3280SOL    HW210740   1.892   5.293   5.142
 3281SOL     OW10741   2.681   5.991   0.429
 3281SOL    HW110742   2.655   5.897   0.451
 3281SOL    HW210743   2.655   6.011   0.334
 3282SOL     OW10744   2.052   5.362   2.605
 3282SOL    HW110745   2.027   5.443   2.553
 3282SOL    HW210746   2.020   5.371   2.699
 3283SOL     OW10747   2.203   6.934   3.619
 3283SOL    HW110748   2.281   6.991   3.642
 3283SOL    HW210749   2.212   6.901   3.525
 3284SOL     OW10750   0.345   4.259   6.035
 3284SOL    HW110751   0.443   4.255   6.015
 3284SOL    HW210752   0.328   4.326   6.107
 3285SOL     OW10753   0.049   2.085   4.669
 3285SOL    HW110754   0.088   2.096   4.578
 3285SOL    HW210755   0.071   1.994   4.704
 3286SOL     OW10756   3.694   4.700   5.570
 3286SOL    HW110757   3.649   4.687   5.481
 3286SOL    HW210758   3.664   4.786   5.610
 3287SOL     OW10759   0.555   5.371   1.683
 3287SOL    HW110760   0.553   5.330   1.774
 3287SOL    HW210761   0.464   5.366   1.642
 3288SOL     OW10762   1.625   6.660   0.248
 3288SOL    HW110763   1.593   6.637   0.156
 3288SOL    HW210764   1.555   6.715   0.294
 3289SOL     OW10765   1.246   5.548   4.543
 3289SOL    HW110766   1.261   5.601   4.627
 3289SOL    HW210767   1.335   5.519   4.506
 3290SOL     OW10768   6.688   5.631   2.182
 3290SOL    HW110769   6.677   5.668   2.275
 3290SOL    HW210770   6.600   5.595   2.150
 3291SOL     OW10771   2.062   0.303   1.870
 3291SOL    HW110772   1.970   0.264   1.883
 3291SOL    HW210773   2.106   0.316   1.959
 3292SOL     OW10774   0.678   5.661   5.357
 3292SOL    HW110775   0.750   5.724   5.385
 3292SOL    HW210776   0.671   5.662   5.257
 3293SOL     OW10777   6.544   0.401   3.076
 3293SOL    HW110778   6.459   0.349   3.078
 3293SOL    HW210779   6.610   0.354   3.017
 3294SOL     OW10780   0.737   0.230   6.828
 3294SOL    HW110781   0.685   0.299   6.778
 3294SOL    HW210782   0.704   0.139   6.803
 3295SOL     OW10783   1.165   2.347   6.308
 3295SOL    HW110784   1.166   2.271   6.243
 3295SOL    HW210785   1.173   2.434   6.258
 3296SOL     OW10786   0.850   6.486   2.009
 3296SOL    HW110787   0.813   6.554   1.946
 3296SOL    HW210788   0.929   6.524   2.057
 3297SOL     OW10789   2.916   2.212   5.884
 3297SOL    HW110790   2.958   2.231   5.795
 3297SOL    HW210791   2.987   2.199   5.952
 3298SOL     OW10792   5.975   3.483   3.358
 3298SOL    HW110793   6.001   3.526   3.271
 3298SOL    HW210794   5.884   3.442   3.349
 3299SOL     OW10795   0.925   0.541   5.142
 3299SOL    HW110796   0.894   0.462   5.194
 3299SOL    HW210797   0.946   0.514   5.048
 3300SOL     OW10798   6.735   0.161   4.608
 3300SOL    HW110799   6.771   0.186   4.518
 3300SOL    HW210800   6.662   0.224   4.634
 3301SOL     OW10801   0.660   4.181   3.005
 3301SOL    HW110802   0.582   4.168   3.066
 3301SOL    HW210803   0.745   4.168   3.055
 3302SOL     OW10804   1.067   5.009   4.001
 3302SOL    HW110805   1.132   5.071   3.958
 3302SOL    HW210806   1.093   4.993   4.096
 3303SOL     OW10807   3.291   3.792   3.778
 3303SOL    HW110808   3.321   3.771   3.870
 3303SOL    HW210809   3.345   3.740   3.712
 3304SOL     OW10810   1.147   6.834   3.516
 3304SOL    HW110811   1.084   6.903   3.482
 3304SOL    HW210812   1.122   6.745   3.478
 3305SOL     OW10813   1.380   0.938   1.764
 3305SOL    HW110814   1.397   0.854   1.713
 3305SOL    HW210815   1.305   0.988   1.721
 3306SOL     OW10816   0.907   3.411   2.544
 3306SOL    HW110817   0.870   3.318   2.540
 3306SOL    HW210818   0.832   3.477   2.543
 3307SOL     OW10819   0.858   6.507   0.936
 3307SOL    HW110820   0.860   6.510   1.036
 3307SOL    HW210821   0.769   6.473   0.905
 3308SOL     OW10822   5.196   6.141   0.685
 3308SOL    HW110823   5.257   6.076   0.731
 3308SOL    HW210824   5.152   6.200   0.753
 3309SOL     OW10825   1.545   5.789   2.458
 3309SOL    HW110826   1.488   5.868   2.435
 3309SOL    HW210827   1.508   5.744   2.539
 3310SOL     OW10828   1.041   6.888   1.978
 3310SOL    HW110829   1.120   6.924   1.928
 3310SOL    HW210830   0.971   6.959   1.986
 3311SOL     OW10831   3.836   6.430   0.959
 3311SOL    HW110832   3.784   6.451   0.876
 3311SOL    HW210833   3.871   6.336   0.955
 3312SOL     OW10834   2.149   3.374   6.841
 3312SOL    HW110835   2.150   3.388   6.940
 3312SOL    HW210836   2.163   3.461   6.794
 3313SOL     OW10837   6.633   6.093   4.943
 3313SOL    HW110838   6.664   6.051   4.858
 3313SOL    HW210839   6.604   6.187   4.925
 3314SOL     OW10840   0.566   3.493   6.665
 3314SOL    HW110841   0.551   3.557   6.740
 3314SOL    HW210842   0.612   3.411   6.700
 3315SOL     OW10843   6.893   3.709   2.732
 3315SOL    HW110844   6.890   3.613   2.759
 3315SOL    HW210845   6.978   3.750   2.765
 3316SOL     OW10846   4.578   0.887   0.556
 3316SOL    HW110847   4.518   0.853   0.629
 3316SOL    HW210848   4.626   0.811   0.514
 3317SOL     OW10849   4.829   2.417   1.824
 3317SOL    HW110850   4.909   2.402   1.882
 3317SOL    HW210851   4.795   2.330   1.790
 3318SOL     OW10852   2.122   5.285   5.385
 3318SOL    HW110853   2.105   5.188   5.370
 3318SOL    HW210854   2.159   5.299   5.476
 3319SOL     OW10855   0.145   6.210   6.340
 3319SOL    HW110856   0.105   6.276   6.277
 3319SOL    HW210857   0.112   6.118   6.319
 3320SOL     OW10858   0.251   2.169   5.862
 3320SOL    HW110859   0.167   2.222   5.851
 3320SOL    HW210860   0.302   2.168   5.776
 3321SOL     OW10861   3.393   3.603   4.119
 3321SOL    HW110862   3.415   3.614   4.022
 3321SOL    HW210863   3.362   3.510   4.136
 3322SOL     OW10864   4.821   2.006   0.955
 3322SOL    HW110865   4.752   2.028   0.886
 3322SOL    HW210866   4.895   1.953   0.913
 3323SOL     OW10867   2.792   4.966   0.046
 3323SOL    HW110868   2.865   4.951   7.005
 3323SOL    HW210869   2.774   4.881   0.096
 3324SOL     OW10870   0.439   2.856   0.832
 3324SOL    HW110871   0.396   2.787   0.891
 3324SOL    HW210872   0.440   2.944   0.880
 3325SOL     OW10873   1.659   3.437   0.375
 3325SOL    HW110874   1.681   3.358   0.433
 3325SOL    HW210875   1.721   3.513   0.397
 3326SOL     OW10876   6.407   1.026   1.813
 3326SOL    HW110877   6.327   0.968   1.800
 3326SOL    HW210878   6.415   1.053   1.909
 3327SOL     OW10879   3.269   6.904   1.843
 3327SOL    HW110880   3.301   6.957   1.765
 3327SOL    HW210881   3.248   6.810   1.813
 3328SOL     OW10882   4.483   0.557   3.144
 3328SOL    HW110883   4.496   0.594   3.236
 3328SOL    HW210884   4.408   0.490   3.145
 3329SOL     OW10885   5.486   0.954   5.817
 3329SOL    HW110886   5.417   0.907   5.762
 3329SOL    HW210887   5.560   0.985   5.757
 3330SOL     OW10888   6.519   5.487   3.336
 3330SOL    HW110889   6.429   5.455   3.365
 3330SOL    HW210890   6.551   5.431   3.259
 3331SOL     OW10891   1.840   3.373   2.773
 3331SOL    HW110892   1.781   3.346   2.697
 3331SOL    HW210893   1.840   3.473   2.781
 3332SOL     OW10894   3.604   4.909   0.738
 3332SOL    HW110895   3.555   4.876   0.657
 3332SOL    HW210896   3.700   4.881   0.734
 3333SOL     OW10897   2.350   3.163   1.632
 3333SOL    HW110898   2.317   3.133   1.542
 3333SOL    HW210899   2.413   3.095   1.669
 3334SOL     OW10900   2.251   2.084   1.704
 3334SOL    HW110901   2.318   2.157   1.719
 3334SOL    HW210902   2.228   2.080   1.607
 3335SOL     OW10903   3.643   4.080   5.265
 3335SOL    HW110904   3.611   4.022   5.189
 3335SOL    HW210905   3.638   4.029   5.350
 3336SOL     OW10906   4.888   5.409   4.399
 3336SOL    HW110907   4.983   5.441   4.401
 3336SOL    HW210908   4.833   5.466   4.461
 3337SOL     OW10909   3.276   2.957   2.287
 3337SOL    HW110910   3.241   2.932   2.377
 3337SOL    HW210911   3.200   2.984   2.228
 3338SOL     OW10912   2.801   2.642   1.540
 3338SOL    HW110913   2.850   2.593   1.468
 3338SOL    HW210914   2.860   2.650   1.621
 3339SOL     OW10915   1.903   0.338   6.544
 3339SOL    HW110916   1.947   0.289   6.469
 3339SOL    HW210917   1.945   0.312   6.631
 3340SOL     OW10918   3.859   0.986   4.656
 3340SOL    HW110919   3.842   0.927   4.735
 3340SOL    HW210920   3.772   1.011   4.614
 3341SOL     OW10921   1.102   4.211   2.382
 3341SOL    HW110922   1.071   4.204   2.477
 3341SOL    HW210923   1.193   4.169   2.374
 3342SOL     OW10924   6.404   0.650   2.693
 3342SOL    HW110925   6.455   0.707   2.628
 3342SOL    HW210926   6.445   0.559   2.695
 3343SOL     OW10927   4.459   5.134   0.328
 3343SOL    HW110928   4.541   5.183   0.300
 3343SOL    HW210929   4.438   5.062   0.262
 3344SOL     OW10930   0.549   3.298   2.067
 3344SOL    HW110931   0.458   3.338   2.080
 3344SOL    HW210932   0.578   3.255   2.152
 3345SOL     OW10933   5.592   5.250   6.978
 3345SOL    HW110934   5.674   5.236   0.009
 3345SOL    HW210935   5.532   5.316   7.023
 3346SOL     OW10936   1.855   1.336   0.128
 3346SOL    HW110937   1.786   1.266   0.109
 3346SOL    HW210938   1.809   1.424   0.142
 3347SOL     OW10939   0.359   3.714   5.992
 3347SOL    HW110940   0.266   3.721   5.956
 3347SOL    HW210941   0.423   3.759   5.930
 3348SOL     OW10942   3.278   4.407   6.012
 3348SOL    HW110943   3.247   4.474   5.944
 3348SOL    HW210944   3.374   4.385   5.996
 3349SOL     OW10945   1.920   5.612   3.169
 3349SOL    HW110946   1.950   5.626   3.263
 3349SOL    HW210947   1.874   5.523   3.162
 3350SOL     OW10948   1.846   4.847   4.247
 3350SOL    HW110949   1.784   4.802   4.310
 3350SOL    HW210950   1.940   4.839   4.280
 3351SOL     OW10951   5.616   1.222   1.556
 3351SOL    HW110952   5.665   1.286   1.616
 3351SOL    HW210953   5.518   1.234   1.567
 3352SOL     OW10954   5.824   1.289   6.897
 3352SOL    HW110955   5.871   1.376   6.880
 3352SOL    HW210956   5.854   1.221   6.831
 3353SOL     OW10957   4.143   0.291   0.283
 3353SOL    HW110958   4.179   0.382   0.304
 3353SOL    HW210959   4.131   0.282   0.184
 3354SOL     OW10960   3.248   3.882   6.131
 3354SOL    HW110961   3.281   3.946   6.061
 3354SOL    HW210962   3.204   3.803   6.087
 3355SOL     OW10963   1.643   0.114   4.975
 3355SOL    HW110964   1.597   0.061   4.903
 3355SOL    HW210965   1.613   0.081   5.065
 3356SOL     OW10966   1.591   0.703   5.942
 3356SOL    HW110967   1.674   0.677   5.992
 3356SOL    HW210968   1.524   0.742   6.006
 3357SOL     OW10969   3.535   2.934   2.156
 3357SOL    HW110970   3.452   2.928   2.212
 3357SOL    HW210971   3.534   2.860   2.088
 3358SOL     OW10972   6.987   1.007   1.982
 3358SOL    HW110973   0.049   0.979   2.023
 3358SOL    HW210974   7.004   1.052   1.894
 3359SOL     OW10975   0.624   6.732   4.755
 3359SOL    HW110976   0.633   6.682   4.841
 3359SOL    HW210977   0.648   6.671   4.679
 3360SOL     OW10978   2.294   4.193   4.374
 3360SOL    HW110979   2.289   4.093   4.369
 3360SOL    HW210980   2.302   4.231   4.282
 3361SOL     OW10981   6.488   0.166   5.573
 3361SOL    HW110982   6.512   0.118   5.657
 3361SOL    HW210983   6.555   0.238   5.556
 3362SOL     OW10984   3.513   0.328   4.447
 3362SOL    HW110985   3.424   0.317   4.402
 3362SOL    HW210986   3.545   0.421   4.435
 3363SOL     OW10987   5.935   3.922   0.195
 3363SOL    HW110988   5.849   3.911   0.243
 3363SOL    HW210989   5.934   3.868   0.111
 3364SOL     OW10990   1.650   3.845   3.423
 3364SOL    HW110991   1.726   3.803   3.473
 3364SOL    HW210992   1.625   3.931   3.467
 3365SOL     OW10993   1.483   3.754   3.234
 3365SOL    HW110994   1.567   3.779   3.282
 3365SOL    HW210995   1.422   3.834   3.229
 3366SOL     OW10996   5.746   3.283   4.885
 3366SOL    HW110997   5.650   3.292   4.860
 3366SOL    HW210998   5.788   3.374   4.888
 3367SOL     OW10999   3.016   3.831   3.906
 3367SOL    HW111000   2.999   3.771   3.983
 3367SOL    HW211001   3.095   3.798   3.854
 3368SOL     OW11002   2.219   0.364   2.411
 3368SOL    HW111003   2.195   0.454   2.375
 3368SOL    HW211004   2.140   0.325   2.458
 3369SOL     OW11005   5.290   2.407   1.253
 3369SOL    HW111006   5.274   2.309   1.256
 3369SOL    HW211007   5.387   2.426   1.269
 3370SOL     OW11008   0.463   5.909   2.899
 3370SOL    HW111009   0.551   5.939   2.863
 3370SOL    HW211010   0.477   5.831   2.960
 3371SOL     OW11011   2.377   2.747   1.924
 3371SOL    HW111012   2.432   2.664   1.918
 3371SOL    HW211013   2.292   2.734   1.873
 3372SOL     OW11014   6.270   4.124   2.995
 3372SOL    HW111015   6.238   4.066   3.070
 3372SOL    HW211016   6.203   4.120   2.920
 3373SOL     OW11017   0.256   3.641   1.862
 3373SOL    HW111018   0.208   3.727   1.878
 3373SOL    HW211019   0.345   3.644   1.909
 3374SOL     OW11020   0.528   6.676   4.066
 3374SOL    HW111021   0.602   6.649   4.127
 3374SOL    HW211022   0.563   6.738   3.996
 3375SOL     OW11023   0.294   5.938   5.716
 3375SOL    HW111024   0.387   5.937   5.681
 3375SOL    HW211025   0.290   5.997   5.797
 3376SOL     OW11026   3.217   3.013   4.301
 3376SOL    HW111027   3.137   3.052   4.255
 3376SOL    HW211028   3.295   3.014   4.238
 3377SOL     OW11029   6.455   5.132   4.185
 3377SOL    HW111030   6.503   5.116   4.271
 3377SOL    HW211031   6.428   5.228   4.179
 3378SOL     OW11032   1.765   6.936   0.815
 3378SOL    HW111033   1.765   6.836   0.815
 3378SOL    HW211034   1.671   6.969   0.817
 3379SOL     OW11035   6.386   4.158   3.752
 3379SOL    HW111036   6.409   4.070   3.711
 3379SOL    HW211037   6.447   4.228   3.716
 3380SOL     OW11038   2.670   4.391   0.435
 3380SOL    HW111039   2.601   4.381   0.507
 3380SOL    HW211040   2.756   4.352   0.466
 3381SOL     OW11041   2.482   3.502   5.769
 3381SOL    HW111042   2.482   3.405   5.744
 3381SOL    HW211043   2.421   3.552   5.708
 3382SOL     OW11044   6.660   3.608   0.185
 3382SOL    HW111045   6.676   3.707   0.191
 3382SOL    HW211046   6.649   3.582   0.089
 3383SOL     OW11047   4.125   4.885   0.280
 3383SOL    HW111048   4.145   4.980   0.255
 3383SOL    HW211049   4.112   4.830   0.197
 3384SOL     OW11050   2.659   3.428   6.708
 3384SOL    HW111051   2.624   3.459   6.796
 3384SOL    HW211052   2.584   3.421   6.642
 3385SOL     OW11053   6.726   2.270   3.986
 3385SOL    HW111054   6.705   2.234   3.895
 3385SOL    HW211055   6.782   2.203   4.036
 3386SOL     OW11056   0.356   5.940   4.932
 3386SOL    HW111057   0.387   5.862   4.877
 3386SOL    HW211058   0.336   6.017   4.872
 3387SOL     OW11059   5.858   1.118   3.006
 3387SOL    HW111060   5.800   1.184   3.054
 3387SOL    HW211061   5.935   1.165   2.964
 3388SOL     OW11062   6.886   3.718   1.112
 3388SOL    HW111063   6.836   3.764   1.185
 3388SOL    HW211064   6.969   3.770   1.090
 3389SOL     OW11065   5.589   5.837   6.628
 3389SOL    HW111066   5.621   5.773   6.698
 3389SOL    HW211067   5.566   5.925   6.670
 3390SOL     OW11068   2.963   5.297   6.507
 3390SOL    HW111069   2.909   5.352   6.443
 3390SOL    HW211070   3.021   5.234   6.456
 3391SOL     OW11071   5.709   4.104   4.181
 3391SOL    HW111072   5.792   4.048   4.171
 3391SOL    HW211073   5.656   4.099   4.096
 3392SOL     OW11074   4.908   6.549   5.881
 3392SOL    HW111075   4.983   6.488   5.908
 3392SOL    HW211076   4.905   6.627   5.943
 3393SOL     OW11077   3.972   6.181   0.974
 3393SOL    HW111078   4.068   6.198   0.996
 3393SOL    HW211079   3.966   6.100   0.915
 3394SOL     OW11080   2.524   5.516   1.267
 3394SOL    HW111081   2.424   5.522   1.268
 3394SOL    HW211082   2.563   5.608   1.268
 3395SOL     OW11083   2.216   6.833   3.348
 3395SOL    HW111084   2.207   6.741   3.308
 3395SOL    HW211085   2.313   6.852   3.366
 3396SOL     OW11086   4.297   0.405   4.306
 3396SOL    HW111087   4.389   0.372   4.329
 3396SOL    HW211088   4.292   0.422   4.208
 3397SOL     OW11089   2.424   5.497   6.696
 3397SOL    HW111090   2.383   5.453   6.616
 3397SOL    HW211091   2.422   5.434   6.774
 3398SOL     OW11092   6.631   2.102   5.098
 3398SOL    HW111093   6.713   2.052   5.070
 3398SOL    HW211094   6.657   2.192   5.132
 3399SOL     OW11095   6.465   6.249   2.100
 3399SOL    HW111096   6.410   6.187   2.045
 3399SOL    HW211097   6.548   6.273   2.051
 3400SOL     OW11098   4.224   3.114   5.696
 3400SOL    HW111099   4.142   3.172   5.695
 3400SOL    HW211100   4.223   3.054   5.616
 3401SOL     OW11101   6.893   3.835   5.061
 3401SOL    HW111102   6.853   3.875   4.978
 3401SOL    HW211103   6.823   3.789   5.114
 3402SOL     OW11104   6.660   3.568   0.752
 3402SOL    HW111105   6.727   3.518   0.698
 3402SOL    HW211106   6.691   3.663   0.764
 3403SOL     OW11107   5.453   0.119   6.660
 3403SOL    HW111108   5.364   0.075   6.651
 3403SOL    HW211109   5.446   0.192   6.729
 3404SOL     OW11110   5.175   4.166   4.283
 3404SOL    HW111111   5.163   4.223   4.364
 3404SOL    HW211112   5.086   4.134   4.250
 3405SOL     OW11113   4.762   5.799   0.370
 3405SOL    HW111114   4.704   5.772   0.294
 3405SOL    HW211115   4.855   5.813   0.338
 3406SOL     OW11116   3.107   5.482   1.667
 3406SOL    HW111117   3.023   5.497   1.615
 3406SOL    HW211118   3.094   5.515   1.761
 3407SOL     OW11119   1.079   4.346   6.402
 3407SOL    HW111120   1.170   4.384   6.417
 3407SOL    HW211121   1.016   4.381   6.471
 3408SOL     OW11122   4.945   0.031   3.766
 3408SOL    HW111123   4.845   0.032   3.762
 3408SOL    HW211124   4.982   0.099   3.703
 3409SOL     OW11125   3.998   0.731   0.445
 3409SOL    HW111126   3.964   0.820   0.475
 3409SOL    HW211127   3.957   0.658   0.500
 3410SOL     OW11128   6.517   0.659   3.087
 3410SOL    HW111129   6.540   0.562   3.091
 3410SOL    HW211130   6.424   0.670   3.050
 3411SOL     OW11131   6.580   3.312   5.877
 3411SOL    HW111132   6.525   3.351   5.951
 3411SOL    HW211133   6.677   3.316   5.902
 3412SOL     OW11134   5.922   3.356   2.396
 3412SOL    HW111135   5.825   3.341   2.418
 3412SOL    HW211136   5.967   3.269   2.380
 3413SOL     OW11137   6.674   1.313   0.479
 3413SOL    HW111138   6.736   1.390   0.473
 3413SOL    HW211139   6.605   1.331   0.550
 3414SOL     OW11140   3.446   3.353   1.412
 3414SOL    HW111141   3.369   3.323   1.468
 3414SOL    HW211142   3.430   3.329   1.316
 3415SOL     OW11143   2.281   1.503   5.561
 3415SOL    HW111144   2.320   1.434   5.500
 3415SOL    HW211145   2.354   1.563   5.594
 3416SOL     OW11146   6.789   6.917   6.711
 3416SOL    HW111147   6.696   6.948   6.691
 3416SOL    HW211148   6.841   6.913   6.625
 3417SOL     OW11149   6.193   6.766   3.195
 3417SOL    HW111150   6.277   6.811   3.167
 3417SOL    HW211151   6.170   6.793   3.289
 3418SOL     OW11152   4.149   5.157   0.732
 3418SOL    HW111153   4.210   5.175   0.810
 3418SOL    HW211154   4.060   5.127   0.766
 3419SOL     OW11155   2.447   5.247   5.600
 3419SOL    HW111156   2.432   5.238   5.698
 3419SOL    HW211157   2.523   5.310   5.584
 3420SOL     OW11158   4.572   1.775   2.029
 3420SOL    HW111159   4.477   1.752   2.046
 3420SOL    HW211160   4.582   1.808   1.935
 3421SOL     OW11161   0.698   2.081   4.844
 3421SOL    HW111162   0.783   2.105   4.891
 3421SOL    HW211163   0.643   2.163   4.830
 3422SOL     OW11164   2.499   6.416   1.022
 3422SOL    HW111165   2.549   6.333   0.997
 3422SOL    HW211166   2.402   6.393   1.036
 3423SOL     OW11167   2.175   4.674   5.790
 3423SOL    HW111168   2.168   4.686   5.889
 3423SOL    HW211169   2.271   4.677   5.762
 3424SOL     OW11170   5.345   1.291   1.882
 3424SOL    HW111171   5.332   1.228   1.806
 3424SOL    HW211172   5.405   1.366   1.854
 3425SOL     OW11173   6.670   3.520   6.345
 3425SOL    HW111174   6.600   3.486   6.282
 3425SOL    HW211175   6.670   3.464   6.427
 3426SOL     OW11176   6.426   3.719   6.782
 3426SOL    HW111177   6.347   3.780   6.770
 3426SOL    HW211178   6.444   3.672   6.696
 3427SOL     OW11179   1.178   2.459   0.352
 3427SOL    HW111180   1.204   2.367   0.378
 3427SOL    HW211181   1.110   2.455   0.278
 3428SOL     OW11182   4.297   6.560   4.732
 3428SOL    HW111183   4.233   6.553   4.655
 3428SOL    HW211184   4.335   6.469   4.751
 3429SOL     OW11185   4.453   6.603   0.724
 3429SOL    HW111186   4.538   6.646   0.755
 3429SOL    HW211187   4.473   6.511   0.690
 3430SOL     OW11188   2.921   3.965   5.941
 3430SOL    HW111189   2.872   3.944   6.026
 3430SOL    HW211190   2.953   4.060   5.944
 3431SOL     OW11191   0.413   4.745   2.510
 3431SOL    HW111192   0.501   4.738   2.462
 3431SOL    HW211193   0.394   4.659   2.556
 3432SOL     OW11194   0.096   4.668   0.281
 3432SOL    HW111195   0.171   4.733   0.265
 3432SOL    HW211196   0.080   4.615   0.198
 3433SOL     OW11197   2.111   1.146   6.610
 3433SOL    HW111198   2.188   1.173   6.552
 3433SOL    HW211199   2.085   1.223   6.668
 3434SOL     OW11200   3.709   2.525   1.662
 3434SOL    HW111201   3.639   2.596   1.661
 3434SOL    HW211202   3.698   2.468   1.743
 3435SOL     OW11203   1.585   1.775   1.348
 3435SOL    HW111204   1.529   1.694   1.368
 3435SOL    HW211205   1.558   1.850   1.408
 3436SOL     OW11206   3.309   7.002   6.116
 3436SOL    HW111207   3.256   6.937   6.170
 3436SOL    HW211208   3.323   6.965   6.024
 3437SOL     OW11209   1.198   0.049   6.739
 3437SOL    HW111210   1.295   0.053   6.715
 3437SOL    HW211211   1.176   6.981   6.768
 3438SOL     OW11212   2.445   3.926   0.990
 3438SOL    HW111213   2.352   3.956   1.012
 3438SOL    HW211214   2.473   3.966   0.903
 3439SOL     OW11215   2.857   5.798   1.258
 3439SOL    HW111216   2.758   5.807   1.260
 3439SOL    HW211217   2.893   5.801   1.352
 3440SOL     OW11218   3.766   3.729   5.351
 3440SOL    HW111219   3.701   3.673   5.299
 3440SOL    HW211220   3.718   3.806   5.394
 3441SOL     OW11221   6.136   5.434   5.808
 3441SOL    HW111222   6.225   5.475   5.784
 3441SOL    HW211223   6.131   5.342   5.771
 3442SOL     OW11224   1.996   3.065   1.317
 3442SOL    HW111225   2.017   3.082   1.413
 3442SOL    HW211226   2.046   2.984   1.286
 3443SOL     OW11227   0.112   5.858   2.033
 3443SOL    HW111228   0.060   5.787   1.987
 3443SOL    HW211229   0.138   5.827   2.124
 3444SOL     OW11230   6.593   3.827   5.503
 3444SOL    HW111231   6.594   3.771   5.586
 3444SOL    HW211232   6.513   3.804   5.448
 3445SOL     OW11233   6.135   4.743   4.492
 3445SOL    HW111234   6.050   4.795   4.502
 3445SOL    HW211235   6.212   4.800   4.521
 3446SOL     OW11236   4.264   0.984   1.534
 3446SOL    HW111237   4.286   0.888   1.518
 3446SOL    HW211238   4.293   1.009   1.627
 3447SOL     OW11239   5.721   0.728   6.377
 3447SOL    HW111240   5.725   0.822   6.410
 3447SOL    HW211241   5.638   0.714   6.324
 3448SOL     OW11242   1.505   4.463   5.263
 3448SOL    HW111243   1.563   4.424   5.191
 3448SOL    HW211244   1.493   4.561   5.246
 3449SOL     OW11245   0.709   4.532   5.259
 3449SOL    HW111246   0.782   4.536   5.327
 3449SOL    HW211247   0.745   4.558   5.169
 3450SOL     OW11248   2.314   0.239   1.535
 3450SOL    HW111249   2.371   0.160   1.513
 3450SOL    HW211250   2.291   0.288   1.451
 3451SOL     OW11251   1.602   2.071   1.047
 3451SOL    HW111252   1.605   2.146   1.113
 3451SOL    HW211253   1.515   2.073   0.998
 3452SOL     OW11254   4.844   1.169   5.126
 3452SOL    HW111255   4.907   1.094   5.108
 3452SOL    HW211256   4.887   1.256   5.102
 3453SOL     OW11257   4.028   6.396   6.960
 3453SOL    HW111258   3.934   6.407   6.991
 3453SOL    HW211259   4.071   6.319   7.007
 3454SOL     OW11260   0.267   3.067   1.509
 3454SOL    HW111261   0.229   3.146   1.557
 3454SOL    HW211262   0.367   3.072   1.508
 3455SOL     OW11263   0.681   3.755   6.017
 3455SOL    HW111264   0.612   3.683   6.033
 3455SOL    HW211265   0.733   3.770   6.100
 3456SOL     OW11266   4.925   5.597   3.501
 3456SOL    HW111267   4.951   5.512   3.547
 3456SOL    HW211268   5.004   5.658   3.497
 3457SOL     OW11269   3.635   4.216   6.478
 3457SOL    HW111270   3.576   4.228   6.558
 3457SOL    HW211271   3.581   4.180   6.402
 3458SOL     OW11272   4.159   1.349   2.706
 3458SOL    HW111273   4.074   1.395   2.733
 3458SOL    HW211274   4.234   1.415   2.707
 3459SOL     OW11275   5.282   5.874   2.205
 3459SOL    HW111276   5.196   5.837   2.241
 3459SOL    HW211277   5.267   5.965   2.168
 3460SOL     OW11278   3.633   1.886   4.901
 3460SOL    HW111279   3.590   1.806   4.944
 3460SOL    HW211280   3.569   1.929   4.838
 3461SOL     OW11281   5.674   4.950   4.704
 3461SOL    HW111282   5.576   4.938   4.720
 3461SOL    HW211283   5.704   4.888   4.632
 3462SOL     OW11284   1.357   3.681   6.438
 3462SOL    HW111285   1.428   3.614   6.416
 3462SOL    HW211286   1.378   3.725   6.526
 3463SOL     OW11287   5.499   4.253   0.327
 3463SOL    HW111288   5.451   4.214   0.248
 3463SOL    HW211289   5.437   4.256   0.405
 3464SOL     OW11290   0.063   4.393   4.167
 3464SOL    HW111291   6.991   4.374   4.182
 3464SOL    HW211292   0.108   4.410   4.254
 3465SOL     OW11293   0.768   1.957   2.857
 3465SOL    HW111294   0.680   1.910   2.856
 3465SOL    HW211295   0.776   2.011   2.941
 3466SOL     OW11296   0.563   3.348   4.805
 3466SOL    HW111297   0.506   3.279   4.759
 3466SOL    HW211298   0.659   3.325   4.793
 3467SOL     OW11299   1.713   2.435   6.071
 3467SOL    HW111300   1.784   2.486   6.023
 3467SOL    HW211301   1.628   2.488   6.071
 3468SOL     OW11302   4.058   5.958   2.307
 3468SOL    HW111303   4.084   6.050   2.278
 3468SOL    HW211304   4.010   5.912   2.233
 3469SOL     OW11305   5.354   3.506   1.394
 3469SOL    HW111306   5.304   3.420   1.396
 3469SOL    HW211307   5.290   3.582   1.384
 3470SOL     OW11308   0.586   5.664   0.827
 3470SOL    HW111309   0.658   5.734   0.824
 3470SOL    HW211310   0.621   5.584   0.876
 3471SOL     OW11311   4.541   0.091   4.913
 3471SOL    HW111312   4.571   0.157   4.845
 3471SOL    HW211313   4.465   0.038   4.877
 3472SOL     OW11314   4.069   1.145   4.922
 3472SOL    HW111315   4.084   1.067   4.983
 3472SOL    HW211316   3.978   1.139   4.882
 3473SOL     OW11317   4.351   6.734   3.998
 3473SOL    HW111318   4.317   6.804   4.062
 3473SOL    HW211319   4.331   6.643   4.035
 3474SOL     OW11320   5.143   4.345   1.083
 3474SOL    HW111321   5.120   4.322   0.989
 3474SOL    HW211322   5.234   4.387   1.086
 3475SOL     OW11323   1.530   6.416   4.750
 3475SOL    HW111324   1.461   6.470   4.702
 3475SOL    HW211325   1.528   6.439   4.848
 3476SOL     OW11326   4.933   1.704   4.734
 3476SOL    HW111327   4.853   1.718   4.792
 3476SOL    HW211328   4.987   1.788   4.730
 3477SOL     OW11329   4.161   5.560   1.807
 3477SOL    HW111330   4.222   5.532   1.881
 3477SOL    HW211331   4.210   5.624   1.747
 3478SOL     OW11332   3.919   4.730   6.844
 3478SOL    HW111333   4.017   4.743   6.828
 3478SOL    HW211334   3.883   4.663   6.779
 3479SOL     OW11335   1.461   0.232   1.630
 3479SOL    HW111336   1.396   0.292   1.676
 3479SOL    HW211337   1.434   0.218   1.535
 3480SOL     OW11338   1.147   0.209   4.199
 3480SOL    HW111339   1.133   0.135   4.134
 3480SOL    HW211340   1.104   0.293   4.166
 3481SOL     OW11341   2.484   6.580   6.849
 3481SOL    HW111342   2.512   6.567   6.754
 3481SOL    HW211343   2.460   6.492   6.889
 3482SOL     OW11344   0.757   2.056   1.661
 3482SOL    HW111345   0.687   2.056   1.589
 3482SOL    HW211346   0.829   2.121   1.637
 3483SOL     OW11347   4.493   1.676   1.084
 3483SOL    HW111348   4.533   1.622   1.010
 3483SOL    HW211349   4.509   1.773   1.067
 3484SOL     OW11350   3.331   3.017   3.774
 3484SOL    HW111351   3.375   3.105   3.791
 3484SOL    HW211352   3.397   2.953   3.735
 3485SOL     OW11353   6.755   1.742   4.353
 3485SOL    HW111354   6.805   1.827   4.369
 3485SOL    HW211355   6.679   1.759   4.291
 3486SOL     OW11356   5.003   1.387   3.296
 3486SOL    HW111357   4.938   1.376   3.222
 3486SOL    HW211358   5.060   1.305   3.303
 3487SOL     OW11359   0.674   0.956   0.364
 3487SOL    HW111360   0.716   0.871   0.396
 3487SOL    HW211361   0.744   1.019   0.333
 3488SOL     OW11362   5.987   3.587   3.888
 3488SOL    HW111363   5.976   3.488   3.887
 3488SOL    HW211364   5.896   3.630   3.891
 3489SOL     OW11365   2.291   6.289   0.734
 3489SOL    HW111366   2.365   6.254   0.677
 3489SOL    HW211367   2.222   6.332   0.676
 3490SOL     OW11368   4.910   2.642   0.969
 3490SOL    HW111369   4.874   2.646   1.062
 3490SOL    HW211370   4.835   2.636   0.904
 3491SOL     OW11371   0.556   2.750   5.257
 3491SOL    HW111372   0.478   2.775   5.315
 3491SOL    HW211373   0.556   2.651   5.242
 3492SOL     OW11374   5.327   5.179   6.811
 3492SOL    HW111375   5.231   5.205   6.806
 3492SOL    HW211376   5.359   5.152   6.720
 3493SOL     OW11377   0.129   5.098   1.545
 3493SOL    HW111378   0.115   5.067   1.451
 3493SOL    HW211379   0.138   5.018   1.606
 3494SOL     OW11380   3.248   6.228   1.333
 3494SOL    HW111381   3.235   6.327   1.332
 3494SOL    HW211382   3.163   6.184   1.304
 3495SOL     OW11383   5.581   4.506   0.326
 3495SOL    HW111384   5.541   4.414   0.330
 3495SOL    HW211385   5.617   4.523   0.235
 3496SOL     OW11386   0.604   4.896   0.813
 3496SOL    HW111387   0.513   4.857   0.797
 3496SOL    HW211388   0.661   4.883   0.732
 3497SOL     OW11389   4.493   6.241   4.172
 3497SOL    HW111390   4.453   6.309   4.234
 3497SOL    HW211391   4.445   6.244   4.084
 3498SOL     OW11392   1.348   1.808   1.159
 3498SOL    HW111393   1.305   1.870   1.224
 3498SOL    HW211394   1.442   1.790   1.188
 3499SOL     OW11395   6.644   3.495   4.160
 3499SOL    HW111396   6.616   3.465   4.068
 3499SOL    HW211397   6.574   3.555   4.198
 3500SOL     OW11398   6.652   3.028   0.649
 3500SOL    HW111399   6.559   3.057   0.673
 3500SOL    HW211400   6.667   2.935   0.683
 3501SOL     OW11401   0.904   4.309   3.881
 3501SOL    HW111402   0.882   4.285   3.976
 3501SOL    HW211403   0.996   4.276   3.860
 3502SOL     OW11404   1.355   4.415   1.653
 3502SOL    HW111405   1.290   4.393   1.580
 3502SOL    HW211406   1.312   4.399   1.741
 3503SOL     OW11407   3.481   6.537   3.758
 3503SOL    HW111408   3.436   6.593   3.827
 3503SOL    HW211409   3.468   6.579   3.668
 3504SOL     OW11410   2.208   3.069   2.684
 3504SOL    HW111411   2.257   2.993   2.640
 3504SOL    HW211412   2.225   3.067   2.782
 3505SOL     OW11413   4.299   6.210   5.159
 3505SOL    HW111414   4.395   6.190   5.141
 3505SOL    HW211415   4.253   6.126   5.190
 3506SOL     OW11416   5.662   4.918   2.031
 3506SOL    HW111417   5.573   4.870   2.031
 3506SOL    HW211418   5.736   4.851   2.032
 3507SOL     OW11419   0.261   0.707   6.615
 3507SOL    HW111420   0.259   0.616   6.656
 3507SOL    HW211421   0.204   0.707   6.532
 3508SOL     OW11422   5.954   3.856   6.907
 3508SOL    HW111423   5.997   3.783   6.959
 3508SOL    HW211424   5.867   3.823   6.869
 3509SOL     OW11425   6.420   0.485   0.630
 3509SOL    HW111426   6.431   0.493   0.730
 3509SOL    HW211427   6.367   0.404   0.609
 3510SOL     OW11428   2.396   2.562   2.459
 3510SOL    HW111429   2.469   2.556   2.526
 3510SOL    HW211430   2.434   2.558   2.367
 3511SOL     OW11431   0.523   0.517   5.418
 3511SOL    HW111432   0.462   0.527   5.496
 3511SOL    HW211433   0.548   0.608   5.383
 3512SOL     OW11434   3.238   2.898   0.806
 3512SOL    HW111435   3.154   2.875   0.756
 3512SOL    HW211436   3.313   2.907   0.741
 3513SOL     OW11437   5.383   4.485   1.103
 3513SOL    HW111438   5.378   4.572   1.055
 3513SOL    HW211439   5.394   4.501   1.201
 3514SOL     OW11440   1.558   6.830   1.570
 3514SOL    HW111441   1.612   6.757   1.529
 3514SOL    HW211442   1.462   6.818   1.546
 3515SOL     OW11443   3.777   6.089   3.072
 3515SOL    HW111444   3.775   6.022   2.998
 3515SOL    HW211445   3.839   6.058   3.144
 3516SOL     OW11446   2.715   0.884   0.496
 3516SOL    HW111447   2.787   0.885   0.427
 3516SOL    HW211448   2.747   0.932   0.578
 3517SOL     OW11449   1.031   0.357   6.181
 3517SOL    HW111450   1.026   0.259   6.162
 3517SOL    HW211451   0.975   0.378   6.261
 3518SOL     OW11452   4.903   3.417   5.930
 3518SOL    HW111453   4.873   3.396   5.837
 3518SOL    HW211454   4.904   3.334   5.985
 3519SOL     OW11455   3.238   6.314   0.604
 3519SOL    HW111456   3.208   6.357   0.689
 3519SOL    HW211457   3.184   6.349   0.528
 3520SOL     OW11458   3.783   5.248   0.880
 3520SOL    HW111459   3.775   5.297   0.793
 3520SOL    HW211460   3.703   5.266   0.937
 3521SOL     OW11461   5.762   1.629   6.181
 3521SOL    HW111462   5.683   1.684   6.209
 3521SOL    HW211463   5.846   1.672   6.215
 3522SOL     OW11464   2.902   6.357   1.466
 3522SOL    HW111465   2.860   6.393   1.549
 3522SOL    HW211466   2.999   6.339   1.483
 3523SOL     OW11467   2.086   4.632   5.387
 3523SOL    HW111468   2.143   4.662   5.311
 3523SOL    HW211469   1.996   4.675   5.380
 3524SOL     OW11470   2.404   0.399   1.764
 3524SOL    HW111471   2.333   0.466   1.787
 3524SOL    HW211472   2.374   0.345   1.685
 3525SOL     OW11473   2.140   3.528   3.032
 3525SOL    HW111474   2.159   3.588   2.955
 3525SOL    HW211475   2.162   3.433   3.007
 3526SOL     OW11476   3.364   0.306   3.460
 3526SOL    HW111477   3.417   0.278   3.380
 3526SOL    HW211478   3.384   0.401   3.482
 3527SOL     OW11479   5.617   2.733   5.901
 3527SOL    HW111480   5.566   2.647   5.891
 3527SOL    HW211481   5.707   2.714   5.940
 3528SOL     OW11482   0.967   6.676   4.224
 3528SOL    HW111483   1.064   6.684   4.249
 3528SOL    HW211484   0.915   6.747   4.272
 3529SOL     OW11485   3.466   6.155   6.898
 3529SOL    HW111486   3.408   6.164   6.979
 3529SOL    HW211487   3.555   6.120   6.925
 3530SOL     OW11488   1.277   5.991   2.941
 3530SOL    HW111489   1.301   5.987   2.844
 3530SOL    HW211490   1.309   5.909   2.987
 3531SOL     OW11491   4.817   4.536   6.507
 3531SOL    HW111492   4.864   4.448   6.498
 3531SOL    HW211493   4.813   4.562   6.604
 3532SOL     OW11494   2.108   6.432   0.539
 3532SOL    HW111495   2.009   6.421   0.549
 3532SOL    HW211496   2.128   6.524   0.507
 3533SOL     OW11497   1.267   1.314   3.857
 3533SOL    HW111498   1.288   1.340   3.951
 3533SOL    HW211499   1.180   1.265   3.855
 3534SOL     OW11500   4.904   0.384   5.280
 3534SOL    HW111501   4.845   0.387   5.199
 3534SOL    HW211502   4.890   0.297   5.329
 3535SOL     OW11503   4.101   6.387   6.641
 3535SOL    HW111504   4.123   6.316   6.574
 3535SOL    HW211505   4.027   6.355   6.700
 3536SOL     OW11506   1.090   4.242   2.651
 3536SOL    HW111507   1.025   4.222   2.724
 3536SOL    HW211508   1.176   4.275   2.690
 3537SOL     OW11509   2.706   4.214   1.073
 3537SOL    HW111510   2.624   4.260   1.108
 3537SOL    HW211511   2.787   4.259   1.110
 3538SOL     OW11512   3.446   1.102   3.743
 3538SOL    HW111513   3.370   1.051   3.784
 3538SOL    HW211514   3.424   1.122   3.648
 3539SOL     OW11515   5.207   6.505   6.748
 3539SOL    HW111516   5.146   6.584   6.743
 3539SOL    HW211517   5.170   6.431   6.692
 3540SOL     OW11518   2.389   4.105   6.098
 3540SOL    HW111519   2.319   4.176   6.105
 3540SOL    HW211520   2.388   4.064   6.007
 3541SOL     OW11521   2.031   2.758   1.413
 3541SOL    HW111522   2.104   2.788   1.353
 3541SOL    HW211523   2.038   2.805   1.501
 3542SOL     OW11524   6.002   1.512   6.852
 3542SOL    HW111525   6.024   1.500   6.755
 3542SOL    HW211526   6.081   1.550   6.900
 3543SOL     OW11527   0.434   2.503   3.959
 3543SOL    HW111528   0.436   2.602   3.947
 3543SOL    HW211529   0.473   2.480   4.049
 3544SOL     OW11530   3.233   3.858   6.689
 3544SOL    HW111531   3.221   3.759   6.687
 3544SOL    HW211532   3.165   3.900   6.749
 3545SOL     OW11533   3.910   6.799   0.815
 3545SOL    HW111534   3.995   6.761   0.778
 3545SOL    HW211535   3.832   6.753   0.773
 3546SOL     OW11536   6.532   4.214   2.203
 3546SOL    HW111537   6.552   4.208   2.105
 3546SOL    HW211538   6.594   4.155   2.254
 3547SOL     OW11539   1.394   4.032   4.883
 3547SOL    HW111540   1.398   3.974   4.964
 3547SOL    HW211541   1.323   4.102   4.894
 3548SOL     OW11542   5.356   0.554   6.173
 3548SOL    HW111543   5.409   0.552   6.089
 3548SOL    HW211544   5.363   0.466   6.220
 3549SOL     OW11545   2.780   6.697   6.679
 3549SOL    HW111546   2.779   6.653   6.589
 3549SOL    HW211547   2.705   6.762   6.686
 3550SOL     OW11548   4.756   0.829   5.450
 3550SOL    HW111549   4.740   0.922   5.484
 3550SOL    HW211550   4.825   0.831   5.378
 3551SOL     OW11551   5.162   2.153   4.527
 3551SOL    HW111552   5.216   2.189   4.602
 3551SOL    HW211553   5.095   2.222   4.498
 3552SOL     OW11554   6.097   6.829   3.448
 3552SOL    HW111555   6.098   6.753   3.513
 3552SOL    HW211556   6.171   6.892   3.470
 3553SOL     OW11557   5.998   5.868   6.936
 3553SOL    HW111558   6.023   5.962   6.913
 3553SOL    HW211559   5.902   5.865   6.962
 3554SOL     OW11560   5.208   4.451   6.779
 3554SOL    HW111561   5.169   4.533   6.822
 3554SOL    HW211562   5.241   4.389   6.849
 3555SOL     OW11563   3.060   1.994   5.109
 3555SOL    HW111564   2.998   1.962   5.038
 3555SOL    HW211565   3.092   2.086   5.087
 3556SOL     OW11566   5.844   0.922   0.337
 3556SOL    HW111567   5.891   0.922   0.249
 3556SOL    HW211568   5.831   1.016   0.368
 3557SOL     OW11569   5.682   6.988   1.458
 3557SOL    HW111570   5.692   0.062   1.462
 3557SOL    HW211571   5.650   6.961   1.367
 3558SOL     OW11572   3.765   5.295   2.304
 3558SOL    HW111573   3.784   5.320   2.399
 3558SOL    HW211574   3.672   5.257   2.296
 3559SOL     OW11575   4.605   6.799   6.495
 3559SOL    HW111576   4.519   6.822   6.540
 3559SOL    HW211577   4.619   6.860   6.417
 3560SOL     OW11578   0.986   5.262   4.254
 3560SOL    HW111579   1.014   5.357   4.242
 3560SOL    HW211580   1.027   5.225   4.337
 3561SOL     OW11581   4.443   3.687   5.370
 3561SOL    HW111582   4.484   3.723   5.453
 3561SOL    HW211583   4.515   3.662   5.305
 3562SOL     OW11584   2.877   1.996   0.132
 3562SOL    HW111585   2.855   1.915   0.078
 3562SOL    HW211586   2.963   1.981   0.181
 3563SOL     OW11587   6.272   2.576   5.873
 3563SOL    HW111588   6.204   2.504   5.879
 3563SOL    HW211589   6.323   2.567   5.787
 3564SOL     OW11590   5.996   3.592   2.286
 3564SOL    HW111591   6.026   3.582   2.191
 3564SOL    HW211592   5.959   3.505   2.318
 3565SOL     OW11593   4.581   5.727   5.861
 3565SOL    HW111594   4.522   5.672   5.921
 3565SOL    HW211595   4.640   5.666   5.808
 3566SOL     OW11596   1.011   0.432   4.912
 3566SOL    HW111597   1.052   0.397   4.829
 3566SOL    HW211598   1.013   0.362   4.983
 3567SOL     OW11599   6.986   3.493   6.765
 3567SOL    HW111600   0.035   3.449   6.714
 3567SOL    HW211601   7.025   3.542   6.843
 3568SOL     OW11602   5.869   3.786   6.187
 3568SOL    HW111603   5.936   3.778   6.114
 3568SOL    HW211604   5.779   3.806   6.149
 3569SOL     OW11605   0.806   0.206   3.776
 3569SOL    HW111606   0.832   0.152   3.856
 3569SOL    HW211607   0.732   0.158   3.728
 3570SOL     OW11608   5.339   1.444   3.882
 3570SOL    HW111609   5.372   1.352   3.903
 3570SOL    HW211610   5.416   1.500   3.850
 3571SOL     OW11611   6.706   0.115   5.265
 3571SOL    HW111612   6.612   0.080   5.262
 3571SOL    HW211613   6.765   0.046   5.307
 3572SOL     OW11614   6.319   6.458   5.030
 3572SOL    HW111615   6.239   6.401   5.016
 3572SOL    HW211616   6.399   6.415   4.989
 3573SOL     OW11617   0.774   2.192   2.253
 3573SOL    HW111618   0.704   2.146   2.198
 3573SOL    HW211619   0.861   2.189   2.205
 3574SOL     OW11620   6.211   3.960   6.826
 3574SOL    HW111621   6.275   3.985   6.899
 3574SOL    HW211622   6.122   3.939   6.866
 3575SOL     OW11623   6.183   5.949   1.652
 3575SOL    HW111624   6.130   5.938   1.736
 3575SOL    HW211625   6.135   5.905   1.576
 3576SOL     OW11626   0.602   1.594   6.607
 3576SOL    HW111627   0.646   1.674   6.567
 3576SOL    HW211628   0.583   1.611   6.704
 3577SOL     OW11629   2.176   3.456   0.078
 3577SOL    HW111630   2.239   3.421   0.147
 3577SOL    HW211631   2.135   3.541   0.110
 3578SOL     OW11632   3.418   4.552   1.674
 3578SOL    HW111633   3.497   4.563   1.735
 3578SOL    HW211634   3.412   4.458   1.642
 3579SOL     OW11635   1.193   4.181   5.346
 3579SOL    HW111636   1.200   4.093   5.393
 3579SOL    HW211637   1.256   4.246   5.387
 3580SOL     OW11638   6.674   2.527   1.546
 3580SOL    HW111639   6.715   2.450   1.595
 3580SOL    HW211640   6.601   2.493   1.487
 3581SOL     OW11641   6.021   1.054   3.354
 3581SOL    HW111642   6.093   0.985   3.357
 3581SOL    HW211643   5.968   1.050   3.439
 3582SOL     OW11644   6.946   0.632   5.583
 3582SOL    HW111645   6.928   0.536   5.604
 3582SOL    HW211646   6.941   0.687   5.667
 3583SOL     OW11647   2.393   5.323   0.724
 3583SOL    HW111648   2.348   5.264   0.657
 3583SOL    HW211649   2.475   5.277   0.759
 3584SOL     OW11650   5.643   6.685   5.940
 3584SOL    HW111651   5.618   6.697   6.036
 3584SOL    HW211652   5.641   6.773   5.893
 3585SOL     OW11653   2.677   5.236   4.059
 3585SOL    HW111654   2.744   5.180   4.011
 3585SOL    HW211655   2.602   5.178   4.090
 3586SOL     OW11656   0.526   1.977   6.014
 3586SOL    HW111657   0.602   1.966   6.078
 3586SOL    HW211658   0.452   1.915   6.038
 3587SOL     OW11659   3.940   0.367   6.692
 3587SOL    HW111660   3.878   0.423   6.746
 3587SOL    HW211661   4.016   0.424   6.659
 3588SOL     OW11662   2.042   1.313   5.018
 3588SOL    HW111663   2.009   1.271   4.933
 3588SOL    HW211664   2.057   1.411   5.003
 3589SOL     OW11665   2.808   0.263   5.337
 3589SOL    HW111666   2.784   0.336   5.274
 3589SOL    HW211667   2.821   0.178   5.286
 3590SOL     OW11668   1.485   5.113   0.059
 3590SOL    HW111669   1.466   5.111   0.157
 3590SOL    HW211670   1.504   5.206   0.030
 3591SOL     OW11671   5.136   1.962   5.761
 3591SOL    HW111672   5.178   2.018   5.832
 3591SOL    HW211673   5.189   1.971   5.676
 3592SOL     OW11674   5.272   2.476   2.224
 3592SOL    HW111675   5.335   2.444   2.294
 3592SOL    HW211676   5.323   2.494   2.140
 3593SOL     OW11677   0.502   4.903   3.813
 3593SOL    HW111678   0.560   4.821   3.816
 3593SOL    HW211679   0.416   4.885   3.860
 3594SOL     OW11680   3.636   1.038   4.486
 3594SOL    HW111681   3.538   1.039   4.468
 3594SOL    HW211682   3.680   0.975   4.422
 3595SOL     OW11683   2.275   6.330   5.688
 3595SOL    HW111684   2.197   6.299   5.634
 3595SOL    HW211685   2.359   6.292   5.649
 3596SOL     OW11686   0.131   3.175   3.343
 3596SOL    HW111687   0.189   3.249   3.310
 3596SOL    HW211688   0.093   3.200   3.432
 3597SOL     OW11689   3.623   6.316   3.120
 3597SOL    HW111690   3.680   6.238   3.093
 3597SOL    HW211691   3.567   6.291   3.199
 3598SOL     OW11692   1.244   0.311   0.728
 3598SOL    HW111693   1.193   0.283   0.647
 3598SOL    HW211694   1.334   0.266   0.728
 3599SOL     OW11695   0.110   1.721   3.994
 3599SOL    HW111696   0.147   1.634   3.964
 3599SOL    HW211697   0.013   1.727   3.968
 3600SOL     OW11698   6.242   0.918   1.393
 3600SOL    HW111699   6.235   0.997   1.333
 3600SOL    HW211700   6.162   0.859   1.380
 3601SOL     OW11701   6.356   3.396   5.418
 3601SOL    HW111702   6.301   3.315   5.440
 3601SOL    HW211703   6.306   3.454   5.355
 3602SOL     OW11704   2.082   2.208   0.371
 3602SOL    HW111705   2.042   2.237   0.458
 3602SOL    HW211706   2.177   2.240   0.366
 3603SOL     OW11707   4.211   4.903   4.550
 3603SOL    HW111708   4.210   4.998   4.519
 3603SOL    HW211709   4.181   4.899   4.645
 3604SOL     OW11710   0.293   3.356   3.217
 3604SOL    HW111711   0.358   3.282   3.234
 3604SOL    HW211712   0.269   3.358   3.120
 3605SOL     OW11713   6.556   2.846   6.557
 3605SOL    HW111714   6.487   2.838   6.629
 3605SOL    HW211715   6.584   2.754   6.528
 3606SOL     OW11716   1.741   4.306   4.728
 3606SOL    HW111717   1.690   4.367   4.788
 3606SOL    HW211718   1.678   4.242   4.684
 3607SOL     OW11719   4.688   6.774   0.187
 3607SOL    HW111720   4.713   6.868   0.210
 3607SOL    HW211721   4.653   6.727   0.269
 3608SOL     OW11722   0.722   2.523   2.313
 3608SOL    HW111723   0.752   2.428   2.316
 3608SOL    HW211724   0.778   2.574   2.247
 3609SOL     OW11725   6.465   0.000   5.228
 3609SOL    HW111726   6.382   6.994   5.275
 3609SOL    HW211727   6.484   6.965   5.151
 3610SOL     OW11728   2.048   6.000   4.900
 3610SOL    HW111729   1.950   5.987   4.907
 3610SOL    HW211730   2.069   6.052   4.818
 3611SOL     OW11731   4.145   5.328   5.053
 3611SOL    HW111732   4.155   5.276   5.138
 3611SOL    HW211733   4.062   5.384   5.058
 3612SOL     OW11734   1.263   7.019   1.747
 3612SOL    HW111735   1.230   6.991   1.657
 3612SOL    HW211736   1.346   0.049   1.735
 3613SOL     OW11737   5.391   5.556   6.822
 3613SOL    HW111738   5.366   5.497   6.899
 3613SOL    HW211739   5.475   5.606   6.844
 3614SOL     OW11740   4.133   3.342   3.709
 3614SOL    HW111741   4.147   3.320   3.613
 3614SOL    HW211742   4.084   3.268   3.754
 3615SOL     OW11743   6.731   6.206   6.063
 3615SOL    HW111744   6.658   6.160   6.114
 3615SOL    HW211745   6.711   6.201   5.966
 3616SOL     OW11746   6.498   0.689   4.521
 3616SOL    HW111747   6.552   0.762   4.478
 3616SOL    HW211748   6.473   0.716   4.614
 3617SOL     OW11749   6.625   0.753   0.084
 3617SOL    HW111750   6.578   0.841   0.091
 3617SOL    HW211751   6.634   0.728   7.012
 3618SOL     OW11752   2.462   0.857   6.041
 3618SOL    HW111753   2.507   0.822   6.123
 3618SOL    HW211754   2.422   0.781   5.990
 3619SOL     OW11755   5.078   2.910   4.178
 3619SOL    HW111756   5.141   2.915   4.255
 3619SOL    HW211757   5.017   2.989   4.179
 3620SOL     OW11758   6.125   1.272   4.713
 3620SOL    HW111759   6.172   1.200   4.764
 3620SOL    HW211760   6.192   1.334   4.672
 3621SOL     OW11761   1.824   3.069   5.947
 3621SOL    HW111762   1.898   3.089   6.011
 3621SOL    HW211763   1.833   3.127   5.867
 3622SOL     OW11764   0.415   2.485   0.948
 3622SOL    HW111765   0.471   2.466   1.029
 3622SOL    HW211766   0.474   2.494   0.868
 3623SOL     OW11767   6.935   5.374   4.619
 3623SOL    HW111768   6.938   5.274   4.614
 3623SOL    HW211769   6.927   5.412   4.526
 3624SOL     OW11770   2.016   0.887   1.626
 3624SOL    HW111771   1.932   0.838   1.605
 3624SOL    HW211772   2.095   0.831   1.601
 3625SOL     OW11773   0.309   3.176   4.365
 3625SOL    HW111774   0.347   3.092   4.403
 3625SOL    HW211775   0.372   3.213   4.296
 3626SOL     OW11776   2.639   3.859   5.321
 3626SOL    HW111777   2.571   3.890   5.254
 3626SOL    HW211778   2.606   3.776   5.365
 3627SOL     OW11779   2.970   3.439   3.934
 3627SOL    HW111780   2.944   3.521   3.983
 3627SOL    HW211781   3.069   3.424   3.942
 3628SOL     OW11782   3.534   5.209   2.404
 3628SOL    HW111783   3.586   5.209   2.489
 3628SOL    HW211784   3.450   5.262   2.415
 3629SOL     OW11785   6.479   2.469   5.124
 3629SOL    HW111786   6.415   2.521   5.180
 3629SOL    HW211787   6.557   2.441   5.180
 3630SOL     OW11788   5.813   1.933   4.569
 3630SOL    HW111789   5.832   1.889   4.657
 3630SOL    HW211790   5.735   1.887   4.525
 3631SOL     OW11791   2.039   1.125   4.381
 3631SOL    HW111792   1.992   1.102   4.296
 3631SOL    HW211793   2.107   1.055   4.402
 3632SOL     OW11794   4.435   0.406   6.646
 3632SOL    HW111795   4.492   0.366   6.718
 3632SOL    HW211796   4.434   0.346   6.567
 3633SOL     OW11797   2.222   3.056   5.838
 3633SOL    HW111798   2.290   3.112   5.886
 3633SOL    HW211799   2.142   3.043   5.896
 3634SOL     OW11800   2.044   5.831   5.286
 3634SOL    HW111801   2.041   5.731   5.277
 3634SOL    HW211802   2.059   5.855   5.382
 3635SOL     OW11803   2.704   1.255   5.232
 3635SOL    HW111804   2.738   1.162   5.235
 3635SOL    HW211805   2.659   1.278   5.318
 3636SOL     OW11806   1.244   5.535   6.478
 3636SOL    HW111807   1.229   5.539   6.379
 3636SOL    HW211808   1.321   5.593   6.503
 3637SOL     OW11809   5.494   1.250   2.137
 3637SOL    HW111810   5.517   1.336   2.183
 3637SOL    HW211811   5.442   1.268   2.054
 3638SOL     OW11812   6.317   5.164   4.527
 3638SOL    HW111813   6.237   5.182   4.469
 3638SOL    HW211814   6.342   5.067   4.520
 3639SOL     OW11815   2.159   5.125   0.230
 3639SOL    HW111816   2.187   5.045   0.283
 3639SOL    HW211817   2.239   5.182   0.212
 3640SOL     OW11818   3.709   5.941   1.202
 3640SOL    HW111819   3.645   5.938   1.278
 3640SOL    HW211820   3.698   5.858   1.146
 3641SOL     OW11821   2.831   0.557   5.436
 3641SOL    HW111822   2.804   0.461   5.447
 3641SOL    HW211823   2.865   0.571   5.343
 3642SOL     OW11824   5.883   0.260   3.464
 3642SOL    HW111825   5.877   0.161   3.475
 3642SOL    HW211826   5.979   0.287   3.455
 3643SOL     OW11827   2.513   4.591   5.170
 3643SOL    HW111828   2.609   4.617   5.155
 3643SOL    HW211829   2.508   4.522   5.242
 3644SOL     OW11830   0.213   1.267   0.769
 3644SOL    HW111831   0.175   1.189   0.720
 3644SOL    HW211832   0.293   1.301   0.719
 3645SOL     OW11833   3.267   0.499   3.230
 3645SOL    HW111834   3.240   0.588   3.265
 3645SOL    HW211835   3.361   0.503   3.196
 3646SOL     OW11836   0.284   4.623   4.800
 3646SOL    HW111837   0.264   4.534   4.757
 3646SOL    HW211838   0.268   4.616   4.899
 3647SOL     OW11839   2.805   3.041   0.836
 3647SOL    HW111840   2.851   2.974   0.894
 3647SOL    HW211841   2.735   2.995   0.781
 3648SOL     OW11842   2.929   6.139   2.683
 3648SOL    HW111843   2.971   6.189   2.759
 3648SOL    HW211844   3.001   6.100   2.626
 3649SOL     OW11845   3.014   3.478   1.237
 3649SOL    HW111846   3.065   3.563   1.252
 3649SOL    HW211847   3.077   3.405   1.212
 3650SOL     OW11848   0.083   6.989   1.675
 3650SOL    HW111849   7.016   6.982   1.636
 3650SOL    HW211850   0.147   7.019   1.605
 3651SOL     OW11851   1.975   5.596   2.521
 3651SOL    HW111852   2.054   5.648   2.486
 3651SOL    HW211853   1.891   5.634   2.484
 3652SOL     OW11854   4.573   5.432   3.231
 3652SOL    HW111855   4.666   5.467   3.228
 3652SOL    HW211856   4.533   5.433   3.139
 3653SOL     OW11857   0.086   2.717   3.908
 3653SOL    HW111858   0.153   2.685   3.975
 3653SOL    HW211859   0.098   2.666   3.823
 3654SOL     OW11860   1.930   6.687   1.530
 3654SOL    HW111861   1.848   6.632   1.546
 3654SOL    HW211862   1.936   6.710   1.433
 3655SOL     OW11863   1.551   0.185   4.413
 3655SOL    HW111864   1.571   0.154   4.321
 3655SOL    HW211865   1.636   0.202   4.462
 3656SOL     OW11866   2.514   2.087   2.082
 3656SOL    HW111867   2.414   2.090   2.077
 3656SOL    HW211868   2.543   2.006   2.133
 3657SOL     OW11869   3.957   5.999   1.305
 3657SOL    HW111870   3.950   5.944   1.388
 3657SOL    HW211871   3.872   5.992   1.253
 3658SOL     OW11872   1.519   5.477   6.243
 3658SOL    HW111873   1.539   5.516   6.333
 3658SOL    HW211874   1.443   5.526   6.201
 3659SOL     OW11875   1.960   4.466   6.849
 3659SOL    HW111876   1.863   4.470   6.824
 3659SOL    HW211877   1.968   4.451   6.947
 3660SOL     OW11878   4.775   5.705   1.762
 3660SOL    HW111879   4.809   5.613   1.783
 3660SOL    HW211880   4.772   5.718   1.663
 3661SOL     OW11881   4.496   1.111   0.394
 3661SOL    HW111882   4.563   1.177   0.426
 3661SOL    HW211883   4.516   1.021   0.434
 3662SOL     OW11884   3.280   6.951   5.838
 3662SOL    HW111885   3.247   0.004   5.786
 3662SOL    HW211886   3.328   6.888   5.777
 3663SOL     OW11887   1.045   3.117   6.529
 3663SOL    HW111888   1.052   3.129   6.628
 3663SOL    HW211889   0.967   3.170   6.495
 3664SOL     OW11890   4.350   1.461   0.649
 3664SOL    HW111891   4.360   1.554   0.613
 3664SOL    HW211892   4.329   1.398   0.573
 3665SOL     OW11893   1.201   6.942   5.901
 3665SOL    HW111894   1.159   6.898   5.822
 3665SOL    HW211895   1.208   0.015   5.885
 3666SOL     OW11896   0.814   5.125   4.051
 3666SOL    HW111897   0.853   5.195   4.111
 3666SOL    HW211898   0.887   5.064   4.021
 3667SOL     OW11899   6.710   1.831   6.756
 3667SOL    HW111900   6.686   1.912   6.703
 3667SOL    HW211901   6.809   1.817   6.751
 3668SOL     OW11902   1.117   6.241   2.225
 3668SOL    HW111903   1.163   6.304   2.163
 3668SOL    HW211904   1.175   6.160   2.240
 3669SOL     OW11905   6.641   3.158   3.154
 3669SOL    HW111906   6.606   3.245   3.190
 3669SOL    HW211907   6.714   3.175   3.089
 3670SOL     OW11908   1.633   5.468   5.772
 3670SOL    HW111909   1.558   5.489   5.834
 3670SOL    HW211910   1.597   5.449   5.681
 3671SOL     OW11911   0.768   0.681   2.700
 3671SOL    HW111912   0.728   0.604   2.748
 3671SOL    HW211913   0.841   0.649   2.640
 3672SOL     OW11914   0.264   0.738   1.066
 3672SOL    HW111915   0.356   0.707   1.088
 3672SOL    HW211916   0.267   0.804   0.991
 3673SOL     OW11917   5.246   0.522   6.826
 3673SOL    HW111918   5.197   0.526   6.739
 3673SOL    HW211919   5.277   0.614   6.851
 3674SOL     OW11920   1.218   6.540   1.426
 3674SOL    HW111921   1.175   6.575   1.343
 3674SOL    HW211922   1.216   6.440   1.426
 3675SOL     OW11923   1.748   2.121   5.246
 3675SOL    HW111924   1.813   2.074   5.306
 3675SOL    HW211925   1.799   2.170   5.175
 3676SOL     OW11926   2.318   5.328   3.489
 3676SOL    HW111927   2.266   5.243   3.503
 3676SOL    HW211928   2.321   5.349   3.391
 3677SOL     OW11929   6.649   6.844   4.630
 3677SOL    HW111930   6.615   6.924   4.680
 3677SOL    HW211931   6.573   6.804   4.578
 3678SOL     OW11932   0.767   1.671   3.736
 3678SOL    HW111933   0.830   1.739   3.773
 3678SOL    HW211934   0.801   1.640   3.647
 3679SOL     OW11935   0.221   0.933   2.045
 3679SOL    HW111936   0.220   0.861   1.976
 3679SOL    HW211937   0.272   1.012   2.010
 3680SOL     OW11938   6.863   3.664   4.147
 3680SOL    HW111939   6.880   3.734   4.216
 3680SOL    HW211940   6.812   3.588   4.188
 3681SOL     OW11941   6.976   6.077   5.698
 3681SOL    HW111942   0.011   6.002   5.670
 3681SOL    HW211943   0.005   6.154   5.730
 3682SOL     OW11944   0.398   1.781   6.138
 3682SOL    HW111945   0.326   1.808   6.203
 3682SOL    HW211946   0.375   1.693   6.097
 3683SOL     OW11947   5.254   6.394   4.591
 3683SOL    HW111948   5.213   6.429   4.675
 3683SOL    HW211949   5.190   6.408   4.515
 3684SOL     OW11950   1.320   3.452   0.888
 3684SOL    HW111951   1.335   3.385   0.960
 3684SOL    HW211952   1.237   3.428   0.837
 3685SOL     OW11953   6.861   6.459   6.431
 3685SOL    HW111954   6.794   6.518   6.477
 3685SOL    HW211955   6.851   6.469   6.332
 3686SOL     OW11956   6.114   4.391   1.515
 3686SOL    HW111957   6.034   4.424   1.466
 3686SOL    HW211958   6.144   4.305   1.475
 3687SOL     OW11959   3.414   0.786   0.162
 3687SOL    HW111960   3.358   0.863   0.132
 3687SOL    HW211961   3.358   0.703   0.167
 3688SOL     OW11962   0.964   3.779   0.510
 3688SOL    HW111963   0.922   3.838   0.440
 3688SOL    HW211964   1.017   3.835   0.574
 3689SOL     OW11965   2.383   0.766   3.703
 3689SOL    HW111966   2.292   0.768   3.663
 3689SOL    HW211967   2.398   0.850   3.755
 3690SOL     OW11968   5.865   0.056   5.706
 3690SOL    HW111969   5.835   0.147   5.678
 3690SOL    HW211970   5.896   0.005   5.625
 3691SOL     OW11971   3.683   2.823   6.861
 3691SOL    HW111972   3.667   2.916   6.894
 3691SOL    HW211973   3.768   2.788   6.900
 3692SOL     OW11974   1.786   0.223   5.642
 3692SOL    HW111975   1.697   0.262   5.667
 3692SOL    HW211976   1.823   0.272   5.564
 3693SOL     OW11977   2.716   2.109   2.941
 3693SOL    HW111978   2.673   2.086   2.854
 3693SOL    HW211979   2.668   2.186   2.983
 3694SOL     OW11980   1.799   5.848   3.100
 3694SOL    HW111981   1.787   5.828   3.003
 3694SOL    HW211982   1.803   5.762   3.151
 3695SOL     OW11983   1.802   2.563   2.170
 3695SOL    HW111984   1.712   2.559   2.214
 3695SOL    HW211985   1.870   2.519   2.228
 3696SOL     OW11986   3.661   6.744   5.881
 3696SOL    HW111987   3.617   6.663   5.919
 3696SOL    HW211988   3.596   6.820   5.881
 3697SOL     OW11989   6.195   0.232   4.129
 3697SOL    HW111990   6.116   0.213   4.071
 3697SOL    HW211991   6.193   0.171   4.209
 3698SOL     OW11992   2.946   0.068   5.994
 3698SOL    HW111993   3.013   0.142   5.985
 3698SOL    HW211994   2.917   0.038   5.903
 3699SOL     OW11995   0.431   4.092   2.345
 3699SOL    HW111996   0.384   4.088   2.433
 3699SOL    HW211997   0.515   4.037   2.350
 3700SOL     OW11998   0.211   0.064   4.075
 3700SOL    HW111999   0.220   0.028   3.983
 3700SOL    HW212000   0.221   7.015   4.142
 3701SOL     OW12001   6.363   0.635   4.139
 3701SOL    HW112002   6.441   0.589   4.183
 3701SOL    HW212003   6.396   0.714   4.088
 3702SOL     OW12004   3.213   0.994   0.053
 3702SOL    HW112005   3.201   1.076   7.023
 3702SOL    HW212006   3.182   1.012   0.147
 3703SOL     OW12007   4.353   4.676   6.578
 3703SOL    HW112008   4.423   4.615   6.541
 3703SOL    HW212009   4.329   4.745   6.510
 3704SOL     OW12010   2.001   0.233   2.645
 3704SOL    HW112011   1.917   0.209   2.596
 3704SOL    HW212012   2.031   0.155   2.700
 3705SOL     OW12013   5.716   1.088   3.892
 3705SOL    HW112014   5.629   1.055   3.928
 3705SOL    HW212015   5.699   1.166   3.831
 3706SOL     OW12016   1.896   2.398   3.712
 3706SOL    HW112017   1.930   2.347   3.633
 3706SOL    HW212018   1.876   2.334   3.786
 3707SOL     OW12019   4.428   2.597   5.235
 3707SOL    HW112020   4.471   2.633   5.153
 3707SOL    HW212021   4.331   2.578   5.217
 3708SOL     OW12022   5.768   0.419   6.251
 3708SOL    HW112023   5.806   0.372   6.172
 3708SOL    HW212024   5.734   0.509   6.223
 3709SOL     OW12025   4.224   0.779   6.544
 3709SOL    HW112026   4.173   0.848   6.595
 3709SOL    HW212027   4.179   0.762   6.456
 3710SOL     OW12028   0.336   5.108   0.878
 3710SOL    HW112029   0.269   5.176   0.849
 3710SOL    HW212030   0.324   5.024   0.824
 3711SOL     OW12031   6.488   4.688   2.813
 3711SOL    HW112032   6.502   4.605   2.760
 3711SOL    HW212033   6.483   4.767   2.751
 3712SOL     OW12034   2.154   7.023   0.650
 3712SOL    HW112035   2.153   0.081   0.705
 3712SOL    HW212036   2.075   7.021   0.589
 3713SOL     OW12037   3.665   5.734   5.468
 3713SOL    HW112038   3.745   5.753   5.524
 3713SOL    HW212039   3.583   5.739   5.524
 3714SOL     OW12040   3.335   0.480   4.689
 3714SOL    HW112041   3.253   0.431   4.660
 3714SOL    HW212042   3.312   0.540   4.766
 3715SOL     OW12043   5.757   3.821   4.861
 3715SOL    HW112044   5.789   3.727   4.844
 3715SOL    HW212045   5.797   3.882   4.792
 3716SOL     OW12046   0.321   0.748   4.217
 3716SOL    HW112047   0.277   0.837   4.230
 3716SOL    HW212048   0.302   0.690   4.296
 3717SOL     OW12049   5.605   0.164   0.410
 3717SOL    HW112050   5.537   0.115   0.465
 3717SOL    HW212051   5.567   0.252   0.382
 3718SOL     OW12052   0.995   5.595   0.003
 3718SOL    HW112053   0.952   5.679   6.997
 3718SOL    HW212054   0.929   5.519   7.020
 3719SOL     OW12055   3.433   5.249   5.863
 3719SOL    HW112056   3.523   5.278   5.894
 3719SOL    HW212057   3.412   5.294   5.776
 3720SOL     OW12058   6.672   1.956   5.662
 3720SOL    HW112059   6.719   1.874   5.629
 3720SOL    HW212060   6.583   1.964   5.618
 3721SOL     OW12061   5.003   3.641   0.629
 3721SOL    HW112062   4.971   3.644   0.724
 3721SOL    HW212063   5.078   3.706   0.618
 3722SOL     OW12064   6.420   6.108   2.364
 3722SOL    HW112065   6.455   6.180   2.304
 3722SOL    HW212066   6.420   6.021   2.314
 3723SOL     OW12067   4.602   0.980   0.875
 3723SOL    HW112068   4.612   1.080   0.881
 3723SOL    HW212069   4.527   0.950   0.933
 3724SOL     OW12070   1.430   5.568   5.905
 3724SOL    HW112071   1.460   5.645   5.961
 3724SOL    HW212072   1.380   5.602   5.825
 3725SOL     OW12073   0.385   6.097   0.437
 3725SOL    HW112074   0.399   6.068   0.342
 3725SOL    HW212075   0.299   6.147   0.444
 3726SOL     OW12076   5.525   3.574   1.575
 3726SOL    HW112077   5.470   3.546   1.496
 3726SOL    HW212078   5.464   3.598   1.651
 3727SOL     OW12079   2.250   3.200   5.451
 3727SOL    HW112080   2.319   3.134   5.421
 3727SOL    HW212081   2.164   3.182   5.403
 3728SOL     OW12082   1.715   3.213   6.551
 3728SOL    HW112083   1.654   3.138   6.523
 3728SOL    HW212084   1.809   3.188   6.530
 3729SOL     OW12085   0.616   2.382   3.190
 3729SOL    HW112086   0.612   2.367   3.289
 3729SOL    HW212087   0.580   2.301   3.143
 3730SOL     OW12088   2.788   0.914   0.088
 3730SOL    HW112089   2.702   0.964   0.096
 3730SOL    HW212090   2.770   0.817   0.070
 3731SOL     OW12091   4.004   6.649   0.164
 3731SOL    HW112092   4.002   6.576   0.233
 3731SOL    HW212093   3.936   6.631   0.093
 3732SOL     OW12094   2.257   3.761   5.214
 3732SOL    HW112095   2.187   3.766   5.142
 3732SOL    HW212096   2.321   3.838   5.203
 3733SOL     OW12097   2.464   3.658   1.336
 3733SOL    HW112098   2.525   3.595   1.385
 3733SOL    HW212099   2.476   3.645   1.238
 3734SOL     OW12100   5.428   0.560   2.706
 3734SOL    HW112101   5.477   0.638   2.668
 3734SOL    HW212102   5.331   0.567   2.684
 3735SOL     OW12103   3.579   1.487   2.261
 3735SOL    HW112104   3.496   1.444   2.225
 3735SOL    HW212105   3.557   1.578   2.297
 3736SOL     OW12106   5.676   1.842   0.123
 3736SOL    HW112107   5.741   1.789   0.068
 3736SOL    HW212108   5.583   1.823   0.093
 3737SOL     OW12109   4.559   6.561   3.431
 3737SOL    HW112110   4.621   6.528   3.503
 3737SOL    HW212111   4.507   6.639   3.464
 3738SOL     OW12112   6.969   6.862   3.616
 3738SOL    HW112113   0.027   6.809   3.633
 3738SOL    HW212114   6.993   6.945   3.565
 3739SOL     OW12115   0.648   4.522   2.411
 3739SOL    HW112116   0.626   4.463   2.334
 3739SOL    HW212117   0.600   4.490   2.493
 3740SOL     OW12118   5.612   1.032   0.629
 3740SOL    HW112119   5.708   1.056   0.611
 3740SOL    HW212120   5.584   0.959   0.567
 3741SOL     OW12121   4.203   2.553   6.505
 3741SOL    HW112122   4.128   2.522   6.446
 3741SOL    HW212123   4.168   2.616   6.574
 3742SOL     OW12124   3.615   3.184   5.413
 3742SOL    HW112125   3.586   3.095   5.376
 3742SOL    HW212126   3.545   3.252   5.391
 3743SOL     OW12127   0.299   5.498   6.310
 3743SOL    HW112128   0.200   5.505   6.310
 3743SOL    HW212129   0.339   5.578   6.354
 3744SOL     OW12130   6.850   6.041   2.964
 3744SOL    HW112131   6.901   5.977   2.907
 3744SOL    HW212132   6.911   6.115   2.993
 3745SOL     OW12133   4.333   5.957   2.341
 3745SOL    HW112134   4.260   5.935   2.406
 3745SOL    HW212135   4.306   6.037   2.287
 3746SOL     OW12136   4.585   1.878   2.513
 3746SOL    HW112137   4.538   1.809   2.569
 3746SOL    HW212138   4.521   1.917   2.448
 3747SOL     OW12139   2.703   0.060   0.304
 3747SOL    HW112140   2.732   6.990   0.309
 3747SOL    HW212141   2.670   0.089   0.393
 3748SOL     OW12142   5.639   1.098   2.527
 3748SOL    HW112143   5.713   1.143   2.476
 3748SOL    HW212144   5.640   1.129   2.622
 3749SOL     OW12145   1.399   0.314   5.037
 3749SOL    HW112146   1.330   0.334   5.107
 3749SOL    HW212147   1.359   0.328   4.946
 3750SOL     OW12148   0.025   4.503   0.071
 3750SOL    HW112149   0.034   4.408   0.102
 3750SOL    HW212150   6.962   4.514   0.025
 3751SOL     OW12151   1.008   3.786   2.556
 3751SOL    HW112152   0.955   3.780   2.641
 3751SOL    HW212153   0.955   3.745   2.481
 3752SOL     OW12154   5.936   0.228   7.008
 3752SOL    HW112155   6.027   0.240   0.021
 3752SOL    HW212156   5.940   0.231   6.909
 3753SOL     OW12157   6.413   0.186   3.937
 3753SOL    HW112158   6.358   0.180   4.021
 3753SOL    HW212159   6.510   0.191   3.962
 3754SOL     OW12160   2.711   1.905   0.819
 3754SOL    HW112161   2.699   1.839   0.894
 3754SOL    HW212162   2.765   1.983   0.852
 3755SOL     OW12163   2.860   4.992   4.020
 3755SOL    HW112164   2.878   4.959   4.113
 3755SOL    HW212165   2.839   4.914   3.960
 3756SOL     OW12166   2.727   6.414   6.948
 3756SOL    HW112167   2.637   6.408   6.990
 3756SOL    HW212168   2.758   6.509   6.946
 3757SOL     OW12169   6.922   4.758   1.557
 3757SOL    HW112170   7.016   4.788   1.573
 3757SOL    HW212171   6.873   4.754   1.644
 3758SOL     OW12172   2.187   6.973   4.079
 3758SOL    HW112173   2.212   0.023   4.017
 3758SOL    HW212174   2.099   6.995   4.122
 3759SOL     OW12175   5.139   0.332   4.621
 3759SOL    HW112176   5.076   0.256   4.608
 3759SOL    HW212177   5.137   0.361   4.717
 3760SOL     OW12178   0.262   1.022   3.161
 3760SOL    HW112179   0.164   1.013   3.177
 3760SOL    HW212180   0.284   1.116   3.135
 3761SOL     OW12181   5.043   1.127   4.231
 3761SOL    HW112182   5.004   1.214   4.259
 3761SOL    HW212183   5.101   1.140   4.150
 3762SOL     OW12184   6.626   2.533   3.510
 3762SOL    HW112185   6.631   2.437   3.484
 3762SOL    HW212186   6.717   2.567   3.532
 3763SOL     OW12187   0.627   4.663   0.982
 3763SOL    HW112188   0.595   4.734   0.920
 3763SOL    HW212189   0.720   4.685   1.013
 3764SOL     OW12190   2.271   0.563   2.960
 3764SOL    HW112191   2.307   0.648   2.999
 3764SOL    HW212192   2.308   0.550   2.868
 3765SOL     OW12193   5.358   2.774   2.593
 3765SOL    HW112194   5.359   2.874   2.583
 3765SOL    HW212195   5.393   2.750   2.684
 3766SOL     OW12196   1.082   3.754   3.303
 3766SOL    HW112197   1.070   3.813   3.384
 3766SOL    HW212198   1.179   3.751   3.279
 3767SOL     OW12199   1.246   5.030   5.805
 3767SOL    HW112200   1.168   5.013   5.866
 3767SOL    HW212201   1.327   5.052   5.859
 3768SOL     OW12202   0.812   6.485   2.980
 3768SOL    HW112203   0.757   6.549   2.927
 3768SOL    HW212204   0.850   6.533   3.060
 3769SOL     OW12205   5.847   4.794   4.859
 3769SOL    HW112206   5.930   4.840   4.893
 3769SOL    HW212207   5.804   4.851   4.789
 3770SOL     OW12208   1.919   0.918   1.191
 3770SOL    HW112209   1.999   0.879   1.145
 3770SOL    HW212210   1.928   1.017   1.197
 3771SOL     OW12211   6.450   5.005   6.520
 3771SOL    HW112212   6.397   4.926   6.489
 3771SOL    HW212213   6.503   4.980   6.601
 3772SOL     OW12214   1.433   6.130   0.961
 3772SOL    HW112215   1.424   6.033   0.986
 3772SOL    HW212216   1.480   6.137   0.873
 3773SOL     OW12217   5.469   4.740   6.607
 3773SOL    HW112218   5.540   4.808   6.584
 3773SOL    HW212219   5.513   4.655   6.637
 3774SOL     OW12220   6.729   5.082   1.946
 3774SOL    HW112221   6.717   5.177   1.918
 3774SOL    HW212222   6.667   5.061   2.021
 3775SOL     OW12223   5.057   4.802   4.895
 3775SOL    HW112224   4.999   4.793   4.976
 3775SOL    HW212225   5.010   4.857   4.826
 3776SOL     OW12226   3.613   2.652   5.927
 3776SOL    HW112227   3.524   2.698   5.926
 3776SOL    HW212228   3.685   2.720   5.914
 3777SOL     OW12229   2.695   5.627   4.402
 3777SOL    HW112230   2.623   5.623   4.472
 3777SOL    HW212231   2.783   5.645   4.445
 3778SOL     OW12232   3.601   5.693   6.162
 3778SOL    HW112233   3.511   5.682   6.120
 3778SOL    HW212234   3.592   5.687   6.262
 3779SOL     OW12235   6.940   5.003   0.039
 3779SOL    HW112236   6.986   5.020   0.127
 3779SOL    HW212237   6.870   4.933   0.051
 3780SOL     OW12238   5.361   4.018   1.269
 3780SOL    HW112239   5.441   4.075   1.248
 3780SOL    HW212240   5.281   4.076   1.279
 3781SOL     OW12241   2.772   6.219   4.594
 3781SOL    HW112242   2.744   6.308   4.629
 3781SOL    HW212243   2.801   6.229   4.498
 3782SOL     OW12244   4.934   5.561   1.282
 3782SOL    HW112245   4.874   5.481   1.277
 3782SOL    HW212246   4.913   5.614   1.363
 3783SOL     OW12247   5.143   5.689   4.287
 3783SOL    HW112248   5.043   5.692   4.294
 3783SOL    HW212249   5.170   5.709   4.193
 3784SOL     OW12250   6.302   2.056   4.394
 3784SOL    HW112251   6.238   2.069   4.470
 3784SOL    HW212252   6.326   2.146   4.356
 3785SOL     OW12253   1.784   3.521   4.180
 3785SOL    HW112254   1.823   3.568   4.100
 3785SOL    HW212255   1.714   3.457   4.150
 3786SOL     OW12256   2.456   2.555   4.694
 3786SOL    HW112257   2.496   2.470   4.726
 3786SOL    HW212258   2.456   2.622   4.769
 3787SOL     OW12259   4.242   6.956   3.844
 3787SOL    HW112260   4.278   6.865   3.865
 3787SOL    HW212261   4.155   6.948   3.796
 3788SOL     OW12262   6.000   3.105   5.158
 3788SOL    HW112263   5.980   3.050   5.239
 3788SOL    HW212264   5.971   3.055   5.076
 3789SOL     OW12265   1.927   3.297   2.498
 3789SOL    HW112266   1.948   3.385   2.456
 3789SOL    HW212267   1.982   3.225   2.455
 3790SOL     OW12268   0.317   0.018   1.479
 3790SOL    HW112269   0.344   0.107   1.515
 3790SOL    HW212270   0.397   6.983   1.474
 3791SOL     OW12271   5.205   1.215   5.671
 3791SOL    HW112272   5.128   1.272   5.701
 3791SOL    HW212273   5.173   1.121   5.657
 3792SOL     OW12274   6.769   0.623   4.712
 3792SOL    HW112275   6.746   0.600   4.807
 3792SOL    HW212276   6.694   0.674   4.671
 3793SOL     OW12277   4.783   4.821   0.703
 3793SOL    HW112278   4.845   4.801   0.627
 3793SOL    HW212279   4.818   4.900   0.753
 3794SOL     OW12280   0.528   4.135   6.731
 3794SOL    HW112281   0.572   4.104   6.646
 3794SOL    HW212282   0.464   4.209   6.710
 3795SOL     OW12283   2.520   5.986   1.057
 3795SOL    HW112284   2.455   5.916   1.030
 3795SOL    HW212285   2.575   5.953   1.134
 3796SOL     OW12286   5.382   1.187   6.967
 3796SOL    HW112287   5.369   1.272   7.017
 3796SOL    HW212288   5.308   1.175   6.901
 3797SOL     OW12289   1.203   4.683   2.329
 3797SOL    HW112290   1.246   4.746   2.393
 3797SOL    HW212291   1.255   4.597   2.326
 3798SOL     OW12292   1.195   5.849   3.637
 3798SOL    HW112293   1.259   5.910   3.684
 3798SOL    HW212294   1.129   5.813   3.703
 3799SOL     OW12295   6.763   0.966   3.233
 3799SOL    HW112296   6.735   1.062   3.231
 3799SOL    HW212297   6.727   0.920   3.152
 3800SOL     OW12298   5.068   2.581   2.904
 3800SOL    HW112299   5.051   2.671   2.863
 3800SOL    HW212300   5.007   2.514   2.863
 3801SOL     OW12301   5.769   1.418   1.751
 3801SOL    HW112302   5.797   1.460   1.837
 3801SOL    HW212303   5.850   1.405   1.693
 3802SOL     OW12304   6.514   2.809   2.101
 3802SOL    HW112305   6.513   2.741   2.028
 3802SOL    HW212306   6.453   2.885   2.078
 3803SOL     OW12307   3.239   3.392   4.242
 3803SOL    HW112308   3.282   3.351   4.322
 3803SOL    HW212309   3.162   3.450   4.271
 3804SOL     OW12310   4.229   5.720   3.399
 3804SOL    HW112311   4.243   5.814   3.367
 3804SOL    HW212312   4.318   5.675   3.408
 3805SOL     OW12313   2.612   2.723   0.097
 3805SOL    HW112314   2.671   2.716   0.017
 3805SOL    HW212315   2.666   2.757   0.175
 3806SOL     OW12316   2.928   4.594   1.541
 3806SOL    HW112317   2.835   4.622   1.520
 3806SOL    HW212318   2.972   4.663   1.598
 3807SOL     OW12319   2.074   4.651   4.717
 3807SOL    HW112320   2.032   4.568   4.680
 3807SOL    HW212321   2.133   4.692   4.647
 3808SOL     OW12322   3.178   6.818   6.294
 3808SOL    HW112323   3.194   6.781   6.385
 3808SOL    HW212324   3.093   6.871   6.294
 3809SOL     OW12325   4.998   2.150   1.588
 3809SOL    HW112326   4.928   2.099   1.539
 3809SOL    HW212327   5.029   2.096   1.667
 3810SOL     OW12328   5.936   2.547   2.053
 3810SOL    HW112329   6.017   2.541   1.995
 3810SOL    HW212330   5.963   2.553   2.149
 3811SOL     OW12331   0.348   5.252   5.439
 3811SOL    HW112332   0.270   5.303   5.403
 3811SOL    HW212333   0.319   5.194   5.515
 3812SOL     OW12334   4.935   5.962   1.209
 3812SOL    HW112335   4.864   5.990   1.274
 3812SOL    HW212336   5.013   5.924   1.258
 3813SOL     OW12337   5.930   4.323   6.974
 3813SOL    HW112338   5.905   4.361   0.038
 3813SOL    HW212339   6.027   4.339   6.958
 3814SOL     OW12340   6.974   0.702   5.029
 3814SOL    HW112341   0.012   0.666   5.098
 3814SOL    HW212342   6.917   0.628   4.994
 3815SOL     OW12343   6.561   3.815   5.935
 3815SOL    HW112344   6.613   3.899   5.948
 3815SOL    HW212345   6.619   3.748   5.887
 3816SOL     OW12346   0.384   5.826   0.554
 3816SOL    HW112347   0.386   5.905   0.493
 3816SOL    HW212348   0.450   5.758   0.522
 3817SOL     OW12349   4.907   3.948   1.966
 3817SOL    HW112350   4.895   3.861   1.919
 3817SOL    HW212351   4.858   4.020   1.916
 3818SOL     OW12352   5.902   6.433   2.783
 3818SOL    HW112353   5.905   6.533   2.787
 3818SOL    HW212354   5.854   6.397   2.863
 3819SOL     OW12355   6.378   4.685   3.720
 3819SOL    HW112356   6.454   4.656   3.778
 3819SOL    HW212357   6.392   4.651   3.627
 3820SOL     OW12358   3.629   6.899   4.770
 3820SOL    HW112359   3.644   6.892   4.672
 3820SOL    HW212360   3.549   6.846   4.796
 3821SOL     OW12361   2.169   0.088   7.022
 3821SOL    HW112362   2.199   0.184   7.018
 3821SOL    HW212363   2.088   0.081   0.055
 3822SOL     OW12364   4.670   0.280   1.776
 3822SOL    HW112365   4.722   0.351   1.825
 3822SOL    HW212366   4.659   0.201   1.835
 3823SOL     OW12367   5.096   5.742   7.019
 3823SOL    HW112368   5.000   5.731   6.993
 3823SOL    HW212369   5.142   5.800   6.952
 3824SOL     OW12370   2.777   2.896   0.259
 3824SOL    HW112371   2.820   2.966   0.317
 3824SOL    HW212372   2.803   2.805   0.291
 3825SOL     OW12373   1.113   3.769   5.643
 3825SOL    HW112374   1.121   3.687   5.700
 3825SOL    HW212375   1.016   3.788   5.625
 3826SOL     OW12376   5.740   4.226   3.652
 3826SOL    HW112377   5.700   4.317   3.668
 3826SOL    HW212378   5.795   4.200   3.732
 3827SOL     OW12379   0.938   1.269   1.514
 3827SOL    HW112380   0.839   1.282   1.503
 3827SOL    HW212381   0.978   1.246   1.425
 3828SOL     OW12382   3.201   3.974   4.071
 3828SOL    HW112383   3.117   3.951   4.023
 3828SOL    HW212384   3.204   3.925   4.158
 3829SOL     OW12385   0.811   3.954   2.249
 3829SOL    HW112386   0.821   3.985   2.343
 3829SOL    HW212387   0.817   4.032   2.187
 3830SOL     OW12388   6.429   1.129   4.205
 3830SOL    HW112389   6.358   1.156   4.140
 3830SOL    HW212390   6.485   1.209   4.228
 3831SOL     OW12391   4.694   1.998   3.540
 3831SOL    HW112392   4.727   2.075   3.486
 3831SOL    HW212393   4.600   1.977   3.515
 3832SOL     OW12394   5.842   0.592   3.789
 3832SOL    HW112395   5.870   0.645   3.869
 3832SOL    HW212396   5.898   0.618   3.711
 3833SOL     OW12397   1.129   1.757   5.519
 3833SOL    HW112398   1.049   1.817   5.529
 3833SOL    HW212399   1.099   1.666   5.491
 3834SOL     OW12400   4.778   4.087   0.700
 3834SOL    HW112401   4.801   4.095   0.797
 3834SOL    HW212402   4.770   3.990   0.675
 3835SOL     OW12403   3.801   5.263   4.837
 3835SOL    HW112404   3.847   5.342   4.879
 3835SOL    HW212405   3.709   5.290   4.809
 3836SOL     OW12406   0.387   6.647   5.726
 3836SOL    HW112407   0.359   6.723   5.785
 3836SOL    HW212408   0.336   6.651   5.640
 3837SOL     OW12409   4.475   5.004   5.376
 3837SOL    HW112410   4.571   4.992   5.402
 3837SOL    HW212411   4.467   4.999   5.276
 3838SOL     OW12412   0.566   1.328   4.009
 3838SOL    HW112413   0.563   1.360   3.915
 3838SOL    HW212414   0.499   1.256   4.022
 3839SOL     OW12415   3.791   0.771   3.965
 3839SOL    HW112416   3.773   0.839   3.894
 3839SOL    HW212417   3.820   0.685   3.922
 3840SOL     OW12418   2.345   1.530   6.788
 3840SOL    HW112419   2.344   1.617   6.838
 3840SOL    HW212420   2.253   1.491   6.787
 3841SOL     OW12421   5.683   4.453   4.129
 3841SOL    HW112422   5.636   4.366   4.146
 3841SOL    HW212423   5.614   4.523   4.110
 3842SOL     OW12424   1.792   3.291   5.111
 3842SOL    HW112425   1.739   3.213   5.144
 3842SOL    HW212426   1.792   3.292   5.011
 3843SOL     OW12427   5.436   2.830   6.836
 3843SOL    HW112428   5.447   2.805   6.740
 3843SOL    HW212429   5.384   2.915   6.843
 3844SOL     OW12430   1.436   6.655   0.651
 3844SOL    HW112431   1.343   6.690   0.644
 3844SOL    HW212432   1.471   6.672   0.744
 3845SOL     OW12433   2.217   5.805   0.796
 3845SOL    HW112434   2.184   5.899   0.811
 3845SOL    HW212435   2.275   5.804   0.715
 3846SOL     OW12436   0.968   2.847   3.283
 3846SOL    HW112437   0.882   2.797   3.293
 3846SOL    HW212438   0.964   2.932   3.337
 3847SOL     OW12439   6.967   1.815   6.708
 3847SOL    HW112440   6.989   1.909   6.733
 3847SOL    HW212441   7.024   1.787   6.630
 3848SOL     OW12442   5.605   3.776   2.380
 3848SOL    HW112443   5.552   3.762   2.463
 3848SOL    HW212444   5.692   3.820   2.402
 3849SOL     OW12445   6.620   5.202   6.983
 3849SOL    HW112446   6.669   5.174   0.040
 3849SOL    HW212447   6.625   5.301   6.972
 3850SOL     OW12448   2.618   2.047   1.503
 3850SOL    HW112449   2.555   2.125   1.502
 3850SOL    HW212450   2.682   2.055   1.427
 3851SOL     OW12451   0.424   6.331   2.946
 3851SOL    HW112452   0.453   6.390   2.871
 3851SOL    HW212453   0.384   6.247   2.909
 3852SOL     OW12454   2.904   6.303   5.958
 3852SOL    HW112455   2.875   6.214   5.922
 3852SOL    HW212456   2.884   6.375   5.892
 3853SOL     OW12457   2.490   0.546   3.618
 3853SOL    HW112458   2.431   0.618   3.655
 3853SOL    HW212459   2.434   0.473   3.580
 3854SOL     OW12460   1.870   2.524   2.475
 3854SOL    HW112461   1.963   2.525   2.437
 3854SOL    HW212462   1.839   2.618   2.490
 3855SOL     OW12463   4.477   0.132   0.252
 3855SOL    HW112464   4.441   0.056   0.198
 3855SOL    HW212465   4.419   0.147   0.332
 3856SOL     OW12466   0.349   2.124   6.674
 3856SOL    HW112467   0.317   2.030   6.658
 3856SOL    HW212468   0.305   2.160   6.756
 3857SOL     OW12469   2.139   0.871   5.509
 3857SOL    HW112470   2.114   0.905   5.418
 3857SOL    HW212471   2.188   0.942   5.559
 3858SOL     OW12472   4.218   0.272   5.068
 3858SOL    HW112473   4.250   0.181   5.094
 3858SOL    HW212474   4.209   0.328   5.150
 3859SOL     OW12475   5.905   0.263   1.791
 3859SOL    HW112476   5.842   0.332   1.756
 3859SOL    HW212477   5.995   0.276   1.748
 3860SOL     OW12478   0.958   0.062   3.996
 3860SOL    HW112479   0.980   0.005   3.917
 3860SOL    HW212480   0.897   0.011   4.057
 3861SOL     OW12481   3.947   6.060   1.801
 3861SOL    HW112482   3.997   6.063   1.888
 3861SOL    HW212483   3.946   6.151   1.760
 3862SOL     OW12484   1.309   0.229   3.807
 3862SOL    HW112485   1.329   0.310   3.862
 3862SOL    HW212486   1.380   0.160   3.823
 3863SOL     OW12487   4.094   0.467   0.868
 3863SOL    HW112488   4.105   0.430   0.776
 3863SOL    HW212489   4.091   0.567   0.863
 3864SOL     OW12490   2.423   0.065   4.325
 3864SOL    HW112491   2.397   0.096   4.233
 3864SOL    HW212492   2.523   0.065   4.333
 3865SOL     OW12493   3.844   0.706   0.164
 3865SOL    HW112494   3.779   0.723   0.238
 3865SOL    HW212495   3.842   0.608   0.140
 3866SOL     OW12496   2.765   2.902   6.519
 3866SOL    HW112497   2.840   2.893   6.453
 3866SOL    HW212498   2.703   2.975   6.489
 3867SOL     OW12499   0.748   3.837   1.897
 3867SOL    HW112500   0.701   3.854   1.984
 3867SOL    HW212501   0.795   3.749   1.901
 3868SOL     OW12502   4.225   1.295   6.862
 3868SOL    HW112503   4.158   1.232   6.901
 3868SOL    HW212504   4.277   1.249   6.790
 3869SOL     OW12505   6.503   3.185   3.485
 3869SOL    HW112506   6.416   3.228   3.459
 3869SOL    HW212507   6.490   3.133   3.570
 3870SOL     OW12508   6.726   0.106   3.754
 3870SOL    HW112509   6.721   0.206   3.753
 3870SOL    HW212510   6.701   0.072   3.844
 3871SOL     OW12511   3.528   5.611   4.458
 3871SOL    HW112512   3.445   5.644   4.411
 3871SOL    HW212513   3.607   5.661   4.423
 3872SOL     OW12514   3.529   3.561   4.821
 3872SOL    HW112515   3.494   3.625   4.752
 3872SOL    HW212516   3.621   3.533   4.797
 3873SOL     OW12517   4.653   2.143   0.770
 3873SOL    HW112518   4.585   2.217   0.777
 3873SOL    HW212519   4.607   2.059   0.743
 3874SOL     OW12520   3.198   0.601   0.050
 3874SOL    HW112521   3.258   0.668   0.007
 3874SOL    HW212522   3.233   0.509   0.033
 3875SOL     OW12523   1.670   2.551   5.746
 3875SOL    HW112524   1.605   2.568   5.672
 3875SOL    HW212525   1.734   2.480   5.717
 3876SOL     OW12526   4.239   5.446   1.283
 3876SOL    HW112527   4.247   5.537   1.242
 3876SOL    HW212528   4.210   5.381   1.213
 3877SOL     OW12529   6.870   2.318   0.540
 3877SOL    HW112530   6.959   2.271   0.540
 3877SOL    HW212531   6.811   2.277   0.470
 3878SOL     OW12532   3.873   6.767   3.946
 3878SOL    HW112533   3.788   6.740   3.991
 3878SOL    HW212534   3.932   6.815   4.011
 3879SOL     OW12535   4.956   5.073   6.993
 3879SOL    HW112536   5.045   5.043   0.002
 3879SOL    HW212537   4.968   5.150   6.930
 3880SOL     OW12538   4.732   4.302   4.330
 3880SOL    HW112539   4.758   4.209   4.306
 3880SOL    HW212540   4.719   4.309   4.429
 3881SOL     OW12541   0.945   4.260   0.278
 3881SOL    HW112542   1.015   4.236   0.211
 3881SOL    HW212543   0.982   4.328   0.342
 3882SOL     OW12544   0.808   1.624   0.681
 3882SOL    HW112545   0.890   1.662   0.724
 3882SOL    HW212546   0.727   1.673   0.713
 3883SOL     OW12547   4.560   6.009   3.506
 3883SOL    HW112548   4.591   6.069   3.432
 3883SOL    HW212549   4.603   5.920   3.497
 3884SOL     OW12550   0.916   5.434   3.066
 3884SOL    HW112551   0.998   5.397   3.108
 3884SOL    HW212552   0.887   5.375   2.990
 3885SOL     OW12553   5.262   6.532   2.789
 3885SOL    HW112554   5.219   6.583   2.715
 3885SOL    HW212555   5.291   6.595   2.861
 3886SOL     OW12556   3.901   6.755   6.136
 3886SOL    HW112557   3.841   6.716   6.205
 3886SOL    HW212558   3.887   6.854   6.132
 3887SOL     OW12559   7.012   6.621   1.624
 3887SOL    HW112560   6.983   6.696   1.565
 3887SOL    HW212561   0.053   6.655   1.691
 3888SOL     OW12562   5.801   6.140   4.845
 3888SOL    HW112563   5.774   6.183   4.931
 3888SOL    HW212564   5.855   6.058   4.864
 3889SOL     OW12565   5.738   3.786   6.444
 3889SOL    HW112566   5.795   3.852   6.493
 3889SOL    HW212567   5.780   3.764   6.356
 3890SOL     OW12568   5.400   3.265   5.047
 3890SOL    HW112569   5.336   3.228   4.980
 3890SOL    HW212570   5.385   3.363   5.057
 3891SOL     OW12571   5.750   4.895   3.640
 3891SOL    HW112572   5.659   4.877   3.675
 3891SOL    HW212573   5.808   4.928   3.714
 3892SOL     OW12574   7.003   2.437   1.283
 3892SOL    HW112575   6.976   2.532   1.301
 3892SOL    HW212576   0.077   2.429   1.292
 3893SOL     OW12577   4.659   3.222   1.397
 3893SOL    HW112578   4.684   3.304   1.345
 3893SOL    HW212579   4.586   3.174   1.349
 3894SOL     OW12580   4.721   0.186   6.483
 3894SOL    HW112581   4.678   0.141   6.562
 3894SOL    HW212582   4.817   0.158   6.477
 3895SOL     OW12583   1.846   6.940   4.658
 3895SOL    HW112584   1.810   6.857   4.700
 3895SOL    HW212585   1.914   6.916   4.589
 3896SOL     OW12586   1.081   1.165   6.718
 3896SOL    HW112587   1.038   1.254   6.714
 3896SOL    HW212588   1.014   1.096   6.744
 3897SOL     OW12589   4.575   5.681   1.940
 3897SOL    HW112590   4.640   5.697   1.866
 3897SOL    HW212591   4.566   5.764   1.995
 3898SOL     OW12592   4.014   2.707   6.244
 3898SOL    HW112593   4.002   2.760   6.328
 3898SOL    HW212594   3.964   2.751   6.170
 3899SOL     OW12595   4.625   6.832   5.968
 3899SOL    HW112596   4.613   6.930   5.953
 3899SOL    HW212597   4.591   6.808   6.059
 3900SOL     OW12598   5.450   3.500   3.286
 3900SOL    HW112599   5.430   3.540   3.376
 3900SOL    HW212600   5.527   3.547   3.245
 3901SOL     OW12601   2.945   0.672   7.018
 3901SOL    HW112602   3.039   0.654   0.021
 3901SOL    HW212603   2.918   0.605   6.948
 3902SOL     OW12604   6.257   3.404   2.613
 3902SOL    HW112605   6.169   3.362   2.635
 3902SOL    HW212606   6.262   3.495   2.655
 3903SOL     OW12607   3.561   5.469   6.824
 3903SOL    HW112608   3.498   5.538   6.860
 3903SOL    HW212609   3.609   5.425   6.900
 3904SOL     OW12610   1.086   0.300   6.923
 3904SOL    HW112611   1.114   0.222   6.979
 3904SOL    HW212612   1.168   0.342   6.883
 3905SOL     OW12613   0.333   6.152   5.924
 3905SOL    HW112614   0.278   6.137   6.006
 3905SOL    HW212615   0.290   6.224   5.868
 3906SOL     OW12616   5.383   6.082   5.462
 3906SOL    HW112617   5.396   6.013   5.391
 3906SOL    HW212618   5.431   6.054   5.545
 3907SOL     OW12619   6.135   1.848   3.928
 3907SOL    HW112620   6.183   1.854   4.016
 3907SOL    HW212621   6.202   1.848   3.854
 3908SOL     OW12622   0.674   2.255   6.457
 3908SOL    HW112623   0.718   2.336   6.494
 3908SOL    HW212624   0.596   2.282   6.401
 3909SOL     OW12625   5.178   5.127   4.596
 3909SOL    HW112626   5.185   5.227   4.591
 3909SOL    HW212627   5.099   5.102   4.652
 3910SOL     OW12628   3.276   3.774   2.764
 3910SOL    HW112629   3.177   3.786   2.764
 3910SOL    HW212630   3.319   3.853   2.721
 3911SOL     OW12631   5.553   1.126   5.100
 3911SOL    HW112632   5.562   1.053   5.032
 3911SOL    HW212633   5.456   1.146   5.115
 3912SOL     OW12634   5.482   1.781   5.347
 3912SOL    HW112635   5.478   1.881   5.347
 3912SOL    HW212636   5.576   1.751   5.331
 3913SOL     OW12637   1.505   6.692   0.019
 3913SOL    HW112638   1.512   6.641   6.959
 3913SOL    HW212639   1.410   6.693   0.050
 3914SOL     OW12640   3.587   6.886   6.342
 3914SOL    HW112641   3.603   6.970   6.290
 3914SOL    HW212642   3.490   6.880   6.366
 3915SOL     OW12643   5.282   5.229   1.581
 3915SOL    HW112644   5.251   5.175   1.659
 3915SOL    HW212645   5.369   5.273   1.604
 3916SOL     OW12646   0.982   0.208   2.686
 3916SOL    HW112647   0.954   0.112   2.685
 3916SOL    HW212648   1.080   0.214   2.706
 3917SOL     OW12649   1.506   0.149   7.020
 3917SOL    HW112650   1.564   0.069   0.011
 3917SOL    HW212651   1.467   0.143   6.928
 3918SOL     OW12652   5.572   4.249   1.713
 3918SOL    HW112653   5.482   4.206   1.718
 3918SOL    HW212654   5.636   4.201   1.773
 3919SOL     OW12655   3.809   0.199   0.696
 3919SOL    HW112656   3.861   0.221   0.614
 3919SOL    HW212657   3.743   0.126   0.676
 3920SOL     OW12658   2.056   2.997   6.963
 3920SOL    HW112659   2.062   2.995   0.037
 3920SOL    HW212660   1.991   3.068   6.935
 3921SOL     OW12661   1.125   4.090   1.421
 3921SOL    HW112662   1.032   4.106   1.388
 3921SOL    HW212663   1.122   4.028   1.499
 3922SOL     OW12664   0.405   3.886   1.671
 3922SOL    HW112665   0.321   3.935   1.647
 3922SOL    HW212666   0.465   3.947   1.724
 3923SOL     OW12667   0.897   0.794   0.416
 3923SOL    HW112668   0.908   0.762   0.510
 3923SOL    HW212669   0.936   0.885   0.407
 3924SOL     OW12670   6.478   5.167   5.008
 3924SOL    HW112671   6.433   5.148   4.920
 3924SOL    HW212672   6.562   5.113   5.015
 3925SOL     OW12673   1.686   5.122   1.939
 3925SOL    HW112674   1.701   5.100   2.035
 3925SOL    HW212675   1.773   5.145   1.896
 3926SOL     OW12676   4.383   4.567   2.443
 3926SOL    HW112677   4.322   4.590   2.367
 3926SOL    HW212678   4.449   4.498   2.412
 3927SOL     OW12679   0.466   3.248   6.151
 3927SOL    HW112680   0.521   3.173   6.187
 3927SOL    HW212681   0.389   3.211   6.099
 3928SOL     OW12682   4.827   6.085   6.899
 3928SOL    HW112683   4.868   6.015   6.841
 3928SOL    HW212684   4.862   6.076   6.993
 3929SOL     OW12685   0.861   0.728   5.302
 3929SOL    HW112686   0.891   0.676   5.222
 3929SOL    HW212687   0.908   0.694   5.383
 3930SOL     OW12688   2.389   2.040   3.319
 3930SOL    HW112689   2.384   2.001   3.411
 3930SOL    HW212690   2.450   1.984   3.262
 3931SOL     OW12691   6.229   1.609   1.894
 3931SOL    HW112692   6.323   1.590   1.866
 3931SOL    HW212693   6.175   1.524   1.890
 3932SOL     OW12694   0.426   2.784   3.957
 3932SOL    HW112695   0.392   2.877   3.949
 3932SOL    HW212696   0.525   2.786   3.971
 3933SOL     OW12697   1.610   0.352   6.095
 3933SOL    HW112698   1.667   0.429   6.123
 3933SOL    HW212699   1.515   0.383   6.085
 3934SOL     OW12700   6.352   6.813   5.956
 3934SOL    HW112701   6.280   6.819   5.886
 3934SOL    HW212702   6.374   6.718   5.974
 3935SOL     OW12703   4.087   0.749   0.799
 3935SOL    HW112704   4.159   0.815   0.818
 3935SOL    HW212705   3.998   0.789   0.822
 3936SOL     OW12706   6.181   5.646   4.428
 3936SOL    HW112707   6.237   5.693   4.360
 3936SOL    HW212708   6.140   5.713   4.489
 3937SOL     OW12709   6.909   1.323   2.722
 3937SOL    HW112710   6.941   1.261   2.794
 3937SOL    HW212711   6.823   1.288   2.684
 3938SOL     OW12712   7.014   1.055   3.146
 3938SOL    HW112713   6.953   1.001   3.204
 3938SOL    HW212714   6.987   1.043   3.050
 3939SOL     OW12715   2.999   1.730   1.866
 3939SOL    HW112716   2.929   1.660   1.853
 3939SOL    HW212717   3.054   1.708   1.946
 3940SOL     OW12718   3.732   3.225   1.207
 3940SOL    HW112719   3.777   3.141   1.235
 3940SOL    HW212720   3.633   3.216   1.219
 3941SOL     OW12721   4.338   4.644   6.252
 3941SOL    HW112722   4.295   4.713   6.310
 3941SOL    HW212723   4.377   4.572   6.309
 3942SOL     OW12724   6.692   6.930   6.996
 3942SOL    HW112725   6.623   7.001   6.979
 3942SOL    HW212726   6.753   6.924   6.917
 3943SOL     OW12727   0.695   3.214   4.158
 3943SOL    HW112728   0.657   3.258   4.240
 3943SOL    HW212729   0.642   3.132   4.136
 3944SOL     OW12730   4.588   2.227   4.441
 3944SOL    HW112731   4.516   2.268   4.498
 3944SOL    HW212732   4.566   2.130   4.425
 3945SOL     OW12733   6.790   1.796   1.089
 3945SOL    HW112734   6.743   1.845   1.163
 3945SOL    HW212735   6.831   1.712   1.124
 3946SOL     OW12736   4.912   4.706   3.216
 3946SOL    HW112737   4.882   4.673   3.126
 3946SOL    HW212738   4.903   4.631   3.283
 3947SOL     OW12739   4.550   5.967   0.483
 3947SOL    HW112740   4.491   5.916   0.545
 3947SOL    HW212741   4.623   5.907   0.449
 3948SOL     OW12742   6.320   4.551   1.596
 3948SOL    HW112743   6.234   4.501   1.581
 3948SOL    HW212744   6.378   4.541   1.515
 3949SOL     OW12745   4.461   5.913   2.903
 3949SOL    HW112746   4.429   5.989   2.847
 3949SOL    HW212747   4.492   5.838   2.844
 3950SOL     OW12748   1.646   5.521   1.336
 3950SOL    HW112749   1.576   5.450   1.345
 3950SOL    HW212750   1.725   5.497   1.392
 3951SOL     OW12751   4.667   1.026   1.558
 3951SOL    HW112752   4.765   1.037   1.576
 3951SOL    HW212753   4.635   0.939   1.596
 3952SOL     OW12754   0.248   2.709   1.003
 3952SOL    HW112755   0.152   2.685   0.989
 3952SOL    HW212756   0.302   2.625   1.011
 3953SOL     OW12757   4.046   3.415   1.976
 3953SOL    HW112758   4.048   3.492   1.912
 3953SOL    HW212759   3.954   3.377   1.978
 3954SOL     OW12760   4.027   5.071   5.534
 3954SOL    HW112761   4.067   5.130   5.604
 3954SOL    HW212762   4.087   4.992   5.519
 3955SOL     OW12763   3.457   1.495   5.897
 3955SOL    HW112764   3.433   1.399   5.914
 3955SOL    HW212765   3.490   1.505   5.803
 3956SOL     OW12766   1.191   1.094   2.611
 3956SOL    HW112767   1.285   1.095   2.646
 3956SOL    HW212768   1.187   1.149   2.528
 3957SOL     OW12769   3.944   6.734   4.594
 3957SOL    HW112770   3.869   6.685   4.549
 3957SOL    HW212771   4.021   6.671   4.608
 3958SOL     OW12772   6.029   2.072   4.059
 3958SOL    HW112773   6.000   2.136   4.130
 3958SOL    HW212774   6.115   2.028   4.086
 3959SOL     OW12775   4.947   5.120   0.318
 3959SOL    HW112776   4.930   5.167   0.231
 3959SOL    HW212777   4.860   5.108   0.367
 3960SOL     OW12778   5.482   2.077   5.379
 3960SOL    HW112779   5.385   2.070   5.356
 3960SOL    HW212780   5.492   2.135   5.460
 3961SOL     OW12781   5.375   0.428   3.224
 3961SOL    HW112782   5.386   0.461   3.318
 3961SOL    HW212783   5.464   0.425   3.179
 3962SOL     OW12784   0.472   5.436   6.122
 3962SOL    HW112785   0.388   5.435   6.176
 3962SOL    HW212786   0.483   5.525   6.079
 3963SOL     OW12787   4.957   6.260   2.093
 3963SOL    HW112788   5.047   6.265   2.136
 3963SOL    HW212789   4.909   6.347   2.104
 3964SOL     OW12790   4.902   3.647   3.216
 3964SOL    HW112791   4.856   3.710   3.278
 3964SOL    HW212792   4.999   3.638   3.241
 3965SOL     OW12793   5.536   3.065   4.318
 3965SOL    HW112794   5.536   3.050   4.417
 3965SOL    HW212795   5.450   3.109   4.290
 3966SOL     OW12796   3.536   5.479   6.551
 3966SOL    HW112797   3.520   5.573   6.522
 3966SOL    HW212798   3.543   5.475   6.651
 3967SOL     OW12799   1.910   4.317   1.710
 3967SOL    HW112800   1.953   4.321   1.800
 3967SOL    HW212801   1.948   4.390   1.652
 3968SOL     OW12802   4.272   0.647   0.566
 3968SOL    HW112803   4.317   0.699   0.638
 3968SOL    HW212804   4.182   0.687   0.546
 3969SOL     OW12805   1.901   5.457   2.256
 3969SOL    HW112806   1.881   5.551   2.283
 3969SOL    HW212807   1.877   5.444   2.160
 3970SOL     OW12808   5.840   5.872   2.263
 3970SOL    HW112809   5.913   5.809   2.291
 3970SOL    HW212810   5.880   5.945   2.208
 3971SOL     OW12811   2.737   5.861   4.073
 3971SOL    HW112812   2.823   5.881   4.026
 3971SOL    HW212813   2.738   5.905   4.163
 3972SOL     OW12814   1.268   3.954   0.070
 3972SOL    HW112815   1.296   3.920   0.160
 3972SOL    HW212816   1.321   3.907   7.024
 3973SOL     OW12817   1.025   6.233   1.156
 3973SOL    HW112818   0.930   6.222   1.127
 3973SOL    HW212819   1.080   6.266   1.079
 3974SOL     OW12820   1.790   0.904   5.727
 3974SOL    HW112821   1.713   0.895   5.790
 3974SOL    HW212822   1.827   0.814   5.707
 3975SOL     OW12823   4.889   2.180   6.302
 3975SOL    HW112824   4.952   2.126   6.357
 3975SOL    HW212825   4.941   2.237   6.238
 3976SOL     OW12826   1.778   6.195   2.599
 3976SOL    HW112827   1.822   6.155   2.519
 3976SOL    HW212828   1.729   6.278   2.573
 3977SOL     OW12829   1.069   4.155   6.831
 3977SOL    HW112830   1.040   4.066   6.867
 3977SOL    HW212831   1.045   4.160   6.734
 3978SOL     OW12832   6.897   5.332   3.745
 3978SOL    HW112833   6.872   5.386   3.664
 3978SOL    HW212834   6.983   5.365   3.782
 3979SOL     OW12835   3.175   1.140   6.419
 3979SOL    HW112836   3.132   1.181   6.500
 3979SOL    HW212837   3.226   1.210   6.369
 3980SOL     OW12838   6.386   6.277   6.300
 3980SOL    HW112839   6.365   6.264   6.203
 3980SOL    HW212840   6.412   6.372   6.317
 3981SOL     OW12841   5.434   6.295   0.215
 3981SOL    HW112842   5.424   6.308   0.313
 3981SOL    HW212843   5.496   6.364   0.178
 3982SOL     OW12844   2.050   0.052   2.241
 3982SOL    HW112845   2.104   0.019   2.319
 3982SOL    HW212846   1.992   7.003   2.207
 3983SOL     OW12847   4.398   5.354   3.930
 3983SOL    HW112848   4.338   5.406   3.990
 3983SOL    HW212849   4.422   5.268   3.974
 3984SOL     OW12850   5.777   1.922   2.418
 3984SOL    HW112851   5.851   1.917   2.485
 3984SOL    HW212852   5.789   2.003   2.361
 3985SOL     OW12853   3.173   5.359   6.663
 3985SOL    HW112854   3.158   5.446   6.711
 3985SOL    HW212855   3.094   5.338   6.606
 3986SOL     OW12856   5.137   1.840   2.279
 3986SOL    HW112857   5.057   1.780   2.282
 3986SOL    HW212858   5.215   1.790   2.242
 3987SOL     OW12859   3.318   5.026   4.965
 3987SOL    HW112860   3.350   5.103   4.910
 3987SOL    HW212861   3.261   4.966   4.908
 3988SOL     OW12862   4.341   5.410   0.716
 3988SOL    HW112863   4.346   5.390   0.814
 3988SOL    HW212864   4.260   5.465   0.698
 3989SOL     OW12865   6.041   2.234   0.072
 3989SOL    HW112866   5.977   2.295   0.024
 3989SOL    HW212867   6.005   2.141   0.070
 3990SOL     OW12868   4.880   2.684   1.760
 3990SOL    HW112869   4.885   2.733   1.847
 3990SOL    HW212870   4.873   2.586   1.777
 3991SOL     OW12871   0.431   1.130   2.790
 3991SOL    HW112872   0.444   1.125   2.889
 3991SOL    HW212873   0.511   1.091   2.744
 3992SOL     OW12874   3.301   1.981   0.699
 3992SOL    HW112875   3.214   2.031   0.695
 3992SOL    HW212876   3.375   2.046   0.716
 3993SOL     OW12877   1.074   3.324   2.292
 3993SOL    HW112878   1.166   3.362   2.288
 3993SOL    HW212879   1.039   3.329   2.385
 3994SOL     OW12880   2.642   6.811   5.319
 3994SOL    HW112881   2.638   6.854   5.229
 3994SOL    HW212882   2.735   6.777   5.336
 3995SOL     OW12883   1.635   2.870   5.441
 3995SOL    HW112884   1.568   2.931   5.397
 3995SOL    HW212885   1.637   2.890   5.539
 3996SOL     OW12886   0.283   6.518   4.933
 3996SOL    HW112887   0.201   6.464   4.918
 3996SOL    HW212888   0.327   6.538   4.844
 3997SOL     OW12889   5.473   1.075   4.070
 3997SOL    HW112890   5.498   1.171   4.082
 3997SOL    HW212891   5.507   1.022   4.147
 3998SOL     OW12892   3.737   2.115   3.654
 3998SOL    HW112893   3.756   2.117   3.752
 3998SOL    HW212894   3.704   2.024   3.629
 3999SOL     OW12895   6.385   2.354   4.450
 3999SOL    HW112896   6.398   2.440   4.401
 3999SOL    HW212897   6.329   2.370   4.531
 4000SOL     OW12898   3.733   0.156   3.725
 4000SOL    HW112899   3.772   0.164   3.817
 4000SOL    HW212900   3.675   0.075   3.721
 4001SOL     OW12901   1.810   1.841   3.402
 4001SOL    HW112902   1.756   1.866   3.322
 4001SOL    HW212903   1.892   1.791   3.373
 4002SOL     OW12904   2.107   3.716   1.977
 4002SOL    HW112905   2.170   3.777   1.930
 4002SOL    HW212906   2.149   3.626   1.987
 4003SOL     OW12907   3.262   0.107   4.669
 4003SOL    HW112908   3.213   0.124   4.755
 4003SOL    HW212909   3.360   0.115   4.684
 4004SOL     OW12910   6.501   2.152   4.662
 4004SOL    HW112911   6.425   2.159   4.726
 4004SOL    HW212912   6.477   2.195   4.576
 4005SOL     OW12913   5.286   5.542   6.079
 4005SOL    HW112914   5.327   5.505   5.996
 4005SOL    HW212915   5.330   5.500   6.159
 4006SOL     OW12916   4.020   5.604   2.446
 4006SOL    HW112917   4.028   5.696   2.485
 4006SOL    HW212918   4.063   5.539   2.508
 4007SOL     OW12919   6.760   2.349   6.807
 4007SOL    HW112920   6.757   2.265   6.753
 4007SOL    HW212921   6.829   2.410   6.769
 4008SOL     OW12922   2.759   2.325   4.525
 4008SOL    HW112923   2.763   2.419   4.561
 4008SOL    HW212924   2.752   2.328   4.426
 4009SOL     OW12925   3.815   3.707   2.648
 4009SOL    HW112926   3.893   3.731   2.705
 4009SOL    HW212927   3.845   3.645   2.576
 4010SOL     OW12928   1.986   3.457   0.609
 4010SOL    HW112929   2.057   3.504   0.662
 4010SOL    HW212930   1.945   3.385   0.665
 4011SOL     OW12931   1.771   2.545   1.874
 4011SOL    HW112932   1.723   2.458   1.856
 4011SOL    HW212933   1.810   2.542   1.965
 4012SOL     OW12934   6.852   4.199   3.355
 4012SOL    HW112935   6.947   4.179   3.331
 4012SOL    HW212936   6.808   4.117   3.392
 4013SOL     OW12937   4.594   2.428   3.494
 4013SOL    HW112938   4.661   2.452   3.565
 4013SOL    HW212939   4.620   2.342   3.450
 4014SOL     OW12940   5.491   6.006   3.171
 4014SOL    HW112941   5.422   6.018   3.243
 4014SOL    HW212942   5.495   6.088   3.114
 4015SOL     OW12943   5.268   4.070   6.068
 4015SOL    HW112944   5.269   4.088   5.970
 4015SOL    HW212945   5.299   4.152   6.117
 4016SOL     OW12946   3.144   6.337   6.344
 4016SOL    HW112947   3.215   6.288   6.292
 4016SOL    HW212948   3.077   6.375   6.282
 4017SOL     OW12949   6.461   5.835   0.102
 4017SOL    HW112950   6.419   5.926   0.107
 4017SOL    HW212951   6.422   5.785   0.024
 4018SOL     OW12952   3.938   5.438   1.402
 4018SOL    HW112953   3.976   5.346   1.404
 4018SOL    HW212954   3.975   5.489   1.324
 4019SOL     OW12955   5.003   5.169   3.388
 4019SOL    HW112956   4.954   5.111   3.322
 4019SOL    HW212957   4.936   5.215   3.448
 4020SOL     OW12958   5.497   2.261   5.564
 4020SOL    HW112959   5.429   2.331   5.584
 4020SOL    HW212960   5.584   2.285   5.608
 4021SOL     OW12961   3.249   4.576   5.805
 4021SOL    HW112962   3.252   4.649   5.737
 4021SOL    HW212963   3.301   4.497   5.772
 4022SOL     OW12964   4.840   0.398   0.884
 4022SOL    HW112965   4.927   0.376   0.838
 4022SOL    HW212966   4.801   0.480   0.843
 4023SOL     OW12967   6.227   0.491   5.965
 4023SOL    HW112968   6.197   0.577   5.924
 4023SOL    HW212969   6.213   0.495   6.064
 4024SOL     OW12970   3.895   5.142   3.827
 4024SOL    HW112971   3.974   5.200   3.806
 4024SOL    HW212972   3.903   5.108   3.921
 4025SOL     OW12973   0.961   4.729   3.547
 4025SOL    HW112974   0.875   4.776   3.568
 4025SOL    HW212975   0.942   4.640   3.507
 4026SOL     OW12976   5.430   6.366   4.352
 4026SOL    HW112977   5.431   6.443   4.288
 4026SOL    HW212978   5.337   6.351   4.385
 4027SOL     OW12979   3.961   5.142   1.871
 4027SOL    HW112980   3.990   5.048   1.891
 4027SOL    HW212981   3.993   5.167   1.779
 4028SOL     OW12982   2.674   0.427   3.805
 4028SOL    HW112983   2.631   0.436   3.716
 4028SOL    HW212984   2.723   0.340   3.810
 4029SOL     OW12985   1.835   4.582   5.078
 4029SOL    HW112986   1.902   4.651   5.049
 4029SOL    HW212987   1.882   4.495   5.095
 4030SOL     OW12988   6.986   2.023   5.240
 4030SOL    HW112989   6.992   1.929   5.275
 4030SOL    HW212990   0.054   2.060   5.229
 4031SOL     OW12991   3.960   5.653   4.038
 4031SOL    HW112992   3.973   5.608   4.126
 4031SOL    HW212993   4.050   5.676   3.999
 4032SOL     OW12994   4.880   0.054   4.824
 4032SOL    HW112995   4.828   7.006   4.868
 4032SOL    HW212996   4.820   0.132   4.806
 4033SOL     OW12997   2.891   3.893   5.306
 4033SOL    HW112998   2.922   3.835   5.231
 4033SOL    HW212999   2.791   3.892   5.310
 4034SOL     OW13000   6.790   2.572   3.874
 4034SOL    HW113001   6.825   2.662   3.899
 4034SOL    HW213002   6.804   2.508   3.949
 4035SOL     OW13003   0.097   5.126   0.406
 4035SOL    HW113004   0.055   5.184   0.337
 4035SOL    HW213005   0.093   5.172   0.495
 4036SOL     OW13006   6.704   6.772   2.950
 4036SOL    HW113007   6.679   6.831   3.027
 4036SOL    HW213008   6.659   6.683   2.960
 4037SOL     OW13009   6.624   4.161   6.662
 4037SOL    HW113010   6.537   4.177   6.707
 4037SOL    HW213011   6.617   4.082   6.601
 4038SOL     OW13012   5.508   4.812   3.735
 4038SOL    HW113013   5.559   4.729   3.717
 4038SOL    HW213014   5.418   4.807   3.691
 4039SOL     OW13015   4.551   5.992   1.022
 4039SOL    HW113016   4.452   5.998   1.005
 4039SOL    HW213017   4.601   6.019   0.939
 4040SOL     OW13018   3.651   6.219   1.924
 4040SOL    HW113019   3.600   6.265   1.852
 4040SOL    HW213020   3.649   6.120   1.908
 4041SOL     OW13021   1.458   6.736   3.962
 4041SOL    HW113022   1.538   6.784   3.999
 4041SOL    HW213023   1.432   6.778   3.875
 4042SOL     OW13024   6.024   5.082   2.071
 4042SOL    HW113025   5.957   5.118   2.136
 4042SOL    HW213026   6.047   5.153   2.005
 4043SOL     OW13027   6.740   2.853   1.392
 4043SOL    HW113028   6.746   2.865   1.293
 4043SOL    HW213029   6.647   2.874   1.423
 4044SOL     OW13030   6.472   5.644   3.700
 4044SOL    HW113031   6.569   5.666   3.703
 4044SOL    HW213032   6.433   5.673   3.613
 4045SOL     OW13033   2.458   5.874   6.133
 4045SOL    HW113034   2.451   5.775   6.128
 4045SOL    HW213035   2.545   5.904   6.095
 4046SOL     OW13036   1.702   3.061   1.217
 4046SOL    HW113037   1.615   3.078   1.263
 4046SOL    HW213038   1.773   3.118   1.257
 4047SOL     OW13039   3.341   3.710   1.741
 4047SOL    HW113040   3.441   3.718   1.747
 4047SOL    HW213041   3.318   3.617   1.713
 4048SOL     OW13042   5.673   1.393   1.104
 4048SOL    HW113043   5.690   1.295   1.113
 4048SOL    HW213044   5.655   1.433   1.194
 4049SOL     OW13045   6.440   0.834   5.758
 4049SOL    HW113046   6.411   0.738   5.755
 4049SOL    HW213047   6.502   0.847   5.835
 4050SOL     OW13048   2.777   0.644   0.993
 4050SOL    HW113049   2.718   0.616   0.917
 4050SOL    HW213050   2.762   0.584   1.071
 4051SOL     OW13051   2.956   3.478   0.871
 4051SOL    HW113052   3.041   3.487   0.819
 4051SOL    HW213053   2.958   3.539   0.950
 4052SOL     OW13054   1.785   6.100   1.429
 4052SOL    HW113055   1.720   6.038   1.385
 4052SOL    HW213056   1.868   6.050   1.453
 4053SOL     OW13057   3.302   4.896   3.562
 4053SOL    HW113058   3.253   4.909   3.649
 4053SOL    HW213059   3.399   4.879   3.581
 4054SOL     OW13060   5.368   2.060   6.812
 4054SOL    HW113061   5.450   2.115   6.792
 4054SOL    HW213062   5.286   2.113   6.792
 4055SOL     OW13063   3.858   2.056   0.185
 4055SOL    HW113064   3.777   2.046   0.128
 4055SOL    HW213065   3.838   2.118   0.261
 4056SOL     OW13066   4.234   3.446   0.697
 4056SOL    HW113067   4.210   3.360   0.741
 4056SOL    HW213068   4.211   3.523   0.757
 4057SOL     OW13069   5.628   2.477   6.140
 4057SOL    HW113070   5.726   2.494   6.128
 4057SOL    HW213071   5.588   2.550   6.196
 4058SOL     OW13072   0.818   0.344   5.295
 4058SOL    HW113073   0.801   0.347   5.393
 4058SOL    HW213074   0.814   0.250   5.263
 4059SOL     OW13075   6.985   1.606   4.885
 4059SOL    HW113076   0.022   1.668   4.837
 4059SOL    HW213077   6.949   1.539   4.821
 4060SOL     OW13078   4.224   5.476   4.133
 4060SOL    HW113079   4.232   5.569   4.097
 4060SOL    HW213080   4.245   5.476   4.231
 4061SOL     OW13081   2.517   2.970   1.701
 4061SOL    HW113082   2.533   2.914   1.620
 4061SOL    HW213083   2.478   2.913   1.773
 4062SOL     OW13084   2.872   6.902   2.948
 4062SOL    HW113085   2.840   6.835   3.014
 4062SOL    HW213086   2.972   6.907   2.952
 4063SOL     OW13087   2.432   5.194   5.845
 4063SOL    HW113088   2.479   5.222   5.928
 4063SOL    HW213089   2.341   5.159   5.868
 4064SOL     OW13090   6.205   0.161   3.741
 4064SOL    HW113091   6.290   0.178   3.791
 4064SOL    HW213092   6.141   0.237   3.758
 4065SOL     OW13093   5.820   4.891   6.568
 4065SOL    HW113094   5.793   4.877   6.473
 4065SOL    HW213095   5.897   4.831   6.591
 4066SOL     OW13096   5.604   4.951   1.537
 4066SOL    HW113097   5.581   4.856   1.558
 4066SOL    HW213098   5.597   5.007   1.620
 4067SOL     OW13099   6.063   1.160   1.965
 4067SOL    HW113100   6.154   1.174   2.004
 4067SOL    HW213101   6.016   1.086   2.014
 4068SOL     OW13102   5.241   0.825   4.080
 4068SOL    HW113103   5.334   0.791   4.065
 4068SOL    HW213104   5.243   0.900   4.145
 4069SOL     OW13105   7.000   5.683   1.721
 4069SOL    HW113106   0.018   5.725   1.641
 4069SOL    HW213107   6.903   5.705   1.721
 4070SOL     OW13108   0.872   3.804   2.801
 4070SOL    HW113109   0.887   3.751   2.884
 4070SOL    HW213110   0.774   3.813   2.785
 4071SOL     OW13111   2.032   0.351   3.824
 4071SOL    HW113112   2.097   0.372   3.897
 4071SOL    HW213113   1.997   0.437   3.786
 4072SOL     OW13114   0.756   7.013   4.163
 4072SOL    HW113115   0.739   6.949   4.088
 4072SOL    HW213116   0.686   0.060   4.162
 4073SOL     OW13117   2.986   4.914   0.584
 4073SOL    HW113118   2.966   4.995   0.530
 4073SOL    HW213119   3.079   4.882   0.563
 4074SOL     OW13120   1.605   3.049   0.716
 4074SOL    HW113121   1.617   3.022   0.621
 4074SOL    HW213122   1.695   3.064   0.758
 4075SOL     OW13123   5.125   0.594   4.246
 4075SOL    HW113124   5.145   0.689   4.223
 4075SOL    HW213125   5.198   0.557   4.303
 4076SOL     OW13126   1.407   2.881   3.548
 4076SOL    HW113127   1.461   2.798   3.539
 4076SOL    HW213128   1.440   2.950   3.483
 4077SOL     OW13129   2.864   2.172   0.845
 4077SOL    HW113130   2.866   2.199   0.942
 4077SOL    HW213131   2.804   2.234   0.795
 4078SOL     OW13132   5.541   3.559   2.127
 4078SOL    HW113133   5.624   3.543   2.073
 4078SOL    HW213134   5.561   3.622   2.201
 4079SOL     OW13135   6.647   1.124   3.542
 4079SOL    HW113136   6.723   1.127   3.606
 4079SOL    HW213137   6.603   1.034   3.547
 4080SOL     OW13138   4.069   3.115   2.608
 4080SOL    HW113139   4.146   3.066   2.568
 4080SOL    HW213140   4.086   3.214   2.601
 4081SOL     OW13141   2.421   2.345   6.260
 4081SOL    HW113142   2.345   2.291   6.225
 4081SOL    HW213143   2.394   2.441   6.267
 4082SOL     OW13144   1.357   2.526   5.665
 4082SOL    HW113145   1.290   2.583   5.618
 4082SOL    HW213146   1.357   2.435   5.625
 4083SOL     OW13147   5.612   5.207   2.585
 4083SOL    HW113148   5.695   5.153   2.596
 4083SOL    HW213149   5.552   5.193   2.664
 4084SOL     OW13150   4.440   0.819   3.051
 4084SOL    HW113151   4.360   0.870   3.022
 4084SOL    HW213152   4.428   0.722   3.029
 4085SOL     OW13153   3.617   5.159   1.778
 4085SOL    HW113154   3.690   5.156   1.846
 4085SOL    HW213155   3.529   5.172   1.825
 4086SOL     OW13156   6.276   5.167   5.249
 4086SOL    HW113157   6.178   5.169   5.269
 4086SOL    HW213158   6.290   5.159   5.150
 4087SOL     OW13159   1.748   0.183   2.552
 4087SOL    HW113160   1.714   0.263   2.503
 4087SOL    HW213161   1.686   0.160   2.627
 4088SOL     OW13162   0.217   2.100   5.227
 4088SOL    HW113163   0.199   2.114   5.129
 4088SOL    HW213164   0.289   2.163   5.256
 4089SOL     OW13165   1.232   0.777   2.574
 4089SOL    HW113166   1.287   0.727   2.507
 4089SOL    HW213167   1.246   0.875   2.562
 4090SOL     OW13168   2.572   1.914   5.809
 4090SOL    HW113169   2.613   2.006   5.811
 4090SOL    HW213170   2.643   1.846   5.826
 4091SOL     OW13171   3.564   5.865   1.417
 4091SOL    HW113172   3.470   5.832   1.422
 4091SOL    HW213173   3.625   5.802   1.465
 4092SOL     OW13174   5.298   2.265   4.719
 4092SOL    HW113175   5.363   2.189   4.725
 4092SOL    HW213176   5.332   2.342   4.772
 4093SOL     OW13177   5.438   4.505   3.520
 4093SOL    HW113178   5.510   4.500   3.590
 4093SOL    HW213179   5.467   4.566   3.447
 4094SOL     OW13180   6.762   5.855   0.132
 4094SOL    HW113181   6.795   5.850   0.226
 4094SOL    HW213182   6.667   5.886   0.131
 4095SOL     OW13183   1.176   5.234   0.574
 4095SOL    HW113184   1.242   5.302   0.543
 4095SOL    HW213185   1.158   5.246   0.672
 4096SOL     OW13186   0.317   0.449   6.775
 4096SOL    HW113187   0.406   0.417   6.742
 4096SOL    HW213188   0.266   0.372   6.813
 4097SOL     OW13189   6.476   3.955   4.898
 4097SOL    HW113190   6.429   4.013   4.831
 4097SOL    HW213191   6.480   3.861   4.863
 4098SOL     OW13192   1.684   4.526   2.310
 4098SOL    HW113193   1.696   4.569   2.220
 4098SOL    HW213194   1.668   4.596   2.379
 4099SOL     OW13195   5.516   4.298   6.156
 4099SOL    HW113196   5.472   4.255   6.234
 4099SOL    HW213197   5.452   4.303   6.079
 4100SOL     OW13198   2.125   1.215   3.671
 4100SOL    HW113199   2.119   1.289   3.739
 4100SOL    HW213200   2.220   1.189   3.659
 4101SOL     OW13201   6.539   5.348   0.291
 4101SOL    HW113202   6.539   5.248   0.284
 4101SOL    HW213203   6.458   5.378   0.341
 4102SOL     OW13204   1.898   6.341   0.320
 4102SOL    HW113205   1.921   6.425   0.270
 4102SOL    HW213206   1.982   6.298   0.352
 4103SOL     OW13207   1.651   6.842   4.176
 4103SOL    HW113208   1.747   6.815   4.184
 4103SOL    HW213209   1.596   6.788   4.239
 4104SOL     OW13210   2.020   5.583   4.998
 4104SOL    HW113211   1.926   5.581   5.034
 4104SOL    HW213212   2.056   5.489   4.994
 4105SOL     OW13213   4.547   0.092   1.920
 4105SOL    HW113214   4.451   0.090   1.945
 4105SOL    HW213215   4.566   0.016   1.857
 4106SOL     OW13216   1.022   1.151   2.811
 4106SOL    HW113217   0.989   1.063   2.844
 4106SOL    HW213218   1.083   1.137   2.733
 4107SOL     OW13219   1.200   0.543   0.838
 4107SOL    HW113220   1.282   0.599   0.843
 4107SOL    HW213221   1.222   0.455   0.795
 4108SOL     OW13222   6.758   5.927   5.699
 4108SOL    HW113223   6.840   5.983   5.704
 4108SOL    HW213224   6.717   5.934   5.609
 4109SOL     OW13225   5.272   6.058   3.358
 4109SOL    HW113226   5.219   6.139   3.384
 4109SOL    HW213227   5.354   6.051   3.415
 4110SOL     OW13228   5.072   3.159   0.028
 4110SOL    HW113229   5.073   3.251   7.014
 4110SOL    HW213230   5.075   3.091   6.980
 4111SOL     OW13231   6.320   3.591   4.119
 4111SOL    HW113232   6.311   3.604   4.218
 4111SOL    HW213233   6.230   3.593   4.076
 4112SOL     OW13234   4.575   6.084   4.381
 4112SOL    HW113235   4.558   6.137   4.298
 4112SOL    HW213236   4.544   6.135   4.461
 4113SOL     OW13237   3.965   5.083   4.706
 4113SOL    HW113238   3.965   5.138   4.622
 4113SOL    HW213239   3.934   5.140   4.782
 4114SOL     OW13240   0.005   1.125   1.735
 4114SOL    HW113241   7.023   1.047   1.673
 4114SOL    HW213242   0.075   1.188   1.702
 4115SOL     OW13243   4.469   5.782   3.805
 4115SOL    HW113244   4.514   5.822   3.884
 4115SOL    HW213245   4.420   5.852   3.754
 4116SOL     OW13246   4.844   3.876   2.510
 4116SOL    HW113247   4.805   3.813   2.577
 4116SOL    HW213248   4.934   3.906   2.542
 4117SOL     OW13249   1.187   1.606   3.749
 4117SOL    HW113250   1.133   1.645   3.824
 4117SOL    HW213251   1.256   1.544   3.785
 4118SOL     OW13252   0.575   6.598   0.117
 4118SOL    HW113253   0.570   6.697   0.131
 4118SOL    HW213254   0.650   6.577   0.055
 4119SOL     OW13255   0.317   0.512   4.384
 4119SOL    HW113256   0.387   0.475   4.444
 4119SOL    HW213257   0.320   0.465   4.295
 4120SOL     OW13258   2.220   0.743   6.937
 4120SOL    HW113259   2.210   0.672   6.868
 4120SOL    HW213260   2.238   0.831   6.893
 4121SOL     OW13261   0.052   6.835   1.957
 4121SOL    HW113262   0.049   6.935   1.950
 4121SOL    HW213263   6.987   6.802   1.986
 4122SOL     OW13264   0.637   4.530   3.172
 4122SOL    HW113265   0.562   4.495   3.227
 4122SOL    HW213266   0.722   4.483   3.197
 4123SOL     OW13267   5.105   4.791   1.551
 4123SOL    HW113268   5.196   4.768   1.584
 4123SOL    HW213269   5.036   4.741   1.604
 4124SOL     OW13270   6.394   5.665   0.367
 4124SOL    HW113271   6.326   5.622   0.307
 4124SOL    HW213272   6.445   5.735   0.316
 4125SOL     OW13273   6.288   2.183   0.411
 4125SOL    HW113274   6.292   2.246   0.489
 4125SOL    HW213275   6.193   2.164   0.389
 4126SOL     OW13276   0.676   3.519   2.598
 4126SOL    HW113277   0.663   3.583   2.674
 4126SOL    HW213278   0.672   3.425   2.632
 4127SOL     OW13279   4.471   1.974   4.650
 4127SOL    HW113280   4.478   1.881   4.685
 4127SOL    HW213281   4.393   2.020   4.693
 4128SOL     OW13282   0.311   2.913   6.405
 4128SOL    HW113283   0.256   2.900   6.487
 4128SOL    HW213284   0.350   3.006   6.406
 4129SOL     OW13285   3.056   2.056   0.693
 4129SOL    HW113286   2.984   2.094   0.751
 4129SOL    HW213287   3.018   1.987   0.633
 4130SOL     OW13288   5.998   3.092   0.595
 4130SOL    HW113289   6.029   3.072   0.502
 4130SOL    HW213290   6.050   3.170   0.631
 4131SOL     OW13291   5.046   0.069   3.104
 4131SOL    HW113292   5.051   0.159   3.146
 4131SOL    HW213293   4.966   0.020   3.138
 4132SOL     OW13294   0.020   5.640   3.537
 4132SOL    HW113295   6.979   5.712   3.518
 4132SOL    HW213296   0.106   5.682   3.569
 4133SOL     OW13297   5.367   0.304   2.669
 4133SOL    HW113298   5.399   0.398   2.676
 4133SOL    HW213299   5.267   0.303   2.670
 4134SOL     OW13300   1.327   3.504   1.413
 4134SOL    HW113301   1.244   3.451   1.394
 4134SOL    HW213302   1.379   3.459   1.486
 4135SOL     OW13303   6.081   0.406   2.036
 4135SOL    HW113304   6.092   0.498   2.073
 4135SOL    HW213305   5.992   0.369   2.062
 4136SOL     OW13306   0.768   5.069   1.118
 4136SOL    HW113307   0.688   5.112   1.076
 4136SOL    HW213308   0.738   5.000   1.184
 4137SOL     OW13309   0.661   3.220   6.679
 4137SOL    HW113310   0.678   3.122   6.673
 4137SOL    HW213311   0.747   3.269   6.665
 4138SOL     OW13312   5.005   0.360   6.895
 4138SOL    HW113313   5.089   0.410   6.878
 4138SOL    HW213314   4.927   0.421   6.881
 4139SOL     OW13315   2.178   4.158   3.213
 4139SOL    HW113316   2.260   4.204   3.179
 4139SOL    HW213317   2.099   4.185   3.157
 4140SOL     OW13318   1.880   0.199   5.920
 4140SOL    HW113319   1.804   0.154   5.968
 4140SOL    HW213320   1.851   0.221   5.827
 4141SOL     OW13321   5.143   0.706   6.034
 4141SOL    HW113322   5.176   0.797   6.057
 4141SOL    HW213323   5.178   0.640   6.100
 4142SOL     OW13324   0.082   5.503   2.287
 4142SOL    HW113325   0.089   5.485   2.189
 4142SOL    HW213326   0.084   5.601   2.303
 4143SOL     OW13327   6.118   2.993   6.344
 4143SOL    HW113328   6.127   2.951   6.434
 4143SOL    HW213329   6.175   2.944   6.279
 4144SOL     OW13330   6.075   1.404   0.813
 4144SOL    HW113331   6.125   1.443   0.890
 4144SOL    HW213332   5.989   1.454   0.800
 4145SOL     OW13333   6.846   0.625   1.603
 4145SOL    HW113334   6.855   0.680   1.686
 4145SOL    HW213335   6.857   0.683   1.523
 4146SOL     OW13336   4.873   5.860   1.987
 4146SOL    HW113337   4.806   5.929   2.014
 4146SOL    HW213338   4.842   5.813   1.905
 4147SOL     OW13339   4.404   5.069   6.717
 4147SOL    HW113340   4.467   5.045   6.790
 4147SOL    HW213341   4.311   5.042   6.742
 4148SOL     OW13342   2.881   0.820   5.467
 4148SOL    HW113343   2.858   0.722   5.465
 4148SOL    HW213344   2.964   0.836   5.414
 4149SOL     OW13345   1.433   4.063   6.648
 4149SOL    HW113346   1.521   4.095   6.613
 4149SOL    HW213347   1.359   4.109   6.599
 4150SOL     OW13348   5.629   2.188   6.844
 4150SOL    HW113349   5.706   2.133   6.877
 4150SOL    HW213350   5.633   2.278   6.887
 4151SOL     OW13351   2.926   5.987   4.715
 4151SOL    HW113352   3.000   6.037   4.760
 4151SOL    HW213353   2.859   6.052   4.678
 4152SOL     OW13354   2.787   4.363   1.590
 4152SOL    HW113355   2.738   4.403   1.668
 4152SOL    HW213356   2.865   4.421   1.566
 4153SOL     OW13357   6.412   6.196   1.615
 4153SOL    HW113358   6.511   6.181   1.607
 4153SOL    HW213359   6.365   6.108   1.616
 4154SOL     OW13360   1.456   6.199   3.840
 4154SOL    HW113361   1.419   6.135   3.907
 4154SOL    HW213362   1.438   6.165   3.748
 4155SOL     OW13363   0.210   0.885   1.551
 4155SOL    HW113364   0.112   0.907   1.551
 4155SOL    HW213365   0.253   0.923   1.470
 4156SOL     OW13366   0.656   5.205   6.399
 4156SOL    HW113367   0.680   5.109   6.413
 4156SOL    HW213368   0.625   5.218   6.305
 4157SOL     OW13369   5.680   6.090   1.716
 4157SOL    HW113370   5.675   5.998   1.757
 4157SOL    HW213371   5.770   6.129   1.734
 4158SOL     OW13372   0.933   2.732   1.393
 4158SOL    HW113373   0.975   2.746   1.303
 4158SOL    HW213374   0.959   2.807   1.454
 4159SOL     OW13375   2.733   0.086   4.310
 4159SOL    HW113376   2.783   0.030   4.242
 4159SOL    HW213377   2.738   0.182   4.284
 4160SOL     OW13378   0.243   0.236   6.925
 4160SOL    HW113379   0.286   0.152   6.893
 4160SOL    HW213380   0.169   0.214   6.988
 4161SOL     OW13381   3.855   3.499   2.462
 4161SOL    HW113382   3.841   3.559   2.383
 4161SOL    HW213383   3.917   3.425   2.437
 4162SOL     OW13384   5.323   5.734   1.737
 4162SOL    HW113385   5.289   5.655   1.687
 4162SOL    HW213386   5.251   5.770   1.797
 4163SOL     OW13387   3.337   5.671   2.070
 4163SOL    HW113388   3.264   5.718   2.119
 4163SOL    HW213389   3.408   5.736   2.046
 4164SOL     OW13390   6.972   1.183   6.311
 4164SOL    HW113391   0.035   1.208   6.271
 4164SOL    HW213392   6.985   1.108   6.376
 4165SOL     OW13393   4.458   0.736   4.815
 4165SOL    HW113394   4.491   0.745   4.721
 4165SOL    HW213395   4.455   0.639   4.840
 4166SOL     OW13396   5.890   1.585   1.078
 4166SOL    HW113397   5.833   1.503   1.087
 4166SOL    HW213398   5.878   1.624   0.987
 4167SOL     OW13399   3.333   5.894   4.483
 4167SOL    HW113400   3.362   5.908   4.578
 4167SOL    HW213401   3.269   5.818   4.479
 4168SOL     OW13402   5.066   3.481   6.939
 4168SOL    HW113403   4.968   3.466   6.948
 4168SOL    HW213404   5.108   3.485   0.004
 4169SOL     OW13405   5.165   2.645   5.889
 4169SOL    HW113406   5.137   2.617   5.981
 4169SOL    HW213407   5.214   2.732   5.895
 4170SOL     OW13408   0.466   2.524   4.619
 4170SOL    HW113409   0.445   2.580   4.700
 4170SOL    HW213410   0.382   2.499   4.573
 4171SOL     OW13411   0.901   1.917   0.225
 4171SOL    HW113412   0.915   1.919   0.324
 4171SOL    HW213413   0.807   1.891   0.205
 4172SOL     OW13414   2.689   3.170   0.532
 4172SOL    HW113415   2.773   3.191   0.582
 4172SOL    HW213416   2.621   3.240   0.550
 4173SOL     OW13417   4.989   2.659   6.735
 4173SOL    HW113418   4.911   2.685   6.791
 4173SOL    HW213419   5.063   2.626   6.794
 4174SOL     OW13420   3.695   0.291   4.989
 4174SOL    HW113421   3.761   0.360   5.020
 4174SOL    HW213422   3.652   0.322   4.904
 4175SOL     OW13423   0.879   4.453   6.567
 4175SOL    HW113424   0.928   4.508   6.635
 4175SOL    HW213425   0.824   4.383   6.613
 4176SOL     OW13426   5.496   0.144   5.972
 4176SOL    HW113427   5.516   0.147   6.070
 4176SOL    HW213428   5.521   0.054   5.936
 4177SOL     OW13429   4.163   4.884   2.742
 4177SOL    HW113430   4.261   4.887   2.722
 4177SOL    HW213431   4.118   4.823   2.678
 4178SOL     OW13432   3.707   5.901   1.827
 4178SOL    HW113433   3.715   5.802   1.816
 4178SOL    HW213434   3.789   5.945   1.791
 4179SOL     OW13435   5.189   3.189   5.447
 4179SOL    HW113436   5.243   3.141   5.378
 4179SOL    HW213437   5.101   3.215   5.409
 4180SOL     OW13438   4.418   3.806   0.987
 4180SOL    HW113439   4.425   3.739   1.061
 4180SOL    HW213440   4.329   3.851   0.991
 4181SOL     OW13441   4.721   6.900   4.965
 4181SOL    HW113442   4.655   6.975   4.970
 4181SOL    HW213443   4.712   6.843   5.047
 4182SOL     OW13444   0.109   6.313   4.897
 4182SOL    HW113445   0.044   6.298   4.822
 4182SOL    HW213446   0.087   6.251   4.973
 4183SOL     OW13447   4.365   1.707   0.548
 4183SOL    HW113448   4.464   1.722   0.539
 4183SOL    HW213449   4.316   1.776   0.496
 4184SOL     OW13450   3.479   5.693   4.136
 4184SOL    HW113451   3.392   5.677   4.183
 4184SOL    HW213452   3.492   5.624   4.066
 4185SOL     OW13453   5.245   2.986   3.261
 4185SOL    HW113454   5.230   2.947   3.170
 4185SOL    HW213455   5.182   3.062   3.275
 4186SOL     OW13456   1.947   6.046   0.572
 4186SOL    HW113457   2.009   6.069   0.497
 4186SOL    HW213458   1.961   5.951   0.599
 4187SOL     OW13459   1.949   3.151   6.759
 4187SOL    HW113460   1.963   3.225   6.694
 4187SOL    HW213461   2.037   3.107   6.778
 4188SOL     OW13462   4.766   0.118   0.186
 4188SOL    HW113463   4.667   0.122   0.199
 4188SOL    HW213464   4.813   0.153   0.267
 4189SOL     OW13465   4.814   5.010   3.687
 4189SOL    HW113466   4.757   4.935   3.653
 4189SOL    HW213467   4.768   5.056   3.763
 4190SOL     OW13468   6.675   6.124   1.549
 4190SOL    HW113469   6.725   6.087   1.627
 4190SOL    HW213470   6.715   6.090   1.464
 4191SOL     OW13471   4.538   4.373   6.707
 4191SOL    HW113472   4.469   4.324   6.761
 4191SOL    HW213473   4.493   4.438   6.647
 4192SOL     OW13474   1.428   3.370   0.666
 4192SOL    HW113475   1.469   3.290   0.708
 4192SOL    HW213476   1.371   3.417   0.734
 4193SOL     OW13477   0.511   0.648   0.655
 4193SOL    HW113478   0.535   0.660   0.559
 4193SOL    HW213479   0.565   0.711   0.711
 4194SOL     OW13480   4.561   1.309   5.755
 4194SOL    HW113481   4.482   1.254   5.780
 4194SOL    HW213482   4.533   1.405   5.745
 4195SOL     OW13483   3.810   6.300   0.448
 4195SOL    HW113484   3.848   6.223   0.499
 4195SOL    HW213485   3.878   6.334   0.383
 4196SOL     OW13486   6.356   3.259   2.029
 4196SOL    HW113487   6.443   3.289   2.070
 4196SOL    HW213488   6.280   3.301   2.079
 4197SOL     OW13489   3.545   1.491   6.964
 4197SOL    HW113490   3.622   1.550   6.989
 4197SOL    HW213491   3.478   1.490   0.013
 4198SOL     OW13492   6.847   1.858   2.527
 4198SOL    HW113493   6.811   1.765   2.530
 4198SOL    HW213494   6.781   1.921   2.568
 4199SOL     OW13495   0.616   4.039   6.507
 4199SOL    HW113496   0.611   3.940   6.508
 4199SOL    HW213497   0.644   4.070   6.416
 4200SOL     OW13498   4.544   0.637   4.040
 4200SOL    HW113499   4.561   0.719   3.985
 4200SOL    HW213500   4.446   0.618   4.043
 4201SOL     OW13501   5.485   6.788   3.713
 4201SOL    HW113502   5.499   6.874   3.663
 4201SOL    HW213503   5.565   6.769   3.769
 4202SOL     OW13504   5.149   4.208   1.318
 4202SOL    HW113505   5.170   4.252   1.405
 4202SOL    HW213506   5.158   4.275   1.244
 4203SOL     OW13507   6.363   5.149   5.579
 4203SOL    HW113508   6.343   5.074   5.516
 4203SOL    HW213509   6.334   5.123   5.671
 4204SOL     OW13510   2.001   3.330   6.544
 4204SOL    HW113511   2.082   3.350   6.598
 4204SOL    HW213512   1.956   3.415   6.517
 4205SOL     OW13513   3.756   6.188   6.080
 4205SOL    HW113514   3.842   6.158   6.039
 4205SOL    HW213515   3.714   6.259   6.023
 4206SOL     OW13516   2.216   2.290   4.881
 4206SOL    HW113517   2.215   2.216   4.948
 4206SOL    HW213518   2.262   2.259   4.798
 4207SOL     OW13519   1.019   2.200   2.126
 4207SOL    HW113520   0.977   2.131   2.068
 4207SOL    HW213521   1.063   2.156   2.204
 4208SOL     OW13522   1.919   3.068   4.293
 4208SOL    HW113523   1.846   3.004   4.267
 4208SOL    HW213524   1.961   3.037   4.379
 4209SOL     OW13525   6.672   6.319   1.949
 4209SOL    HW113526   6.698   6.331   1.853
 4209SOL    HW213527   6.752   6.331   2.007
 4210SOL     OW13528   3.831   3.884   4.767
 4210SOL    HW113529   3.909   3.878   4.705
 4210SOL    HW213530   3.820   3.979   4.798
 4211SOL     OW13531   4.249   2.452   5.535
 4211SOL    HW113532   4.300   2.538   5.543
 4211SOL    HW213533   4.288   2.385   5.598
 4212SOL     OW13534   6.582   2.275   3.080
 4212SOL    HW113535   6.656   2.261   3.014
 4212SOL    HW213536   6.516   2.341   3.044
 4213SOL     OW13537   2.849   0.817   3.787
 4213SOL    HW113538   2.792   0.739   3.815
 4213SOL    HW213539   2.796   0.877   3.727
 4214SOL     OW13540   6.835   5.808   3.469
 4214SOL    HW113541   6.740   5.822   3.495
 4214SOL    HW213542   6.871   5.890   3.425
 4215SOL     OW13543   4.875   6.513   5.596
 4215SOL    HW113544   4.934   6.552   5.667
 4215SOL    HW213545   4.795   6.572   5.584
 4216SOL     OW13546   2.478   5.701   1.935
 4216SOL    HW113547   2.498   5.604   1.947
 4216SOL    HW213548   2.551   5.756   1.975
 4217SOL     OW13549   0.991   0.615   2.561
 4217SOL    HW113550   1.057   0.689   2.574
 4217SOL    HW213551   0.980   0.597   2.464
 4218SOL     OW13552   3.179   1.399   0.632
 4218SOL    HW113553   3.220   1.374   0.720
 4218SOL    HW213554   3.165   1.316   0.577
 4219SOL     OW13555   4.326   5.712   3.044
 4219SOL    HW113556   4.374   5.688   3.128
 4219SOL    HW213557   4.372   5.789   3.000
 4220SOL     OW13558   5.745   1.944   1.288
 4220SOL    HW113559   5.743   1.867   1.352
 4220SOL    HW213560   5.732   1.910   1.195
 4221SOL     OW13561   0.709   6.243   0.312
 4221SOL    HW113562   0.627   6.212   0.265
 4221SOL    HW213563   0.686   6.319   0.373
 4222SOL     OW13564   4.769   2.926   4.318
 4222SOL    HW113565   4.748   2.923   4.416
 4222SOL    HW213566   4.759   3.020   4.286
 4223SOL     OW13567   4.011   3.874   1.953
 4223SOL    HW113568   3.976   3.847   2.043
 4223SOL    HW213569   4.022   3.792   1.897
 4224SOL     OW13570   5.000   4.116   4.591
 4224SOL    HW113571   5.073   4.086   4.653
 4224SOL    HW213572   5.036   4.181   4.525
 4225SOL     OW13573   0.441   2.264   5.335
 4225SOL    HW113574   0.486   2.263   5.246
 4225SOL    HW213575   0.507   2.239   5.406
 4226SOL     OW13576   1.037   5.864   5.006
 4226SOL    HW113577   1.070   5.899   5.094
 4226SOL    HW213578   1.003   5.771   5.018
 4227SOL     OW13579   4.890   5.176   1.979
 4227SOL    HW113580   4.914   5.085   1.944
 4227SOL    HW213581   4.798   5.173   2.019
 4228SOL     OW13582   1.416   5.389   3.530
 4228SOL    HW113583   1.382   5.482   3.512
 4228SOL    HW213584   1.434   5.379   3.628
 4229SOL     OW13585   0.013   4.541   5.470
 4229SOL    HW113586   7.015   4.582   5.558
 4229SOL    HW213587   6.961   4.548   5.407
 4230SOL     OW13588   0.398   0.484   2.408
 4230SOL    HW113589   0.427   0.389   2.398
 4230SOL    HW213590   0.305   0.487   2.444
 4231SOL     OW13591   6.371   1.263   5.645
 4231SOL    HW113592   6.410   1.344   5.602
 4231SOL    HW213593   6.271   1.270   5.644
 4232SOL     OW13594   1.338   5.711   3.867
 4232SOL    HW113595   1.348   5.628   3.922
 4232SOL    HW213596   1.409   5.713   3.797
 4233SOL     OW13597   4.617   4.887   3.063
 4233SOL    HW113598   4.636   4.865   3.159
 4233SOL    HW213599   4.609   4.986   3.052
 4234SOL     OW13600   3.298   5.176   6.172
 4234SOL    HW113601   3.293   5.099   6.108
 4234SOL    HW213602   3.206   5.209   6.193
 4235SOL     OW13603   0.075   5.836   5.604
 4235SOL    HW113604   0.085   5.832   5.505
 4235SOL    HW213605   0.162   5.860   5.646
 4236SOL     OW13606   0.320   5.394   2.926
 4236SOL    HW113607   0.329   5.417   2.829
 4236SOL    HW213608   0.379   5.316   2.947
 4237SOL     OW13609   6.799   4.912   3.835
 4237SOL    HW113610   6.793   4.979   3.761
 4237SOL    HW213611   6.727   4.932   3.903
 4238SOL     OW13612   2.770   6.708   3.093
 4238SOL    HW113613   2.676   6.700   3.062
 4238SOL    HW213614   2.821   6.625   3.068
 4239SOL     OW13615   4.276   0.760   3.788
 4239SOL    HW113616   4.328   0.807   3.717
 4239SOL    HW213617   4.282   0.812   3.873
 4240SOL     OW13618   6.557   0.136   1.399
 4240SOL    HW113619   6.608   0.172   1.478
 4240SOL    HW213620   6.476   0.192   1.383
 4241SOL     OW13621   6.297   3.782   0.456
 4241SOL    HW113622   6.354   3.706   0.485
 4241SOL    HW213623   6.290   3.849   0.529
 4242SOL     OW13624   2.513   1.819   3.196
 4242SOL    HW113625   2.613   1.816   3.205
 4242SOL    HW213626   2.484   1.751   3.129
 4243SOL     OW13627   4.777   0.324   3.059
 4243SOL    HW113628   4.733   0.257   3.120
 4243SOL    HW213629   4.738   0.315   2.967
 4244SOL     OW13630   3.761   3.251   2.983
 4244SOL    HW113631   3.835   3.191   3.013
 4244SOL    HW213632   3.761   3.256   2.883
 4245SOL     OW13633   6.308   1.866   6.194
 4245SOL    HW113634   6.280   1.775   6.164
 4245SOL    HW213635   6.401   1.864   6.229
 4246SOL     OW13636   0.838   3.291   1.180
 4246SOL    HW113637   0.886   3.322   1.098
 4246SOL    HW213638   0.873   3.201   1.206
 4247SOL     OW13639   6.922   5.876   4.985
 4247SOL    HW113640   6.883   5.959   5.025
 4247SOL    HW213641   6.926   5.886   4.886
 4248SOL     OW13642   1.461   2.950   5.012
 4248SOL    HW113643   1.551   2.981   5.044
 4248SOL    HW213644   1.450   2.976   4.916
 4249SOL     OW13645   5.699   4.105   6.022
 4249SOL    HW113646   5.671   4.010   6.036
 4249SOL    HW213647   5.628   4.166   6.057
 4250SOL     OW13648   0.391   4.671   3.080
 4250SOL    HW113649   0.476   4.619   3.090
 4250SOL    HW213650   0.394   4.752   3.138
 4251SOL     OW13651   5.940   4.022   0.786
 4251SOL    HW113652   5.930   4.033   0.687
 4251SOL    HW213653   5.849   4.016   0.828
 4252SOL     OW13654   0.450   5.687   5.793
 4252SOL    HW113655   0.459   5.645   5.702
 4252SOL    HW213656   0.380   5.759   5.789
 4253SOL     OW13657   4.411   6.263   2.175
 4253SOL    HW113658   4.412   6.356   2.211
 4253SOL    HW213659   4.498   6.219   2.195
 4254SOL     OW13660   2.522   4.546   1.225
 4254SOL    HW113661   2.448   4.485   1.195
 4254SOL    HW213662   2.515   4.559   1.324
 4255SOL     OW13663   0.327   1.876   4.324
 4255SOL    HW113664   0.398   1.901   4.257
 4255SOL    HW213665   0.370   1.830   4.402
 4256SOL     OW13666   2.232   0.601   1.858
 4256SOL    HW113667   2.234   0.632   1.763
 4256SOL    HW213668   2.138   0.603   1.892
 4257SOL     OW13669   4.063   1.981   4.552
 4257SOL    HW113670   3.979   1.946   4.595
 4257SOL    HW213671   4.108   1.906   4.502
 4258SOL     OW13672   5.116   6.593   2.555
 4258SOL    HW113673   5.114   6.658   2.480
 4258SOL    HW213674   5.160   6.509   2.525
 4259SOL     OW13675   2.093   2.894   0.673
 4259SOL    HW113676   2.141   2.962   0.617
 4259SOL    HW213677   2.043   2.832   0.613
 4260SOL     OW13678   5.082   5.583   3.835
 4260SOL    HW113679   5.068   5.490   3.869
 4260SOL    HW213680   5.134   5.579   3.749
 4261SOL     OW13681   1.834   0.141   1.907
 4261SOL    HW113682   1.790   0.097   1.829
 4261SOL    HW213683   1.766   0.190   1.961
 4262SOL     OW13684   0.657   5.810   6.522
 4262SOL    HW113685   0.592   5.745   6.484
 4262SOL    HW213686   0.672   5.884   6.456
 4263SOL     OW13687   3.300   5.324   5.616
 4263SOL    HW113688   3.230   5.263   5.580
 4263SOL    HW213689   3.387   5.276   5.620
 4264SOL     OW13690   0.123   0.471   0.486
 4264SOL    HW113691   0.139   0.374   0.500
 4264SOL    HW213692   0.112   0.489   0.388
 4265SOL     OW13693   6.645   2.135   1.159
 4265SOL    HW113694   6.632   2.130   1.258
 4265SOL    HW213695   6.616   2.048   1.118
 4266SOL     OW13696   2.576   4.826   0.436
 4266SOL    HW113697   2.521   4.746   0.415
 4266SOL    HW213698   2.673   4.806   0.420
 4267SOL     OW13699   1.887   3.860   5.272
 4267SOL    HW113700   1.983   3.845   5.250
 4267SOL    HW213701   1.832   3.845   5.190
 4268SOL     OW13702   1.749   0.862   1.458
 4268SOL    HW113703   1.774   0.766   1.471
 4268SOL    HW213704   1.806   0.901   1.386
 4269SOL     OW13705   3.832   3.016   0.244
 4269SOL    HW113706   3.923   3.010   0.283
 4269SOL    HW213707   3.766   2.974   0.306
 4270SOL     OW13708   3.110   2.812   5.268
 4270SOL    HW113709   3.114   2.862   5.181
 4270SOL    HW213710   3.140   2.718   5.254
 4271SOL     OW13711   0.871   6.851   6.906
 4271SOL    HW113712   0.946   6.793   6.873
 4271SOL    HW213713   0.902   6.904   6.985
 4272SOL     OW13714   6.752   4.896   4.761
 4272SOL    HW113715   6.766   4.994   4.762
 4272SOL    HW213716   6.834   4.849   4.794
 4273SOL     OW13717   5.769   6.456   5.425
 4273SOL    HW113718   5.796   6.483   5.518
 4273SOL    HW213719   5.777   6.535   5.364
 4274SOL     OW13720   1.853   0.193   3.959
 4274SOL    HW113721   1.917   0.249   3.906
 4274SOL    HW213722   1.868   0.096   3.940
 4275SOL     OW13723   0.787   0.109   6.021
 4275SOL    HW113724   0.771   0.198   5.978
 4275SOL    HW213725   0.713   0.047   5.998
 4276SOL     OW13726   1.972   3.798   2.583
 4276SOL    HW113727   1.905   3.757   2.521
 4276SOL    HW213728   2.015   3.876   2.538
 4277SOL     OW13729   6.741   5.729   3.729
 4277SOL    HW113730   6.840   5.716   3.725
 4277SOL    HW213731   6.720   5.815   3.774
 4278SOL     OW13732   0.099   0.279   5.373
 4278SOL    HW113733   0.007   0.279   5.333
 4278SOL    HW213734   0.150   0.200   5.338
 4279SOL     OW13735   3.317   5.970   4.771
 4279SOL    HW113736   3.314   5.891   4.833
 4279SOL    HW213737   3.248   6.036   4.797
 4280SOL     OW13738   4.887   2.527   4.055
 4280SOL    HW113739   4.903   2.582   4.137
 4280SOL    HW213740   4.834   2.579   3.989
 4281SOL     OW13741   2.252   4.329   5.140
 4281SOL    HW113742   2.306   4.359   5.219
 4281SOL    HW213743   2.295   4.248   5.099
 4282SOL     OW13744   1.677   2.508   1.449
 4282SOL    HW113745   1.727   2.490   1.364
 4282SOL    HW213746   1.592   2.456   1.449
 4283SOL     OW13747   1.736   0.395   4.130
 4283SOL    HW113748   1.687   0.459   4.190
 4283SOL    HW213749   1.698   0.304   4.141
 4284SOL     OW13750   6.060   2.197   2.522
 4284SOL    HW113751   6.130   2.127   2.537
 4284SOL    HW213752   6.019   2.184   2.432
 4285SOL     OW13753   1.349   6.539   6.276
 4285SOL    HW113754   1.284   6.524   6.201
 4285SOL    HW213755   1.308   6.509   6.362
 4286SOL     OW13756   5.269   5.504   0.469
 4286SOL    HW113757   5.210   5.423   0.469
 4286SOL    HW213758   5.248   5.560   0.549
 4287SOL     OW13759   4.938   6.244   4.714
 4287SOL    HW113760   4.862   6.284   4.663
 4287SOL    HW213761   4.966   6.158   4.671
 4288SOL     OW13762   1.269   6.442   2.876
 4288SOL    HW113763   1.184   6.390   2.865
 4288SOL    HW213764   1.302   6.432   2.970
 4289SOL     OW13765   5.776   3.160   1.317
 4289SOL    HW113766   5.858   3.213   1.341
 4289SOL    HW213767   5.695   3.203   1.358
 4290SOL     OW13768   2.245   0.908   1.850
 4290SOL    HW113769   2.242   0.838   1.779
 4290SOL    HW213770   2.152   0.932   1.877
 4291SOL     OW13771   6.613   3.993   0.861
 4291SOL    HW113772   6.703   3.948   0.856
 4291SOL    HW213773   6.558   3.950   0.933
 4292SOL     OW13774   6.230   5.408   6.674
 4292SOL    HW113775   6.221   5.441   6.768
 4292SOL    HW213776   6.312   5.447   6.633
 4293SOL     OW13777   0.122   2.576   6.653
 4293SOL    HW113778   0.154   2.667   6.679
 4293SOL    HW213779   0.184   2.537   6.585
 4294SOL     OW13780   4.754   1.433   5.974
 4294SOL    HW113781   4.727   1.407   5.881
 4294SOL    HW213782   4.675   1.428   6.034
 4295SOL     OW13783   3.521   0.159   4.689
 4295SOL    HW113784   3.608   0.128   4.727
 4295SOL    HW213785   3.538   0.207   4.603
 4296SOL     OW13786   2.551   1.535   1.107
 4296SOL    HW113787   2.561   1.474   1.186
 4296SOL    HW213788   2.508   1.485   1.032
 4297SOL     OW13789   5.548   0.765   6.003
 4297SOL    HW113790   5.645   0.766   6.027
 4297SOL    HW213791   5.522   0.854   5.965
 4298SOL     OW13792   2.940   5.483   0.885
 4298SOL    HW113793   2.934   5.505   0.983
 4298SOL    HW213794   2.998   5.549   0.839
 4299SOL     OW13795   0.700   3.697   6.526
 4299SOL    HW113796   0.761   3.715   6.603
 4299SOL    HW213797   0.654   3.609   6.539
 4300SOL     OW13798   5.131   0.796   6.634
 4300SOL    HW113799   5.161   0.889   6.612
 4300SOL    HW213800   5.198   0.731   6.598
 4301SOL     OW13801   3.046   1.650   0.650
 4301SOL    HW113802   2.957   1.650   0.604
 4301SOL    HW213803   3.090   1.561   0.637
 4302SOL     OW13804   1.015   6.134   6.696
 4302SOL    HW113805   1.007   6.034   6.691
 4302SOL    HW213806   1.101   6.158   6.742
 4303SOL     OW13807   0.134   3.219   2.035
 4303SOL    HW113808   0.100   3.267   2.116
 4303SOL    HW213809   0.163   3.127   2.061
 4304SOL     OW13810   2.978   3.662   4.127
 4304SOL    HW113811   2.956   3.576   4.174
 4304SOL    HW213812   2.968   3.738   4.191
 4305SOL     OW13813   6.208   1.854   3.651
 4305SOL    HW113814   6.213   1.931   3.588
 4305SOL    HW213815   6.194   1.769   3.599
 4306SOL     OW13816   6.622   5.070   5.774
 4306SOL    HW113817   6.525   5.062   5.796
 4306SOL    HW213818   6.667   5.128   5.843
 4307SOL     OW13819   5.409   3.645   6.406
 4307SOL    HW113820   5.432   3.571   6.470
 4307SOL    HW213821   5.445   3.731   6.441
 4308SOL     OW13822   5.220   5.873   4.488
 4308SOL    HW113823   5.191   5.810   4.417
 4308SOL    HW213824   5.303   5.839   4.532
 4309SOL     OW13825   1.543   1.396   1.090
 4309SOL    HW113826   1.500   1.356   1.008
 4309SOL    HW213827   1.635   1.426   1.068
 4310SOL     OW13828   1.736   1.362   2.969
 4310SOL    HW113829   1.661   1.300   2.991
 4310SOL    HW213830   1.775   1.398   3.054
 4311SOL     OW13831   1.837   6.284   3.580
 4311SOL    HW113832   1.926   6.283   3.626
 4311SOL    HW213833   1.825   6.199   3.529
 4312SOL     OW13834   2.436   5.209   1.833
 4312SOL    HW113835   2.484   5.296   1.842
 4312SOL    HW213836   2.502   5.135   1.821
 4313SOL     OW13837   4.902   0.670   2.585
 4313SOL    HW113838   4.825   0.682   2.523
 4313SOL    HW213839   4.911   0.750   2.644
 4314SOL     OW13840   4.775   2.838   2.378
 4314SOL    HW113841   4.772   2.932   2.344
 4314SOL    HW213842   4.803   2.837   2.474
 4315SOL     OW13843   2.241   1.437   2.189
 4315SOL    HW113844   2.249   1.470   2.096
 4315SOL    HW213845   2.192   1.350   2.190
 4316SOL     OW13846   5.848   0.237   2.066
 4316SOL    HW113847   5.758   0.275   2.044
 4316SOL    HW213848   5.898   0.219   1.981
 4317SOL     OW13849   4.231   1.134   3.435
 4317SOL    HW113850   4.199   1.176   3.520
 4317SOL    HW213851   4.209   1.037   3.436
 4318SOL     OW13852   0.218   2.294   3.918
 4318SOL    HW113853   0.265   2.374   3.956
 4318SOL    HW213854   0.120   2.300   3.937
 4319SOL     OW13855   2.511   3.289   6.274
 4319SOL    HW113856   2.413   3.276   6.260
 4319SOL    HW213857   2.546   3.354   6.206
 4320SOL     OW13858   0.151   6.029   2.527
 4320SOL    HW113859   0.084   6.034   2.601
 4320SOL    HW213860   0.125   6.092   2.454
 4321SOL     OW13861   0.401   0.461   5.164
 4321SOL    HW113862   0.413   0.369   5.128
 4321SOL    HW213863   0.422   0.461   5.262
 4322SOL     OW13864   6.044   0.876   0.162
 4322SOL    HW113865   6.086   0.827   0.238
 4322SOL    HW213866   6.113   0.935   0.119
 4323SOL     OW13867   6.884   3.456   2.932
 4323SOL    HW113868   6.872   3.397   3.012
 4323SOL    HW213869   6.979   3.488   2.929
 4324SOL     OW13870   5.908   3.973   5.906
 4324SOL    HW113871   5.819   3.961   5.860
 4324SOL    HW213872   5.909   4.061   5.953
 4325SOL     OW13873   2.059   1.746   0.098
 4325SOL    HW113874   2.120   1.789   0.165
 4325SOL    HW213875   1.984   1.809   0.076
 4326SOL     OW13876   5.960   2.213   4.858
 4326SOL    HW113877   5.952   2.147   4.933
 4326SOL    HW213878   5.990   2.301   4.895
 4327SOL     OW13879   5.937   6.954   2.555
 4327SOL    HW113880   5.957   0.016   2.510
 4327SOL    HW213881   6.006   6.886   2.530
 4328SOL     OW13882   5.591   5.255   0.343
 4328SOL    HW113883   5.591   5.155   0.346
 4328SOL    HW213884   5.558   5.291   0.430
 4329SOL     OW13885   3.803   1.734   5.613
 4329SOL    HW113886   3.802   1.692   5.522
 4329SOL    HW213887   3.741   1.813   5.614
 4330SOL     OW13888   1.363   0.616   6.277
 4330SOL    HW113889   1.356   0.561   6.193
 4330SOL    HW213890   1.437   0.581   6.334
 4331SOL     OW13891   5.789   2.950   6.784
 4331SOL    HW113892   5.719   2.976   6.850
 4331SOL    HW213893   5.746   2.910   6.703
 4332SOL     OW13894   5.173   2.899   1.400
 4332SOL    HW113895   5.177   2.799   1.397
 4332SOL    HW213896   5.262   2.935   1.427
 4333SOL     OW13897   5.092   0.444   4.873
 4333SOL    HW113898   5.024   0.505   4.832
 4333SOL    HW213899   5.160   0.499   4.922
 4334SOL     OW13900   4.319   1.342   2.402
 4334SOL    HW113901   4.250   1.393   2.350
 4334SOL    HW213902   4.325   1.378   2.495
 4335SOL     OW13903   3.524   3.911   5.095
 4335SOL    HW113904   3.444   3.952   5.139
 4335SOL    HW213905   3.516   3.921   4.995
 4336SOL     OW13906   1.263   6.155   4.680
 4336SOL    HW113907   1.318   6.217   4.624
 4336SOL    HW213908   1.257   6.066   4.634
 4337SOL     OW13909   6.984   5.616   0.851
 4337SOL    HW113910   6.918   5.547   0.820
 4337SOL    HW213911   0.034   5.621   0.785
 4338SOL     OW13912   6.407   6.345   4.222
 4338SOL    HW113913   6.398   6.443   4.203
 4338SOL    HW213914   6.454   6.300   4.146
 4339SOL     OW13915   6.224   1.080   5.966
 4339SOL    HW113916   6.322   1.087   5.947
 4339SOL    HW213917   6.191   1.166   6.003
 4340SOL     OW13918   4.920   3.647   1.873
 4340SOL    HW113919   4.852   3.575   1.887
 4340SOL    HW213920   4.928   3.666   1.775
 4341SOL     OW13921   1.219   4.481   0.717
 4341SOL    HW113922   1.186   4.572   0.694
 4341SOL    HW213923   1.314   4.486   0.747
 4342SOL     OW13924   0.633   3.384   2.888
 4342SOL    HW113925   0.564   3.317   2.862
 4342SOL    HW213926   0.684   3.350   2.967
 4343SOL     OW13927   2.537   1.266   1.186
 4343SOL    HW113928   2.456   1.265   1.245
 4343SOL    HW213929   2.515   1.222   1.099
 4344SOL     OW13930   1.997   5.224   3.275
 4344SOL    HW113931   1.929   5.159   3.243
 4344SOL    HW213932   2.065   5.240   3.204
 4345SOL     OW13933   1.784   1.884   6.047
 4345SOL    HW113934   1.721   1.860   5.973
 4345SOL    HW213935   1.750   1.966   6.093
 4346SOL     OW13936   2.063   3.347   2.140
 4346SOL    HW113937   2.102   3.383   2.055
 4346SOL    HW213938   2.092   3.405   2.217
 4347SOL     OW13939   5.755   6.548   3.016
 4347SOL    HW113940   5.804   6.621   3.065
 4347SOL    HW213941   5.694   6.589   2.949
 4348SOL     OW13942   1.657   4.135   6.516
 4348SOL    HW113943   1.752   4.147   6.544
 4348SOL    HW213944   1.652   4.067   6.443
 4349SOL     OW13945   6.931   0.560   3.495
 4349SOL    HW113946   7.020   0.593   3.526
 4349SOL    HW213947   6.876   0.638   3.464
 4350SOL     OW13948   5.076   1.979   3.596
 4350SOL    HW113949   5.143   1.999   3.667
 4350SOL    HW213950   5.032   1.891   3.615
 4351SOL     OW13951   2.687   5.799   1.573
 4351SOL    HW113952   2.688   5.883   1.628
 4351SOL    HW213953   2.781   5.771   1.553
 4352SOL     OW13954   6.419   1.096   2.077
 4352SOL    HW113955   6.382   1.125   2.165
 4352SOL    HW213956   6.488   1.162   2.047
 4353SOL     OW13957   3.800   5.641   6.732
 4353SOL    HW113958   3.701   5.635   6.723
 4353SOL    HW213959   3.836   5.552   6.761
 4354SOL     OW13960   2.222   0.618   0.803
 4354SOL    HW113961   2.196   0.587   0.711
 4354SOL    HW213962   2.290   0.690   0.796
 4355SOL     OW13963   4.881   0.982   0.669
 4355SOL    HW113964   4.867   1.076   0.698
 4355SOL    HW213965   4.816   0.922   0.716
 4356SOL     OW13966   4.031   4.628   0.547
 4356SOL    HW113967   4.126   4.596   0.548
 4356SOL    HW213968   4.025   4.715   0.596
 4357SOL     OW13969   6.231   0.527   0.095
 4357SOL    HW113970   6.269   0.611   0.134
 4357SOL    HW213971   6.133   0.539   0.079
 4358SOL     OW13972   0.780   0.289   1.893
 4358SOL    HW113973   0.696   0.237   1.911
 4358SOL    HW213974   0.858   0.227   1.895
 4359SOL     OW13975   6.539   2.521   3.775
 4359SOL    HW113976   6.551   2.544   3.678
 4359SOL    HW213977   6.628   2.519   3.820
 4360SOL     OW13978   1.433   3.169   1.366
 4360SOL    HW113979   1.371   3.118   1.426
 4360SOL    HW213980   1.379   3.236   1.313
 4361SOL     OW13981   5.125   1.928   1.726
 4361SOL    HW113982   5.183   1.889   1.798
 4361SOL    HW213983   5.029   1.920   1.752
 4362SOL     OW13984   6.099   4.384   4.264
 4362SOL    HW113985   6.159   4.304   4.254
 4362SOL    HW213986   6.032   4.385   4.190
 4363SOL     OW13987   5.282   2.296   6.187
 4363SOL    HW113988   5.373   2.257   6.203
 4363SOL    HW213989   5.246   2.262   6.100
 4364SOL     OW13990   3.462   3.750   4.602
 4364SOL    HW113991   3.369   3.713   4.606
 4364SOL    HW213992   3.470   3.811   4.523
 4365SOL     OW13993   3.314   1.548   2.117
 4365SOL    HW113994   3.217   1.544   2.139
 4365SOL    HW213995   3.329   1.612   2.042
 4366SOL     OW13996   6.107   5.492   0.901
 4366SOL    HW113997   6.031   5.429   0.916
 4366SOL    HW213998   6.169   5.488   0.979
 4367SOL     OW13999   1.547   6.266   6.520
 4367SOL    HW114000   1.604   6.214   6.456
 4367SOL    HW214001   1.591   6.353   6.541
 4368SOL     OW14002   5.566   3.854   1.866
 4368SOL    HW114003   5.516   3.880   1.949
 4368SOL    HW214004   5.513   3.786   1.816
 4369SOL     OW14005   4.232   5.854   2.010
 4369SOL    HW114006   4.132   5.848   2.014
 4369SOL    HW214007   4.272   5.774   2.056
 4370SOL     OW14008   5.892   4.685   3.168
 4370SOL    HW114009   5.946   4.610   3.205
 4370SOL    HW214010   5.929   4.772   3.201
 4371SOL     OW14011   6.038   2.136   1.747
 4371SOL    HW114012   5.997   2.121   1.837
 4371SOL    HW214013   6.133   2.107   1.748
 4372SOL     OW14014   4.124   1.060   2.983
 4372SOL    HW114015   4.161   1.129   3.045
 4372SOL    HW214016   4.196   1.026   2.923
 4373SOL     OW14017   6.795   2.036   6.408
 4373SOL    HW114018   6.874   2.055   6.466
 4373SOL    HW214019   6.825   2.029   6.312
 4374SOL     OW14020   2.466   2.279   1.522
 4374SOL    HW114021   2.512   2.333   1.592
 4374SOL    HW214022   2.369   2.301   1.521
 4375SOL     OW14023   2.652   6.656   4.476
 4375SOL    HW114024   2.669   6.638   4.379
 4375SOL    HW214025   2.576   6.719   4.486
 4376SOL     OW14026   5.705   1.384   3.467
 4376SOL    HW114027   5.675   1.317   3.399
 4376SOL    HW214028   5.797   1.416   3.443
 4377SOL     OW14029   5.236   4.627   6.501
 4377SOL    HW114030   5.336   4.628   6.490
 4377SOL    HW214031   5.213   4.586   6.590
 4378SOL     OW14032   2.057   0.775   3.917
 4378SOL    HW114033   2.151   0.777   3.952
 4378SOL    HW214034   1.994   0.762   3.994
 4379SOL     OW14035   2.548   2.218   5.294
 4379SOL    HW114036   2.608   2.207   5.214
 4379SOL    HW214037   2.603   2.230   5.376
 4380SOL     OW14038   0.300   1.137   1.903
 4380SOL    HW114039   0.375   1.203   1.904
 4380SOL    HW214040   0.289   1.099   1.812
 4381SOL     OW14041   2.129   6.148   5.981
 4381SOL    HW114042   2.188   6.159   5.902
 4381SOL    HW214043   2.184   6.134   6.063
 4382SOL     OW14044   0.157   2.964   5.192
 4382SOL    HW114045   0.244   3.000   5.224
 4382SOL    HW214046   0.171   2.875   5.149
 4383SOL     OW14047   5.940   2.833   7.020
 4383SOL    HW114048   6.004   2.895   0.040
 4383SOL    HW214049   5.887   2.884   6.952
 4384SOL     OW14050   5.877   6.591   4.027
 4384SOL    HW114051   5.827   6.520   3.978
 4384SOL    HW214052   5.961   6.614   3.976
 4385SOL     OW14053   5.262   1.206   5.025
 4385SOL    HW114054   5.291   1.190   4.930
 4385SOL    HW214055   5.221   1.296   5.033
 4386SOL     OW14056   1.249   3.465   5.248
 4386SOL    HW114057   1.209   3.556   5.258
 4386SOL    HW214058   1.321   3.467   5.179
 4387SOL     OW14059   6.520   2.036   0.423
 4387SOL    HW114060   6.439   2.093   0.408
 4387SOL    HW214061   6.602   2.091   0.408
 4388SOL     OW14062   5.864   2.604   6.744
 4388SOL    HW114063   5.953   2.626   6.785
 4388SOL    HW214064   5.828   2.684   6.698
 4389SOL     OW14065   0.560   3.688   1.409
 4389SOL    HW114066   0.520   3.677   1.318
 4389SOL    HW214067   0.637   3.752   1.404
 4390SOL     OW14068   6.470   1.248   1.667
 4390SOL    HW114069   6.454   1.170   1.727
 4390SOL    HW214070   6.567   1.252   1.644
 4391SOL     OW14071   2.240   6.467   0.148
 4391SOL    HW114072   2.156   6.518   0.168
 4391SOL    HW214073   2.216   6.376   0.113
 4392SOL     OW14074   1.850   2.347   5.092
 4392SOL    HW114075   1.927   2.339   5.155
 4392SOL    HW214076   1.786   2.416   5.125
 4393SOL     OW14077   4.748   1.085   1.978
 4393SOL    HW114078   4.810   1.006   1.981
 4393SOL    HW214079   4.723   1.111   2.071
 4394SOL     OW14080   1.021   0.588   1.708
 4394SOL    HW114081   0.925   0.574   1.687
 4394SOL    HW214082   1.076   0.575   1.625
 4395SOL     OW14083   2.675   5.389   1.042
 4395SOL    HW114084   2.758   5.375   1.096
 4395SOL    HW214085   2.595   5.374   1.099
 4396SOL     OW14086   2.681   0.047   3.339
 4396SOL    HW114087   2.656   0.034   3.435
 4396SOL    HW214088   2.781   0.058   3.333
 4397SOL     OW14089   3.173   1.528   4.420
 4397SOL    HW114090   3.264   1.522   4.463
 4397SOL    HW214091   3.181   1.577   4.333
 4398SOL     OW14092   2.060   2.744   4.892
 4398SOL    HW114093   2.104   2.682   4.827
 4398SOL    HW214094   2.061   2.703   4.983
 4399SOL     OW14095   2.905   6.906   2.461
 4399SOL    HW114096   2.950   6.992   2.436
 4399SOL    HW214097   2.960   6.829   2.430
 4400SOL     OW14098   1.725   5.513   4.639
 4400SOL    HW114099   1.797   5.543   4.702
 4400SOL    HW214100   1.767   5.464   4.562
 4401SOL     OW14101   4.048   0.405   6.420
 4401SOL    HW114102   4.077   0.414   6.515
 4401SOL    HW214103   3.970   0.465   6.403
 4402SOL     OW14104   1.183   0.597   3.173
 4402SOL    HW114105   1.126   0.675   3.198
 4402SOL    HW214106   1.149   0.556   3.088
 4403SOL     OW14107   1.609   5.056   1.360
 4403SOL    HW114108   1.525   5.108   1.378
 4403SOL    HW214109   1.688   5.106   1.397
 4404SOL     OW14110   0.720   6.798   5.776
 4404SOL    HW114111   0.664   6.862   5.828
 4404SOL    HW214112   0.741   6.718   5.832
 4405SOL     OW14113   1.742   5.417   3.108
 4405SOL    HW114114   1.682   5.415   3.188
 4405SOL    HW214115   1.687   5.424   3.025
 4406SOL     OW14116   6.525   3.924   1.856
 4406SOL    HW114117   6.454   3.917   1.926
 4406SOL    HW214118   6.574   4.011   1.867
 4407SOL     OW14119   5.662   6.212   1.996
 4407SOL    HW114120   5.637   6.120   2.025
 4407SOL    HW214121   5.630   6.227   1.902
 4408SOL     OW14122   4.282   0.983   0.111
 4408SOL    HW114123   4.373   0.942   0.116
 4408SOL    HW214124   4.224   0.943   0.182
 4409SOL     OW14125   2.815   0.396   3.347
 4409SOL    HW114126   2.799   0.494   3.362
 4409SOL    HW214127   2.742   0.360   3.289
 4410SOL     OW14128   1.604   6.550   1.294
 4410SOL    HW114129   1.602   6.533   1.392
 4410SOL    HW214130   1.535   6.495   1.248
 4411SOL     OW14131   3.538   4.646   5.332
 4411SOL    HW114132   3.617   4.588   5.312
 4411SOL    HW214133   3.454   4.592   5.322
 4412SOL     OW14134   4.591   6.378   2.535
 4412SOL    HW114135   4.544   6.456   2.577
 4412SOL    HW214136   4.600   6.304   2.602
 4413SOL     OW14137   4.257   6.253   4.013
 4413SOL    HW114138   4.263   6.154   4.017
 4413SOL    HW214139   4.304   6.286   3.931
 4414SOL     OW14140   4.495   4.100   1.503
 4414SOL    HW114141   4.497   4.162   1.424
 4414SOL    HW214142   4.417   4.121   1.560
 4415SOL     OW14143   2.363   3.159   1.289
 4415SOL    HW114144   2.452   3.187   1.323
 4415SOL    HW214145   2.294   3.225   1.318
 4416SOL     OW14146   4.302   2.341   3.179
 4416SOL    HW114147   4.241   2.312   3.105
 4416SOL    HW214148   4.261   2.317   3.267
 4417SOL     OW14149   0.425   4.211   3.486
 4417SOL    HW114150   0.333   4.236   3.455
 4417SOL    HW214151   0.487   4.288   3.470
 4418SOL     OW14152   6.402   6.546   6.050
 4418SOL    HW114153   6.391   6.564   6.148
 4418SOL    HW214154   6.385   6.449   6.033
 4419SOL     OW14155   6.104   5.435   6.355
 4419SOL    HW114156   6.069   5.508   6.414
 4419SOL    HW214157   6.028   5.380   6.321
 4420SOL     OW14158   3.574   2.281   0.954
 4420SOL    HW114159   3.554   2.217   1.029
 4420SOL    HW214160   3.668   2.269   0.925
 4421SOL     OW14161   1.520   2.188   5.855
 4421SOL    HW114162   1.435   2.135   5.864
 4421SOL    HW214163   1.505   2.281   5.887
 4422SOL     OW14164   6.800   3.720   6.685
 4422SOL    HW114165   6.810   3.624   6.659
 4422SOL    HW214166   6.887   3.753   6.722
 4423SOL     OW14167   5.193   4.057   4.775
 4423SOL    HW114168   5.199   4.118   4.854
 4423SOL    HW214169   5.276   4.001   4.770
 4424SOL     OW14170   4.984   6.008   3.157
 4424SOL    HW114171   4.957   6.033   3.064
 4424SOL    HW214172   4.984   6.089   3.215
 4425SOL     OW14173   1.846   5.182   1.420
 4425SOL    HW114174   1.818   5.268   1.461
 4425SOL    HW214175   1.895   5.200   1.334
 4426SOL     OW14176   0.533   0.460   4.863
 4426SOL    HW114177   0.506   0.370   4.897
 4426SOL    HW214178   0.570   0.514   4.938
 4427SOL     OW14179   2.392   5.865   3.022
 4427SOL    HW114180   2.471   5.863   2.961
 4427SOL    HW214181   2.314   5.822   2.977
 4428SOL     OW14182   5.205   6.837   3.159
 4428SOL    HW114183   5.186   6.927   3.119
 4428SOL    HW214184   5.226   6.848   3.256
 4429SOL     OW14185   2.417   5.743   3.400
 4429SOL    HW114186   2.502   5.726   3.350
 4429SOL    HW214187   2.403   5.671   3.467
 4430SOL     OW14188   4.907   4.042   5.443
 4430SOL    HW114189   4.849   4.124   5.442
 4430SOL    HW214190   4.871   3.975   5.379
 4431SOL     OW14191   3.144   6.867   3.777
 4431SOL    HW114192   3.127   6.804   3.700
 4431SOL    HW214193   3.105   6.956   3.756
 4432SOL     OW14194   1.134   3.588   5.840
 4432SOL    HW114195   1.146   3.491   5.862
 4432SOL    HW214196   1.146   3.642   5.924
 4433SOL     OW14197   0.254   1.007   5.588
 4433SOL    HW114198   0.348   0.986   5.615
 4433SOL    HW214199   0.221   1.084   5.643
 4434SOL     OW14200   0.098   0.217   2.305
 4434SOL    HW114201   0.069   0.313   2.295
 4434SOL    HW214202   0.037   0.171   2.370
 4435SOL     OW14203   2.214   3.846   0.400
 4435SOL    HW114204   2.230   3.801   0.488
 4435SOL    HW214205   2.254   3.937   0.402
 4436SOL     OW14206   4.157   1.809   1.689
 4436SOL    HW114207   4.192   1.732   1.743
 4436SOL    HW214208   4.059   1.799   1.676
 4437SOL     OW14209   7.003   4.011   0.535
 4437SOL    HW114210   0.015   3.932   0.486
 4437SOL    HW214211   0.050   4.078   0.551
 4438SOL     OW14212   3.693   0.743   5.635
 4438SOL    HW114213   3.734   0.796   5.562
 4438SOL    HW214214   3.606   0.704   5.604
 4439SOL     OW14215   2.653   6.535   2.545
 4439SOL    HW114216   2.593   6.460   2.576
 4439SOL    HW214217   2.705   6.570   2.623
 4440SOL     OW14218   1.656   5.236   0.372
 4440SOL    HW114219   1.566   5.202   0.345
 4440SOL    HW214220   1.677   5.319   0.321
 4441SOL     OW14221   0.196   1.596   0.526
 4441SOL    HW114222   0.287   1.595   0.485
 4441SOL    HW214223   0.127   1.584   0.455
 4442SOL     OW14224   1.820   4.629   6.464
 4442SOL    HW114225   1.803   4.675   6.551
 4442SOL    HW214226   1.822   4.696   6.390
 4443SOL     OW14227   0.768   5.595   6.066
 4443SOL    HW114228   0.858   5.625   6.097
 4443SOL    HW214229   0.722   5.670   6.019
 4444SOL     OW14230   5.445   4.767   0.063
 4444SOL    HW114231   5.383   4.722   7.024
 4444SOL    HW214232   5.409   4.757   0.156
 4445SOL     OW14233   6.950   5.503   0.066
 4445SOL    HW114234   6.987   5.523   7.000
 4445SOL    HW214235   6.851   5.518   0.065
 4446SOL     OW14236   5.093   1.396   0.915
 4446SOL    HW114237   5.038   1.316   0.940
 4446SOL    HW214238   5.156   1.418   0.989
 4447SOL     OW14239   4.795   5.595   5.729
 4447SOL    HW114240   4.808   5.513   5.784
 4447SOL    HW214241   4.833   5.580   5.638
 4448SOL     OW14242   3.697   6.416   2.225
 4448SOL    HW114243   3.744   6.351   2.166
 4448SOL    HW214244   3.684   6.503   2.176
 4449SOL     OW14245   3.441   1.099   5.537
 4449SOL    HW114246   3.427   1.044   5.619
 4449SOL    HW214247   3.535   1.130   5.533
 4450SOL     OW14248   3.804   0.016   0.341
 4450SOL    HW114249   3.772   6.967   0.283
 4450SOL    HW214250   3.726   0.063   0.381
 4451SOL     OW14251   5.330   4.317   2.831
 4451SOL    HW114252   5.308   4.412   2.805
 4451SOL    HW214253   5.257   4.257   2.801
 4452SOL     OW14254   4.390   6.260   4.532
 4452SOL    HW114255   4.292   6.243   4.545
 4452SOL    HW214256   4.402   6.329   4.460
 4453SOL     OW14257   6.567   4.017   0.605
 4453SOL    HW114258   6.478   4.062   0.593
 4453SOL    HW214259   6.584   4.004   0.703
 4454SOL     OW14260   1.082   2.411   6.775
 4454SOL    HW114261   1.048   2.318   6.759
 4454SOL    HW214262   1.136   2.440   6.696
 4455SOL     OW14263   0.847   6.781   5.520
 4455SOL    HW114264   0.822   6.711   5.454
 4455SOL    HW214265   0.785   6.777   5.599
 4456SOL     OW14266   2.351   0.400   5.053
 4456SOL    HW114267   2.275   0.376   4.993
 4456SOL    HW214268   2.327   0.480   5.108
 4457SOL     OW14269   1.609   2.106   4.954
 4457SOL    HW114270   1.625   2.058   5.040
 4457SOL    HW214271   1.657   2.059   4.880
 4458SOL     OW14272   1.644   3.712   6.781
 4458SOL    HW114273   1.608   3.736   6.691
 4458SOL    HW214274   1.690   3.623   6.776
 4459SOL     OW14275   1.067   3.106   2.805
 4459SOL    HW114276   1.063   3.197   2.845
 4459SOL    HW214277   1.090   3.039   2.876
 4460SOL     OW14278   6.856   2.837   4.450
 4460SOL    HW114279   6.851   2.778   4.531
 4460SOL    HW214280   6.926   2.802   4.388
 4461SOL     OW14281   2.692   0.975   1.096
 4461SOL    HW114282   2.778   0.982   1.045
 4461SOL    HW214283   2.623   1.034   1.055
 4462SOL     OW14284   6.369   4.457   3.212
 4462SOL    HW114285   6.383   4.359   3.198
 4462SOL    HW214286   6.439   4.508   3.162
 4463SOL     OW14287   5.987   1.550   0.469
 4463SOL    HW114288   5.987   1.461   0.426
 4463SOL    HW214289   6.080   1.576   0.494
 4464SOL     OW14290   0.347   5.517   0.878
 4464SOL    HW114291   0.289   5.575   0.821
 4464SOL    HW214292   0.440   5.553   0.878
 4465SOL     OW14293   3.227   5.599   0.988
 4465SOL    HW114294   3.128   5.596   1.006
 4465SOL    HW214295   3.276   5.576   1.072
 4466SOL     OW14296   1.616   2.234   3.508
 4466SOL    HW114297   1.528   2.221   3.463
 4466SOL    HW214298   1.666   2.147   3.509
 4467SOL     OW14299   4.278   5.988   3.360
 4467SOL    HW114300   4.363   5.984   3.307
 4467SOL    HW214301   4.299   6.017   3.454
 4468SOL     OW14302   1.761   3.028   1.598
 4468SOL    HW114303   1.738   3.025   1.695
 4468SOL    HW214304   1.678   3.022   1.543
 4469SOL     OW14305   3.376   6.147   1.589
 4469SOL    HW114306   3.464   6.111   1.557
 4469SOL    HW214307   3.311   6.150   1.513
 4470SOL     OW14308   2.130   6.587   2.848
 4470SOL    HW114309   2.185   6.504   2.843
 4470SOL    HW214310   2.055   6.582   2.782
 4471SOL     OW14311   1.360   1.029   6.301
 4471SOL    HW114312   1.265   0.998   6.295
 4471SOL    HW214313   1.361   1.128   6.318
 4472SOL     OW14314   1.632   2.657   1.173
 4472SOL    HW114315   1.688   2.699   1.244
 4472SOL    HW214316   1.691   2.619   1.102
 4473SOL     OW14317   0.763   2.802   4.299
 4473SOL    HW114318   0.669   2.834   4.311
 4473SOL    HW214319   0.780   2.725   4.361
 4474SOL     OW14320   3.039   5.704   0.762
 4474SOL    HW114321   3.119   5.763   0.769
 4474SOL    HW214322   3.026   5.677   0.667
 4475SOL     OW14323   1.293   4.010   1.240
 4475SOL    HW114324   1.305   3.912   1.258
 4475SOL    HW214325   1.253   4.054   1.320
 4476SOL     OW14326   5.014   1.252   3.734
 4476SOL    HW114327   4.981   1.159   3.748
 4476SOL    HW214328   5.106   1.249   3.695
 4477SOL     OW14329   1.575   0.938   4.985
 4477SOL    HW114330   1.498   0.933   5.049
 4477SOL    HW214331   1.572   0.860   4.923
 4478SOL     OW14332   1.662   0.495   0.496
 4478SOL    HW114333   1.589   0.500   0.428
 4478SOL    HW214334   1.690   0.399   0.506
 4479SOL     OW14335   1.174   2.805   0.321
 4479SOL    HW114336   1.075   2.794   0.317
 4479SOL    HW214337   1.206   2.788   0.414
 4480SOL     OW14338   1.008   6.151   4.086
 4480SOL    HW114339   0.993   6.202   4.000
 4480SOL    HW214340   0.929   6.092   4.103
 4481SOL     OW14341   2.149   3.577   6.046
 4481SOL    HW114342   2.152   3.648   5.976
 4481SOL    HW214343   2.240   3.538   6.058
 4482SOL     OW14344   2.488   6.111   0.154
 4482SOL    HW114345   2.422   6.036   0.144
 4482SOL    HW214346   2.443   6.189   0.197
 4483SOL     OW14347   1.200   3.110   0.594
 4483SOL    HW114348   1.101   3.101   0.581
 4483SOL    HW214349   1.232   3.194   0.550
 4484SOL     OW14350   2.481   2.366   0.133
 4484SOL    HW114351   2.459   2.434   0.063
 4484SOL    HW214352   2.549   2.302   0.097
 4485SOL     OW14353   6.124   2.417   5.294
 4485SOL    HW114354   6.041   2.387   5.341
 4485SOL    HW214355   6.098   2.471   5.213
 4486SOL     OW14356   4.429   4.960   5.074
 4486SOL    HW114357   4.369   4.884   5.099
 4486SOL    HW214358   4.425   4.975   4.975
 4487SOL     OW14359   0.744   2.900   0.045
 4487SOL    HW114360   0.808   2.848   7.014
 4487SOL    HW214361   0.667   2.841   0.071
 4488SOL     OW14362   0.076   4.281   3.905
 4488SOL    HW114363   0.151   4.308   3.844
 4488SOL    HW214364   0.094   4.316   3.997
 4489SOL     OW14365   4.499   5.762   5.581
 4489SOL    HW114366   4.577   5.822   5.562
 4489SOL    HW214367   4.495   5.743   5.679
 4490SOL     OW14368   5.263   1.750   1.412
 4490SOL    HW114369   5.336   1.743   1.344
 4490SOL    HW214370   5.255   1.663   1.461
 4491SOL     OW14371   1.199   3.414   3.885
 4491SOL    HW114372   1.293   3.396   3.855
 4491SOL    HW214373   1.177   3.511   3.872
 4492SOL     OW14374   6.472   0.350   1.969
 4492SOL    HW114375   6.453   0.443   1.939
 4492SOL    HW214376   6.388   0.297   1.972
 4493SOL     OW14377   5.442   1.996   4.730
 4493SOL    HW114378   5.490   2.030   4.649
 4493SOL    HW214379   5.458   1.898   4.739
 4494SOL     OW14380   1.414   0.687   0.812
 4494SOL    HW114381   1.502   0.657   0.849
 4494SOL    HW214382   1.430   0.763   0.749
 4495SOL     OW14383   4.826   5.700   1.481
 4495SOL    HW114384   4.799   5.768   1.413
 4495SOL    HW214385   4.757   5.628   1.485
 4496SOL     OW14386   3.573   6.001   6.583
 4496SOL    HW114387   3.624   6.087   6.589
 4496SOL    HW214388   3.475   6.020   6.576
 4497SOL     OW14389   4.622   1.189   6.230
 4497SOL    HW114390   4.586   1.273   6.190
 4497SOL    HW214391   4.665   1.209   6.318
 4498SOL     OW14392   0.517   5.439   5.121
 4498SOL    HW114393   0.418   5.447   5.132
 4498SOL    HW214394   0.545   5.346   5.142
 4499SOL     OW14395   5.969   2.358   2.713
 4499SOL    HW114396   6.004   2.305   2.635
 4499SOL    HW214397   6.008   2.322   2.797
 4500SOL     OW14398   3.749   5.320   0.005
 4500SOL    HW114399   3.778   5.226   0.020
 4500SOL    HW214400   3.774   5.376   0.085
 4501SOL     OW14401   5.867   0.612   2.729
 4501SOL    HW114402   5.891   0.573   2.640
 4501SOL    HW214403   5.804   0.550   2.776
 4502SOL     OW14404   0.051   3.857   6.589
 4502SOL    HW114405   0.028   3.949   6.559
 4502SOL    HW214406   0.129   3.860   6.652
 4503SOL     OW14407   2.871   0.935   2.882
 4503SOL    HW114408   2.878   0.886   2.969
 4503SOL    HW214409   2.962   0.944   2.841
 4504SOL     OW14410   6.693   1.175   2.634
 4504SOL    HW114411   6.737   1.086   2.629
 4504SOL    HW214412   6.593   1.163   2.638
 4505SOL     OW14413   5.467   4.598   4.092
 4505SOL    HW114414   5.401   4.669   4.115
 4505SOL    HW214415   5.422   4.509   4.093
 4506SOL     OW14416   5.028   2.477   5.293
 4506SOL    HW114417   4.986   2.567   5.288
 4506SOL    HW214418   5.116   2.483   5.341
 4507SOL     OW14419   6.265   2.969   3.483
 4507SOL    HW114420   6.360   2.997   3.497
 4507SOL    HW214421   6.212   3.046   3.448
 4508SOL     OW14422   0.708   5.973   1.081
 4508SOL    HW114423   0.744   5.954   0.990
 4508SOL    HW214424   0.720   6.070   1.103
 4509SOL     OW14425   4.944   2.842   1.985
 4509SOL    HW114426   4.860   2.894   2.001
 4509SOL    HW214427   4.990   2.825   2.072
 4510SOL     OW14428   4.387   0.929   3.983
 4510SOL    HW114429   4.441   0.999   3.937
 4510SOL    HW214430   4.416   0.922   4.079
 4511SOL     OW14431   0.516   4.367   0.627
 4511SOL    HW114432   0.566   4.357   0.713
 4511SOL    HW214433   0.441   4.431   0.640
 4512SOL     OW14434   3.365   3.299   5.413
 4512SOL    HW114435   3.350   3.211   5.458
 4512SOL    HW214436   3.280   3.351   5.413
 4513SOL     OW14437   1.394   6.395   1.147
 4513SOL    HW114438   1.303   6.435   1.138
 4513SOL    HW214439   1.391   6.299   1.120
 4514SOL     OW14440   3.359   4.424   6.705
 4514SOL    HW114441   3.292   4.438   6.632
 4514SOL    HW214442   3.407   4.337   6.690
 4515SOL     OW14443   4.499   0.718   6.270
 4515SOL    HW114444   4.555   0.787   6.316
 4515SOL    HW214445   4.558   0.650   6.227
 4516SOL     OW14446   3.537   1.654   5.315
 4516SOL    HW114447   3.522   1.748   5.346
 4516SOL    HW214448   3.462   1.627   5.255
 4517SOL     OW14449   3.767   0.929   5.452
 4517SOL    HW114450   3.841   0.875   5.412
 4517SOL    HW214451   3.695   0.942   5.384
 4518SOL     OW14452   0.522   6.923   1.218
 4518SOL    HW114453   0.542   6.888   1.309
 4518SOL    HW214454   0.493   6.848   1.159
 4519SOL     OW14455   4.829   6.845   6.901
 4519SOL    HW114456   4.914   6.848   6.847
 4519SOL    HW214457   4.779   6.930   6.890
 4520SOL     OW14458   3.888   5.480   5.456
 4520SOL    HW114459   3.850   5.570   5.433
 4520SOL    HW214460   3.985   5.477   5.429
 4521SOL     OW14461   4.094   2.182   3.962
 4521SOL    HW114462   4.182   2.189   3.914
 4521SOL    HW214463   4.023   2.153   3.897
 4522SOL     OW14464   5.546   4.204   3.305
 4522SOL    HW114465   5.554   4.140   3.381
 4522SOL    HW214466   5.451   4.236   3.298
 4523SOL     OW14467   0.327   3.287   5.754
 4523SOL    HW114468   0.311   3.300   5.852
 4523SOL    HW214469   0.405   3.225   5.742
 4524SOL     OW14470   1.244   3.870   2.693
 4524SOL    HW114471   1.173   3.834   2.632
 4524SOL    HW214472   1.330   3.824   2.674
 4525SOL     OW14473   3.488   2.371   5.441
 4525SOL    HW114474   3.476   2.295   5.377
 4525SOL    HW214475   3.415   2.370   5.509
 4526SOL     OW14476   1.073   6.836   5.659
 4526SOL    HW114477   0.981   6.823   5.622
 4526SOL    HW214478   1.107   6.927   5.634
 4527SOL     OW14479   6.744   0.902   2.631
 4527SOL    HW114480   6.679   0.834   2.598
 4527SOL    HW214481   6.837   0.872   2.610
 4528SOL     OW14482   4.641   1.203   5.306
 4528SOL    HW114483   4.686   1.164   5.226
 4528SOL    HW214484   4.555   1.246   5.278
 4529SOL     OW14485   2.280   0.820   4.053
 4529SOL    HW114486   2.254   0.826   4.150
 4529SOL    HW214487   2.341   0.896   4.030
 4530SOL     OW14488   3.541   5.721   6.435
 4530SOL    HW114489   3.571   5.788   6.502
 4530SOL    HW214490   3.443   5.734   6.417
 4531SOL     OW14491   1.282   5.287   5.681
 4531SOL    HW114492   1.263   5.190   5.689
 4531SOL    HW214493   1.272   5.331   5.770
 4532SOL     OW14494   5.681   0.441   2.832
 4532SOL    HW114495   5.653   0.397   2.917
 4532SOL    HW214496   5.602   0.451   2.771
 4533SOL     OW14497   3.049   0.413   1.273
 4533SOL    HW114498   3.129   0.433   1.330
 4533SOL    HW214499   3.073   0.343   1.207
 4534SOL     OW14500   4.056   0.802   4.082
 4534SOL    HW114501   4.104   0.889   4.099
 4534SOL    HW214502   3.958   0.819   4.076
 4535SOL     OW14503   2.425   1.084   0.703
 4535SOL    HW114504   2.353   1.153   0.706
 4535SOL    HW214505   2.384   0.994   0.691
 4536SOL     OW14506   3.199   0.103   5.633
 4536SOL    HW114507   3.119   0.152   5.600
 4536SOL    HW214508   3.276   0.166   5.641
 4537SOL     OW14509   2.943   3.442   3.518
 4537SOL    HW114510   2.967   3.435   3.615
 4537SOL    HW214511   2.954   3.353   3.474
 4538SOL     OW14512   0.456   2.132   0.960
 4538SOL    HW114513   0.497   2.127   1.051
 4538SOL    HW214514   0.428   2.041   0.930
 4539SOL     OW14515   1.414   6.114   5.442
 4539SOL    HW114516   1.506   6.149   5.424
 4539SOL    HW214517   1.359   6.123   5.360
 4540SOL     OW14518   1.004   1.436   0.113
 4540SOL    HW114519   1.066   1.478   0.180
 4540SOL    HW214520   1.039   1.453   0.021
 4541SOL     OW14521   4.529   2.694   5.694
 4541SOL    HW114522   4.449   2.694   5.634
 4541SOL    HW214523   4.535   2.607   5.743
 4542SOL     OW14524   0.016   2.099   0.406
 4542SOL    HW114525   0.057   2.137   0.323
 4542SOL    HW214526   0.052   2.007   0.422
 4543SOL     OW14527   3.844   2.613   0.281
 4543SOL    HW114528   3.749   2.591   0.261
 4543SOL    HW214529   3.848   2.683   0.352
 4544SOL     OW14530   5.555   6.616   0.404
 4544SOL    HW114531   5.477   6.640   0.462
 4544SOL    HW214532   5.619   6.559   0.456
 4545SOL     OW14533   2.158   3.004   5.029
 4545SOL    HW114534   2.118   2.928   4.977
 4545SOL    HW214535   2.258   2.994   5.030
 4546SOL     OW14536   2.925   0.835   5.733
 4546SOL    HW114537   2.908   0.839   5.635
 4546SOL    HW214538   3.010   0.884   5.755
 4547SOL     OW14539   0.025   0.145   0.029
 4547SOL    HW114540   0.019   0.070   6.988
 4547SOL    HW214541   6.959   0.165   0.065
 4548SOL     OW14542   2.423   1.628   3.003
 4548SOL    HW114543   2.463   1.541   3.032
 4548SOL    HW214544   2.477   1.666   2.927
 4549SOL     OW14545   0.104   3.692   4.564
 4549SOL    HW114546   0.074   3.728   4.652
 4549SOL    HW214547   0.113   3.592   4.570
 4550SOL     OW14548   1.751   4.918   3.688
 4550SOL    HW114549   1.774   4.823   3.710
 4550SOL    HW214550   1.814   4.979   3.735
 4551SOL     OW14551   1.663   2.634   5.314
 4551SOL    HW114552   1.655   2.720   5.365
 4551SOL    HW214553   1.758   2.605   5.314
 4552SOL     OW14554   5.536   1.377   0.546
 4552SOL    HW114555   5.583   1.292   0.521
 4552SOL    HW214556   5.603   1.451   0.557
 4553SOL     OW14557   6.761   5.482   6.657
 4553SOL    HW114558   6.708   5.480   6.742
 4553SOL    HW214559   6.782   5.577   6.633
 4554SOL     OW14560   6.157   6.579   2.931
 4554SOL    HW114561   6.073   6.620   2.895
 4554SOL    HW214562   6.165   6.599   3.029
 4555SOL     OW14563   1.885   0.883   0.890
 4555SOL    HW114564   1.928   0.874   0.800
 4555SOL    HW214565   1.787   0.900   0.879
 4556SOL     OW14566   5.775   4.303   4.842
 4556SOL    HW114567   5.859   4.285   4.894
 4556SOL    HW214568   5.766   4.402   4.827
 4557SOL     OW14569   6.925   4.775   3.629
 4557SOL    HW114570   7.005   4.834   3.631
 4557SOL    HW214571   6.874   4.784   3.715
 4558SOL     OW14572   1.361   3.826   4.634
 4558SOL    HW114573   1.432   3.897   4.639
 4558SOL    HW214574   1.338   3.796   4.726
 4559SOL     OW14575   6.856   2.972   3.458
 4559SOL    HW114576   6.841   3.069   3.442
 4559SOL    HW214577   6.784   2.919   3.413
 4560SOL     OW14578   6.068   4.010   2.377
 4560SOL    HW114579   6.010   4.088   2.399
 4560SOL    HW214580   6.158   4.042   2.346
 4561SOL     OW14581   3.794   2.100   3.911
 4561SOL    HW114582   3.843   2.060   3.988
 4561SOL    HW214583   3.699   2.116   3.936
 4562SOL     OW14584   3.725   1.253   1.386
 4562SOL    HW114585   3.636   1.269   1.341
 4562SOL    HW214586   3.730   1.158   1.416
 4563SOL     OW14587   0.886   4.525   2.572
 4563SOL    HW114588   0.925   4.434   2.563
 4563SOL    HW214589   0.797   4.529   2.526
 4564SOL     OW14590   1.628   3.504   2.085
 4564SOL    HW114591   1.694   3.549   2.026
 4564SOL    HW214592   1.550   3.473   2.031
 4565SOL     OW14593   1.910   5.763   6.028
 4565SOL    HW114594   1.839   5.819   6.071
 4565SOL    HW214595   1.946   5.811   5.948
 4566SOL     OW14596   6.265   4.704   2.968
 4566SOL    HW114597   6.353   4.677   2.930
 4566SOL    HW214598   6.261   4.803   2.977
 4567SOL     OW14599   7.003   0.386   6.831
 4567SOL    HW114600   0.067   0.341   6.843
 4567SOL    HW214601   6.932   0.316   6.830
 4568SOL     OW14602   1.555   4.879   2.709
 4568SOL    HW114603   1.599   4.889   2.798
 4568SOL    HW214604   1.605   4.933   2.641
 4569SOL     OW14605   2.256   0.766   3.240
 4569SOL    HW114606   2.319   0.779   3.163
 4569SOL    HW214607   2.256   0.670   3.267
 4570SOL     OW14608   5.222   6.188   1.887
 4570SOL    HW114609   5.282   6.161   1.813
 4570SOL    HW214610   5.150   6.248   1.852
 4571SOL     OW14611   2.700   3.104   6.722
 4571SOL    HW114612   2.799   3.094   6.716
 4571SOL    HW214613   2.678   3.168   6.796
 4572SOL     OW14614   2.899   3.265   2.065
 4572SOL    HW114615   2.811   3.304   2.036
 4572SOL    HW214616   2.970   3.288   1.999
 4573SOL     OW14617   2.944   5.769   1.503
 4573SOL    HW114618   3.014   5.810   1.561
 4573SOL    HW214619   2.960   5.670   1.496
 4574SOL     OW14620   4.970   1.173   1.363
 4574SOL    HW114621   4.983   1.266   1.397
 4574SOL    HW214622   4.955   1.111   1.440
 4575SOL     OW14623   0.420   0.142   5.724
 4575SOL    HW114624   0.367   0.222   5.695
 4575SOL    HW214625   0.516   0.155   5.698
 4576SOL     OW14626   2.603   4.770   5.519
 4576SOL    HW114627   2.678   4.737   5.577
 4576SOL    HW214628   2.640   4.795   5.429
 4577SOL     OW14629   0.689   1.817   2.328
 4577SOL    HW114630   0.777   1.784   2.295
 4577SOL    HW214631   0.671   1.909   2.293
 4578SOL     OW14632   1.799   2.070   2.335
 4578SOL    HW114633   1.796   2.119   2.422
 4578SOL    HW214634   1.850   1.985   2.347
 4579SOL     OW14635   5.108   0.480   3.452
 4579SOL    HW114636   5.022   0.501   3.405
 4579SOL    HW214637   5.132   0.556   3.512
 4580SOL     OW14638   0.354   2.240   0.739
 4580SOL    HW114639   0.403   2.200   0.817
 4580SOL    HW214640   0.274   2.290   0.772
 4581SOL     OW14641   3.354   0.727   0.861
 4581SOL    HW114642   3.322   0.649   0.915
 4581SOL    HW214643   3.300   0.733   0.777
 4582SOL     OW14644   5.775   1.463   3.835
 4582SOL    HW114645   5.807   1.555   3.855
 4582SOL    HW214646   5.697   1.467   3.773
 4583SOL     OW14647   1.553   0.417   0.059
 4583SOL    HW114648   1.528   0.331   0.016
 4583SOL    HW214649   1.653   0.429   0.054
 4584SOL     OW14650   0.981   0.871   4.475
 4584SOL    HW114651   1.008   0.826   4.390
 4584SOL    HW214652   0.881   0.874   4.481
 4585SOL     OW14653   2.140   3.257   3.693
 4585SOL    HW114654   2.067   3.254   3.761
 4585SOL    HW214655   2.186   3.168   3.689
 4586SOL     OW14656   5.848   5.103   6.754
 4586SOL    HW114657   5.758   5.145   6.741
 4586SOL    HW214658   5.852   5.015   6.706
 4587SOL     OW14659   3.225   2.993   5.082
 4587SOL    HW114660   3.319   2.980   5.052
 4587SOL    HW214661   3.202   3.090   5.079
 4588SOL     OW14662   3.271   3.456   6.147
 4588SOL    HW114663   3.258   3.370   6.195
 4588SOL    HW214664   3.275   3.532   6.213
 4589SOL     OW14665   6.252   6.474   2.176
 4589SOL    HW114666   6.292   6.388   2.147
 4589SOL    HW214667   6.167   6.456   2.225
 4590SOL     OW14668   3.210   5.205   0.654
 4590SOL    HW114669   3.160   5.217   0.569
 4590SOL    HW214670   3.147   5.216   0.731
 4591SOL     OW14671   2.099   0.152   5.364
 4591SOL    HW114672   2.066   0.070   5.317
 4591SOL    HW214673   2.193   0.171   5.334
 4592SOL     OW14674   1.495   1.737   3.701
 4592SOL    HW114675   1.409   1.789   3.706
 4592SOL    HW214676   1.572   1.800   3.715
 4593SOL     OW14677   1.560   5.756   4.636
 4593SOL    HW114678   1.614   5.839   4.624
 4593SOL    HW214679   1.622   5.678   4.645
 4594SOL     OW14680   1.565   0.106   3.864
 4594SOL    HW114681   1.591   0.012   3.886
 4594SOL    HW214682   1.646   0.158   3.838
 4595SOL     OW14683   5.658   1.935   6.168
 4595SOL    HW114684   5.601   2.017   6.179
 4595SOL    HW214685   5.611   1.856   6.207
 4596SOL     OW14686   6.191   0.664   2.162
 4596SOL    HW114687   6.278   0.697   2.125
 4596SOL    HW214688   6.205   0.630   2.255
 4597SOL     OW14689   3.256   6.193   0.192
 4597SOL    HW114690   3.160   6.165   0.202
 4597SOL    HW214691   3.260   6.282   0.145
 4598SOL     OW14692   1.699   4.627   0.347
 4598SOL    HW114693   1.605   4.598   0.370
 4598SOL    HW214694   1.700   4.667   0.256
 4599SOL     OW14695   2.450   5.681   1.676
 4599SOL    HW114696   2.538   5.714   1.642
 4599SOL    HW214697   2.440   5.706   1.772
 4600SOL     OW14698   0.582   6.420   5.995
 4600SOL    HW114699   0.654   6.353   6.011
 4600SOL    HW214700   0.508   6.406   6.061
 4601SOL     OW14701   1.772   0.960   5.176
 4601SOL    HW114702   1.700   0.953   5.107
 4601SOL    HW214703   1.799   0.869   5.206
 4602SOL     OW14704   3.141   2.238   6.043
 4602SOL    HW114705   3.117   2.312   6.106
 4602SOL    HW214706   3.193   2.169   6.092
 4603SOL     OW14707   4.841   0.067   0.578
 4603SOL    HW114708   4.757   0.119   0.595
 4603SOL    HW214709   4.905   0.124   0.526
 4604SOL     OW14710   6.102   6.951   5.187
 4604SOL    HW114711   6.081   6.855   5.204
 4604SOL    HW214712   6.107   6.967   5.088
 4605SOL     OW14713   3.712   0.720   1.586
 4605SOL    HW114714   3.791   0.769   1.549
 4605SOL    HW214715   3.696   0.749   1.680
 4606SOL     OW14716   6.748   6.479   4.994
 4606SOL    HW114717   6.830   6.441   4.951
 4606SOL    HW214718   6.734   6.572   4.962
 4607SOL     OW14719   2.369   2.369   0.772
 4607SOL    HW114720   2.274   2.393   0.787
 4607SOL    HW214721   2.378   2.269   0.767
 4608SOL     OW14722   6.806   2.667   4.667
 4608SOL    HW114723   6.718   2.630   4.636
 4608SOL    HW214724   6.798   2.696   4.763
 4609SOL     OW14725   4.563   5.929   6.310
 4609SOL    HW114726   4.481   5.874   6.330
 4609SOL    HW214727   4.617   5.938   6.394
 4610SOL     OW14728   5.206   4.027   6.859
 4610SOL    HW114729   5.261   4.040   6.941
 4610SOL    HW214730   5.248   3.958   6.801
 4611SOL     OW14731   1.047   0.724   6.335
 4611SOL    HW114732   1.045   0.704   6.433
 4611SOL    HW214733   1.108   0.659   6.289
 4612SOL     OW14734   1.773   1.679   1.561
 4612SOL    HW114735   1.830   1.757   1.586
 4612SOL    HW214736   1.708   1.707   1.490
 4613SOL     OW14737   1.612   4.450   1.604
 4613SOL    HW114738   1.517   4.434   1.633
 4613SOL    HW214739   1.673   4.429   1.680
 4614SOL     OW14740   6.363   4.154   4.728
 4614SOL    HW114741   6.413   4.236   4.756
 4614SOL    HW214742   6.288   4.180   4.667
 4615SOL     OW14743   1.203   3.609   6.658
 4615SOL    HW114744   1.186   3.532   6.718
 4615SOL    HW214745   1.238   3.577   6.570
 4616SOL     OW14746   6.766   2.443   5.946
 4616SOL    HW114747   6.821   2.399   6.017
 4616SOL    HW214748   6.793   2.539   5.937
 4617SOL     OW14749   6.829   2.850   3.061
 4617SOL    HW114750   6.774   2.861   3.144
 4617SOL    HW214751   6.770   2.819   2.986
 4618SOL     OW14752   2.055   4.066   5.933
 4618SOL    HW114753   1.983   4.134   5.919
 4618SOL    HW214754   2.135   4.089   5.877
 4619SOL     OW14755   4.982   6.092   6.183
 4619SOL    HW114756   4.987   6.032   6.103
 4619SOL    HW214757   4.933   6.176   6.158
 4620SOL     OW14758   0.671   4.813   2.391
 4620SOL    HW114759   0.690   4.716   2.410
 4620SOL    HW214760   0.752   4.856   2.352
 4621SOL     OW14761   3.661   0.047   2.478
 4621SOL    HW114762   3.583   7.013   2.498
 4621SOL    HW214763   3.742   7.016   2.460
 4622SOL     OW14764   5.365   5.972   1.357
 4622SOL    HW114765   5.403   6.054   1.315
 4622SOL    HW214766   5.434   5.929   1.416
 4623SOL     OW14767   2.709   4.625   0.787
 4623SOL    HW114768   2.720   4.615   0.885
 4623SOL    HW214769   2.650   4.552   0.753
 4624SOL     OW14770   4.285   1.179   2.054
 4624SOL    HW114771   4.297   1.083   2.080
 4624SOL    HW214772   4.363   1.232   2.086
 4625SOL     OW14773   2.349   6.254   1.454
 4625SOL    HW114774   2.307   6.221   1.538
 4625SOL    HW214775   2.325   6.350   1.440
 4626SOL     OW14776   4.585   3.705   1.675
 4626SOL    HW114777   4.610   3.802   1.682
 4626SOL    HW214778   4.664   3.648   1.696
 4627SOL     OW14779   5.685   0.089   4.893
 4627SOL    HW114780   5.697   0.172   4.838
 4627SOL    HW214781   5.735   0.014   4.851
 4628SOL     OW14782   5.128   5.121   4.312
 4628SOL    HW114783   5.153   5.133   4.408
 4628SOL    HW214784   5.107   5.025   4.296
 4629SOL     OW14785   2.399   5.987   6.736
 4629SOL    HW114786   2.421   5.954   6.644
 4629SOL    HW214787   2.385   6.086   6.734
 4630SOL     OW14788   2.136   3.143   2.338
 4630SOL    HW114789   2.122   3.206   2.261
 4630SOL    HW214790   2.228   3.103   2.331
 4631SOL     OW14791   6.987   0.598   3.085
 4631SOL    HW114792   6.945   0.507   3.092
 4631SOL    HW214793   0.024   0.612   3.162
 4632SOL     OW14794   3.207   4.951   2.493
 4632SOL    HW114795   3.164   5.041   2.490
 4632SOL    HW214796   3.168   4.892   2.422
 4633SOL     OW14797   4.548   0.820   5.074
 4633SOL    HW114798   4.523   0.917   5.077
 4633SOL    HW214799   4.522   0.781   4.986
 4634SOL     OW14800   2.987   4.026   5.068
 4634SOL    HW114801   2.940   4.008   5.155
 4634SOL    HW214802   2.921   4.031   4.994
 4635SOL     OW14803   4.750   6.645   1.709
 4635SOL    HW114804   4.775   6.735   1.744
 4635SOL    HW214805   4.745   6.647   1.609
 4636SOL     OW14806   1.988   5.052   0.504
 4636SOL    HW114807   1.988   4.958   0.538
 4636SOL    HW214808   2.022   5.054   0.410
 4637SOL     OW14809   3.060   1.495   3.122
 4637SOL    HW114810   2.962   1.484   3.105
 4637SOL    HW214811   3.110   1.492   3.036
 4638SOL     OW14812   3.940   4.948   0.449
 4638SOL    HW114813   3.854   4.917   0.410
 4638SOL    HW214814   4.017   4.902   0.403
 4639SOL     OW14815   3.613   2.342   1.453
 4639SOL    HW114816   3.656   2.252   1.465
 4639SOL    HW214817   3.596   2.383   1.543
 4640SOL     OW14818   6.574   2.590   6.808
 4640SOL    HW114819   6.553   2.562   6.902
 4640SOL    HW214820   6.651   2.537   6.773
 4641SOL     OW14821   0.728   5.843   4.366
 4641SOL    HW114822   0.777   5.759   4.342
 4641SOL    HW214823   0.632   5.822   4.385
 4642SOL     OW14824   6.853   1.043   3.720
 4642SOL    HW114825   6.931   1.103   3.735
 4642SOL    HW214826   6.875   0.975   3.650
 4643SOL     OW14827   0.418   1.914   0.329
 4643SOL    HW114828   0.508   1.870   0.320
 4643SOL    HW214829   0.430   2.008   0.362
 4644SOL     OW14830   1.496   1.151   0.346
 4644SOL    HW114831   1.590   1.158   0.311
 4644SOL    HW214832   1.435   1.127   0.271
 4645SOL     OW14833   0.961   1.704   4.155
 4645SOL    HW114834   0.876   1.654   4.171
 4645SOL    HW214835   0.944   1.781   4.094
 4646SOL     OW14836   2.124   4.940   3.992
 4646SOL    HW114837   2.041   4.976   3.949
 4646SOL    HW214838   2.101   4.861   4.048
 4647SOL     OW14839   1.229   6.383   2.036
 4647SOL    HW114840   1.188   6.454   1.978
 4647SOL    HW214841   1.328   6.395   2.039
 4648SOL     OW14842   3.028   1.786   4.535
 4648SOL    HW114843   3.079   1.747   4.459
 4648SOL    HW214844   3.067   1.754   4.621
 4649SOL     OW14845   6.572   1.206   6.918
 4649SOL    HW114846   6.618   1.253   6.993
 4649SOL    HW214847   6.618   1.229   6.832
 4650SOL     OW14848   5.121   5.877   1.349
 4650SOL    HW114849   5.213   5.913   1.362
 4650SOL    HW214850   5.074   5.873   1.437
 4651SOL     OW14851   7.001   3.212   6.448
 4651SOL    HW114852   0.018   3.164   6.371
 4651SOL    HW214853   6.970   3.146   6.515
 4652SOL     OW14854   0.343   6.459   5.210
 4652SOL    HW114855   0.315   6.481   5.116
 4652SOL    HW214856   0.443   6.465   5.216
 4653SOL     OW14857   5.804   5.301   0.618
 4653SOL    HW114858   5.878   5.369   0.613
 4653SOL    HW214859   5.718   5.343   0.589
 4654SOL     OW14860   1.069   0.162   5.402
 4654SOL    HW114861   1.112   0.252   5.398
 4654SOL    HW214862   1.002   0.161   5.476
 4655SOL     OW14863   5.149   2.997   1.120
 4655SOL    HW114864   5.137   2.966   1.214
 4655SOL    HW214865   5.061   3.024   1.082
 4656SOL     OW14866   0.225   1.322   1.648
 4656SOL    HW114867   0.293   1.279   1.588
 4656SOL    HW214868   0.268   1.395   1.701
 4657SOL     OW14869   4.580   0.410   2.509
 4657SOL    HW114870   4.568   0.493   2.564
 4657SOL    HW214871   4.611   0.435   2.417
 4658SOL     OW14872   1.472   2.828   5.757
 4658SOL    HW114873   1.444   2.903   5.697
 4658SOL    HW214874   1.426   2.744   5.729
 4659SOL     OW14875   1.786   4.279   0.182
 4659SOL    HW114876   1.733   4.249   0.102
 4659SOL    HW214877   1.853   4.347   0.153
 4660SOL     OW14878   1.138   6.298   3.586
 4660SOL    HW114879   1.150   6.285   3.488
 4660SOL    HW214880   1.148   6.395   3.608
 4661SOL     OW14881   0.868   2.186   5.311
 4661SOL    HW114882   0.956   2.235   5.309
 4661SOL    HW214883   0.882   2.092   5.279
 4662SOL     OW14884   2.391   6.968   5.732
 4662SOL    HW114885   2.329   6.994   5.657
 4662SOL    HW214886   2.440   6.885   5.706
 4663SOL     OW14887   1.831   0.279   0.290
 4663SOL    HW114888   1.803   0.216   0.363
 4663SOL    HW214889   1.751   0.302   0.235
 4664SOL     OW14890   6.863   6.639   6.820
 4664SOL    HW114891   6.810   6.690   6.752
 4664SOL    HW214892   6.883   6.699   6.897
 4665SOL     OW14893   1.965   0.550   4.104
 4665SOL    HW114894   1.890   0.486   4.118
 4665SOL    HW214895   2.049   0.499   4.086
 4666SOL     OW14896   2.557   1.873   4.958
 4666SOL    HW114897   2.498   1.838   5.030
 4666SOL    HW214898   2.597   1.960   4.987
 4667SOL     OW14899   6.838   3.474   1.293
 4667SOL    HW114900   6.923   3.516   1.324
 4667SOL    HW214901   6.795   3.425   1.369
 4668SOL     OW14902   4.383   1.779   3.698
 4668SOL    HW114903   4.456   1.777   3.766
 4668SOL    HW214904   4.421   1.798   3.608
 4669SOL     OW14905   5.913   0.351   6.487
 4669SOL    HW114906   5.892   0.449   6.493
 4669SOL    HW214907   5.900   0.319   6.394
 4670SOL     OW14908   0.488   2.628   0.460
 4670SOL    HW114909   0.523   2.715   0.496
 4670SOL    HW214910   0.552   2.591   0.393
 4671SOL     OW14911   0.666   3.620   0.996
 4671SOL    HW114912   0.592   3.575   0.945
 4671SOL    HW214913   0.720   3.677   0.934
 4672SOL     OW14914   2.422   3.890   6.529
 4672SOL    HW114915   2.486   3.857   6.598
 4672SOL    HW214916   2.332   3.848   6.544
 4673SOL     OW14917   5.842   0.973   6.960
 4673SOL    HW114918   5.783   0.910   6.909
 4673SOL    HW214919   5.910   0.922   7.012
 4674SOL     OW14920   0.893   2.246   1.529
 4674SOL    HW114921   0.827   2.264   1.457
 4674SOL    HW214922   0.976   2.299   1.513
 4675SOL     OW14923   2.185   6.262   6.966
 4675SOL    HW114924   2.194   6.166   6.993
 4675SOL    HW214925   2.268   6.292   6.921
 4676SOL     OW14926   0.360   6.240   4.178
 4676SOL    HW114927   0.327   6.331   4.152
 4676SOL    HW214928   0.443   6.219   4.127
 4677SOL     OW14929   4.331   6.872   6.603
 4677SOL    HW114930   4.328   6.791   6.662
 4677SOL    HW214931   4.245   6.922   6.609
 4678SOL     OW14932   2.037   4.472   6.351
 4678SOL    HW114933   2.105   4.478   6.425
 4678SOL    HW214934   1.955   4.523   6.377
 4679SOL     OW14935   2.967   6.982   5.716
 4679SOL    HW114936   3.045   0.019   5.723
 4679SOL    HW214937   2.990   6.894   5.757
 4680SOL     OW14938   2.110   4.438   0.771
 4680SOL    HW114939   2.162   4.510   0.725
 4680SOL    HW214940   2.039   4.403   0.710
 4681SOL     OW14941   0.222   5.680   5.117
 4681SOL    HW114942   0.132   5.659   5.078
 4681SOL    HW214943   0.259   5.762   5.072
 4682SOL     OW14944   4.551   6.375   0.579
 4682SOL    HW114945   4.483   6.346   0.511
 4682SOL    HW214946   4.637   6.328   0.561
 4683SOL     OW14947   0.146   4.313   3.428
 4683SOL    HW114948   0.100   4.396   3.460
 4683SOL    HW214949   0.127   4.300   3.331
 4684SOL     OW14950   1.588   1.063   4.287
 4684SOL    HW114951   1.496   1.047   4.253
 4684SOL    HW214952   1.585   1.126   4.365
 4685SOL     OW14953   4.885   4.658   5.093
 4685SOL    HW114954   4.810   4.648   5.028
 4685SOL    HW214955   4.885   4.580   5.155
 4686SOL     OW14956   4.355   5.704   7.018
 4686SOL    HW114957   4.333   5.612   6.985
 4686SOL    HW214958   4.339   5.709   0.091
 4687SOL     OW14959   5.481   6.405   4.734
 4687SOL    HW114960   5.525   6.494   4.748
 4687SOL    HW214961   5.405   6.416   4.670
 4688SOL     OW14962   0.715   1.863   6.536
 4688SOL    HW114963   0.694   1.893   6.443
 4688SOL    HW214964   0.687   1.933   6.601
 4689SOL     OW14965   1.514   5.338   5.543
 4689SOL    HW114966   1.422   5.300   5.552
 4689SOL    HW214967   1.581   5.264   5.536
 4690SOL     OW14968   1.536   2.695   0.508
 4690SOL    HW114969   1.577   2.616   0.552
 4690SOL    HW214970   1.590   2.777   0.528
 4691SOL     OW14971   3.740   4.385   0.624
 4691SOL    HW114972   3.694   4.439   0.555
 4691SOL    HW214973   3.701   4.405   0.714
 4692SOL     OW14974   7.004   5.520   3.281
 4692SOL    HW114975   7.004   5.569   3.369
 4692SOL    HW214976   6.948   5.437   3.290
 4693SOL     OW14977   0.469   1.089   3.578
 4693SOL    HW114978   0.430   1.167   3.529
 4693SOL    HW214979   0.465   1.008   3.520
 4694SOL     OW14980   1.922   1.859   6.473
 4694SOL    HW114981   1.849   1.927   6.467
 4694SOL    HW214982   1.947   1.845   6.569
 4695SOL     OW14983   3.400   2.926   1.572
 4695SOL    HW114984   3.494   2.958   1.580
 4695SOL    HW214985   3.382   2.898   1.478
 4696SOL     OW14986   6.499   3.302   6.948
 4696SOL    HW114987   6.519   3.261   0.012
 4696SOL    HW214988   6.538   3.394   6.945
 4697SOL     OW14989   0.856   5.057   0.231
 4697SOL    HW114990   0.832   4.976   0.177
 4697SOL    HW214991   0.860   5.033   0.328
 4698SOL     OW14992   5.808   3.104   1.052
 4698SOL    HW114993   5.804   3.124   1.149
 4698SOL    HW214994   5.718   3.118   1.011
 4699SOL     OW14995   6.501   0.388   3.491
 4699SOL    HW114996   6.587   0.339   3.487
 4699SOL    HW214997   6.478   0.409   3.586
 4700SOL     OW14998   5.376   0.342   1.160
 4700SOL    HW114999   5.395   0.422   1.217
 4700SOL    HW215000   5.332   0.371   1.075
 4701SOL     OW15001   1.343   1.014   0.873
 4701SOL    HW115002   1.356   0.945   0.802
 4701SOL    HW215003   1.255   0.998   0.918
 4702SOL     OW15004   3.330   4.168   6.926
 4702SOL    HW115005   3.352   4.074   6.952
 4702SOL    HW215006   3.232   4.184   6.938
 4703SOL     OW15007   1.843   1.097   2.070
 4703SOL    HW115008   1.811   1.188   2.041
 4703SOL    HW215009   1.776   1.057   2.132
 4704SOL     OW15010   5.049   7.021   0.133
 4704SOL    HW115011   5.045   6.994   0.229
 4704SOL    HW215012   4.965   0.044   0.108
 4705SOL     OW15013   3.605   3.689   4.272
 4705SOL    HW115014   3.543   3.629   4.221
 4705SOL    HW215015   3.562   3.778   4.284
 4706SOL     OW15016   4.338   5.107   1.164
 4706SOL    HW115017   4.272   5.035   1.143
 4706SOL    HW215018   4.372   5.095   1.257
 4707SOL     OW15019   3.582   6.170   0.698
 4707SOL    HW115020   3.605   6.188   0.793
 4707SOL    HW215021   3.502   6.111   0.694
 4708SOL     OW15022   2.334   2.301   2.323
 4708SOL    HW115023   2.362   2.396   2.338
 4708SOL    HW215024   2.260   2.298   2.256
 4709SOL     OW15025   4.165   3.951   6.053
 4709SOL    HW115026   4.127   4.033   6.096
 4709SOL    HW215027   4.143   3.871   6.108
 4710SOL     OW15028   5.042   1.846   0.932
 4710SOL    HW115029   5.030   1.760   0.883
 4710SOL    HW215030   5.052   1.828   1.030
 4711SOL     OW15031   2.805   0.064   2.730
 4711SOL    HW115032   2.825   7.025   2.655
 4711SOL    HW215033   2.838   0.026   2.816
 4712SOL     OW15034   1.420   4.851   0.235
 4712SOL    HW115035   1.467   4.935   0.264
 4712SOL    HW215036   1.427   4.782   0.307
 4713SOL     OW15037   2.276   5.568   0.597
 4713SOL    HW115038   2.335   5.504   0.647
 4713SOL    HW215039   2.320   5.657   0.593
 4714SOL     OW15040   3.869   2.250   0.840
 4714SOL    HW115041   3.929   2.210   0.910
 4714SOL    HW215042   3.900   2.342   0.817
 4715SOL     OW15043   6.288   4.042   3.989
 4715SOL    HW115044   6.251   3.965   3.936
 4715SOL    HW215045   6.336   4.104   3.927
 4716SOL     OW15046   3.460   6.102   0.346
 4716SOL    HW115047   3.451   6.114   0.445
 4716SOL    HW215048   3.370   6.115   0.303
 4717SOL     OW15049   1.079   5.705   4.018
 4717SOL    HW115050   1.049   5.617   4.053
 4717SOL    HW215051   1.158   5.693   3.957
 4718SOL     OW15052   6.131   1.257   6.154
 4718SOL    HW115053   6.217   1.261   6.206
 4718SOL    HW215054   6.071   1.189   6.196
 4719SOL     OW15055   4.703   3.105   1.100
 4719SOL    HW115056   4.735   3.088   1.194
 4719SOL    HW215057   4.716   3.202   1.078
 4720SOL     OW15058   2.599   0.966   4.413
 4720SOL    HW115059   2.559   0.931   4.498
 4720SOL    HW215060   2.685   0.919   4.395
 4721SOL     OW15061   1.628   2.150   1.356
 4721SOL    HW115062   1.580   2.101   1.429
 4721SOL    HW215063   1.704   2.094   1.322
 4722SOL     OW15064   2.483   0.120   1.050
 4722SOL    HW115065   2.523   0.041   1.004
 4722SOL    HW215066   2.387   0.103   1.070
 4723SOL     OW15067   3.011   0.241   6.745
 4723SOL    HW115068   3.063   0.296   6.680
 4723SOL    HW215069   2.950   0.300   6.798
 4724SOL     OW15070   4.289   5.138   1.677
 4724SOL    HW115071   4.243   5.053   1.651
 4724SOL    HW215072   4.230   5.216   1.654
 4725SOL     OW15073   6.089   6.263   3.847
 4725SOL    HW115074   6.178   6.257   3.800
 4725SOL    HW215075   6.078   6.183   3.907
 4726SOL     OW15076   0.377   5.700   6.492
 4726SOL    HW115077   0.337   5.630   6.552
 4726SOL    HW215078   0.382   5.786   6.542
 4727SOL     OW15079   0.324   6.395   0.002
 4727SOL    HW115080   0.319   6.453   0.083
 4727SOL    HW215081   0.404   6.421   6.973
 4728SOL     OW15082   0.413   1.597   0.351
 4728SOL    HW115083   0.493   1.657   0.365
 4728SOL    HW215084   0.435   1.528   0.282
 4729SOL     OW15085   3.761   0.538   1.394
 4729SOL    HW115086   3.712   0.565   1.477
 4729SOL    HW215087   3.709   0.467   1.347
 4730SOL     OW15088   1.536   0.100   5.466
 4730SOL    HW115089   1.513   0.004   5.484
 4730SOL    HW215090   1.636   0.110   5.466
 4731SOL     OW15091   5.496   1.522   5.813
 4731SOL    HW115092   5.595   1.519   5.801
 4731SOL    HW215093   5.464   1.436   5.852
 4732SOL     OW15094   0.419   2.183   0.458
 4732SOL    HW115095   0.382   2.190   0.551
 4732SOL    HW215096   0.518   2.196   0.460
 4733SOL     OW15097   6.789   2.992   4.145
 4733SOL    HW115098   6.803   2.934   4.225
 4733SOL    HW215099   6.816   3.086   4.166
 4734SOL     OW15100   4.044   4.399   6.124
 4734SOL    HW115101   4.056   4.431   6.219
 4734SOL    HW215102   4.023   4.477   6.065
 4735SOL     OW15103   0.378   5.153   3.445
 4735SOL    HW115104   0.432   5.132   3.527
 4735SOL    HW215105   0.420   5.229   3.396
 4736SOL     OW15106   1.661   1.038   1.152
 4736SOL    HW115107   1.639   1.125   1.198
 4736SOL    HW215108   1.756   1.014   1.169
 4737SOL     OW15109   2.907   5.521   1.415
 4737SOL    HW115110   2.932   5.502   1.320
 4737SOL    HW215111   2.817   5.481   1.434
 4738SOL     OW15112   6.950   6.613   2.636
 4738SOL    HW115113   6.903   6.701   2.635
 4738SOL    HW215114   6.888   6.542   2.603
 4739SOL     OW15115   4.584   0.675   1.267
 4739SOL    HW115116   4.574   0.774   1.274
 4739SOL    HW215117   4.579   0.635   1.359
 4740SOL     OW15118   0.594   2.372   3.496
 4740SOL    HW115119   0.571   2.364   3.593
 4740SOL    HW215120   0.625   2.465   3.477
 4741SOL     OW15121   3.611   4.128   1.048
 4741SOL    HW115122   3.658   4.064   1.109
 4741SOL    HW215123   3.673   4.153   0.973
 4742SOL     OW15124   3.518   0.126   0.430
 4742SOL    HW115125   3.482   0.071   0.354
 4742SOL    HW215126   3.533   0.220   0.400
 4743SOL     OW15127   1.733   4.865   1.126
 4743SOL    HW115128   1.769   4.947   1.081
 4743SOL    HW215129   1.661   4.891   1.190
 4744SOL     OW15130   2.498   5.532   0.916
 4744SOL    HW115131   2.568   5.477   0.960
 4744SOL    HW215132   2.425   5.473   0.882
 4745SOL     OW15133   0.965   4.707   6.972
 4745SOL    HW115134   0.978   4.635   0.015
 4745SOL    HW215135   1.036   4.776   6.983
 4746SOL     OW15136   4.538   5.675   4.225
 4746SOL    HW115137   4.532   5.743   4.152
 4746SOL    HW215138   4.577   5.718   4.307
 4747SOL     OW15139   1.361   1.923   0.247
 4747SOL    HW115140   1.346   2.020   0.267
 4747SOL    HW215141   1.445   1.913   0.193
 4748SOL     OW15142   1.995   6.560   2.557
 4748SOL    HW115143   1.911   6.567   2.610
 4748SOL    HW215144   1.982   6.603   2.468
 4749SOL     OW15145   2.823   1.781   6.530
 4749SOL    HW115146   2.757   1.793   6.605
 4749SOL    HW215147   2.816   1.858   6.466
 4750SOL     OW15148   4.933   2.679   5.757
 4750SOL    HW115149   5.024   2.674   5.797
 4750SOL    HW215150   4.932   2.744   5.681
 4751SOL     OW15151   3.914   0.791   3.350
 4751SOL    HW115152   3.829   0.808   3.399
 4751SOL    HW215153   3.893   0.745   3.263
 4752SOL     OW15154   4.637   2.102   6.404
 4752SOL    HW115155   4.583   2.111   6.320
 4752SOL    HW215156   4.732   2.127   6.385
 4753SOL     OW15157   3.563   6.452   5.875
 4753SOL    HW115158   3.480   6.425   5.826
 4753SOL    HW215159   3.643   6.421   5.824
 4754SOL     OW15160   4.799   4.868   6.913
 4754SOL    HW115161   4.863   4.936   6.949
 4754SOL    HW215162   4.764   4.813   6.989
 4755SOL     OW15163   1.169   1.123   1.639
 4755SOL    HW115164   1.140   1.049   1.579
 4755SOL    HW215165   1.105   1.199   1.632
 4756SOL     OW15166   6.342   4.297   5.775
 4756SOL    HW115167   6.300   4.328   5.861
 4756SOL    HW215168   6.438   4.324   5.773
 4757SOL     OW15169   1.746   3.650   0.926
 4757SOL    HW115170   1.710   3.606   0.843
 4757SOL    HW215171   1.835   3.609   0.948
 4758SOL     OW15172   2.629   6.314   3.088
 4758SOL    HW115173   2.656   6.247   3.157
 4758SOL    HW215174   2.709   6.369   3.062
 4759SOL     OW15175   0.652   6.089   1.861
 4759SOL    HW115176   0.713   6.167   1.848
 4759SOL    HW215177   0.631   6.080   1.959
 4760SOL     OW15178   1.320   5.871   1.100
 4760SOL    HW115179   1.339   5.777   1.131
 4760SOL    HW215180   1.326   5.933   1.177
 4761SOL     OW15181   6.377   6.507   1.690
 4761SOL    HW115182   6.471   6.532   1.667
 4761SOL    HW215183   6.370   6.408   1.701
 4762SOL     OW15184   1.593   0.737   2.659
 4762SOL    HW115185   1.691   0.731   2.641
 4762SOL    HW215186   1.568   0.831   2.679
 4763SOL     OW15187   5.392   4.767   1.820
 4763SOL    HW115188   5.377   4.852   1.869
 4763SOL    HW215189   5.437   4.701   1.881
 4764SOL     OW15190   5.120   2.881   0.785
 4764SOL    HW115191   5.021   2.880   0.771
 4764SOL    HW215192   5.156   2.788   0.782
 4765SOL     OW15193   3.543   1.592   4.908
 4765SOL    HW115194   3.463   1.651   4.917
 4765SOL    HW215195   3.515   1.503   4.873
 4766SOL     OW15196   0.617   0.221   4.214
 4766SOL    HW115197   0.523   0.253   4.201
 4766SOL    HW215198   0.674   0.298   4.241
 4767SOL     OW15199   2.350   4.250   3.453
 4767SOL    HW115200   2.291   4.256   3.372
 4767SOL    HW215201   2.296   4.219   3.531
 4768SOL     OW15202   4.562   2.697   6.870
 4768SOL    HW115203   4.501   2.653   6.936
 4768SOL    HW215204   4.592   2.629   6.803
 4769SOL     OW15205   2.596   4.039   0.492
 4769SOL    HW115206   2.542   4.068   0.413
 4769SOL    HW215207   2.571   3.945   0.517
 4770SOL     OW15208   0.874   1.063   5.046
 4770SOL    HW115209   0.778   1.058   5.074
 4770SOL    HW215210   0.883   1.032   4.952
 4771SOL     OW15211   1.593   0.025   4.722
 4771SOL    HW115212   1.684   7.024   4.689
 4771SOL    HW215213   1.534   6.970   4.721
 4772SOL     OW15214   3.048   5.098   2.183
 4772SOL    HW115215   3.016   5.087   2.277
 4772SOL    HW215216   3.070   5.008   2.145
 4773SOL     OW15217   2.007   5.421   4.726
 4773SOL    HW115218   2.099   5.406   4.691
 4773SOL    HW215219   2.008   5.420   4.826
 4774SOL     OW15220   1.178   4.624   0.113
 4774SOL    HW115221   1.214   4.717   0.118
 4774SOL    HW215222   1.249   4.563   0.080
 4775SOL     OW15223   6.464   6.802   5.524
 4775SOL    HW115224   6.399   6.873   5.497
 4775SOL    HW215225   6.495   6.753   5.443
 4776SOL     OW15226   0.138   1.323   6.155
 4776SOL    HW115227   0.096   1.304   6.066
 4776SOL    HW215228   0.080   1.388   6.206
 4777SOL     OW15229   1.449   0.387   2.402
 4777SOL    HW115230   1.428   0.292   2.380
 4777SOL    HW215231   1.416   0.408   2.494
 4778SOL     OW15232   2.072   1.475   0.057
 4778SOL    HW115233   2.049   1.565   0.093
 4778SOL    HW215234   1.998   1.411   0.079
 4779SOL     OW15235   5.665   0.477   4.605
 4779SOL    HW115236   5.601   0.463   4.680
 4779SOL    HW215237   5.752   0.434   4.627
 4780SOL     OW15238   5.159   2.756   5.171
 4780SOL    HW115239   5.216   2.677   5.152
 4780SOL    HW215240   5.085   2.731   5.234
 4781SOL     OW15241   2.220   5.708   2.035
 4781SOL    HW115242   2.314   5.709   1.999
 4781SOL    HW215243   2.200   5.618   2.073
 4782SOL     OW15244   6.514   7.016   4.222
 4782SOL    HW115245   6.600   6.967   4.214
 4782SOL    HW215246   6.531   0.083   4.256
 4783SOL     OW15247   6.914   3.356   6.220
 4783SOL    HW115248   6.870   3.440   6.251
 4783SOL    HW215249   6.929   3.295   6.298
 4784SOL     OW15250   5.546   3.147   6.665
 4784SOL    HW115251   5.549   3.060   6.616
 4784SOL    HW215252   5.496   3.135   6.751
 4785SOL     OW15253   0.128   6.705   4.182
 4785SOL    HW115254   0.081   6.689   4.268
 4785SOL    HW215255   0.196   6.777   4.193
 4786SOL     OW15256   0.831   5.847   0.002
 4786SOL    HW115257   0.763   5.801   6.971
 4786SOL    HW215258   0.892   5.901   6.969
 4787SOL     OW15259   3.289   1.590   3.951
 4787SOL    HW115260   3.285   1.553   3.858
 4787SOL    HW215261   3.262   1.686   3.950
 4788SOL     OW15262   6.545   6.104   0.667
 4788SOL    HW115263   6.451   6.073   0.654
 4788SOL    HW215264   6.603   6.026   0.689
 4789SOL     OW15265   5.698   1.203   2.768
 4789SOL    HW115266   5.732   1.287   2.727
 4789SOL    HW215267   5.761   1.174   2.840
 4790SOL     OW15268   6.699   1.713   4.774
 4790SOL    HW115269   6.686   1.805   4.736
 4790SOL    HW215270   6.730   1.651   4.702
 4791SOL     OW15271   0.220   0.156   0.275
 4791SOL    HW115272   0.152   0.152   0.348
 4791SOL    HW215273   0.174   0.170   0.187
 4792SOL     OW15274   2.022   3.264   2.931
 4792SOL    HW115275   2.057   3.303   2.846
 4792SOL    HW215276   1.936   3.310   2.956
 4793SOL     OW15277   1.055   3.477   5.486
 4793SOL    HW115278   1.111   3.517   5.558
 4793SOL    HW215279   1.097   3.494   5.397
 4794SOL     OW15280   4.463   1.730   4.708
 4794SOL    HW115281   4.371   1.699   4.728
 4794SOL    HW215282   4.529   1.660   4.736
 4795SOL     OW15283   6.945   1.043   6.631
 4795SOL    HW115284   7.010   1.021   6.559
 4795SOL    HW215285   6.975   1.126   6.678
 4796SOL     OW15286   4.373   1.344   5.250
 4796SOL    HW115287   4.400   1.440   5.244
 4796SOL    HW215288   4.298   1.326   5.186
 4797SOL     OW15289   1.578   5.328   5.217
 4797SOL    HW115290   1.666   5.330   5.264
 4797SOL    HW215291   1.589   5.282   5.129
 4798SOL     OW15292   4.180   5.036   6.918
 4798SOL    HW115293   4.212   5.048   7.012
 4798SOL    HW215294   4.089   5.076   6.909
 4799SOL     OW15295   4.218   2.894   6.970
 4799SOL    HW115296   4.207   2.845   0.031
 4799SOL    HW215297   4.128   2.914   6.931
 4800SOL     OW15298   0.437   4.112   0.578
 4800SOL    HW115299   0.475   4.071   0.495
 4800SOL    HW215300   0.483   4.199   0.596
 4801SOL     OW15301   5.403   2.530   1.967
 4801SOL    HW115302   5.490   2.482   1.978
 4801SOL    HW215303   5.413   2.603   1.898
 4802SOL     OW15304   6.541   0.504   4.333
 4802SOL    HW115305   6.627   0.543   4.301
 4802SOL    HW215306   6.500   0.565   4.400
 4803SOL     OW15307   5.477   3.775   5.904
 4803SOL    HW115308   5.492   3.680   5.877
 4803SOL    HW215309   5.462   3.831   5.822
 4804SOL     OW15310   4.740   1.530   0.658
 4804SOL    HW115311   4.716   1.594   0.585
 4804SOL    HW215312   4.827   1.558   0.699
 4805SOL     OW15313   6.479   1.509   0.034
 4805SOL    HW115314   6.510   1.528   6.966
 4805SOL    HW215315   6.541   1.553   0.099
 4806SOL     OW15316   0.798   1.005   3.573
 4806SOL    HW115317   0.887   0.998   3.529
 4806SOL    HW215318   0.801   0.959   3.662
 4807SOL     OW15319   0.428   3.772   5.211
 4807SOL    HW115320   0.370   3.849   5.184
 4807SOL    HW215321   0.401   3.690   5.160
 4808SOL     OW15322   3.618   6.184   1.471
 4808SOL    HW115323   3.677   6.227   1.402
 4808SOL    HW215324   3.589   6.094   1.438
 4809SOL     OW15325   3.395   3.799   1.292
 4809SOL    HW115326   3.456   3.869   1.328
 4809SOL    HW215327   3.417   3.711   1.333
 4810SOL     OW15328   0.602   5.013   4.180
 4810SOL    HW115329   0.674   5.041   4.117
 4810SOL    HW215330   0.638   4.946   4.244
 4811SOL     OW15331   2.978   3.819   4.355
 4811SOL    HW115332   3.066   3.867   4.363
 4811SOL    HW215333   2.941   3.802   4.447
 4812SOL     OW15334   1.215   0.225   2.870
 4812SOL    HW115335   1.257   0.152   2.923
 4812SOL    HW215336   1.131   0.255   2.916
 4813SOL     OW15337   6.800   1.713   5.566
 4813SOL    HW115338   6.777   1.711   5.469
 4813SOL    HW215339   6.780   1.624   5.606
 4814SOL     OW15340   6.082   3.917   1.417
 4814SOL    HW115341   6.168   3.871   1.395
 4814SOL    HW215342   6.005   3.856   1.397
 4815SOL     OW15343   5.494   4.564   1.984
 4815SOL    HW115344   5.475   4.468   2.006
 4815SOL    HW215345   5.593   4.575   1.969
 4816SOL     OW15346   2.635   1.627   2.843
 4816SOL    HW115347   2.683   1.540   2.858
 4816SOL    HW215348   2.684   1.681   2.775
 4817SOL     OW15349   4.217   2.206   0.560
 4817SOL    HW115350   4.194   2.259   0.479
 4817SOL    HW215351   4.134   2.163   0.596
 4818SOL     OW15352   3.950   0.439   5.076
 4818SOL    HW115353   4.020   0.487   5.024
 4818SOL    HW215354   3.895   0.506   5.126
 4819SOL     OW15355   3.744   0.264   1.081
 4819SOL    HW115356   3.791   0.176   1.076
 4819SOL    HW215357   3.812   0.338   1.077
 4820SOL     OW15358   5.946   3.985   1.955
 4820SOL    HW115359   5.974   3.911   1.893
 4820SOL    HW215360   5.883   3.949   2.024
 4821SOL     OW15361   6.919   5.217   1.605
 4821SOL    HW115362   6.899   5.272   1.523
 4821SOL    HW215363   6.999   5.160   1.588
 4822SOL     OW15364   1.352   4.102   2.357
 4822SOL    HW115365   1.369   4.097   2.455
 4822SOL    HW215366   1.394   4.023   2.312
 4823SOL     OW15367   1.771   0.956   4.112
 4823SOL    HW115368   1.719   1.001   4.039
 4823SOL    HW215369   1.729   0.978   4.201
 4824SOL     OW15370   5.501   2.704   1.735
 4824SOL    HW115371   5.402   2.721   1.734
 4824SOL    HW215372   5.548   2.780   1.778
 4825SOL     OW15373   0.686   2.907   3.147
 4825SOL    HW115374   0.707   2.905   3.049
 4825SOL    HW215375   0.703   2.817   3.187
 4826SOL     OW15376   6.351   6.105   0.157
 4826SOL    HW115377   6.265   6.067   0.191
 4826SOL    HW215378   6.372   6.189   0.206
 4827SOL     OW15379   5.665   1.163   1.278
 4827SOL    HW115380   5.634   1.202   1.366
 4827SOL    HW215381   5.590   1.111   1.237
 4828SOL     OW15382   4.852   3.627   6.743
 4828SOL    HW115383   4.771   3.666   6.787
 4828SOL    HW215384   4.932   3.641   6.801
 4829SOL     OW15385   3.577   0.167   5.412
 4829SOL    HW115386   3.548   0.142   5.505
 4829SOL    HW215387   3.582   0.266   5.404
 4830SOL     OW15388   4.076   6.677   5.257
 4830SOL    HW115389   3.987   6.722   5.245
 4830SOL    HW215390   4.097   6.622   5.177
 4831SOL     OW15391   6.620   4.068   5.623
 4831SOL    HW115392   6.610   3.991   5.559
 4831SOL    HW215393   6.680   4.040   5.699
 4832SOL     OW15394   2.339   2.786   6.621
 4832SOL    HW115395   2.347   2.851   6.545
 4832SOL    HW215396   2.256   2.732   6.609
 4833SOL     OW15397   4.804   1.693   2.967
 4833SOL    HW115398   4.824   1.754   3.043
 4833SOL    HW215399   4.765   1.607   3.001
 4834SOL     OW15400   5.927   0.703   3.070
 4834SOL    HW115401   5.902   0.667   2.980
 4834SOL    HW215402   5.863   0.776   3.095
 4835SOL     OW15403   2.016   0.465   6.057
 4835SOL    HW115404   2.075   0.457   5.976
 4835SOL    HW215405   1.921   0.478   6.027
 4836SOL     OW15406   5.505   2.756   2.819
 4836SOL    HW115407   5.486   2.750   2.917
 4836SOL    HW215408   5.602   2.775   2.805
 4837SOL     OW15409   1.236   4.214   0.590
 4837SOL    HW115410   1.212   4.301   0.634
 4837SOL    HW215411   1.224   4.221   0.491
 4838SOL     OW15412   2.759   5.911   2.612
 4838SOL    HW115413   2.685   5.896   2.677
 4838SOL    HW215414   2.820   5.982   2.647
 4839SOL     OW15415   0.688   6.509   6.256
 4839SOL    HW115416   0.619   6.507   6.328
 4839SOL    HW215417   0.779   6.506   6.297
 4840SOL     OW15418   6.952   6.380   6.876
 4840SOL    HW115419   6.882   6.323   6.833
 4840SOL    HW215420   6.928   6.476   6.864
 4841SOL     OW15421   2.233   5.695   2.408
 4841SOL    HW115422   2.273   5.604   2.409
 4841SOL    HW215423   2.282   5.753   2.344
 4842SOL     OW15424   3.497   6.505   1.381
 4842SOL    HW115425   3.412   6.549   1.355
 4842SOL    HW215426   3.535   6.457   1.301
 4843SOL     OW15427   0.369   2.986   0.311
 4843SOL    HW115428   0.270   2.997   0.316
 4843SOL    HW215429   0.412   3.073   0.286
 4844SOL     OW15430   6.962   1.765   5.795
 4844SOL    HW115431   6.907   1.754   5.713
 4844SOL    HW215432   6.963   1.861   5.822
 4845SOL     OW15433   5.711   5.628   3.735
 4845SOL    HW115434   5.735   5.623   3.832
 4845SOL    HW215435   5.789   5.600   3.680
 4846SOL     OW15436   1.017   4.786   0.801
 4846SOL    HW115437   0.970   4.704   0.768
 4846SOL    HW215438   1.110   4.788   0.762
 4847SOL     OW15439   4.349   2.341   4.641
 4847SOL    HW115440   4.304   2.379   4.560
 4847SOL    HW215441   4.315   2.248   4.657
 4848SOL     OW15442   2.956   2.145   2.284
 4848SOL    HW115443   2.925   2.168   2.192
 4848SOL    HW215444   2.992   2.227   2.329
 4849SOL     OW15445   1.313   6.208   0.203
 4849SOL    HW115446   1.375   6.130   0.192
 4849SOL    HW215447   1.258   6.196   0.285
 4850SOL     OW15448   4.100   0.414   2.476
 4850SOL    HW115449   4.107   0.315   2.488
 4850SOL    HW215450   4.009   0.438   2.444
 4851SOL     OW15451   5.145   0.011   5.179
 4851SOL    HW115452   5.084   6.960   5.159
 4851SOL    HW215453   5.116   0.091   5.127
 4852SOL     OW15454   1.739   1.848   1.130
 4852SOL    HW115455   1.697   1.792   1.202
 4852SOL    HW215456   1.706   1.942   1.137
 4853SOL     OW15457   3.129   0.925   1.864
 4853SOL    HW115458   3.107   0.899   1.770
 4853SOL    HW215459   3.173   1.014   1.865
 4854SOL     OW15460   4.834   6.839   0.484
 4854SOL    HW115461   4.832   6.928   0.529
 4854SOL    HW215462   4.741   6.804   0.477
 4855SOL     OW15463   0.439   2.398   2.593
 4855SOL    HW115464   0.447   2.470   2.525
 4855SOL    HW215465   0.504   2.325   2.573
 4856SOL     OW15466   2.417   4.407   3.685
 4856SOL    HW115467   2.396   4.359   3.600
 4856SOL    HW215468   2.339   4.402   3.747
 4857SOL     OW15469   0.239   1.976   5.460
 4857SOL    HW115470   0.217   2.018   5.372
 4857SOL    HW215471   0.335   1.992   5.482
 4858SOL     OW15472   0.834   1.253   3.687
 4858SOL    HW115473   0.914   1.289   3.639
 4858SOL    HW215474   0.808   1.165   3.647
 4859SOL     OW15475   2.585   5.412   5.277
 4859SOL    HW115476   2.605   5.323   5.235
 4859SOL    HW215477   2.541   5.397   5.366
 4860SOL     OW15478   4.548   4.671   0.776
 4860SOL    HW115479   4.637   4.716   0.770
 4860SOL    HW215480   4.558   4.583   0.823
 4861SOL     OW15481   5.175   3.779   5.872
 4861SOL    HW115482   5.146   3.810   5.963
 4861SOL    HW215483   5.275   3.782   5.866
 4862SOL     OW15484   1.912   6.366   2.141
 4862SOL    HW115485   1.868   6.456   2.145
 4862SOL    HW215486   1.865   6.309   2.074
 4863SOL     OW15487   5.903   4.559   6.325
 4863SOL    HW115488   5.860   4.515   6.246
 4863SOL    HW215489   6.001   4.570   6.308
 4864SOL     OW15490   3.031   1.407   3.916
 4864SOL    HW115491   3.127   1.417   3.890
 4864SOL    HW215492   3.021   1.327   3.975
 4865SOL     OW15493   1.816   6.710   4.835
 4865SOL    HW115494   1.885   6.679   4.769
 4865SOL    HW215495   1.805   6.642   4.907
 4866SOL     OW15496   6.066   4.501   6.738
 4866SOL    HW115497   6.004   4.425   6.720
 4866SOL    HW215498   6.160   4.468   6.738
 4867SOL     OW15499   5.188   6.871   2.765
 4867SOL    HW115500   5.245   6.880   2.684
 4867SOL    HW215501   5.229   6.804   2.827
 4868SOL     OW15502   0.031   4.756   1.206
 4868SOL    HW115503   6.963   4.760   1.242
 4868SOL    HW215504   0.030   4.722   1.112
 4869SOL     OW15505   0.407   1.274   0.244
 4869SOL    HW115506   0.468   1.234   0.176
 4869SOL    HW215507   0.344   1.337   0.198
 4870SOL     OW15508   0.746   5.991   2.227
 4870SOL    HW115509   0.752   6.036   2.316
 4870SOL    HW215510   0.715   6.056   2.158
 4871SOL     OW15511   1.605   1.586   4.665
 4871SOL    HW115512   1.576   1.494   4.640
 4871SOL    HW215513   1.676   1.616   4.602
 4872SOL     OW15514   5.707   6.967   2.968
 4872SOL    HW115515   5.757   6.923   3.042
 4872SOL    HW215516   5.631   7.019   3.006
 4873SOL     OW15517   6.883   5.653   5.533
 4873SOL    HW115518   6.865   5.628   5.438
 4873SOL    HW215519   6.932   5.740   5.536
 4874SOL     OW15520   5.532   2.476   2.623
 4874SOL    HW115521   5.476   2.549   2.661
 4874SOL    HW215522   5.624   2.481   2.663
 4875SOL     OW15523   5.482   6.370   5.044
 4875SOL    HW115524   5.487   6.355   4.945
 4875SOL    HW215525   5.386   6.376   5.071
 4876SOL     OW15526   1.422   0.793   3.044
 4876SOL    HW115527   1.360   0.732   3.093
 4876SOL    HW215528   1.385   0.813   2.954
 4877SOL     OW15529   0.175   1.888   4.967
 4877SOL    HW115530   0.088   1.901   5.014
 4877SOL    HW215531   0.240   1.844   5.029
 4878SOL     OW15532   0.509   2.660   2.405
 4878SOL    HW115533   0.598   2.615   2.399
 4878SOL    HW215534   0.519   2.758   2.393
 4879SOL     OW15535   5.150   1.671   3.066
 4879SOL    HW115536   5.247   1.680   3.087
 4879SOL    HW215537   5.133   1.584   3.021
 4880SOL     OW15538   6.858   2.570   6.349
 4880SOL    HW115539   6.853   2.657   6.302
 4880SOL    HW215540   6.949   2.558   6.388
 4881SOL     OW15541   1.893   2.595   1.589
 4881SOL    HW115542   1.793   2.593   1.576
 4881SOL    HW215543   1.936   2.633   1.507
 4882SOL     OW15544   4.080   1.825   4.200
 4882SOL    HW115545   4.155   1.782   4.149
 4882SOL    HW215546   4.077   1.787   4.293
 4883SOL     OW15547   6.384   4.103   1.256
 4883SOL    HW115548   6.397   4.025   1.194
 4883SOL    HW215549   6.406   4.188   1.208
 4884SOL     OW15550   2.201   6.528   1.459
 4884SOL    HW115551   2.162   6.548   1.369
 4884SOL    HW215552   2.182   6.605   1.520
 4885SOL     OW15553   1.075   4.885   0.431
 4885SOL    HW115554   1.150   4.946   0.457
 4885SOL    HW215555   0.988   4.929   0.453
 4886SOL     OW15556   2.530   1.026   1.856
 4886SOL    HW115557   2.576   0.938   1.866
 4886SOL    HW215558   2.432   1.012   1.844
 4887SOL     OW15559   6.563   6.817   1.129
 4887SOL    HW115560   6.652   6.781   1.156
 4887SOL    HW215561   6.517   6.856   1.209
 4888SOL     OW15562   3.925   6.355   3.147
 4888SOL    HW115563   3.953   6.445   3.115
 4888SOL    HW215564   3.848   6.366   3.211
 4889SOL     OW15565   6.949   3.053   3.722
 4889SOL    HW115566   6.910   3.048   3.814
 4889SOL    HW215567   6.903   2.987   3.662
 4890SOL     OW15568   0.354   1.355   4.838
 4890SOL    HW115569   0.426   1.344   4.907
 4890SOL    HW215570   0.370   1.290   4.764
 4891SOL     OW15571   2.868   5.545   6.368
 4891SOL    HW115572   2.775   5.523   6.398
 4891SOL    HW215573   2.911   5.607   6.433
 4892SOL     OW15574   5.227   5.886   3.079
 4892SOL    HW115575   5.290   5.963   3.068
 4892SOL    HW215576   5.140   5.919   3.114
 4893SOL     OW15577   0.870   3.338   1.500
 4893SOL    HW115578   0.886   3.432   1.530
 4893SOL    HW215579   0.827   3.338   1.410
 4894SOL     OW15580   4.981   0.535   1.712
 4894SOL    HW115581   4.967   0.464   1.643
 4894SOL    HW215582   5.079   0.550   1.725
 4895SOL     OW15583   7.024   4.526   4.474
 4895SOL    HW115584   0.055   4.444   4.482
 4895SOL    HW215585   0.057   4.607   4.488
 4896SOL     OW15586   1.821   5.064   4.472
 4896SOL    HW115587   1.745   5.010   4.438
 4896SOL    HW215588   1.907   5.029   4.435
 4897SOL     OW15589   1.820   6.567   5.030
 4897SOL    HW115590   1.913   6.538   5.052
 4897SOL    HW215591   1.768   6.576   5.115
 4898SOL     OW15592   4.763   1.820   3.737
 4898SOL    HW115593   4.735   1.877   3.660
 4898SOL    HW215594   4.696   1.828   3.811
 4899SOL     OW15595   6.853   5.992   1.717
 4899SOL    HW115596   6.840   5.965   1.812
 4899SOL    HW215597   6.932   6.053   1.709
 4900SOL     OW15598   3.551   6.034   5.951
 4900SOL    HW115599   3.617   6.092   5.999
 4900SOL    HW215600   3.559   5.940   5.986
 4901SOL     OW15601   0.589   1.636   5.791
 4901SOL    HW115602   0.557   1.567   5.856
 4901SOL    HW215603   0.525   1.713   5.790
 4902SOL     OW15604   1.558   0.174   5.853
 4902SOL    HW115605   1.555   0.084   5.898
 4902SOL    HW215606   1.581   0.244   5.921
 4903SOL     OW15607   5.152   3.989   2.531
 4903SOL    HW115608   5.233   3.966   2.585
 4903SOL    HW215609   5.168   3.964   2.435
 4904SOL     OW15610   1.941   7.021   0.495
 4904SOL    HW115611   1.859   6.965   0.485
 4904SOL    HW215612   1.984   0.008   0.405
 4905SOL     OW15613   3.043   6.233   2.936
 4905SOL    HW115614   3.093   6.150   2.957
 4905SOL    HW215615   3.001   6.269   3.019
 4906SOL     OW15616   4.917   3.327   5.057
 4906SOL    HW115617   4.926   3.325   4.957
 4906SOL    HW215618   4.884   3.417   5.085
 4907SOL     OW15619   5.157   1.858   6.695
 4907SOL    HW115620   5.152   1.771   6.647
 4907SOL    HW215621   5.251   1.873   6.728
 4908SOL     OW15622   4.241   6.602   0.039
 4908SOL    HW115623   4.174   6.620   0.110
 4908SOL    HW215624   4.199   6.548   6.991
 4909SOL     OW15625   5.046   4.577   4.449
 4909SOL    HW115626   5.097   4.651   4.492
 4909SOL    HW215627   4.948   4.592   4.463
 4910SOL     OW15628   4.643   1.916   5.566
 4910SOL    HW115629   4.690   1.831   5.543
 4910SOL    HW215630   4.642   1.928   5.665
 4911SOL     OW15631   0.068   2.648   2.272
 4911SOL    HW115632   6.996   2.637   2.252
 4911SOL    HW215633   0.081   2.728   2.331
 4912SOL     OW15634   5.555   2.318   3.796
 4912SOL    HW115635   5.458   2.307   3.776
 4912SOL    HW215636   5.603   2.347   3.713
 4913SOL     OW15637   0.046   3.208   5.664
 4913SOL    HW115638   7.020   3.282   5.708
 4913SOL    HW215639   0.144   3.225   5.671
 4914SOL     OW15640   4.630   0.598   3.669
 4914SOL    HW115641   4.547   0.609   3.723
 4914SOL    HW215642   4.636   0.671   3.601
 4915SOL     OW15643   3.702   5.313   6.025
 4915SOL    HW115644   3.717   5.366   6.109
 4915SOL    HW215645   3.786   5.312   5.971
 4916SOL     OW15646   6.394   2.600   4.008
 4916SOL    HW115647   6.442   2.685   4.031
 4916SOL    HW215648   6.425   2.567   3.919
 4917SOL     OW15649   4.388   6.337   0.351
 4917SOL    HW115650   4.370   6.276   0.274
 4917SOL    HW215651   4.339   6.424   0.336
 4918SOL     OW15652   6.299   5.034   2.868
 4918SOL    HW115653   6.223   5.047   2.931
 4918SOL    HW215654   6.384   5.064   2.912
 4919SOL     OW15655   3.536   3.896   2.351
 4919SOL    HW115656   3.548   3.798   2.363
 4919SOL    HW215657   3.513   3.916   2.255
 4920SOL     OW15658   6.377   1.004   5.539
 4920SOL    HW115659   6.389   1.097   5.574
 4920SOL    HW215660   6.378   0.940   5.615
 4921SOL     OW15661   0.177   6.657   2.322
 4921SOL    HW115662   0.163   6.721   2.398
 4921SOL    HW215663   0.212   6.707   2.243
 4922SOL     OW15664   3.444   2.097   6.625
 4922SOL    HW115665   3.423   2.024   6.689
 4922SOL    HW215666   3.533   2.080   6.582
 4923SOL     OW15667   3.399   1.757   1.579
 4923SOL    HW115668   3.459   1.736   1.502
 4923SOL    HW215669   3.305   1.732   1.557
 4924SOL     OW15670   2.684   0.539   4.993
 4924SOL    HW115671   2.695   0.466   4.925
 4924SOL    HW215672   2.653   0.500   5.079
 4925SOL     OW15673   5.494   6.098   3.533
 4925SOL    HW115674   5.547   6.017   3.557
 4925SOL    HW215675   5.510   6.170   3.601
 4926SOL     OW15676   5.391   2.575   0.994
 4926SOL    HW115677   5.425   2.531   1.077
 4926SOL    HW215678   5.314   2.635   1.016
 4927SOL     OW15679   3.396   1.310   6.794
 4927SOL    HW115680   3.363   1.359   6.713
 4927SOL    HW215681   3.460   1.367   6.844
 4928SOL     OW15682   0.048   1.921   0.997
 4928SOL    HW115683   7.000   1.861   0.967
 4928SOL    HW215684   0.010   2.009   1.025
 4929SOL     OW15685   0.638   6.492   4.926
 4929SOL    HW115686   0.593   6.406   4.950
 4929SOL    HW215687   0.725   6.472   4.881
 4930SOL     OW15688   5.451   6.398   2.214
 4930SOL    HW115689   5.456   6.454   2.297
 4930SOL    HW215690   5.512   6.436   2.144
 4931SOL     OW15691   6.575   5.647   0.567
 4931SOL    HW115692   6.524   5.690   0.641
 4931SOL    HW215693   6.513   5.629   0.490
 4932SOL     OW15694   3.043   3.234   1.779
 4932SOL    HW115695   3.110   3.161   1.772
 4932SOL    HW215696   2.958   3.207   1.734
 4933SOL     OW15697   2.554   6.401   5.851
 4933SOL    HW115698   2.551   6.396   5.751
 4933SOL    HW215699   2.530   6.312   5.889
 4934SOL     OW15700   4.362   5.332   2.699
 4934SOL    HW115701   4.334   5.420   2.660
 4934SOL    HW215702   4.284   5.270   2.701
 4935SOL     OW15703   0.355   1.357   6.332
 4935SOL    HW115704   0.354   1.274   6.388
 4935SOL    HW215705   0.283   1.351   6.263
 4936SOL     OW15706   3.661   2.917   0.456
 4936SOL    HW115707   3.582   2.869   0.420
 4936SOL    HW215708   3.652   2.929   0.555
 4937SOL     OW15709   4.554   2.577   4.981
 4937SOL    HW115710   4.548   2.599   4.884
 4937SOL    HW215711   4.515   2.486   4.997
 4938SOL     OW15712   3.895   5.205   6.638
 4938SOL    HW115713   3.930   5.274   6.702
 4938SOL    HW215714   3.801   5.228   6.613
 4939SOL     OW15715   4.585   3.096   6.145
 4939SOL    HW115716   4.627   3.007   6.161
 4939SOL    HW215717   4.535   3.125   6.227
 4940SOL     OW15718   1.785   6.336   4.522
 4940SOL    HW115719   1.733   6.278   4.460
 4940SOL    HW215720   1.723   6.383   4.584
 4941SOL     OW15721   5.344   0.450   0.717
 4941SOL    HW115722   5.380   0.362   0.748
 4941SOL    HW215723   5.326   0.509   0.796
 4942SOL     OW15724   5.530   3.921   5.641
 4942SOL    HW115725   5.551   4.012   5.678
 4942SOL    HW215726   5.476   3.931   5.558
 4943SOL     OW15727   5.196   2.613   1.418
 4943SOL    HW115728   5.205   2.562   1.503
 4943SOL    HW215729   5.216   2.553   1.341
 4944SOL     OW15730   2.474   4.566   2.679
 4944SOL    HW115731   2.433   4.648   2.639
 4944SOL    HW215732   2.517   4.590   2.767
 4945SOL     OW15733   0.667   6.279   4.649
 4945SOL    HW115734   0.707   6.369   4.664
 4945SOL    HW215735   0.713   6.235   4.572
 4946SOL     OW15736   0.906   4.620   2.226
 4946SOL    HW115737   0.883   4.524   2.245
 4946SOL    HW215738   0.992   4.643   2.271
 4947SOL     OW15739   0.174   6.972   0.693
 4947SOL    HW115740   0.232   6.986   0.774
 4947SOL    HW215741   0.175   6.875   0.668
 4948SOL     OW15742   1.569   1.482   2.172
 4948SOL    HW115743   1.543   1.391   2.140
 4948SOL    HW215744   1.515   1.551   2.125
 4949SOL     OW15745   5.062   1.637   4.491
 4949SOL    HW115746   5.004   1.667   4.567
 4949SOL    HW215747   5.099   1.718   4.444
 4950SOL     OW15748   2.841   5.293   5.379
 4950SOL    HW115749   2.804   5.386   5.382
 4950SOL    HW215750   2.837   5.259   5.285
 4951SOL     OW15751   4.461   1.858   3.444
 4951SOL    HW115752   4.404   1.795   3.391
 4951SOL    HW215753   4.458   1.949   3.403
 4952SOL     OW15754   0.572   5.503   4.818
 4952SOL    HW115755   0.532   5.581   4.770
 4952SOL    HW215756   0.515   5.480   4.897
 4953SOL     OW15757   1.766   5.714   1.538
 4953SOL    HW115758   1.862   5.689   1.550
 4953SOL    HW215759   1.759   5.786   1.469
 4954SOL     OW15760   5.581   5.747   6.924
 4954SOL    HW115761   5.568   5.844   6.941
 4954SOL    HW215762   5.635   5.707   6.998
 4955SOL     OW15763   0.808   6.995   1.550
 4955SOL    HW115764   0.856   0.047   1.590
 4955SOL    HW215765   0.862   6.912   1.561
 4956SOL     OW15766   5.218   6.137   4.414
 4956SOL    HW115767   5.251   6.208   4.475
 4956SOL    HW215768   5.237   6.047   4.454
 4957SOL     OW15769   1.087   6.710   3.955
 4957SOL    HW115770   1.143   6.732   4.034
 4957SOL    HW215771   1.008   6.656   3.984
 4958SOL     OW15772   6.982   5.870   6.983
 4958SOL    HW115773   0.008   5.943   0.003
 4958SOL    HW215774   6.891   5.864   7.023
 4959SOL     OW15775   1.068   0.958   1.419
 4959SOL    HW115776   1.081   0.885   1.351
 4959SOL    HW215777   1.103   1.044   1.382
 4960SOL     OW15778   3.714   6.136   5.166
 4960SOL    HW115779   3.800   6.148   5.216
 4960SOL    HW215780   3.659   6.066   5.213
 4961SOL     OW15781   4.279   0.171   5.374
 4961SOL    HW115782   4.228   0.254   5.351
 4961SOL    HW215783   4.368   0.196   5.412
 4962SOL     OW15784   6.621   2.132   1.739
 4962SOL    HW115785   6.645   2.039   1.770
 4962SOL    HW215786   6.528   2.154   1.769
 4963SOL     OW15787   6.961   4.920   1.943
 4963SOL    HW115788   7.024   4.919   2.021
 4963SOL    HW215789   6.898   4.997   1.953
 4964SOL     OW15790   3.458   6.539   3.106
 4964SOL    HW115791   3.497   6.625   3.075
 4964SOL    HW215792   3.528   6.468   3.105
 4965SOL     OW15793   6.825   6.418   4.697
 4965SOL    HW115794   6.835   6.322   4.672
 4965SOL    HW215795   6.912   6.465   4.682
 4966SOL     OW15796   3.761   4.871   3.760
 4966SOL    HW115797   3.787   4.967   3.744
 4966SOL    HW215798   3.839   4.812   3.740
 4967SOL     OW15799   4.578   1.862   6.106
 4967SOL    HW115800   4.655   1.920   6.130
 4967SOL    HW215801   4.592   1.822   6.016
 4968SOL     OW15802   5.928   3.723   5.726
 4968SOL    HW115803   5.914   3.763   5.816
 4968SOL    HW215804   6.022   3.690   5.718
 4969SOL     OW15805   0.673   1.782   1.975
 4969SOL    HW115806   0.613   1.779   1.895
 4969SOL    HW215807   0.655   1.702   2.032
 4970SOL     OW15808   1.148   2.964   6.154
 4970SOL    HW115809   1.164   2.994   6.060
 4970SOL    HW215810   1.051   2.943   6.165
 4971SOL     OW15811   6.361   6.045   4.037
 4971SOL    HW115812   6.370   5.955   3.996
 4971SOL    HW215813   6.439   6.102   4.012
 4972SOL     OW15814   1.452   2.459   5.930
 4972SOL    HW115815   1.519   2.491   5.863
 4972SOL    HW215816   1.394   2.536   5.958
 4973SOL     OW15817   6.203   6.152   3.368
 4973SOL    HW115818   6.138   6.121   3.437
 4973SOL    HW215819   6.168   6.234   3.323
 4974SOL     OW15820   4.596   6.934   1.375
 4974SOL    HW115821   4.617   6.938   1.277
 4974SOL    HW215822   4.526   7.002   1.397
 4975SOL     OW15823   5.455   6.038   0.518
 4975SOL    HW115824   5.466   6.069   0.612
 4975SOL    HW215825   5.533   6.068   0.463
 4976SOL     OW15826   4.186   0.183   4.685
 4976SOL    HW115827   4.146   0.262   4.640
 4976SOL    HW215828   4.127   0.155   4.761
 4977SOL     OW15829   3.499   3.989   0.496
 4977SOL    HW115830   3.557   3.913   0.526
 4977SOL    HW215831   3.424   3.954   0.441
 4978SOL     OW15832   6.038   2.830   5.981
 4978SOL    HW115833   6.020   2.866   5.890
 4978SOL    HW215834   6.136   2.811   5.991
 4979SOL     OW15835   1.564   1.845   5.107
 4979SOL    HW115836   1.595   1.751   5.120
 4979SOL    HW215837   1.534   1.883   5.195
 4980SOL     OW15838   2.511   5.241   2.413
 4980SOL    HW115839   2.595   5.292   2.433
 4980SOL    HW215840   2.494   5.243   2.314
 4981SOL     OW15841   4.727   5.875   5.476
 4981SOL    HW115842   4.719   5.962   5.427
 4981SOL    HW215843   4.816   5.870   5.520
 4982SOL     OW15844   2.155   2.579   0.387
 4982SOL    HW115845   2.126   2.491   0.349
 4982SOL    HW215846   2.246   2.602   0.353
 4983SOL     OW15847   5.227   2.946   4.462
 4983SOL    HW115848   5.276   2.860   4.447
 4983SOL    HW215849   5.177   2.941   4.548
 4984SOL     OW15850   4.824   3.774   2.815
 4984SOL    HW115851   4.837   3.854   2.874
 4984SOL    HW215852   4.900   3.711   2.827
 4985SOL     OW15853   5.730   3.708   2.872
 4985SOL    HW115854   5.809   3.653   2.843
 4985SOL    HW215855   5.732   3.796   2.824
 4986SOL     OW15856   4.801   4.410   2.581
 4986SOL    HW115857   4.788   4.325   2.531
 4986SOL    HW215858   4.827   4.482   2.517
 4987SOL     OW15859   0.459   3.703   1.152
 4987SOL    HW115860   0.525   3.672   1.084
 4987SOL    HW215861   0.369   3.663   1.131
 4988SOL     OW15862   0.646   2.498   5.197
 4988SOL    HW115863   0.710   2.531   5.127
 4988SOL    HW215864   0.681   2.520   5.288
 4989SOL     OW15865   0.337   0.985   0.250
 4989SOL    HW115866   0.321   1.082   0.230
 4989SOL    HW215867   0.409   0.978   0.320
 4990SOL     OW15868   1.057   2.648   5.299
 4990SOL    HW115869   0.959   2.643   5.281
 4990SOL    HW215870   1.105   2.670   5.214
 4991SOL     OW15871   1.751   2.490   4.487
 4991SOL    HW115872   1.752   2.541   4.573
 4991SOL    HW215873   1.775   2.551   4.411
 4992SOL     OW15874   3.647   0.437   5.390
 4992SOL    HW115875   3.685   0.495   5.318
 4992SOL    HW215876   3.693   0.457   5.477
 4993SOL     OW15877   2.927   5.636   4.074
 4993SOL    HW115878   2.872   5.714   4.104
 4993SOL    HW215879   2.876   5.584   4.006
 4994SOL     OW15880   6.949   6.554   2.242
 4994SOL    HW115881   0.011   6.598   2.267
 4994SOL    HW215882   6.908   6.603   2.166
 4995SOL     OW15883   6.181   2.712   5.546
 4995SOL    HW115884   6.205   2.799   5.590
 4995SOL    HW215885   6.097   2.676   5.587
 4996SOL     OW15886   0.406   1.204   4.367
 4996SOL    HW115887   0.401   1.204   4.467
 4996SOL    HW215888   0.388   1.296   4.333
 4997SOL     OW15889   0.314   2.422   3.355
 4997SOL    HW115890   0.331   2.520   3.358
 4997SOL    HW215891   0.318   2.384   3.447
 4998SOL     OW15892   1.342   5.466   5.100
 4998SOL    HW115893   1.424   5.419   5.132
 4998SOL    HW215894   1.347   5.563   5.123
 4999SOL     OW15895   6.441   4.352   1.124
 4999SOL    HW115896   6.478   4.349   1.031
 4999SOL    HW215897   6.392   4.438   1.138
 5000SOL     OW15898   6.935   5.458   4.348
 5000SOL    HW115899   6.938   5.376   4.291
 5000SOL    HW215900   7.000   5.526   4.314
 5001SOL     OW15901   4.576   4.147   5.853
 5001SOL    HW115902   4.668   4.116   5.831
 5001SOL    HW215903   4.509   4.098   5.797
 5002SOL     OW15904   2.156   1.691   1.594
 5002SOL    HW115905   2.103   1.648   1.668
 5002SOL    HW215906   2.253   1.686   1.615
 5003SOL     OW15907   6.170   5.469   3.155
 5003SOL    HW115908   6.203   5.390   3.206
 5003SOL    HW215909   6.107   5.439   3.084
 5004SOL     OW15910   3.487   4.997   0.117
 5004SOL    HW115911   3.501   5.031   0.024
 5004SOL    HW215912   3.393   5.018   0.147
 5005SOL     OW15913   4.802   2.388   6.956
 5005SOL    HW115914   4.784   2.475   7.002
 5005SOL    HW215915   4.875   2.339   7.004
 5006SOL     OW15916   5.224   4.747   3.634
 5006SOL    HW115917   5.171   4.666   3.611
 5006SOL    HW215918   5.165   4.815   3.678
 5007SOL     OW15919   4.173   1.623   4.746
 5007SOL    HW115920   4.133   1.672   4.824
 5007SOL    HW215921   4.205   1.533   4.776
 5008SOL     OW15922   6.967   1.401   4.006
 5008SOL    HW115923   6.950   1.444   4.095
 5008SOL    HW215924   6.980   1.472   3.937
 5009SOL     OW15925   1.955   6.161   3.865
 5009SOL    HW115926   2.007   6.202   3.790
 5009SOL    HW215927   1.860   6.193   3.862
 5010SOL     OW15928   3.784   3.283   4.486
 5010SOL    HW115929   3.818   3.373   4.460
 5010SOL    HW215930   3.760   3.231   4.404
 5011SOL     OW15931   1.407   3.079   2.899
 5011SOL    HW115932   1.400   3.142   2.822
 5011SOL    HW215933   1.321   3.031   2.911
 5012SOL     OW15934   6.031   3.074   6.721
 5012SOL    HW115935   6.021   3.132   6.640
 5012SOL    HW215936   5.945   3.024   6.737
 5013SOL     OW15937   4.972   1.296   6.007
 5013SOL    HW115938   5.030   1.299   5.926
 5013SOL    HW215939   4.890   1.351   5.992
 5014SOL     OW15940   6.558   6.679   6.903
 5014SOL    HW115941   6.474   6.731   6.922
 5014SOL    HW215942   6.638   6.734   6.929
 5015SOL     OW15943   5.309   2.333   3.515
 5015SOL    HW115944   5.286   2.298   3.605
 5015SOL    HW215945   5.364   2.265   3.466
 5016SOL     OW15946   2.734   6.843   2.100
 5016SOL    HW115947   2.760   6.894   2.182
 5016SOL    HW215948   2.635   6.828   2.099
 5017SOL     OW15949   2.344   2.649   1.516
 5017SOL    HW115950   2.366   2.686   1.426
 5017SOL    HW215951   2.427   2.611   1.558
 5018SOL     OW15952   6.648   5.032   4.364
 5018SOL    HW115953   6.740   5.067   4.382
 5018SOL    HW215954   6.646   4.934   4.380
 5019SOL     OW15955   2.836   5.172   6.199
 5019SOL    HW115956   2.748   5.202   6.236
 5019SOL    HW215957   2.831   5.073   6.180
 5020SOL     OW15958   4.968   5.473   6.312
 5020SOL    HW115959   4.871   5.495   6.302
 5020SOL    HW215960   5.019   5.515   6.237
 5021SOL     OW15961   2.297   4.988   6.107
 5021SOL    HW115962   2.285   5.017   6.012
 5021SOL    HW215963   2.331   4.894   6.109
 5022SOL     OW15964   1.619   4.922   0.810
 5022SOL    HW115965   1.714   4.937   0.838
 5022SOL    HW215966   1.590   4.831   0.840
 5023SOL     OW15967   6.586   3.449   2.953
 5023SOL    HW115968   6.681   3.440   2.926
 5023SOL    HW215969   6.579   3.454   3.052
 5024SOL     OW15970   5.442   3.589   5.685
 5024SOL    HW115971   5.423   3.641   5.602
 5024SOL    HW215972   5.381   3.510   5.688
 5025SOL     OW15973   6.422   1.848   2.930
 5025SOL    HW115974   6.427   1.883   3.024
 5025SOL    HW215975   6.385   1.755   2.931
 5026SOL     OW15976   0.541   6.193   2.682
 5026SOL    HW115977   0.609   6.136   2.635
 5026SOL    HW215978   0.475   6.134   2.728
 5027SOL     OW15979   0.855   6.630   3.380
 5027SOL    HW115980   0.952   6.643   3.357
 5027SOL    HW215981   0.845   6.547   3.435
 5028SOL     OW15982   1.409   0.572   2.836
 5028SOL    HW115983   1.457   0.630   2.771
 5028SOL    HW215984   1.466   0.558   2.917
 5029SOL     OW15985   0.145   1.056   2.740
 5029SOL    HW115986   0.241   1.070   2.763
 5029SOL    HW215987   0.133   1.063   2.641
 5030SOL     OW15988   1.700   5.569   6.837
 5030SOL    HW115989   1.611   5.610   6.853
 5030SOL    HW215990   1.704   5.479   6.880
 5031SOL     OW15991   5.768   0.399   5.207
 5031SOL    HW115992   5.756   0.302   5.186
 5031SOL    HW215993   5.689   0.432   5.259
 5032SOL     OW15994   1.170   6.286   1.417
 5032SOL    HW115995   1.116   6.256   1.338
 5032SOL    HW215996   1.240   6.219   1.437
 5033SOL     OW15997   1.227   3.940   5.863
 5033SOL    HW115998   1.267   4.030   5.847
 5033SOL    HW215999   1.185   3.907   5.778
 5034SOL     OW16000   6.700   3.898   0.170
 5034SOL    HW116001   6.732   3.965   0.238
 5034SOL    HW216002   6.712   3.935   0.078
 5035SOL     OW16003   6.138   4.175   1.366
 5035SOL    HW116004   6.225   4.175   1.316
 5035SOL    HW216005   6.111   4.081   1.387
 5036SOL     OW16006   1.851   0.893   2.511
 5036SOL    HW116007   1.857   0.795   2.532
 5036SOL    HW216008   1.807   0.941   2.587
 5037SOL     OW16009   4.638   2.603   2.993
 5037SOL    HW116010   4.669   2.532   2.929
 5037SOL    HW216011   4.596   2.559   3.072
 5038SOL     OW16012   2.477   6.292   6.214
 5038SOL    HW116013   2.552   6.231   6.240
 5038SOL    HW216014   2.507   6.387   6.218
 5039SOL     OW16015   1.759   1.546   3.669
 5039SOL    HW116016   1.680   1.499   3.629
 5039SOL    HW216017   1.818   1.582   3.595
 5040SOL     OW16018   2.928   3.589   6.230
 5040SOL    HW116019   2.844   3.562   6.182
 5040SOL    HW216020   3.003   3.592   6.164
 5041SOL     OW16021   1.096   5.542   1.182
 5041SOL    HW116022   1.058   5.498   1.100
 5041SOL    HW216023   1.027   5.603   1.221
 5042SOL     OW16024   5.897   2.074   6.142
 5042SOL    HW116025   5.806   2.035   6.129
 5042SOL    HW216026   5.942   2.028   6.219
 5043SOL     OW16027   4.352   0.077   3.232
 5043SOL    HW116028   4.328   0.091   3.328
 5043SOL    HW216029   4.406   7.018   3.224
 5044SOL     OW16030   6.032   4.162   2.848
 5044SOL    HW116031   5.955   4.220   2.874
 5044SOL    HW216032   5.998   4.075   2.812
 5045SOL     OW16033   6.394   3.340   6.121
 5045SOL    HW116034   6.383   3.269   6.191
 5045SOL    HW216035   6.376   3.429   6.163
 5046SOL     OW16036   3.114   3.387   5.370
 5046SOL    HW116037   3.019   3.396   5.402
 5046SOL    HW216038   3.115   3.337   5.284
 5047SOL     OW16039   1.429   1.107   2.804
 5047SOL    HW116040   1.367   1.034   2.831
 5047SOL    HW216041   1.511   1.067   2.763
 5048SOL     OW16042   5.985   3.307   1.384
 5048SOL    HW116043   6.084   3.291   1.387
 5048SOL    HW216044   5.961   3.383   1.445
 5049SOL     OW16045   1.479   2.597   2.585
 5049SOL    HW116046   1.476   2.497   2.590
 5049SOL    HW216047   1.531   2.633   2.663
 5050SOL     OW16048   0.987   3.354   0.953
 5050SOL    HW116049   1.070   3.303   0.976
 5050SOL    HW216050   0.933   3.301   0.887
 5051SOL     OW16051   2.900   4.026   0.400
 5051SOL    HW116052   2.809   4.047   0.436
 5051SOL    HW216053   2.892   3.960   0.325
 5052SOL     OW16054   5.717   3.508   0.650
 5052SOL    HW116055   5.674   3.424   0.685
 5052SOL    HW216056   5.784   3.484   0.580
 5053SOL     OW16057   2.019   4.654   0.371
 5053SOL    HW116058   2.004   4.678   0.275
 5053SOL    HW216059   1.935   4.615   0.409
 5054SOL     OW16060   3.974   5.805   4.988
 5054SOL    HW116061   3.915   5.886   4.981
 5054SOL    HW216062   3.986   5.780   5.084
 5055SOL     OW16063   1.703   2.272   3.946
 5055SOL    HW116064   1.699   2.248   4.042
 5055SOL    HW216065   1.719   2.190   3.891
 5056SOL     OW16066   2.028   2.322   5.316
 5056SOL    HW116067   1.993   2.265   5.391
 5056SOL    HW216068   2.127   2.331   5.325
 5057SOL     OW16069   0.778   4.771   2.965
 5057SOL    HW116070   0.754   4.755   3.061
 5057SOL    HW216071   0.816   4.687   2.925
 5058SOL     OW16072   3.377   3.569   6.884
 5058SOL    HW116073   3.425   3.514   6.815
 5058SOL    HW216074   3.376   3.520   6.971
 5059SOL     OW16075   4.328   1.752   2.813
 5059SOL    HW116076   4.337   1.690   2.892
 5059SOL    HW216077   4.374   1.711   2.734
 5060SOL     OW16078   0.124   3.399   5.349
 5060SOL    HW116079   0.207   3.367   5.396
 5060SOL    HW216080   0.120   3.499   5.353
 5061SOL     OW16081   3.815   2.271   5.548
 5061SOL    HW116082   3.886   2.316   5.493
 5061SOL    HW216083   3.737   2.332   5.559
 5062SOL     OW16084   5.267   1.011   3.780
 5062SOL    HW116085   5.304   0.932   3.733
 5062SOL    HW216086   5.340   1.077   3.797
 5063SOL     OW16087   0.937   1.390   1.760
 5063SOL    HW116088   0.948   1.307   1.815
 5063SOL    HW216089   0.941   1.367   1.663
 5064SOL     OW16090   5.197   5.768   0.618
 5064SOL    HW116091   5.097   5.776   0.617
 5064SOL    HW216092   5.235   5.838   0.679
 5065SOL     OW16093   2.410   1.026   2.545
 5065SOL    HW116094   2.348   1.085   2.596
 5065SOL    HW216095   2.360   0.947   2.510
 5066SOL     OW16096   2.371   4.821   2.650
 5066SOL    HW116097   2.401   4.899   2.595
 5066SOL    HW216098   2.400   4.834   2.745
 5067SOL     OW16099   5.460   2.727   0.503
 5067SOL    HW116100   5.419   2.675   0.577
 5067SOL    HW216101   5.547   2.767   0.534
 5068SOL     OW16102   2.630   5.726   0.438
 5068SOL    HW116103   2.569   5.657   0.401
 5068SOL    HW216104   2.725   5.698   0.423
 5069SOL     OW16105   3.501   5.103   5.169
 5069SOL    HW116106   3.435   5.070   5.102
 5069SOL    HW216107   3.527   5.028   5.229
 5070SOL     OW16108   5.845   3.554   4.844
 5070SOL    HW116109   5.861   3.549   4.745
 5070SOL    HW216110   5.931   3.573   4.891
 5071SOL     OW16111   2.512   6.817   4.004
 5071SOL    HW116112   2.469   6.798   4.092
 5071SOL    HW216113   2.544   6.732   3.963
 5072SOL     OW16114   0.923   1.414   0.823
 5072SOL    HW116115   0.864   1.345   0.864
 5072SOL    HW216116   0.873   1.465   0.754
 5073SOL     OW16117   2.500   0.416   2.409
 5073SOL    HW116118   2.527   0.398   2.314
 5073SOL    HW216119   2.402   0.397   2.420
 5074SOL     OW16120   3.403   2.427   1.744
 5074SOL    HW116121   3.479   2.382   1.792
 5074SOL    HW216122   3.325   2.365   1.743
 5075SOL     OW16123   0.416   3.419   0.003
 5075SOL    HW116124   0.414   3.321   0.023
 5075SOL    HW216125   0.451   3.469   0.083
 5076SOL     OW16126   6.277   7.006   6.266
 5076SOL    HW116127   6.236   6.987   6.355
 5076SOL    HW216128   6.358   6.949   6.254
 5077SOL     OW16129   0.405   4.636   4.089
 5077SOL    HW116130   0.404   4.538   4.108
 5077SOL    HW216131   0.455   4.684   4.162
 5078SOL     OW16132   0.526   2.023   4.194
 5078SOL    HW116133   0.580   2.055   4.116
 5078SOL    HW216134   0.575   2.043   4.279
 5079SOL     OW16135   1.757   2.897   5.750
 5079SOL    HW116136   1.658   2.912   5.754
 5079SOL    HW216137   1.802   2.949   5.822
 5080SOL     OW16138   5.774   5.967   0.072
 5080SOL    HW116139   5.791   5.921   0.159
 5080SOL    HW216140   5.675   5.975   0.058
 5081SOL     OW16141   2.616   5.466   5.577
 5081SOL    HW116142   2.613   5.543   5.513
 5081SOL    HW216143   2.700   5.470   5.630
 5082SOL     OW16144   5.333   6.103   1.616
 5082SOL    HW116145   5.337   6.015   1.569
 5082SOL    HW216146   5.375   6.173   1.558
 5083SOL     OW16147   1.484   0.242   3.503
 5083SOL    HW116148   1.406   0.201   3.550
 5083SOL    HW216149   1.451   0.313   3.440
 5084SOL     OW16150   2.259   4.485   5.521
 5084SOL    HW116151   2.207   4.542   5.457
 5084SOL    HW216152   2.308   4.544   5.585
 5085SOL     OW16153   0.498   4.193   5.051
 5085SOL    HW116154   0.547   4.120   5.004
 5085SOL    HW216155   0.507   4.278   4.999
 5086SOL     OW16156   1.911   5.224   1.859
 5086SOL    HW116157   2.003   5.213   1.897
 5086SOL    HW216158   1.865   5.300   1.904
 5087SOL     OW16159   6.409   4.519   2.169
 5087SOL    HW116160   6.463   4.452   2.219
 5087SOL    HW216161   6.320   4.480   2.146
 5088SOL     OW16162   5.119   5.915   1.874
 5088SOL    HW116163   5.028   5.910   1.914
 5088SOL    HW216164   5.153   6.009   1.881
 5089SOL     OW16165   5.190   5.284   5.721
 5089SOL    HW116166   5.284   5.316   5.734
 5089SOL    HW216167   5.133   5.316   5.797
 5090SOL     OW16168   2.900   6.674   5.436
 5090SOL    HW116169   2.903   6.654   5.534
 5090SOL    HW216170   2.861   6.596   5.387
 5091SOL     OW16171   6.871   6.858   6.478
 5091SOL    HW116172   6.834   6.771   6.510
 5091SOL    HW216173   6.931   6.842   6.400
 5092SOL     OW16174   3.107   3.190   4.093
 5092SOL    HW116175   3.191   3.139   4.075
 5092SOL    HW216176   3.123   3.257   4.166
 5093SOL     OW16177   2.749   2.030   2.591
 5093SOL    HW116178   2.695   2.100   2.544
 5093SOL    HW216179   2.846   2.053   2.586
 5094SOL     OW16180   1.769   5.625   5.088
 5094SOL    HW116181   1.720   5.647   5.173
 5094SOL    HW216182   1.748   5.693   5.018
 5095SOL     OW16183   6.409   1.413   3.095
 5095SOL    HW116184   6.502   1.445   3.108
 5095SOL    HW216185   6.410   1.320   3.057
 5096SOL     OW16186   6.098   2.838   5.336
 5096SOL    HW116187   6.000   2.819   5.332
 5096SOL    HW216188   6.141   2.777   5.403
 5097SOL     OW16189   1.213   0.495   5.635
 5097SOL    HW116190   1.259   0.570   5.684
 5097SOL    HW216191   1.280   0.426   5.610
 5098SOL     OW16192   3.500   3.264   0.728
 5098SOL    HW116193   3.549   3.256   0.641
 5098SOL    HW216194   3.544   3.334   0.785
 5099SOL     OW16195   1.652   0.248   2.085
 5099SOL    HW116196   1.564   0.249   2.132
 5099SOL    HW216197   1.661   0.331   2.029
 5100SOL     OW16198   5.194   3.525   2.284
 5100SOL    HW116199   5.130   3.564   2.350
 5100SOL    HW216200   5.150   3.450   2.235
 5101SOL     OW16201   3.877   0.762   6.683
 5101SOL    HW116202   3.894   0.777   6.780
 5101SOL    HW216203   3.780   0.747   6.668
 5102SOL     OW16204   4.635   4.626   4.177
 5102SOL    HW116205   4.712   4.585   4.129
 5102SOL    HW216206   4.569   4.661   4.110
 5103SOL     OW16207   0.593   1.333   6.568
 5103SOL    HW116208   0.605   1.431   6.583
 5103SOL    HW216209   0.667   1.283   6.612
 5104SOL     OW16210   3.785   3.298   2.034
 5104SOL    HW116211   3.751   3.221   1.981
 5104SOL    HW216212   3.755   3.288   2.129
 5105SOL     OW16213   4.167   2.993   6.050
 5105SOL    HW116214   4.202   2.932   5.980
 5105SOL    HW216215   4.078   2.959   6.083
 5106SOL     OW16216   4.412   2.319   0.719
 5106SOL    HW116217   4.349   2.358   0.786
 5106SOL    HW216218   4.362   2.261   0.655
 5107SOL     OW16219   4.760   3.816   0.027
 5107SOL    HW116220   4.830   3.874   7.009
 5107SOL    HW216221   4.699   3.780   6.982
 5108SOL     OW16222   4.553   4.830   0.486
 5108SOL    HW116223   4.464   4.858   0.521
 5108SOL    HW216224   4.622   4.841   0.557
 5109SOL     OW16225   1.288   2.859   1.344
 5109SOL    HW116226   1.323   2.782   1.291
 5109SOL    HW216227   1.338   2.867   1.430
 5110SOL     OW16228   4.544   6.991   5.435
 5110SOL    HW116229   4.500   6.907   5.403
 5110SOL    HW216230   4.570   6.981   5.531
 5111SOL     OW16231   0.369   6.529   4.654
 5111SOL    HW116232   0.349   6.467   4.578
 5111SOL    HW216233   0.468   6.537   4.666
 5112SOL     OW16234   6.653   6.435   3.302
 5112SOL    HW116235   6.651   6.337   3.284
 5112SOL    HW216236   6.564   6.464   3.339
 5113SOL     OW16237   1.411   3.858   6.874
 5113SOL    HW116238   1.383   3.926   6.807
 5113SOL    HW216239   1.511   3.854   6.878
 5114SOL     OW16240   4.919   4.732   1.113
 5114SOL    HW116241   4.845   4.799   1.113
 5114SOL    HW216242   5.004   4.776   1.144
 5115SOL     OW16243   1.884   4.145   0.849
 5115SOL    HW116244   1.823   4.092   0.908
 5115SOL    HW216245   1.913   4.227   0.898
 5116SOL     OW16246   1.105   0.474   5.927
 5116SOL    HW116247   1.042   0.549   5.907
 5116SOL    HW216248   1.063   0.411   5.993
 5117SOL     OW16249   0.940   2.737   3.575
 5117SOL    HW116250   0.997   2.654   3.577
 5117SOL    HW216251   0.996   2.815   3.548
 5118SOL     OW16252   4.483   5.456   6.587
 5118SOL    HW116253   4.490   5.513   6.504
 5118SOL    HW216254   4.472   5.361   6.561
 5119SOL     OW16255   5.512   0.853   0.433
 5119SOL    HW116256   5.462   0.771   0.462
 5119SOL    HW216257   5.523   0.851   0.333
 5120SOL     OW16258   5.492   6.491   6.743
 5120SOL    HW116259   5.399   6.488   6.778
 5120SOL    HW216260   5.511   6.409   6.689
 5121SOL     OW16261   1.594   3.529   6.413
 5121SOL    HW116262   1.544   3.485   6.338
 5121SOL    HW216263   1.611   3.462   6.485
 5122SOL     OW16264   5.069   4.950   3.729
 5122SOL    HW116265   5.084   4.966   3.827
 5122SOL    HW216266   4.977   4.980   3.704
 5123SOL     OW16267   4.924   3.430   1.460
 5123SOL    HW116268   4.943   3.336   1.431
 5123SOL    HW216269   4.985   3.454   1.536
 5124SOL     OW16270   2.283   6.301   5.177
 5124SOL    HW116271   2.270   6.357   5.258
 5124SOL    HW216272   2.217   6.226   5.177
 5125SOL     OW16273   6.565   1.818   3.575
 5125SOL    HW116274   6.516   1.756   3.636
 5125SOL    HW216275   6.507   1.896   3.552
 5126SOL     OW16276   1.847   0.379   1.420
 5126SOL    HW116277   1.889   0.400   1.331
 5126SOL    HW216278   1.914   0.396   1.493
 5127SOL     OW16279   2.360   5.299   0.166
 5127SOL    HW116280   2.432   5.311   0.236
 5127SOL    HW216281   2.356   5.382   0.110
 5128SOL     OW16282   6.239   0.210   1.909
 5128SOL    HW116283   6.182   0.150   1.854
 5128SOL    HW216284   6.184   0.286   1.944
 5129SOL     OW16285   5.566   6.603   1.006
 5129SOL    HW116286   5.483   6.654   0.986
 5129SOL    HW216287   5.622   6.596   0.924
 5130SOL     OW16288   6.954   4.530   2.997
 5130SOL    HW116289   6.887   4.600   3.022
 5130SOL    HW216290   6.921   4.440   3.027
 5131SOL     OW16291   2.550   2.501   2.668
 5131SOL    HW116292   2.498   2.419   2.693
 5131SOL    HW216293   2.514   2.580   2.717
 5132SOL     OW16294   2.835   6.024   5.505
 5132SOL    HW116295   2.846   5.930   5.472
 5132SOL    HW216296   2.899   6.084   5.457
 5133SOL     OW16297   3.851   6.030   5.689
 5133SOL    HW116298   3.849   5.931   5.700
 5133SOL    HW216299   3.940   6.065   5.717
 5134SOL     OW16300   6.228   4.317   0.002
 5134SOL    HW116301   6.325   4.297   7.012
 5134SOL    HW216302   6.186   4.240   0.050
 5135SOL     OW16303   5.585   1.751   4.476
 5135SOL    HW116304   5.638   1.669   4.456
 5135SOL    HW216305   5.554   1.749   4.571
 5136SOL     OW16306   4.205   0.943   4.342
 5136SOL    HW116307   4.221   1.013   4.412
 5136SOL    HW216308   4.255   0.860   4.366
 5137SOL     OW16309   3.493   4.445   0.128
 5137SOL    HW116310   3.468   4.537   0.160
 5137SOL    HW216311   3.414   4.404   0.083
 5138SOL     OW16312   2.398   3.215   5.958
 5138SOL    HW116313   2.452   3.137   5.990
 5138SOL    HW216314   2.414   3.293   6.019
 5139SOL     OW16315   0.742   0.254   3.254
 5139SOL    HW116316   0.822   0.250   3.193
 5139SOL    HW216317   0.668   0.199   3.215
 5140SOL     OW16318   3.790   2.733   1.487
 5140SOL    HW116319   3.789   2.637   1.515
 5140SOL    HW216320   3.874   2.752   1.435
 5141SOL     OW16321   6.758   3.742   6.233
 5141SOL    HW116322   6.732   3.654   6.273
 5141SOL    HW216323   6.857   3.754   6.241
 5142SOL     OW16324   5.285   3.288   4.122
 5142SOL    HW116325   5.339   3.251   4.047
 5142SOL    HW216326   5.279   3.388   4.113
 5143SOL     OW16327   6.704   4.794   4.509
 5143SOL    HW116328   6.703   4.694   4.513
 5143SOL    HW216329   6.718   4.830   4.601
 5144SOL     OW16330   1.521   1.110   4.584
 5144SOL    HW116331   1.425   1.085   4.588
 5144SOL    HW216332   1.532   1.194   4.532
 5145SOL     OW16333   3.130   5.888   6.200
 5145SOL    HW116334   3.060   5.818   6.183
 5145SOL    HW216335   3.145   5.940   6.115
 5146SOL     OW16336   2.315   4.095   6.832
 5146SOL    HW116337   2.396   4.154   6.840
 5146SOL    HW216338   2.334   4.023   6.765
 5147SOL     OW16339   6.255   5.043   6.921
 5147SOL    HW116340   6.276   5.095   6.838
 5147SOL    HW216341   6.337   4.997   6.954
 5148SOL     OW16342   0.567   6.906   1.961
 5148SOL    HW116343   0.480   6.932   1.920
 5148SOL    HW216344   0.591   6.970   2.034
 5149SOL     OW16345   6.535   1.011   5.039
 5149SOL    HW116346   6.484   1.003   5.125
 5149SOL    HW216347   6.614   0.950   5.041
 5150SOL     OW16348   1.607   5.248   4.269
 5150SOL    HW116349   1.688   5.206   4.229
 5150SOL    HW216350   1.553   5.179   4.317
 5151SOL     OW16351   4.382   1.076   6.257
 5151SOL    HW116352   4.382   0.976   6.248
 5151SOL    HW216353   4.466   1.105   6.303
 5152SOL     OW16354   0.925   5.327   0.530
 5152SOL    HW116355   0.879   5.342   0.443
 5152SOL    HW216356   1.020   5.298   0.513
 5153SOL     OW16357   1.890   1.862   0.916
 5153SOL    HW116358   1.830   1.846   0.995
 5153SOL    HW216359   1.839   1.909   0.844
 5154SOL     OW16360   2.042   2.993   4.537
 5154SOL    HW116361   2.073   3.011   4.630
 5154SOL    HW216362   2.111   2.939   4.488
 5155SOL     OW16363   3.298   0.906   2.102
 5155SOL    HW116364   3.358   0.985   2.110
 5155SOL    HW216365   3.274   0.891   2.006
 5156SOL     OW16366   5.958   3.433   5.630
 5156SOL    HW116367   5.876   3.464   5.678
 5156SOL    HW216368   6.033   3.497   5.645
 5157SOL     OW16369   5.710   3.138   3.919
 5157SOL    HW116370   5.778   3.113   3.988
 5157SOL    HW216371   5.734   3.094   3.832
 5158SOL     OW16372   3.853   0.947   0.514
 5158SOL    HW116373   3.851   0.954   0.614
 5158SOL    HW216374   3.913   1.017   0.476
 5159SOL     OW16375   1.347   2.687   4.444
 5159SOL    HW116376   1.426   2.711   4.501
 5159SOL    HW216377   1.276   2.647   4.501
 5160SOL     OW16378   2.234   2.697   3.905
 5160SOL    HW116379   2.219   2.657   3.995
 5160SOL    HW216380   2.155   2.678   3.846
 5161SOL     OW16381   1.562   3.065   6.796
 5161SOL    HW116382   1.464   3.080   6.778
 5161SOL    HW216383   1.610   3.152   6.795
 5162SOL     OW16384   6.183   6.451   5.315
 5162SOL    HW116385   6.215   6.437   5.408
 5162SOL    HW216386   6.261   6.445   5.252
 5163SOL     OW16387   5.399   3.463   0.841
 5163SOL    HW116388   5.446   3.402   0.905
 5163SOL    HW216389   5.347   3.409   0.775
 5164SOL     OW16390   5.800   5.187   6.046
 5164SOL    HW116391   5.793   5.234   6.134
 5164SOL    HW216392   5.850   5.101   6.059
 5165SOL     OW16393   6.421   4.404   4.128
 5165SOL    HW116394   6.365   4.437   4.053
 5165SOL    HW216395   6.496   4.348   4.092
 5166SOL     OW16396   1.234   0.637   1.943
 5166SOL    HW116397   1.168   0.675   1.879
 5166SOL    HW216398   1.198   0.553   1.983
 5167SOL     OW16399   0.780   6.599   5.940
 5167SOL    HW116400   0.699   6.546   5.967
 5167SOL    HW216401   0.860   6.566   5.989
 5168SOL     OW16402   3.621   1.865   3.022
 5168SOL    HW116403   3.607   1.912   2.935
 5168SOL    HW216404   3.549   1.892   3.087
 5169SOL     OW16405   3.728   4.423   6.278
 5169SOL    HW116406   3.828   4.420   6.275
 5169SOL    HW216407   3.695   4.360   6.349
 5170SOL     OW16408   4.836   4.437   4.120
 5170SOL    HW116409   4.792   4.386   4.195
 5170SOL    HW216410   4.932   4.452   4.143
 5171SOL     OW16411   2.672   4.670   4.710
 5171SOL    HW116412   2.651   4.633   4.620
 5171SOL    HW216413   2.607   4.634   4.777
 5172SOL     OW16414   2.030   4.808   0.642
 5172SOL    HW116415   2.037   4.755   0.558
 5172SOL    HW216416   1.973   4.758   0.708
 5173SOL     OW16417   6.186   3.868   5.857
 5173SOL    HW116418   6.236   3.924   5.791
 5173SOL    HW216419   6.089   3.892   5.854
 5174SOL     OW16420   1.168   4.308   5.685
 5174SOL    HW116421   1.205   4.350   5.602
 5174SOL    HW216422   1.120   4.224   5.660
 5175SOL     OW16423   0.299   5.004   6.548
 5175SOL    HW116424   0.266   4.951   6.626
 5175SOL    HW216425   0.252   5.092   6.545
 5176SOL     OW16426   5.118   3.415   0.181
 5176SOL    HW116427   5.168   3.438   0.265
 5176SOL    HW216428   5.044   3.351   0.203
 5177SOL     OW16429   5.809   6.856   6.801
 5177SOL    HW116430   5.829   6.863   6.899
 5177SOL    HW216431   5.714   6.826   6.788
 5178SOL     OW16432   2.734   1.814   1.601
 5178SOL    HW116433   2.681   1.887   1.557
 5178SOL    HW216434   2.676   1.733   1.610
 5179SOL     OW16435   2.625   6.006   5.678
 5179SOL    HW116436   2.699   5.985   5.614
 5179SOL    HW216437   2.537   5.989   5.633
 5180SOL     OW16438   3.542   2.616   0.972
 5180SOL    HW116439   3.550   2.593   0.875
 5180SOL    HW216440   3.595   2.551   1.026
 5181SOL     OW16441   3.331   5.341   2.555
 5181SOL    HW116442   3.289   5.421   2.598
 5181SOL    HW216443   3.361   5.277   2.625
 5182SOL     OW16444   4.931   4.233   1.660
 5182SOL    HW116445   4.907   4.288   1.580
 5182SOL    HW216446   5.008   4.276   1.707
 5183SOL     OW16447   4.248   0.343   3.173
 5183SOL    HW116448   4.239   0.350   3.074
 5183SOL    HW216449   4.291   0.256   3.197
 5184SOL     OW16450   0.650   1.757   3.163
 5184SOL    HW116451   0.686   1.676   3.116
 5184SOL    HW216452   0.556   1.773   3.134
 5185SOL     OW16453   4.123   0.141   2.491
 5185SOL    HW116454   4.174   0.146   2.405
 5185SOL    HW216455   4.157   0.064   2.545
 5186SOL     OW16456   5.951   4.134   0.534
 5186SOL    HW116457   5.891   4.170   0.463
 5186SOL    HW216458   6.045   4.133   0.502
 5187SOL     OW16459   5.207   1.886   4.037
 5187SOL    HW116460   5.186   1.789   4.038
 5187SOL    HW216461   5.206   1.921   4.131
 5188SOL     OW16462   1.124   3.527   4.709
 5188SOL    HW116463   1.128   3.529   4.609
 5188SOL    HW216464   1.136   3.433   4.741
 5189SOL     OW16465   4.811   5.402   6.607
 5189SOL    HW116466   4.827   5.484   6.552
 5189SOL    HW216467   4.798   5.323   6.547
 5190SOL     OW16468   1.165   2.567   3.598
 5190SOL    HW116469   1.222   2.533   3.673
 5190SOL    HW216470   1.218   2.631   3.542
 5191SOL     OW16471   3.997   0.842   1.569
 5191SOL    HW116472   4.086   0.851   1.525
 5191SOL    HW216473   3.990   0.905   1.646
 5192SOL     OW16474   5.903   4.373   2.153
 5192SOL    HW116475   5.902   4.422   2.066
 5192SOL    HW216476   5.829   4.305   2.153
 5193SOL     OW16477   5.022   3.630   2.967
 5193SOL    HW116478   4.993   3.547   2.919
 5193SOL    HW216479   4.981   3.633   3.058
 5194SOL     OW16480   5.860   1.265   5.848
 5194SOL    HW116481   5.886   1.322   5.925
 5194SOL    HW216482   5.825   1.322   5.774
 5195SOL     OW16483   6.605   6.772   5.745
 5195SOL    HW116484   6.554   6.819   5.817
 5195SOL    HW216485   6.560   6.785   5.657
 5196SOL     OW16486   0.885   3.022   1.848
 5196SOL    HW116487   0.822   3.099   1.863
 5196SOL    HW216488   0.928   3.032   1.758
 5197SOL     OW16489   3.330   6.072   5.091
 5197SOL    HW116490   3.275   6.006   5.142
 5197SOL    HW216491   3.426   6.063   5.118
 5198SOL     OW16492   4.327   0.164   5.923
 5198SOL    HW116493   4.290   0.256   5.914
 5198SOL    HW216494   4.254   0.097   5.904
 5199SOL     OW16495   1.104   5.097   1.668
 5199SOL    HW116496   1.024   5.045   1.696
 5199SOL    HW216497   1.177   5.087   1.735
 5200SOL     OW16498   0.141   0.591   5.212
 5200SOL    HW116499   0.221   0.568   5.156
 5200SOL    HW216500   0.117   0.512   5.269
 5201SOL     OW16501   6.306   4.897   5.113
 5201SOL    HW116502   6.374   4.920   5.183
 5201SOL    HW216503   6.318   4.955   5.033
 5202SOL     OW16504   3.995   2.926   5.805
 5202SOL    HW116505   3.901   2.939   5.775
 5202SOL    HW216506   4.036   3.014   5.827
 5203SOL     OW16507   1.921   0.606   6.582
 5203SOL    HW116508   1.978   0.611   6.665
 5203SOL    HW216509   1.907   0.510   6.557
 5204SOL     OW16510   2.750   0.255   0.823
 5204SOL    HW116511   2.735   0.205   0.908
 5204SOL    HW216512   2.738   0.193   0.745
 5205SOL     OW16513   6.983   6.380   1.128
 5205SOL    HW116514   6.995   6.433   1.212
 5205SOL    HW216515   6.893   6.336   1.129
 5206SOL     OW16516   1.189   5.162   3.798
 5206SOL    HW116517   1.181   5.112   3.712
 5206SOL    HW216518   1.154   5.255   3.786
 5207SOL     OW16519   6.605   6.754   3.913
 5207SOL    HW116520   6.682   6.808   3.879
 5207SOL    HW216521   6.633   6.704   3.995
 5208SOL     OW16522   5.963   2.079   0.706
 5208SOL    HW116523   5.959   2.179   0.710
 5208SOL    HW216524   5.947   2.041   0.797
 5209SOL     OW16525   6.000   6.061   3.537
 5209SOL    HW116526   5.972   6.155   3.517
 5209SOL    HW216527   5.924   6.012   3.581
 5210SOL     OW16528   5.288   4.044   0.343
 5210SOL    HW116529   5.350   4.049   0.421
 5210SOL    HW216530   5.214   3.979   0.362
 5211SOL     OW16531   5.569   2.455   5.174
 5211SOL    HW116532   5.474   2.437   5.148
 5211SOL    HW216533   5.624   2.372   5.161
 5212SOL     OW16534   0.765   3.823   0.127
 5212SOL    HW116535   0.739   3.855   0.036
 5212SOL    HW216536   0.813   3.896   0.176
 5213SOL     OW16537   3.930   3.654   3.143
 5213SOL    HW116538   3.956   3.652   3.240
 5213SOL    HW216539   3.953   3.566   3.101
 5214SOL     OW16540   5.739   3.606   5.286
 5214SOL    HW116541   5.708   3.517   5.322
 5214SOL    HW216542   5.739   3.673   5.361
 5215SOL     OW16543   0.612   3.667   4.889
 5215SOL    HW116544   0.699   3.653   4.936
 5215SOL    HW216545   0.564   3.579   4.882
 5216SOL     OW16546   5.491   5.138   1.236
 5216SOL    HW116547   5.460   5.078   1.310
 5216SOL    HW216548   5.514   5.083   1.155
 5217SOL     OW16549   4.666   6.173   3.302
 5217SOL    HW116550   4.581   6.181   3.251
 5217SOL    HW216551   4.725   6.250   3.281
 5218SOL     OW16552   6.461   0.154   0.816
 5218SOL    HW116553   6.488   0.060   0.836
 5218SOL    HW216554   6.401   0.188   0.888
 5219SOL     OW16555   3.333   1.203   5.046
 5219SOL    HW116556   3.419   1.153   5.032
 5219SOL    HW216557   3.287   1.168   5.128
 5220SOL     OW16558   2.304   5.485   4.390
 5220SOL    HW116559   2.274   5.514   4.299
 5220SOL    HW216560   2.394   5.440   4.382
 5221SOL     OW16561   6.252   5.565   1.129
 5221SOL    HW116562   6.347   5.591   1.108
 5221SOL    HW216563   6.193   5.646   1.123
 5222SOL     OW16564   6.577   3.651   1.273
 5222SOL    HW116565   6.580   3.666   1.175
 5222SOL    HW216566   6.664   3.614   1.304
 5223SOL     OW16567   0.106   3.006   0.415
 5223SOL    HW116568   0.139   2.950   0.490
 5223SOL    HW216569   0.012   3.035   0.434
 5224SOL     OW16570   0.357   2.139   4.607
 5224SOL    HW116571   0.282   2.142   4.673
 5224SOL    HW216572   0.349   2.055   4.552
 5225SOL     OW16573   6.923   1.523   4.254
 5225SOL    HW116574   6.855   1.581   4.299
 5225SOL    HW216575   7.014   1.560   4.271
 5226SOL     OW16576   0.613   6.426   3.788
 5226SOL    HW116577   0.695   6.470   3.825
 5226SOL    HW216578   0.638   6.336   3.751
 5227SOL     OW16579   0.352   3.701   5.590
 5227SOL    HW116580   0.366   3.605   5.614
 5227SOL    HW216581   0.420   3.758   5.636
 5228SOL     OW16582   0.964   1.289   5.300
 5228SOL    HW116583   0.974   1.190   5.310
 5228SOL    HW216584   1.045   1.326   5.255
 5229SOL     OW16585   3.297   1.688   6.536
 5229SOL    HW116586   3.301   1.593   6.569
 5229SOL    HW216587   3.218   1.734   6.577
 5230SOL     OW16588   6.789   6.945   1.639
 5230SOL    HW116589   6.789   6.886   1.719
 5230SOL    HW216590   6.769   6.891   1.557
 5231SOL     OW16591   6.493   3.101   1.850
 5231SOL    HW116592   6.435   3.168   1.897
 5231SOL    HW216593   6.589   3.127   1.862
 5232SOL     OW16594   1.917   2.567   5.971
 5232SOL    HW116595   1.930   2.646   6.030
 5232SOL    HW216596   2.003   2.546   5.923
 5233SOL     OW16597   3.198   6.340   2.732
 5233SOL    HW116598   3.123   6.373   2.674
 5233SOL    HW216599   3.159   6.296   2.813
 5234SOL     OW16600   3.171   2.167   6.871
 5234SOL    HW116601   3.159   2.099   6.799
 5234SOL    HW216602   3.227   2.243   6.837
 5235SOL     OW16603   2.194   1.981   1.437
 5235SOL    HW116604   2.203   1.881   1.437
 5235SOL    HW216605   2.251   2.020   1.365
 5236SOL     OW16606   2.926   5.285   1.203
 5236SOL    HW116607   3.025   5.294   1.191
 5236SOL    HW216608   2.907   5.223   1.279
 5237SOL     OW16609   1.790   2.261   2.566
 5237SOL    HW116610   1.817   2.355   2.547
 5237SOL    HW216611   1.836   2.229   2.649
 5238SOL     OW16612   0.669   6.712   2.544
 5238SOL    HW116613   0.624   6.623   2.543
 5238SOL    HW216614   0.688   6.739   2.638
 5239SOL     OW16615   2.503   3.668   1.079
 5239SOL    HW116616   2.554   3.610   1.015
 5239SOL    HW216617   2.502   3.762   1.045
 5240SOL     OW16618   2.627   4.022   5.904
 5240SOL    HW116619   2.696   4.093   5.906
 5240SOL    HW216620   2.602   4.003   5.809
 5241SOL     OW16621   0.941   6.141   2.431
 5241SOL    HW116622   0.984   6.148   2.341
 5241SOL    HW216623   1.011   6.155   2.502
 5242SOL     OW16624   4.527   1.246   6.724
 5242SOL    HW116625   4.540   1.197   6.638
 5242SOL    HW216626   4.466   1.194   6.783
 5243SOL     OW16627   2.723   6.026   1.721
 5243SOL    HW116628   2.753   6.075   1.639
 5243SOL    HW216629   2.667   6.087   1.777
 5244SOL     OW16630   5.334   1.410   0.102
 5244SOL    HW116631   5.266   1.431   0.173
 5244SOL    HW216632   5.354   1.492   0.050
 5245SOL     OW16633   3.407   4.059   1.534
 5245SOL    HW116634   3.312   4.090   1.538
 5245SOL    HW216635   3.429   4.007   1.616
 5246SOL     OW16636   6.717   4.190   6.337
 5246SOL    HW116637   6.627   4.179   6.295
 5246SOL    HW216638   6.715   4.269   6.399
 5247SOL     OW16639   3.943   2.041   6.410
 5247SOL    HW116640   3.940   1.941   6.406
 5247SOL    HW216641   3.871   2.079   6.353
 5248SOL     OW16642   5.588   1.141   3.274
 5248SOL    HW116643   5.566   1.195   3.193
 5248SOL    HW216644   5.517   1.154   3.343
 5249SOL     OW16645   0.444   4.766   0.482
 5249SOL    HW116646   0.400   4.797   0.566
 5249SOL    HW216647   0.388   4.792   0.403
 5250SOL     OW16648   1.956   5.805   1.005
 5250SOL    HW116649   2.030   5.833   1.066
 5250SOL    HW216650   1.884   5.874   1.006
 5251SOL     OW16651   0.631   5.161   0.745
 5251SOL    HW116652   0.609   5.081   0.801
 5251SOL    HW216653   0.570   5.236   0.770
 5252SOL     OW16654   3.950   6.458   2.387
 5252SOL    HW116655   3.954   6.382   2.452
 5252SOL    HW216656   3.870   6.447   2.328
 5253SOL     OW16657   6.632   5.809   4.623
 5253SOL    HW116658   6.558   5.785   4.686
 5253SOL    HW216659   6.665   5.900   4.645
 5254SOL     OW16660   4.973   6.566   3.554
 5254SOL    HW116661   5.018   6.565   3.464
 5254SOL    HW216662   5.041   6.548   3.625
 5255SOL     OW16663   6.492   1.580   4.899
 5255SOL    HW116664   6.566   1.630   4.852
 5255SOL    HW216665   6.518   1.564   4.994
 5256SOL     OW16666   6.614   1.614   2.144
 5256SOL    HW116667   6.714   1.611   2.142
 5256SOL    HW216668   6.580   1.546   2.209
 5257SOL     OW16669   4.094   1.564   6.016
 5257SOL    HW116670   4.172   1.502   6.022
 5257SOL    HW216671   4.025   1.538   6.083
 5258SOL     OW16672   4.434   1.215   3.595
 5258SOL    HW116673   4.400   1.309   3.605
 5258SOL    HW216674   4.382   1.167   3.525
 5259SOL     OW16675   6.387   4.977   3.783
 5259SOL    HW116676   6.478   5.014   3.800
 5259SOL    HW216677   6.394   4.881   3.757
 5260SOL     OW16678   2.015   0.664   0.971
 5260SOL    HW116679   1.961   0.746   0.955
 5260SOL    HW216680   2.071   0.645   0.890
 5261SOL     OW16681   5.713   4.438   6.481
 5261SOL    HW116682   5.758   4.523   6.452
 5261SOL    HW216683   5.680   4.449   6.575
 5262SOL     OW16684   1.471   1.495   2.679
 5262SOL    HW116685   1.390   1.467   2.628
 5262SOL    HW216686   1.514   1.572   2.632
 5263SOL     OW16687   1.614   6.456   2.291
 5263SOL    HW116688   1.599   6.453   2.390
 5263SOL    HW216689   1.638   6.364   2.259
 5264SOL     OW16690   6.476   1.476   1.818
 5264SOL    HW116691   6.550   1.534   1.784
 5264SOL    HW216692   6.474   1.391   1.766
 5265SOL     OW16693   6.877   4.770   5.271
 5265SOL    HW116694   6.889   4.673   5.248
 5265SOL    HW216695   6.834   4.779   5.360
 5266SOL     OW16696   1.776   0.743   6.382
 5266SOL    HW116697   1.845   0.714   6.448
 5266SOL    HW216698   1.735   0.829   6.411
 5267SOL     OW16699   5.106   2.411   4.280
 5267SOL    HW116700   5.056   2.498   4.282
 5267SOL    HW216701   5.040   2.335   4.279
 5268SOL     OW16702   5.275   0.299   5.977
 5268SOL    HW116703   5.352   0.235   5.974
 5268SOL    HW216704   5.308   0.391   5.954
 5269SOL     OW16705   0.433   0.089   3.413
 5269SOL    HW116706   0.342   0.102   3.454
 5269SOL    HW216707   0.466   7.022   3.433
 5270SOL     OW16708   0.697   1.040   6.370
 5270SOL    HW116709   0.768   1.099   6.407
 5270SOL    HW216710   0.712   0.946   6.399
 5271SOL     OW16711   0.660   5.180   3.298
 5271SOL    HW116712   0.602   5.261   3.296
 5271SOL    HW216713   0.644   5.125   3.216
 5272SOL     OW16714   4.314   0.183   6.821
 5272SOL    HW116715   4.321   0.228   6.910
 5272SOL    HW216716   4.399   0.134   6.802
 5273SOL     OW16717   2.233   1.906   2.658
 5273SOL    HW116718   2.234   1.808   2.640
 5273SOL    HW216719   2.298   1.927   2.732
 5274SOL     OW16720   5.206   4.912   1.122
 5274SOL    HW116721   5.237   4.954   1.037
 5274SOL    HW216722   5.281   4.861   1.164
 5275SOL     OW16723   4.530   2.253   6.607
 5275SOL    HW116724   4.549   2.166   6.562
 5275SOL    HW216725   4.483   2.314   6.542
 5276SOL     OW16726   4.274   6.715   1.374
 5276SOL    HW116727   4.300   6.774   1.450
 5276SOL    HW216728   4.337   6.728   1.298
 5277SOL     OW16729   2.015   3.062   1.954
 5277SOL    HW116730   2.084   3.112   1.901
 5277SOL    HW216731   1.935   3.120   1.967
 5278SOL     OW16732   4.312   3.664   1.663
 5278SOL    HW116733   4.300   3.564   1.666
 5278SOL    HW216734   4.408   3.686   1.676
 5279SOL     OW16735   1.987   5.979   2.730
 5279SOL    HW116736   2.036   5.939   2.653
 5279SOL    HW216737   1.894   6.003   2.701
 5280SOL     OW16738   4.408   6.763   5.381
 5280SOL    HW116739   4.410   6.744   5.282
 5280SOL    HW216740   4.324   6.727   5.420
 5281SOL     OW16741   0.160   3.134   2.501
 5281SOL    HW116742   0.156   3.043   2.459
 5281SOL    HW216743   0.068   3.163   2.527
 5282SOL     OW16744   4.936   1.455   1.942
 5282SOL    HW116745   5.002   1.498   1.880
 5282SOL    HW216746   4.870   1.402   1.889
 5283SOL     OW16747   5.390   5.422   6.293
 5283SOL    HW116748   5.406   5.328   6.264
 5283SOL    HW216749   5.443   5.441   6.376
 5284SOL     OW16750   5.187   2.568   3.403
 5284SOL    HW116751   5.111   2.540   3.344
 5284SOL    HW216752   5.238   2.486   3.432
 5285SOL     OW16753   3.776   5.783   2.440
 5285SOL    HW116754   3.838   5.706   2.425
 5285SOL    HW216755   3.692   5.750   2.481
 5286SOL     OW16756   2.518   5.242   2.137
 5286SOL    HW116757   2.433   5.243   2.085
 5286SOL    HW216758   2.592   5.210   2.079
 5287SOL     OW16759   0.327   1.770   1.755
 5287SOL    HW116760   0.281   1.781   1.843
 5287SOL    HW216761   0.358   1.675   1.745
 5288SOL     OW16762   4.280   1.286   0.416
 5288SOL    HW116763   4.354   1.221   0.427
 5288SOL    HW216764   4.223   1.259   0.338
 5289SOL     OW16765   2.622   6.207   0.925
 5289SOL    HW116766   2.591   6.123   0.968
 5289SOL    HW216767   2.654   6.187   0.832
 5290SOL     OW16768   4.861   5.888   0.904
 5290SOL    HW116769   4.868   5.906   1.002
 5290SOL    HW216770   4.801   5.956   0.862
 5291SOL     OW16771   1.729   4.778   6.685
 5291SOL    HW116772   1.689   4.721   6.756
 5291SOL    HW216773   1.668   4.855   6.665
 5292SOL     OW16774   5.302   2.532   6.623
 5292SOL    HW116775   5.278   2.441   6.590
 5292SOL    HW216776   5.258   2.548   6.712
 5293SOL     OW16777   1.428   1.337   4.155
 5293SOL    HW116778   1.468   1.324   4.246
 5293SOL    HW216779   1.329   1.348   4.164
 5294SOL     OW16780   4.910   2.724   5.287
 5294SOL    HW116781   4.821   2.727   5.242
 5294SOL    HW216782   4.902   2.761   5.380
 5295SOL     OW16783   5.493   1.031   2.308
 5295SOL    HW116784   5.535   1.071   2.389
 5295SOL    HW216785   5.479   1.102   2.239
 5296SOL     OW16786   0.384   3.558   0.680
 5296SOL    HW116787   0.395   3.657   0.683
 5296SOL    HW216788   0.389   3.527   0.585
 5297SOL     OW16789   1.666   3.058   2.155
 5297SOL    HW116790   1.717   2.976   2.182
 5297SOL    HW216791   1.721   3.139   2.175
 5298SOL     OW16792   1.340   5.751   1.507
 5298SOL    HW116793   1.421   5.759   1.565
 5298SOL    HW216794   1.328   5.655   1.481
 5299SOL     OW16795   3.326   0.444   1.411
 5299SOL    HW116796   3.284   0.525   1.371
 5299SOL    HW216797   3.344   0.460   1.508
 5300SOL     OW16798   6.671   5.443   3.900
 5300SOL    HW116799   6.638   5.505   3.829
 5300SOL    HW216800   6.735   5.378   3.861
 5301SOL     OW16801   4.702   0.371   0.489
 5301SOL    HW116802   4.602   0.360   0.491
 5301SOL    HW216803   4.727   0.451   0.544
 5302SOL     OW16804   6.419   4.613   3.439
 5302SOL    HW116805   6.395   4.671   3.361
 5302SOL    HW216806   6.402   4.517   3.416
 5303SOL     OW16807   0.460   5.347   3.281
 5303SOL    HW116808   0.380   5.334   3.223
 5303SOL    HW216809   0.481   5.444   3.289
 5304SOL     OW16810   5.206   2.115   5.312
 5304SOL    HW116811   5.139   2.162   5.370
 5304SOL    HW216812   5.163   2.035   5.270
 5305SOL     OW16813   2.574   0.936   2.772
 5305SOL    HW116814   2.525   0.945   2.685
 5305SOL    HW216815   2.620   0.848   2.775
 5306SOL     OW16816   2.622   6.992   4.916
 5306SOL    HW116817   2.572   0.050   4.893
 5306SOL    HW216818   2.595   6.919   4.854
 5307SOL     OW16819   4.500   6.909   6.948
 5307SOL    HW116820   4.414   6.948   6.980
 5307SOL    HW216821   4.495   6.809   6.950
 5308SOL     OW16822   6.985   1.285   2.278
 5308SOL    HW116823   6.894   1.291   2.319
 5308SOL    HW216824   6.991   1.348   2.200
 5309SOL     OW16825   3.982   3.959   4.333
 5309SOL    HW116826   3.972   3.951   4.234
 5309SOL    HW216827   4.056   4.022   4.354
 5310SOL     OW16828   5.644   1.789   0.398
 5310SOL    HW116829   5.712   1.849   0.440
 5310SOL    HW216830   5.656   1.790   0.298
 5311SOL     OW16831   1.764   5.902   0.251
 5311SOL    HW116832   1.847   5.850   0.231
 5311SOL    HW216833   1.715   5.860   0.327
 5312SOL     OW16834   0.295   2.974   1.814
 5312SOL    HW116835   0.337   2.926   1.737
 5312SOL    HW216836   0.363   2.989   1.885
 5313SOL     OW16837   1.372   5.779   0.662
 5313SOL    HW116838   1.353   5.709   0.593
 5313SOL    HW216839   1.315   5.763   0.743
 5314SOL     OW16840   3.579   4.686   0.980
 5314SOL    HW116841   3.626   4.613   0.931
 5314SOL    HW216842   3.541   4.751   0.914
 5315SOL     OW16843   5.241   2.782   1.857
 5315SOL    HW116844   5.154   2.748   1.823
 5315SOL    HW216845   5.226   2.838   1.939
 5316SOL     OW16846   6.121   5.179   4.988
 5316SOL    HW116847   6.204   5.158   4.936
 5316SOL    HW216848   6.073   5.094   5.009
 5317SOL     OW16849   5.939   5.442   2.956
 5317SOL    HW116850   5.889   5.526   2.977
 5317SOL    HW216851   5.987   5.453   2.869
 5318SOL     OW16852   0.592   2.302   4.418
 5318SOL    HW116853   0.512   2.247   4.445
 5318SOL    HW216854   0.668   2.281   4.479
 5319SOL     OW16855   3.672   0.252   1.378
 5319SOL    HW116856   3.572   0.247   1.385
 5319SOL    HW216857   3.698   0.265   1.283
 5320SOL     OW16858   6.369   3.800   5.363
 5320SOL    HW116859   6.350   3.883   5.309
 5320SOL    HW216860   6.294   3.785   5.428
 5321SOL     OW16861   1.569   5.074   6.277
 5321SOL    HW116862   1.563   4.989   6.226
 5321SOL    HW216863   1.617   5.143   6.222
 5322SOL     OW16864   3.167   6.044   0.989
 5322SOL    HW116865   3.082   5.995   1.007
 5322SOL    HW216866   3.220   5.995   0.920
 5323SOL     OW16867   6.061   3.724   0.344
 5323SOL    HW116868   6.134   3.749   0.408
 5323SOL    HW216869   6.019   3.807   0.307
 5324SOL     OW16870   3.877   3.251   1.621
 5324SOL    HW116871   3.882   3.205   1.709
 5324SOL    HW216872   3.799   3.314   1.620
 5325SOL     OW16873   4.659   5.822   4.411
 5325SOL    HW116874   4.643   5.918   4.387
 5325SOL    HW216875   4.608   5.800   4.494
 5326SOL     OW16876   0.341   0.223   2.201
 5326SOL    HW116877   0.416   0.201   2.264
 5326SOL    HW216878   0.254   0.211   2.248
 5327SOL     OW16879   6.786   0.592   4.207
 5327SOL    HW116880   6.827   0.559   4.122
 5327SOL    HW216881   6.747   0.683   4.191
 5328SOL     OW16882   3.953   5.041   0.881
 5328SOL    HW116883   3.943   5.010   0.975
 5328SOL    HW216884   3.891   5.118   0.864
 5329SOL     OW16885   6.857   5.608   0.477
 5329SOL    HW116886   6.763   5.609   0.512
 5329SOL    HW216887   6.886   5.702   0.458
 5330SOL     OW16888   3.556   4.695   0.188
 5330SOL    HW116889   3.649   4.701   0.152
 5330SOL    HW216890   3.532   4.781   0.233
 5331SOL     OW16891   5.028   2.782   6.468
 5331SOL    HW116892   4.966   2.858   6.452
 5331SOL    HW216893   5.008   2.742   6.558
 5332SOL     OW16894   5.765   3.421   0.191
 5332SOL    HW116895   5.674   3.453   0.163
 5332SOL    HW216896   5.786   3.456   0.283
 5333SOL     OW16897   1.513   1.818   4.435
 5333SOL    HW116898   1.600   1.771   4.445
 5333SOL    HW216899   1.507   1.893   4.502
 5334SOL     OW16900   3.461   5.890   1.953
 5334SOL    HW116901   3.554   5.894   1.915
 5334SOL    HW216902   3.400   5.944   1.896
 5335SOL     OW16903   0.333   4.686   1.669
 5335SOL    HW116904   0.278   4.710   1.589
 5335SOL    HW216905   0.314   4.592   1.697
 5336SOL     OW16906   1.802   2.729   4.992
 5336SOL    HW116907   1.879   2.731   4.927
 5336SOL    HW216908   1.837   2.735   5.085
 5337SOL     OW16909   6.944   4.359   1.035
 5337SOL    HW116910   0.016   4.363   1.010
 5337SOL    HW216911   6.889   4.369   0.952
 5338SOL     OW16912   6.388   3.890   0.224
 5338SOL    HW116913   6.488   3.884   0.222
 5338SOL    HW216914   6.356   3.883   0.319
 5339SOL     OW16915   5.670   3.297   2.452
 5339SOL    HW116916   5.661   3.201   2.480
 5339SOL    HW216917   5.580   3.339   2.448
 5340SOL     OW16918   4.895   3.348   1.843
 5340SOL    HW116919   4.819   3.323   1.782
 5340SOL    HW216920   4.953   3.267   1.857
 5341SOL     OW16921   4.513   4.457   3.506
 5341SOL    HW116922   4.449   4.508   3.447
 5341SOL    HW216923   4.496   4.481   3.601
 5342SOL     OW16924   6.089   5.817   5.191
 5342SOL    HW116925   6.160   5.749   5.206
 5342SOL    HW216926   6.127   5.909   5.203
 5343SOL     OW16927   3.982   3.224   6.457
 5343SOL    HW116928   4.033   3.214   6.543
 5343SOL    HW216929   3.899   3.168   6.461
 5344SOL     OW16930   0.303   1.831   6.595
 5344SOL    HW116931   0.326   1.742   6.556
 5344SOL    HW216932   0.337   1.837   6.689
 5345SOL     OW16933   5.150   1.415   6.207
 5345SOL    HW116934   5.105   1.503   6.227
 5345SOL    HW216935   5.095   1.364   6.141
 5346SOL     OW16936   3.149   5.523   2.983
 5346SOL    HW116937   3.245   5.549   2.973
 5346SOL    HW216938   3.104   5.587   3.046
 5347SOL     OW16939   5.509   1.621   4.128
 5347SOL    HW116940   5.600   1.662   4.128
 5347SOL    HW216941   5.444   1.682   4.173
 5348SOL     OW16942   5.056   2.910   4.953
 5348SOL    HW116943   4.968   2.957   4.966
 5348SOL    HW216944   5.071   2.848   5.030
 5349SOL     OW16945   1.108   3.620   1.740
 5349SOL    HW116946   1.076   3.688   1.674
 5349SOL    HW216947   1.038   3.607   1.810
 5350SOL     OW16948   1.274   6.256   6.923
 5350SOL    HW116949   1.313   6.195   6.853
 5350SOL    HW216950   1.310   6.232   7.013
 5351SOL     OW16951   6.573   5.929   3.484
 5351SOL    HW116952   6.523   5.981   3.415
 5351SOL    HW216953   6.575   5.982   3.569
 5352SOL     OW16954   1.250   3.024   5.891
 5352SOL    HW116955   1.170   2.986   5.846
 5352SOL    HW216956   1.316   3.054   5.823
 5353SOL     OW16957   4.068   4.923   3.500
 5353SOL    HW116958   4.123   4.941   3.581
 5353SOL    HW216959   4.027   5.008   3.467
 5354SOL     OW16960   3.907   5.670   1.562
 5354SOL    HW116961   3.922   5.601   1.492
 5354SOL    HW216962   3.926   5.631   1.652
 5355SOL     OW16963   5.207   5.479   5.009
 5355SOL    HW116964   5.259   5.493   5.093
 5355SOL    HW216965   5.136   5.410   5.024
 5356SOL     OW16966   1.160   6.372   0.940
 5356SOL    HW116967   1.238   6.429   0.914
 5356SOL    HW216968   1.079   6.402   0.890
 5357SOL     OW16969   6.500   3.950   2.724
 5357SOL    HW116970   6.500   3.897   2.809
 5357SOL    HW216971   6.407   3.957   2.690
 5358SOL     OW16972   5.191   1.207   6.761
 5358SOL    HW116973   5.217   1.130   6.703
 5358SOL    HW216974   5.105   1.246   6.728
 5359SOL     OW16975   3.444   2.561   6.700
 5359SOL    HW116976   3.481   2.650   6.672
 5359SOL    HW216977   3.518   2.493   6.699
 5360SOL     OW16978   5.750   4.922   4.138
 5360SOL    HW116979   5.737   5.004   4.194
 5360SOL    HW216980   5.808   4.857   4.187
 5361SOL     OW16981   1.284   5.072   2.800
 5361SOL    HW116982   1.365   5.063   2.742
 5361SOL    HW216983   1.211   5.015   2.764
 5362SOL     OW16984   5.696   1.666   2.731
 5362SOL    HW116985   5.720   1.758   2.763
 5362SOL    HW216986   5.632   1.623   2.795
 5363SOL     OW16987   5.228   5.542   3.615
 5363SOL    HW116988   5.276   5.463   3.652
 5363SOL    HW216989   5.294   5.607   3.577
 5364SOL     OW16990   4.078   1.947   2.596
 5364SOL    HW116991   4.177   1.945   2.606
 5364SOL    HW216992   4.054   1.979   2.504
 5365SOL     OW16993   2.939   3.302   4.520
 5365SOL    HW116994   3.037   3.305   4.540
 5365SOL    HW216995   2.911   3.208   4.504
 5366SOL     OW16996   6.441   6.023   3.246
 5366SOL    HW116997   6.426   6.052   3.152
 5366SOL    HW216998   6.366   6.054   3.304
 5367SOL     OW16999   6.110   5.780   1.400
 5367SOL    HW117000   6.114   5.785   1.300
 5367SOL    HW217001   6.105   5.684   1.429
 5368SOL     OW17002   0.046   6.256   4.451
 5368SOL    HW117003   0.039   6.213   4.361
 5368SOL    HW217004   0.139   6.292   4.464
 5369SOL     OW17005   4.069   6.007   2.783
 5369SOL    HW117006   4.048   5.974   2.874
 5369SOL    HW217007   4.161   6.047   2.782
 5370SOL     OW17008   1.756   3.240   0.537
 5370SOL    HW117009   1.675   3.189   0.564
 5370SOL    HW217010   1.819   3.245   0.615
 5371SOL     OW17011   6.410   5.733   4.746
 5371SOL    HW117012   6.454   5.658   4.796
 5371SOL    HW217013   6.355   5.695   4.671
 5372SOL     OW17014   1.733   6.830   3.141
 5372SOL    HW117015   1.717   6.854   3.236
 5372SOL    HW217016   1.824   6.788   3.132
 5373SOL     OW17017   2.330   0.907   6.338
 5373SOL    HW117018   2.255   0.859   6.292
 5373SOL    HW217019   2.414   0.853   6.329
 5374SOL     OW17020   1.659   3.699   1.498
 5374SOL    HW117021   1.607   3.750   1.430
 5374SOL    HW217022   1.633   3.602   1.495
 5375SOL     OW17023   2.428   4.368   5.340
 5375SOL    HW117024   2.362   4.395   5.410
 5375SOL    HW217025   2.455   4.273   5.355
 5376SOL     OW17026   0.650   6.944   6.761
 5376SOL    HW117027   0.738   6.929   6.806
 5376SOL    HW217028   0.656   6.911   6.666
 5377SOL     OW17029   1.159   1.845   3.056
 5377SOL    HW117030   1.135   1.923   2.998
 5377SOL    HW217031   1.143   1.868   3.152
 5378SOL     OW17032   4.546   6.975   2.628
 5378SOL    HW117033   4.568   6.882   2.598
 5378SOL    HW217034   4.531   0.008   2.548
 5379SOL     OW17035   1.939   1.826   4.029
 5379SOL    HW117036   2.022   1.882   4.025
 5379SOL    HW217037   1.872   1.871   4.087
 5380SOL     OW17038   4.266   5.739   1.642
 5380SOL    HW117039   4.350   5.783   1.671
 5380SOL    HW217040   4.219   5.795   1.574
 5381SOL     OW17041   3.184   1.006   3.346
 5381SOL    HW117042   3.213   1.021   3.252
 5381SOL    HW217043   3.119   1.078   3.372
 5382SOL     OW17044   4.670   0.965   3.088
 5382SOL    HW117045   4.756   0.914   3.087
 5382SOL    HW217046   4.593   0.902   3.087
 5383SOL     OW17047   2.274   2.885   4.416
 5383SOL    HW117048   2.248   2.922   4.327
 5383SOL    HW217049   2.336   2.808   4.402
 5384SOL     OW17050   5.341   5.807   5.691
 5384SOL    HW117051   5.294   5.731   5.645
 5384SOL    HW217052   5.320   5.804   5.789
 5385SOL     OW17053   4.291   3.582   6.357
 5385SOL    HW117054   4.243   3.551   6.438
 5385SOL    HW217055   4.387   3.553   6.362
 5386SOL     OW17056   4.350   4.609   3.997
 5386SOL    HW117057   4.255   4.590   3.971
 5386SOL    HW217058   4.356   4.617   4.096
 5387SOL     OW17059   1.193   1.549   4.018
 5387SOL    HW117060   1.127   1.549   4.093
 5387SOL    HW217061   1.269   1.610   4.041
 5388SOL     OW17062   6.715   6.579   4.106
 5388SOL    HW117063   6.790   6.553   4.046
 5388SOL    HW217064   6.721   6.530   4.193
 5389SOL     OW17065   5.206   1.144   4.005
 5389SOL    HW117066   5.292   1.135   4.055
 5389SOL    HW217067   5.199   1.072   3.936
 5390SOL     OW17068   6.817   3.996   3.541
 5390SOL    HW117069   6.822   4.038   3.631
 5390SOL    HW217070   6.808   3.897   3.550
 5391SOL     OW17071   3.206   2.592   0.886
 5391SOL    HW117072   3.236   2.648   0.809
 5391SOL    HW217073   3.250   2.623   0.970
 5392SOL     OW17074   5.529   0.863   4.277
 5392SOL    HW117075   5.475   0.780   4.263
 5392SOL    HW217076   5.520   0.893   4.372
 5393SOL     OW17077   4.136   1.626   3.765
 5393SOL    HW117078   4.063   1.694   3.749
 5393SOL    HW217079   4.224   1.673   3.767
 5394SOL     OW17080   0.388   2.618   1.575
 5394SOL    HW117081   0.359   2.523   1.560
 5394SOL    HW217082   0.319   2.681   1.542
 5395SOL     OW17083   6.844   1.749   0.780
 5395SOL    HW117084   6.772   1.683   0.803
 5395SOL    HW217085   6.803   1.832   0.742
 5396SOL     OW17086   4.323   3.175   0.586
 5396SOL    HW117087   4.344   3.173   0.684
 5396SOL    HW217088   4.362   3.094   0.542
 5397SOL     OW17089   6.752   0.407   2.506
 5397SOL    HW117090   6.734   0.450   2.595
 5397SOL    HW217091   6.728   0.470   2.433
 5398SOL     OW17092   6.915   3.488   2.427
 5398SOL    HW117093   6.851   3.504   2.352
 5398SOL    HW217094   6.873   3.515   2.513
 5399SOL     OW17095   1.974   3.222   1.069
 5399SOL    HW117096   2.021   3.158   1.008
 5399SOL    HW217097   1.972   3.184   1.162
 5400SOL     OW17098   4.899   3.137   1.500
 5400SOL    HW117099   4.883   3.140   1.599
 5400SOL    HW217100   4.813   3.150   1.452
 5401SOL     OW17101   5.662   2.827   1.397
 5401SOL    HW117102   5.596   2.753   1.384
 5401SOL    HW217103   5.705   2.849   1.309
 5402SOL     OW17104   1.230   5.941   2.620
 5402SOL    HW117105   1.170   5.872   2.660
 5402SOL    HW217106   1.249   5.917   2.525
 5403SOL     OW17107   5.182   2.513   6.882
 5403SOL    HW117108   5.242   2.551   6.952
 5403SOL    HW217109   5.135   2.432   6.918
 5404SOL     OW17110   5.230   0.007   6.961
 5404SOL    HW117111   5.324   0.022   6.990
 5404SOL    HW217112   5.174   7.007   0.015
 5405SOL     OW17113   0.293   4.847   0.221
 5405SOL    HW117114   0.256   4.935   0.250
 5405SOL    HW217115   0.371   4.863   0.160
 5406SOL     OW17116   2.388   1.223   5.844
 5406SOL    HW117117   2.388   1.322   5.830
 5406SOL    HW217118   2.381   1.203   5.942
 5407SOL     OW17119   1.192   6.517   3.763
 5407SOL    HW117120   1.259   6.495   3.834
 5407SOL    HW217121   1.123   6.579   3.800
 5408SOL     OW17122   2.773   1.860   4.516
 5408SOL    HW117123   2.734   1.813   4.596
 5408SOL    HW217124   2.866   1.826   4.500
 5409SOL     OW17125   1.099   2.380   2.359
 5409SOL    HW117126   1.039   2.404   2.283
 5409SOL    HW217127   1.125   2.283   2.351
 5410SOL     OW17128   6.244   2.771   0.847
 5410SOL    HW117129   6.263   2.809   0.757
 5410SOL    HW217130   6.182   2.832   0.897
 5411SOL     OW17131   3.812   5.720   0.282
 5411SOL    HW117132   3.806   5.782   0.204
 5411SOL    HW217133   3.847   5.632   0.252
 5412SOL     OW17134   0.684   2.265   5.560
 5412SOL    HW117135   0.740   2.262   5.478
 5412SOL    HW217136   0.742   2.267   5.641
 5413SOL     OW17137   0.858   4.923   4.893
 5413SOL    HW117138   0.767   4.888   4.870
 5413SOL    HW217139   0.856   4.959   4.986
 5414SOL     OW17140   5.740   4.238   5.507
 5414SOL    HW117141   5.729   4.159   5.447
 5414SOL    HW217142   5.721   4.211   5.601
 5415SOL     OW17143   2.643   1.147   0.336
 5415SOL    HW117144   2.647   1.135   0.436
 5415SOL    HW217145   2.558   1.107   0.301
 5416SOL     OW17146   3.266   5.347   6.935
 5416SOL    HW117147   3.336   5.417   6.949
 5416SOL    HW217148   3.288   5.294   6.853
 5417SOL     OW17149   5.113   6.879   3.903
 5417SOL    HW117150   5.120   6.793   3.851
 5417SOL    HW217151   5.063   6.946   3.848
 5418SOL     OW17152   6.942   2.885   5.317
 5418SOL    HW117153   0.003   2.837   5.305
 5418SOL    HW217154   6.959   2.981   5.339
 5419SOL     OW17155   3.958   1.727   6.510
 5419SOL    HW117156   3.893   1.727   6.433
 5419SOL    HW217157   4.016   1.646   6.504
 5420SOL     OW17158   1.591   2.298   1.906
 5420SOL    HW117159   1.633   2.219   1.952
 5420SOL    HW217160   1.504   2.271   1.866
 5421SOL     OW17161   3.869   5.354   2.048
 5421SOL    HW117162   3.814   5.320   2.124
 5421SOL    HW217163   3.895   5.277   1.989
 5422SOL     OW17164   2.508   5.122   3.786
 5422SOL    HW117165   2.476   5.051   3.849
 5422SOL    HW217166   2.567   5.080   3.716
 5423SOL     OW17167   4.960   6.857   1.475
 5423SOL    HW117168   4.902   6.789   1.430
 5423SOL    HW217169   4.907   6.940   1.491
 5424SOL     OW17170   4.241   3.971   5.277
 5424SOL    HW117171   4.220   3.954   5.373
 5424SOL    HW217172   4.198   3.900   5.221
 5425SOL     OW17173   1.302   4.372   6.136
 5425SOL    HW117174   1.206   4.384   6.109
 5425SOL    HW217175   1.314   4.402   6.231
 5426SOL     OW17176   6.618   4.881   1.478
 5426SOL    HW117177   6.668   4.814   1.532
 5426SOL    HW217178   6.521   4.879   1.504
 5427SOL     OW17179   4.637   3.119   0.511
 5427SOL    HW117180   4.654   3.061   0.591
 5427SOL    HW217181   4.718   3.174   0.493
 5428SOL     OW17182   5.176   4.971   3.051
 5428SOL    HW117183   5.181   4.909   2.973
 5428SOL    HW217184   5.081   4.994   3.071
 5429SOL     OW17185   3.246   7.016   4.422
 5429SOL    HW117186   3.267   0.035   4.509
 5429SOL    HW217187   3.158   6.970   4.428
 5430SOL     OW17188   2.258   3.593   5.631
 5430SOL    HW117189   2.172   3.630   5.595
 5430SOL    HW217190   2.244   3.499   5.661
 5431SOL     OW17191   4.822   4.479   0.391
 5431SOL    HW117192   4.799   4.427   0.474
 5431SOL    HW217193   4.738   4.513   0.349
 5432SOL     OW17194   0.499   5.261   6.631
 5432SOL    HW117195   0.567   5.235   6.563
 5432SOL    HW217196   0.408   5.263   6.590
 5433SOL     OW17197   3.865   0.039   1.473
 5433SOL    HW117198   3.861   7.012   1.558
 5433SOL    HW217199   3.777   0.085   1.458
 5434SOL     OW17200   4.822   7.007   4.110
 5434SOL    HW117201   4.853   0.070   4.076
 5434SOL    HW217202   4.878   6.979   4.188
 5435SOL     OW17203   6.704   5.105   0.187
 5435SOL    HW117204   6.718   5.019   0.235
 5435SOL    HW217205   6.792   5.151   0.173
 5436SOL     OW17206   1.908   4.819   2.302
 5436SOL    HW117207   1.960   4.896   2.338
 5436SOL    HW217208   1.972   4.755   2.258
 5437SOL     OW17209   3.483   6.642   0.848
 5437SOL    HW117210   3.558   6.583   0.818
 5437SOL    HW217211   3.518   6.734   0.869
 5438SOL     OW17212   4.318   6.535   1.566
 5438SOL    HW117213   4.272   6.448   1.546
 5438SOL    HW217214   4.286   6.605   1.502
 5439SOL     OW17215   1.112   4.141   1.055
 5439SOL    HW117216   1.128   4.132   1.153
 5439SOL    HW217217   1.051   4.069   1.024
 5440SOL     OW17218   5.422   6.564   3.600
 5440SOL    HW117219   5.465   6.548   3.511
 5440SOL    HW217220   5.449   6.655   3.634
 5441SOL     OW17221   5.792   2.193   4.646
 5441SOL    HW117222   5.827   2.192   4.739
 5441SOL    HW217223   5.795   2.100   4.608
 5442SOL     OW17224   2.533   0.467   6.493
 5442SOL    HW117225   2.526   0.549   6.550
 5442SOL    HW217226   2.622   0.423   6.511
 5443SOL     OW17227   5.530   0.815   3.126
 5443SOL    HW117228   5.543   0.874   3.047
 5443SOL    HW217229   5.566   0.860   3.208
 5444SOL     OW17230   6.977   1.451   6.611
 5444SOL    HW117231   6.911   1.406   6.671
 5444SOL    HW217232   0.045   1.433   6.645
 5445SOL     OW17233   5.929   6.471   5.704
 5445SOL    HW117234   5.883   6.459   5.793
 5445SOL    HW217235   5.896   6.555   5.661
 5446SOL     OW17236   0.633   4.225   5.990
 5446SOL    HW117237   0.609   4.322   5.981
 5446SOL    HW217238   0.581   4.172   5.923
 5447SOL     OW17239   6.686   1.584   1.666
 5447SOL    HW117240   6.737   1.497   1.668
 5447SOL    HW217241   6.658   1.604   1.572
 5448SOL     OW17242   5.449   5.070   2.408
 5448SOL    HW117243   5.356   5.041   2.431
 5448SOL    HW217244   5.492   5.110   2.489
 5449SOL     OW17245   2.615   0.867   1.332
 5449SOL    HW117246   2.624   0.913   1.243
 5449SOL    HW217247   2.573   0.777   1.319
 5450SOL     OW17248   4.683   6.068   2.066
 5450SOL    HW117249   4.727   6.070   2.156
 5450SOL    HW217250   4.606   6.003   2.069
 5451SOL     OW17251   6.337   6.479   3.592
 5451SOL    HW117252   6.362   6.490   3.496
 5451SOL    HW217253   6.416   6.501   3.649
 5452SOL     OW17254   2.240   4.216   2.904
 5452SOL    HW117255   2.306   4.233   2.977
 5452SOL    HW217256   2.219   4.118   2.900
 5453SOL     OW17257   6.423   4.675   4.331
 5453SOL    HW117258   6.396   4.730   4.252
 5453SOL    HW217259   6.473   4.594   4.300
 5454SOL     OW17260   6.147   4.229   3.476
 5454SOL    HW117261   6.103   4.172   3.406
 5454SOL    HW217262   6.088   4.307   3.497
 5455SOL     OW17263   2.755   1.960   3.505
 5455SOL    HW117264   2.743   1.896   3.581
 5455SOL    HW217265   2.766   1.908   3.420
 5456SOL     OW17266   6.039   2.514   0.580
 5456SOL    HW117267   6.028   2.611   0.561
 5456SOL    HW217268   5.963   2.482   0.636
 5457SOL     OW17269   6.153   1.143   6.508
 5457SOL    HW117270   6.186   1.197   6.431
 5457SOL    HW217271   6.150   1.047   6.482
 5458SOL     OW17272   5.521   4.373   7.022
 5458SOL    HW117273   5.433   4.407   0.030
 5458SOL    HW217274   5.591   4.444   0.009
 5459SOL     OW17275   2.093   3.226   4.806
 5459SOL    HW117276   2.136   3.258   4.722
 5459SOL    HW217277   2.114   3.290   4.880
 5460SOL     OW17278   0.461   0.629   1.426
 5460SOL    HW117279   0.385   0.571   1.397
 5460SOL    HW217280   0.439   0.725   1.409
 5461SOL     OW17281   6.482   1.185   5.866
 5461SOL    HW117282   6.540   1.105   5.859
 5461SOL    HW217283   6.457   1.217   5.775
 5462SOL     OW17284   5.083   4.797   6.309
 5462SOL    HW117285   5.088   4.744   6.225
 5462SOL    HW217286   5.145   4.758   6.377
 5463SOL     OW17287   0.847   3.587   5.844
 5463SOL    HW117288   0.947   3.592   5.839
 5463SOL    HW217289   0.811   3.676   5.873
 5464SOL     OW17290   1.880   5.437   5.452
 5464SOL    HW117291   1.960   5.386   5.482
 5464SOL    HW217292   1.851   5.405   5.362
 5465SOL     OW17293   0.471   6.975   4.692
 5465SOL    HW117294   0.515   6.896   4.735
 5465SOL    HW217295   0.510   0.034   4.730
 5466SOL     OW17296   5.713   1.797   4.087
 5466SOL    HW117297   5.735   1.769   3.994
 5466SOL    HW217298   5.792   1.840   4.129
 5467SOL     OW17299   4.924   3.171   4.234
 5467SOL    HW117300   4.941   3.269   4.245
 5467SOL    HW217301   4.959   3.122   4.314
 5468SOL     OW17302   0.065   1.346   1.346
 5468SOL    HW117303   0.147   1.384   1.303
 5468SOL    HW217304   0.082   1.250   1.370
 5469SOL     OW17305   3.664   0.784   4.218
 5469SOL    HW117306   3.742   0.788   4.155
 5469SOL    HW217307   3.606   0.864   4.204
 5470SOL     OW17308   4.368   4.650   4.309
 5470SOL    HW117309   4.447   4.591   4.292
 5470SOL    HW217310   4.337   4.638   4.403
 5471SOL     OW17311   5.118   0.586   2.936
 5471SOL    HW117312   5.159   0.614   3.023
 5471SOL    HW217313   5.075   0.497   2.947
 5472SOL     OW17314   3.204   3.591   6.671
 5472SOL    HW117315   3.246   3.565   6.757
 5472SOL    HW217316   3.106   3.571   6.674
 5473SOL     OW17317   3.196   5.055   1.725
 5473SOL    HW117318   3.225   5.122   1.656
 5473SOL    HW217319   3.188   4.965   1.683
 5474SOL     OW17320   1.044   5.209   2.425
 5474SOL    HW117321   1.134   5.211   2.468
 5474SOL    HW217322   0.978   5.258   2.481
 5475SOL     OW17323   1.178   0.781   5.166
 5475SOL    HW117324   1.178   0.829   5.253
 5475SOL    HW217325   1.175   0.847   5.091
 5476SOL     OW17326   2.176   6.740   5.068
 5476SOL    HW117327   2.179   6.669   4.998
 5476SOL    HW217328   2.194   6.829   5.027
 5477SOL     OW17329   1.935   3.602   3.943
 5477SOL    HW117330   1.998   3.679   3.953
 5477SOL    HW217331   1.841   3.635   3.942
 5478SOL     OW17332   5.181   4.737   5.775
 5478SOL    HW117333   5.152   4.832   5.778
 5478SOL    HW217334   5.281   4.732   5.787
 5479SOL     OW17335   5.370   2.106   4.248
 5479SOL    HW117336   5.391   2.127   4.343
 5479SOL    HW217337   5.455   2.087   4.198
 5480SOL     OW17338   1.229   3.267   4.123
 5480SOL    HW117339   1.137   3.233   4.137
 5480SOL    HW217340   1.229   3.335   4.050
 5481SOL     OW17341   4.417   1.618   6.507
 5481SOL    HW117342   4.395   1.523   6.485
 5481SOL    HW217343   4.344   1.678   6.474
 5482SOL     OW17344   5.386   3.266   1.874
 5482SOL    HW117345   5.288   3.246   1.872
 5482SOL    HW217346   5.411   3.304   1.963
 5483SOL     OW17347   6.792   2.829   6.811
 5483SOL    HW117348   6.828   2.864   6.898
 5483SOL    HW217349   6.702   2.788   6.826
 5484SOL     OW17350   6.707   6.760   4.891
 5484SOL    HW117351   6.672   6.770   4.798
 5484SOL    HW217352   6.739   6.849   4.924
 5485SOL     OW17353   3.482   0.113   4.983
 5485SOL    HW117354   3.483   0.094   4.885
 5485SOL    HW217355   3.557   0.175   5.005
 5486SOL     OW17356   1.151   0.799   4.257
 5486SOL    HW117357   1.167   0.891   4.222
 5486SOL    HW217358   1.152   0.733   4.182
 5487SOL     OW17359   4.498   5.209   0.578
 5487SOL    HW117360   4.489   5.175   0.484
 5487SOL    HW217361   4.430   5.281   0.594
 5488SOL     OW17362   4.905   1.015   5.758
 5488SOL    HW117363   4.814   1.054   5.774
 5488SOL    HW217364   4.918   0.997   5.661
 5489SOL     OW17365   0.183   4.494   3.125
 5489SOL    HW117366   0.246   4.555   3.078
 5489SOL    HW217367   0.089   4.513   3.094
 5490SOL     OW17368   2.119   2.658   0.004
 5490SOL    HW117369   2.147   2.649   6.934
 5490SOL    HW217370   2.036   2.714   0.009
 5491SOL     OW17371   0.503   5.709   1.851
 5491SOL    HW117372   0.479   5.612   1.849
 5491SOL    HW217373   0.488   5.745   1.943
 5492SOL     OW17374   1.844   1.246   5.186
 5492SOL    HW117375   1.837   1.146   5.189
 5492SOL    HW217376   1.925   1.273   5.134
 5493SOL     OW17377   2.965   2.993   6.803
 5493SOL    HW117378   2.944   2.919   6.740
 5493SOL    HW217379   2.914   2.979   6.889
 5494SOL     OW17380   5.892   2.843   2.389
 5494SOL    HW117381   5.915   2.885   2.476
 5494SOL    HW217382   5.797   2.809   2.392
 5495SOL     OW17383   3.644   2.957   2.739
 5495SOL    HW117384   3.620   2.939   2.643
 5495SOL    HW217385   3.580   2.908   2.799
 5496SOL     OW17386   3.408   5.517   1.408
 5496SOL    HW117387   3.423   5.455   1.485
 5496SOL    HW217388   3.497   5.543   1.369
 5497SOL     OW17389   6.429   6.839   1.807
 5497SOL    HW117390   6.454   6.785   1.727
 5497SOL    HW217391   6.419   6.780   1.886
 5498SOL     OW17392   3.965   6.953   5.271
 5498SOL    HW117393   3.931   0.021   5.274
 5498SOL    HW217394   4.012   6.932   5.357
 5499SOL     OW17395   0.163   1.788   4.719
 5499SOL    HW117396   0.185   1.820   4.811
 5499SOL    HW217397   0.210   1.701   4.702
 5500SOL     OW17398   2.221   5.819   1.240
 5500SOL    HW117399   2.288   5.807   1.167
 5500SOL    HW217400   2.236   5.906   1.286
 5501SOL     OW17401   1.715   6.866   2.835
 5501SOL    HW117402   1.627   6.883   2.879
 5501SOL    HW217403   1.782   6.933   2.868
 5502SOL     OW17404   4.564   3.667   0.492
 5502SOL    HW117405   4.530   3.574   0.503
 5502SOL    HW217406   4.588   3.684   0.396
 5503SOL     OW17407   0.778   6.151   4.453
 5503SOL    HW117408   0.866   6.162   4.406
 5503SOL    HW217409   0.747   6.057   4.444
 5504SOL     OW17410   3.559   1.996   4.663
 5504SOL    HW117411   3.612   1.957   4.588
 5504SOL    HW217412   3.473   2.032   4.627
 5505SOL     OW17413   3.312   5.004   5.941
 5505SOL    HW117414   3.337   5.097   5.914
 5505SOL    HW217415   3.289   4.950   5.859
 5506SOL     OW17416   6.927   0.027   5.414
 5506SOL    HW117417   6.949   0.089   5.489
 5506SOL    HW217418   6.989   6.974   5.416
 5507SOL     OW17419   3.185   5.609   4.787
 5507SOL    HW117420   3.092   5.614   4.751
 5507SOL    HW217421   3.194   5.527   4.843
 5508SOL     OW17422   2.415   0.576   5.896
 5508SOL    HW117423   2.479   0.510   5.935
 5508SOL    HW217424   2.324   0.537   5.892
 5509SOL     OW17425   6.034   6.124   6.850
 5509SOL    HW117426   6.083   6.135   6.763
 5509SOL    HW217427   5.946   6.171   6.845
 5510SOL     OW17428   5.028   0.448   5.787
 5510SOL    HW117429   5.062   0.417   5.698
 5510SOL    HW217430   5.009   0.369   5.845
 5511SOL     OW17431   0.145   1.738   1.952
 5511SOL    HW117432   0.122   1.661   1.892
 5511SOL    HW217433   0.062   1.792   1.969
 5512SOL     OW17434   1.095   6.818   0.940
 5512SOL    HW117435   1.000   6.850   0.939
 5512SOL    HW217436   1.121   6.790   0.847
 5513SOL     OW17437   3.280   5.082   4.496
 5513SOL    HW117438   3.380   5.085   4.495
 5513SOL    HW217439   3.246   5.089   4.402
 5514SOL     OW17440   5.923   5.529   3.616
 5514SOL    HW117441   5.936   5.516   3.517
 5514SOL    HW217442   6.001   5.492   3.665
 5515SOL     OW17443   6.763   3.177   2.048
 5515SOL    HW117444   6.799   3.085   2.029
 5515SOL    HW217445   6.742   3.185   2.145
 5516SOL     OW17446   1.394   3.609   5.995
 5516SOL    HW117447   1.324   3.665   6.039
 5516SOL    HW217448   1.365   3.587   5.901
 5517SOL     OW17449   2.104   1.169   2.195
 5517SOL    HW117450   2.017   1.161   2.147
 5517SOL    HW217451   2.175   1.119   2.143
 5518SOL     OW17452   5.593   4.836   5.253
 5518SOL    HW117453   5.540   4.773   5.310
 5518SOL    HW217454   5.583   4.810   5.157
 5519SOL     OW17455   5.149   3.437   3.791
 5519SOL    HW117456   5.162   3.345   3.755
 5519SOL    HW217457   5.238   3.476   3.816
 5520SOL     OW17458   1.599   3.384   1.472
 5520SOL    HW117459   1.680   3.357   1.523
 5520SOL    HW217460   1.539   3.305   1.459
 5521SOL     OW17461   5.123   5.515   1.629
 5521SOL    HW117462   5.145   5.424   1.663
 5521SOL    HW217463   5.161   5.527   1.537
 5522SOL     OW17464   2.099   3.504   2.352
 5522SOL    HW117465   2.190   3.536   2.381
 5522SOL    HW217466   2.035   3.580   2.356
 5523SOL     OW17467   2.966   0.798   1.084
 5523SOL    HW117468   2.877   0.769   1.050
 5523SOL    HW217469   2.978   0.767   1.178
 5524SOL     OW17470   6.726   5.812   6.345
 5524SOL    HW117471   6.783   5.890   6.371
 5524SOL    HW217472   6.749   5.784   6.252
 5525SOL     OW17473   6.870   5.652   4.648
 5525SOL    HW117474   6.873   5.554   4.664
 5525SOL    HW217475   6.780   5.678   4.612
 5526SOL     OW17476   5.600   2.657   4.883
 5526SOL    HW117477   5.694   2.664   4.914
 5526SOL    HW217478   5.590   2.706   4.796
 5527SOL     OW17479   2.147   3.607   1.372
 5527SOL    HW117480   2.060   3.655   1.366
 5527SOL    HW217481   2.203   3.630   1.292
 5528SOL     OW17482   0.545   3.595   3.143
 5528SOL    HW117483   0.472   3.542   3.187
 5528SOL    HW217484   0.634   3.558   3.170
 5529SOL     OW17485   1.586   1.329   5.056
 5529SOL    HW117486   1.584   1.267   4.978
 5529SOL    HW217487   1.659   1.300   5.119
 5530SOL     OW17488   1.340   3.070   0.813
 5530SOL    HW117489   1.275   3.092   0.741
 5530SOL    HW217490   1.424   3.033   0.772
 5531SOL     OW17491   3.004   2.891   5.766
 5531SOL    HW117492   3.032   2.921   5.675
 5531SOL    HW217493   3.085   2.874   5.822
 5532SOL     OW17494   2.720   1.756   1.048
 5532SOL    HW117495   2.803   1.705   1.070
 5532SOL    HW217496   2.640   1.698   1.064
 5533SOL     OW17497   4.220   0.203   0.970
 5533SOL    HW117498   4.185   0.297   0.973
 5533SOL    HW217499   4.166   0.150   0.905
 5534SOL     OW17500   0.150   4.468   5.800
 5534SOL    HW117501   0.247   4.462   5.779
 5534SOL    HW217502   0.111   4.376   5.807
 5535SOL     OW17503   5.604   3.368   3.653
 5535SOL    HW117504   5.524   3.312   3.630
 5535SOL    HW217505   5.683   3.337   3.599
 5536SOL     OW17506   1.649   0.648   3.420
 5536SOL    HW117507   1.647   0.565   3.476
 5536SOL    HW217508   1.555   0.678   3.402
 5537SOL     OW17509   4.303   0.958   4.811
 5537SOL    HW117510   4.231   0.931   4.748
 5537SOL    HW217511   4.364   0.881   4.827
 5538SOL     OW17512   5.427   1.764   0.943
 5538SOL    HW117513   5.351   1.785   0.882
 5538SOL    HW217514   5.463   1.673   0.921
 5539SOL     OW17515   3.262   6.603   0.209
 5539SOL    HW117516   3.287   6.613   0.305
 5539SOL    HW217517   3.242   6.693   0.170
 5540SOL     OW17518   5.116   0.442   6.604
 5540SOL    HW117519   5.018   0.423   6.610
 5540SOL    HW217520   5.164   0.362   6.567
 5541SOL     OW17521   4.792   3.663   6.026
 5541SOL    HW117522   4.858   3.592   6.004
 5541SOL    HW217523   4.831   3.725   6.094
 5542SOL     OW17524   4.355   4.204   6.852
 5542SOL    HW117525   4.421   4.228   6.923
 5542SOL    HW217526   4.275   4.162   6.894
 5543SOL     OW17527   1.428   0.489   0.358
 5543SOL    HW117528   1.355   0.556   0.365
 5543SOL    HW217529   1.435   0.457   0.263
 5544SOL     OW17530   3.863   5.643   6.412
 5544SOL    HW117531   3.919   5.662   6.493
 5544SOL    HW217532   3.834   5.730   6.371
 5545SOL     OW17533   4.263   0.470   3.423
 5545SOL    HW117534   4.213   0.555   3.437
 5545SOL    HW217535   4.250   0.438   3.330
 5546SOL     OW17536   0.578   4.831   4.789
 5546SOL    HW117537   0.542   4.924   4.800
 5546SOL    HW217538   0.549   4.774   4.865
 5547SOL     OW17539   5.198   1.428   4.568
 5547SOL    HW117540   5.146   1.513   4.557
 5547SOL    HW217541   5.231   1.398   4.478
 5548SOL     OW17542   0.198   3.965   4.806
 5548SOL    HW117543   0.122   3.900   4.811
 5548SOL    HW217544   0.172   4.043   4.749
 5549SOL     OW17545   4.688   2.952   0.722
 5549SOL    HW117546   4.753   2.881   0.694
 5549SOL    HW217547   4.656   2.932   0.815
 5550SOL     OW17548   1.874   3.859   1.788
 5550SOL    HW117549   1.865   3.760   1.779
 5550SOL    HW217550   1.908   3.881   1.879
 5551SOL     OW17551   1.854   5.403   3.440
 5551SOL    HW117552   1.760   5.399   3.405
 5551SOL    HW217553   1.911   5.337   3.391
 5552SOL     OW17554   0.554   6.418   6.858
 5552SOL    HW117555   0.606   6.339   6.891
 5552SOL    HW217556   0.594   6.450   6.772
 5553SOL     OW17557   4.615   0.343   6.846
 5553SOL    HW117558   4.678   0.276   6.884
 5553SOL    HW217559   4.633   0.433   6.887
 5554SOL     OW17560   5.411   2.294   1.503
 5554SOL    HW117561   5.432   2.209   1.551
 5554SOL    HW217562   5.326   2.333   1.539
 5555SOL     OW17563   1.728   4.663   2.080
 5555SOL    HW117564   1.746   4.622   1.991
 5555SOL    HW217565   1.751   4.760   2.077
 5556SOL     OW17566   0.171   1.049   4.944
 5556SOL    HW117567   0.123   1.106   4.877
 5556SOL    HW217568   0.251   1.098   4.979
 5557SOL     OW17569   3.305   5.867   2.623
 5557SOL    HW117570   3.397   5.907   2.624
 5557SOL    HW217571   3.309   5.773   2.659
 5558SOL     OW17572   4.177   4.679   0.077
 5558SOL    HW117573   4.147   4.584   0.075
 5558SOL    HW217574   4.200   4.709   7.009
 5559SOL     OW17575   2.206   6.937   2.455
 5559SOL    HW117576   2.278   6.935   2.386
 5559SOL    HW217577   2.241   6.982   2.538
 5560SOL     OW17578   1.130   6.195   2.613
 5560SOL    HW117579   1.215   6.237   2.583
 5560SOL    HW217580   1.145   6.098   2.631
 5561SOL     OW17581   3.547   6.721   3.538
 5561SOL    HW117582   3.586   6.650   3.480
 5561SOL    HW217583   3.516   6.797   3.481
 5562SOL     OW17584   4.001   4.096   1.045
 5562SOL    HW117585   3.924   4.069   1.104
 5562SOL    HW217586   4.084   4.103   1.100
 5563SOL     OW17587   2.779   4.717   3.127
 5563SOL    HW117588   2.743   4.720   3.221
 5563SOL    HW217589   2.877   4.734   3.129
 5564SOL     OW17590   5.261   0.628   5.784
 5564SOL    HW117591   5.207   0.646   5.866
 5564SOL    HW217592   5.350   0.591   5.809
 5565SOL     OW17593   3.210   2.262   6.616
 5565SOL    HW117594   3.134   2.223   6.565
 5565SOL    HW217595   3.290   2.201   6.611
 5566SOL     OW17596   1.708   3.790   6.515
 5566SOL    HW117597   1.705   3.709   6.455
 5566SOL    HW217598   1.646   3.860   6.479
 5567SOL     OW17599   0.158   4.343   1.418
 5567SOL    HW117600   0.203   4.367   1.332
 5567SOL    HW217601   0.139   4.245   1.419
 5568SOL     OW17602   4.262   6.026   1.553
 5568SOL    HW117603   4.165   6.009   1.564
 5568SOL    HW217604   4.311   5.996   1.635
 5569SOL     OW17605   2.048   2.954   4.074
 5569SOL    HW117606   1.989   2.997   4.142
 5569SOL    HW217607   1.999   2.948   3.987
 5570SOL     OW17608   0.879   4.085   2.771
 5570SOL    HW117609   0.780   4.091   2.782
 5570SOL    HW217610   0.909   3.991   2.789
 5571SOL     OW17611   6.205   5.007   1.748
 5571SOL    HW117612   6.226   4.973   1.840
 5571SOL    HW217613   6.106   5.014   1.738
 5572SOL     OW17614   1.447   3.239   4.991
 5572SOL    HW117615   1.458   3.206   4.897
 5572SOL    HW217616   1.492   3.175   5.054
 5573SOL     OW17617   2.792   5.240   4.374
 5573SOL    HW117618   2.706   5.263   4.328
 5573SOL    HW217619   2.849   5.186   4.313
 5574SOL     OW17620   0.146   2.300   6.262
 5574SOL    HW117621   0.105   2.250   6.185
 5574SOL    HW217622   0.199   2.236   6.318
 5575SOL     OW17623   0.477   0.134   1.678
 5575SOL    HW117624   0.490   0.153   1.775
 5575SOL    HW217625   0.558   0.089   1.641
 5576SOL     OW17626   2.376   4.549   3.269
 5576SOL    HW117627   2.314   4.556   3.347
 5576SOL    HW217628   2.344   4.608   3.195
 5577SOL     OW17629   1.579   3.070   6.103
 5577SOL    HW117630   1.657   3.071   6.040
 5577SOL    HW217631   1.501   3.114   6.060
 5578SOL     OW17632   3.924   3.606   3.414
 5578SOL    HW117633   3.841   3.552   3.399
 5578SOL    HW217634   3.900   3.692   3.457
 5579SOL     OW17635   0.537   3.143   1.497
 5579SOL    HW117636   0.611   3.079   1.512
 5579SOL    HW217637   0.538   3.213   1.569
 5580SOL     OW17638   4.933   1.845   5.048
 5580SOL    HW117639   4.925   1.875   5.143
 5580SOL    HW217640   5.030   1.836   5.024
 5581SOL     OW17641   1.048   1.731   6.825
 5581SOL    HW117642   1.066   1.797   6.753
 5581SOL    HW217643   1.063   1.774   6.914
 5582SOL     OW17644   2.686   2.656   6.400
 5582SOL    HW117645   2.703   2.733   6.461
 5582SOL    HW217646   2.675   2.689   6.306
 5583SOL     OW17647   5.226   0.932   2.282
 5583SOL    HW117648   5.237   0.906   2.186
 5583SOL    HW217649   5.315   0.958   2.320
 5584SOL     OW17650   0.846   3.671   5.028
 5584SOL    HW117651   0.867   3.747   5.089
 5584SOL    HW217652   0.894   3.683   4.942
 5585SOL     OW17653   4.523   4.822   2.252
 5585SOL    HW117654   4.432   4.781   2.243
 5585SOL    HW217655   4.520   4.897   2.318
 5586SOL     OW17656   6.813   3.023   6.607
 5586SOL    HW117657   6.822   2.945   6.669
 5586SOL    HW217658   6.745   3.002   6.536
 5587SOL     OW17659   5.452   0.368   6.383
 5587SOL    HW117660   5.365   0.379   6.431
 5587SOL    HW217661   5.522   0.423   6.429
 5588SOL     OW17662   3.470   0.128   1.989
 5588SOL    HW117663   3.564   0.135   1.956
 5588SOL    HW217664   3.455   0.038   2.029
 5589SOL     OW17665   5.933   5.257   6.461
 5589SOL    HW117666   5.897   5.264   6.554
 5589SOL    HW217667   6.030   5.234   6.464
 5590SOL     OW17668   5.575   5.498   4.522
 5590SOL    HW117669   5.575   5.578   4.462
 5590SOL    HW217670   5.560   5.527   4.616
 5591SOL     OW17671   6.241   1.316   1.303
 5591SOL    HW117672   6.335   1.286   1.288
 5591SOL    HW217673   6.220   1.313   1.401
 5592SOL     OW17674   0.725   4.803   3.317
 5592SOL    HW117675   0.682   4.815   3.406
 5592SOL    HW217676   0.708   4.710   3.283
 5593SOL     OW17677   6.292   2.726   0.108
 5593SOL    HW117678   6.280   2.710   0.206
 5593SOL    HW217679   6.248   2.653   0.056
 5594SOL     OW17680   5.705   2.467   5.439
 5594SOL    HW117681   5.730   2.373   5.461
 5594SOL    HW217682   5.666   2.470   5.347
 5595SOL     OW17683   0.747   2.550   5.439
 5595SOL    HW117684   0.693   2.603   5.504
 5595SOL    HW217685   0.808   2.489   5.489
 5596SOL     OW17686   4.286   6.595   2.520
 5596SOL    HW117687   4.337   6.575   2.436
 5596SOL    HW217688   4.223   6.671   2.504
 5597SOL     OW17689   5.401   3.579   3.538
 5597SOL    HW117690   5.454   3.659   3.512
 5597SOL    HW217691   5.370   3.588   3.633
 5598SOL     OW17692   5.312   2.367   5.163
 5598SOL    HW117693   5.276   2.274   5.168
 5598SOL    HW217694   5.250   2.425   5.111
 5599SOL     OW17695   0.571   1.764   3.939
 5599SOL    HW117696   0.615   1.785   3.851
 5599SOL    HW217697   0.479   1.729   3.923
 5600SOL     OW17698   1.400   2.271   3.828
 5600SOL    HW117699   1.386   2.244   3.923
 5600SOL    HW217700   1.415   2.370   3.823
 5601SOL     OW17701   2.249   1.078   5.631
 5601SOL    HW117702   2.161   1.113   5.599
 5601SOL    HW217703   2.286   1.139   5.701
 5602SOL     OW17704   1.051   1.808   0.754
 5602SOL    HW117705   1.008   1.890   0.792
 5602SOL    HW217706   1.130   1.783   0.810
 5603SOL     OW17707   5.928   2.372   6.329
 5603SOL    HW117708   5.907   2.276   6.315
 5603SOL    HW217709   5.918   2.394   6.426
 5604SOL     OW17710   6.393   1.864   5.603
 5604SOL    HW117711   6.399   1.780   5.548
 5604SOL    HW217712   6.330   1.849   5.679
 5605SOL     OW17713   0.809   2.167   4.589
 5605SOL    HW117714   0.783   2.128   4.677
 5605SOL    HW217715   0.901   2.204   4.595
 5606SOL     OW17716   4.597   6.993   1.656
 5606SOL    HW117717   4.608   6.993   1.556
 5606SOL    HW217718   4.679   6.955   1.699
 5607SOL     OW17719   5.918   1.380   1.502
 5607SOL    HW117720   5.929   1.337   1.412
 5607SOL    HW217721   5.892   1.475   1.491
 5608SOL     OW17722   4.233   6.475   5.359
 5608SOL    HW117723   4.194   6.412   5.293
 5608SOL    HW217724   4.170   6.551   5.375
 5609SOL     OW17725   2.617   6.080   6.269
 5609SOL    HW117726   2.696   6.074   6.331
 5609SOL    HW217727   2.633   6.023   6.189
 5610SOL     OW17728   4.808   1.064   6.783
 5610SOL    HW117729   4.765   1.009   6.712
 5610SOL    HW217730   4.890   1.017   6.816
 5611SOL     OW17731   1.902   4.660   3.352
 5611SOL    HW117732   1.816   4.688   3.394
 5611SOL    HW217733   1.904   4.561   3.340
 5612SOL     OW17734   2.686   6.800   5.886
 5612SOL    HW117735   2.687   6.891   5.926
 5612SOL    HW217736   2.649   6.804   5.794
 5613SOL     OW17737   4.008   4.682   1.765
 5613SOL    HW117738   4.051   4.701   1.853
 5613SOL    HW217739   4.060   4.611   1.717
 5614SOL     OW17740   4.677   1.952   2.877
 5614SOL    HW117741   4.761   1.977   2.830
 5614SOL    HW217742   4.698   1.890   2.953
 5615SOL     OW17743   1.599   0.634   1.027
 5615SOL    HW117744   1.605   0.733   1.026
 5615SOL    HW217745   1.623   0.600   1.118
 5616SOL     OW17746   1.952   0.951   4.669
 5616SOL    HW117747   1.856   0.936   4.643
 5616SOL    HW217748   1.969   1.049   4.678
 5617SOL     OW17749   2.093   0.871   4.944
 5617SOL    HW117750   2.025   0.922   4.891
 5617SOL    HW217751   2.138   0.933   5.008
 5618SOL     OW17752   0.410   4.494   3.343
 5618SOL    HW117753   0.385   4.571   3.402
 5618SOL    HW217754   0.329   4.463   3.293
 5619SOL     OW17755   2.149   3.499   5.264
 5619SOL    HW117756   2.106   3.504   5.355
 5619SOL    HW217757   2.172   3.591   5.233
 5620SOL     OW17758   3.528   1.802   6.350
 5620SOL    HW117759   3.577   1.867   6.409
 5620SOL    HW217760   3.442   1.776   6.394
 5621SOL     OW17761   1.837   2.258   5.836
 5621SOL    HW117762   1.778   2.306   5.901
 5621SOL    HW217763   1.782   2.197   5.779
 5622SOL     OW17764   5.811   0.622   6.042
 5622SOL    HW117765   5.882   0.670   6.094
 5622SOL    HW217766   5.814   0.651   5.946
 5623SOL     OW17767   1.109   5.886   6.921
 5623SOL    HW117768   1.165   5.952   6.871
 5623SOL    HW217769   1.118   5.795   6.879
 5624SOL     OW17770   1.112   4.478   3.669
 5624SOL    HW117771   1.136   4.402   3.729
 5624SOL    HW217772   1.157   4.467   3.581
 5625SOL     OW17773   6.891   2.881   4.884
 5625SOL    HW117774   6.802   2.915   4.853
 5625SOL    HW217775   6.880   2.792   4.928
 5626SOL     OW17776   4.126   6.665   4.968
 5626SOL    HW117777   4.129   6.644   4.870
 5626SOL    HW217778   4.099   6.761   4.981
 5627SOL     OW17779   1.594   6.519   1.600
 5627SOL    HW117780   1.502   6.500   1.634
 5627SOL    HW217781   1.642   6.433   1.583
 5628SOL     OW17782   2.113   1.511   4.215
 5628SOL    HW117783   2.135   1.419   4.182
 5628SOL    HW217784   2.197   1.561   4.233
 5629SOL     OW17785   3.556   3.663   2.674
 5629SOL    HW117786   3.517   3.645   2.583
 5629SOL    HW217787   3.656   3.658   2.669
 5630SOL     OW17788   0.632   4.353   1.529
 5630SOL    HW117789   0.684   4.359   1.614
 5630SOL    HW217790   0.564   4.281   1.536
 5631SOL     OW17791   4.788   0.869   0.197
 5631SOL    HW117792   4.702   0.918   0.181
 5631SOL    HW217793   4.864   0.921   0.159
 5632SOL     OW17794   4.072   3.682   6.742
 5632SOL    HW117795   4.125   3.616   6.689
 5632SOL    HW217796   4.095   3.775   6.714
 5633SOL     OW17797   6.252   2.531   4.223
 5633SOL    HW117798   6.304   2.447   4.240
 5633SOL    HW217799   6.280   2.570   4.136
 5634SOL     OW17800   3.763   5.567   4.236
 5634SOL    HW117801   3.724   5.635   4.174
 5634SOL    HW217802   3.819   5.614   4.305
 5635SOL     OW17803   2.876   2.262   4.908
 5635SOL    HW117804   2.899   2.208   4.828
 5635SOL    HW217805   2.959   2.285   4.959
 5636SOL     OW17806   3.946   5.785   3.276
 5636SOL    HW117807   3.922   5.873   3.318
 5636SOL    HW217808   4.020   5.742   3.328
 5637SOL     OW17809   5.604   0.245   3.415
 5637SOL    HW117810   5.703   0.233   3.410
 5637SOL    HW217811   5.582   0.341   3.398
 5638SOL     OW17812   5.709   3.156   6.116
 5638SOL    HW117813   5.650   3.228   6.152
 5638SOL    HW217814   5.798   3.159   6.161
 5639SOL     OW17815   2.036   1.398   6.276
 5639SOL    HW117816   2.114   1.409   6.215
 5639SOL    HW217817   2.022   1.302   6.296
 5640SOL     OW17818   2.427   0.323   3.219
 5640SOL    HW117819   2.525   0.335   3.199
 5640SOL    HW217820   2.395   0.239   3.176
 5641SOL     OW17821   6.368   5.605   5.020
 5641SOL    HW117822   6.290   5.562   5.065
 5641SOL    HW217823   6.436   5.535   4.998
 5642SOL     OW17824   1.286   1.944   6.224
 5642SOL    HW117825   1.194   1.962   6.189
 5642SOL    HW217826   1.281   1.924   6.321
 5643SOL     OW17827   5.889   2.421   4.515
 5643SOL    HW117828   5.831   2.502   4.503
 5643SOL    HW217829   5.840   2.352   4.568
 5644SOL     OW17830   3.587   0.251   6.785
 5644SOL    HW117831   3.555   0.327   6.730
 5644SOL    HW217832   3.599   0.170   6.727
 5645SOL     OW17833   5.338   2.360   4.154
 5645SOL    HW117834   5.257   2.393   4.201
 5645SOL    HW217835   5.346   2.261   4.168
 5646SOL     OW17836   1.815   4.591   3.052
 5646SOL    HW117837   1.776   4.670   3.098
 5646SOL    HW217838   1.745   4.521   3.042
 5647SOL     OW17839   6.871   5.855   2.409
 5647SOL    HW117840   6.892   5.920   2.482
 5647SOL    HW217841   6.856   5.764   2.449
 5648SOL     OW17842   4.083   6.593   3.127
 5648SOL    HW117843   4.077   6.692   3.139
 5648SOL    HW217844   4.174   6.561   3.153
 5649SOL     OW17845   0.869   6.502   3.920
 5649SOL    HW117846   0.809   6.482   3.997
 5649SOL    HW217847   0.909   6.417   3.886
 5650SOL     OW17848   6.508   4.346   6.991
 5650SOL    HW117849   6.492   4.413   6.918
 5650SOL    HW217850   6.581   4.378   0.025
 5651SOL     OW17851   1.725   0.468   1.948
 5651SOL    HW117852   1.805   0.528   1.948
 5651SOL    HW217853   1.642   0.522   1.943
 5652SOL     OW17854   1.239   5.876   1.839
 5652SOL    HW117855   1.203   5.931   1.764
 5652SOL    HW217856   1.295   5.801   1.803
 5653SOL     OW17857   6.976   6.791   0.947
 5653SOL    HW117858   6.942   6.704   0.912
 5653SOL    HW217859   6.922   6.866   0.910
 5654SOL     OW17860   2.433   6.199   4.947
 5654SOL    HW117861   2.376   6.237   5.020
 5654SOL    HW217862   2.497   6.133   4.986
 5655SOL     OW17863   6.447   2.781   4.408
 5655SOL    HW117864   6.425   2.813   4.316
 5655SOL    HW217865   6.424   2.851   4.475
 5656SOL     OW17866   0.080   3.298   0.125
 5656SOL    HW117867   0.102   3.238   0.048
 5656SOL    HW217868   0.078   3.393   0.094
 5657SOL     OW17869   4.661   5.584   5.411
 5657SOL    HW117870   4.609   5.648   5.467
 5657SOL    HW217871   4.653   5.492   5.449
 5658SOL     OW17872   2.224   2.379   5.630
 5658SOL    HW117873   2.266   2.290   5.613
 5658SOL    HW217874   2.282   2.451   5.592
 5659SOL     OW17875   4.032   4.146   6.195
 5659SOL    HW117876   4.068   4.234   6.164
 5659SOL    HW217877   3.932   4.151   6.199
 5660SOL     OW17878   4.274   0.595   6.173
 5660SOL    HW117879   4.349   0.658   6.195
 5660SOL    HW217880   4.283   0.512   6.227
 5661SOL     OW17881   1.041   5.110   5.556
 5661SOL    HW117882   1.081   5.199   5.538
 5661SOL    HW217883   1.093   5.064   5.629
 5662SOL     OW17884   2.390   6.425   1.914
 5662SOL    HW117885   2.354   6.518   1.918
 5662SOL    HW217886   2.336   6.366   1.976
 5663SOL     OW17887   0.698   2.970   6.586
 5663SOL    HW117888   0.641   2.912   6.529
 5663SOL    HW217889   0.764   2.914   6.636
 5664SOL     OW17890   4.855   3.776   4.447
 5664SOL    HW117891   4.864   3.855   4.508
 5664SOL    HW217892   4.795   3.799   4.371
 5665SOL     OW17893   2.344   1.737   0.851
 5665SOL    HW117894   2.360   1.764   0.946
 5665SOL    HW217895   2.402   1.791   0.790
 5666SOL     OW17896   5.106   0.971   4.805
 5666SOL    HW117897   5.154   1.059   4.804
 5666SOL    HW217898   5.086   0.943   4.711
 5667SOL     OW17899   2.393   5.076   4.560
 5667SOL    HW117900   2.403   5.124   4.472
 5667SOL    HW217901   2.311   5.109   4.607
 5668SOL     OW17902   5.120   3.176   3.696
 5668SOL    HW117903   5.091   3.162   3.791
 5668SOL    HW217904   5.072   3.111   3.637
 5669SOL     OW17905   6.451   4.555   6.610
 5669SOL    HW117906   6.549   4.552   6.590
 5669SOL    HW217907   6.422   4.466   6.646
 5670SOL     OW17908   0.273   1.896   2.744
 5670SOL    HW117909   0.295   1.965   2.812
 5670SOL    HW217910   0.174   1.882   2.741
 5671SOL     OW17911   6.897   6.409   3.621
 5671SOL    HW117912   6.901   6.481   3.552
 5671SOL    HW217913   6.943   6.327   3.587
 5672SOL     OW17914   4.962   3.256   5.316
 5672SOL    HW117915   4.987   3.270   5.220
 5672SOL    HW217916   4.878   3.306   5.336
 5673SOL     OW17917   0.575   0.949   1.104
 5673SOL    HW117918   0.502   0.995   1.054
 5673SOL    HW217919   0.570   0.850   1.088
 5674SOL     OW17920   1.961   5.237   5.849
 5674SOL    HW117921   1.873   5.205   5.883
 5674SOL    HW217922   1.966   5.336   5.857
 5675SOL     OW17923   2.527   2.142   0.528
 5675SOL    HW117924   2.470   2.186   0.458
 5675SOL    HW217925   2.565   2.212   0.589
 5676SOL     OW17926   2.658   2.101   1.762
 5676SOL    HW117927   2.659   2.085   1.664
 5676SOL    HW217928   2.585   2.046   1.804
 5677SOL     OW17929   6.652   1.074   1.114
 5677SOL    HW117930   6.710   1.040   1.040
 5677SOL    HW217931   6.709   1.127   1.178
 5678SOL     OW17932   3.223   2.231   1.781
 5678SOL    HW117933   3.129   2.253   1.753
 5678SOL    HW217934   3.221   2.165   1.856
 5679SOL     OW17935   6.110   3.597   4.920
 5679SOL    HW117936   6.173   3.558   4.854
 5679SOL    HW217937   6.103   3.536   4.999
 5680SOL     OW17938   1.647   6.164   5.333
 5680SOL    HW117939   1.744   6.181   5.350
 5680SOL    HW217940   1.637   6.082   5.277
 5681SOL     OW17941   0.940   3.920   3.807
 5681SOL    HW117942   0.894   3.934   3.894
 5681SOL    HW217943   0.875   3.934   3.732
 5682SOL     OW17944   2.037   4.265   1.948
 5682SOL    HW117945   2.088   4.310   2.021
 5682SOL    HW217946   2.091   4.189   1.911
 5683SOL     OW17947   6.521   1.505   6.314
 5683SOL    HW117948   6.614   1.473   6.331
 5683SOL    HW217949   6.515   1.602   6.338
 5684SOL     OW17950   2.045   2.647   5.133
 5684SOL    HW117951   2.020   2.638   5.230
 5684SOL    HW217952   2.130   2.597   5.116
 5685SOL     OW17953   2.141   1.688   3.083
 5685SOL    HW117954   2.240   1.678   3.079
 5685SOL    HW217955   2.110   1.747   3.007
 5686SOL     OW17956   3.370   5.668   6.062
 5686SOL    HW117957   3.366   5.580   6.016
 5686SOL    HW217958   3.286   5.683   6.115
 5687SOL     OW17959   1.948   6.334   6.889
 5687SOL    HW117960   2.030   6.287   6.923
 5687SOL    HW217961   1.929   6.413   6.948
 5688SOL     OW17962   2.305   2.419   3.123
 5688SOL    HW117963   2.217   2.381   3.094
 5688SOL    HW217964   2.368   2.344   3.143
 5689SOL     OW17965   0.706   2.311   1.353
 5689SOL    HW117966   0.711   2.381   1.425
 5689SOL    HW217967   0.729   2.353   1.265
 5690SOL     OW17968   1.604   5.525   0.252
 5690SOL    HW117969   1.701   5.510   0.234
 5690SOL    HW217970   1.567   5.591   0.187
 5691SOL     OW17971   3.142   1.169   2.480
 5691SOL    HW117972   3.057   1.120   2.495
 5691SOL    HW217973   3.208   1.144   2.551
 5692SOL     OW17974   4.216   4.733   1.433
 5692SOL    HW117975   4.264   4.648   1.454
 5692SOL    HW217976   4.128   4.734   1.482
 5693SOL     OW17977   4.248   0.730   1.385
 5693SOL    HW117978   4.194   0.671   1.325
 5693SOL    HW217979   4.343   0.731   1.353
 5694SOL     OW17980   1.094   6.226   1.827
 5694SOL    HW117981   1.155   6.291   1.873
 5694SOL    HW217982   1.057   6.162   1.894
 5695SOL     OW17983   1.543   0.258   1.121
 5695SOL    HW117984   1.602   0.283   1.044
 5695SOL    HW217985   1.449   0.251   1.090
 5696SOL     OW17986   1.670   0.449   3.869
 5696SOL    HW117987   1.716   0.410   3.949
 5696SOL    HW217988   1.715   0.534   3.843
 5697SOL     OW17989   6.632   3.197   0.125
 5697SOL    HW117990   6.588   3.108   0.131
 5697SOL    HW217991   6.731   3.185   0.119
 5698SOL     OW17992   2.768   2.367   3.952
 5698SOL    HW117993   2.674   2.400   3.947
 5698SOL    HW217994   2.795   2.331   3.863
 5699SOL     OW17995   1.729   2.388   3.283
 5699SOL    HW117996   1.643   2.390   3.234
 5699SOL    HW217997   1.720   2.331   3.365
 5700SOL     OW17998   6.281   0.865   3.235
 5700SOL    HW117999   6.248   0.842   3.327
 5700SOL    HW218000   6.257   0.792   3.171
 5701SOL     OW18001   0.325   1.053   0.985
 5701SOL    HW118002   0.249   1.047   0.920
 5701SOL    HW218003   0.309   1.129   1.048
 5702SOL     OW18004   2.419   6.842   4.422
 5702SOL    HW118005   2.425   6.937   4.393
 5702SOL    HW218006   2.395   6.785   4.344
 5703SOL     OW18007   0.103   3.063   6.234
 5703SOL    HW118008   0.196   3.040   6.261
 5703SOL    HW218009   0.044   2.984   6.246
 5704SOL     OW18010   4.528   4.472   3.799
 5704SOL    HW118011   4.475   4.495   3.881
 5704SOL    HW218012   4.612   4.525   3.799
 5705SOL     OW18013   6.258   6.956   5.416
 5705SOL    HW118014   6.183   6.959   5.351
 5705SOL    HW218015   6.259   0.016   5.469
 5706SOL     OW18016   4.862   2.108   0.235
 5706SOL    HW118017   4.768   2.086   0.208
 5706SOL    HW218018   4.926   2.075   0.166
 5707SOL     OW18019   5.529   5.850   2.400
 5707SOL    HW118020   5.569   5.942   2.404
 5707SOL    HW218021   5.443   5.854   2.350
 5708SOL     OW18022   4.328   6.086   2.710
 5708SOL    HW118023   4.293   6.179   2.703
 5708SOL    HW218024   4.426   6.086   2.687
 5709SOL     OW18025   0.005   1.653   2.275
 5709SOL    HW118026   6.980   1.739   2.290
 5709SOL    HW218027   0.069   1.639   2.350
 5710SOL     OW18028   3.247   2.183   1.122
 5710SOL    HW118029   3.280   2.227   1.206
 5710SOL    HW218030   3.254   2.248   1.046
 5711SOL     OW18031   5.584   1.657   2.008
 5711SOL    HW118032   5.517   1.624   2.075
 5711SOL    HW218033   5.560   1.750   1.981
 5712SOL     OW18034   6.197   0.004   1.427
 5712SOL    HW118035   6.162   6.936   1.428
 5712SOL    HW218036   6.265   0.013   1.354
 5713SOL     OW18037   2.480   6.794   0.398
 5713SOL    HW118038   2.575   6.781   0.368
 5713SOL    HW218039   2.479   6.815   0.496
 5714SOL     OW18040   6.182   6.985   1.018
 5714SOL    HW118041   6.175   6.931   1.102
 5714SOL    HW218042   6.091   7.015   0.990
 5715SOL     OW18043   0.288   0.240   1.180
 5715SOL    HW118044   0.194   0.216   1.154
 5715SOL    HW218045   0.295   0.244   1.279
 5716SOL     OW18046   6.609   4.929   5.549
 5716SOL    HW118047   6.703   4.898   5.537
 5716SOL    HW218048   6.604   4.992   5.626
 5717SOL     OW18049   1.299   5.028   3.065
 5717SOL    HW118050   1.285   5.046   2.968
 5717SOL    HW218051   1.214   5.047   3.115
 5718SOL     OW18052   0.650   3.603   0.260
 5718SOL    HW118053   0.722   3.536   0.241
 5718SOL    HW218054   0.675   3.691   0.219
 5719SOL     OW18055   2.401   3.390   0.772
 5719SOL    HW118056   2.474   3.401   0.704
 5719SOL    HW218057   2.433   3.425   0.860
 5720SOL     OW18058   2.626   4.563   6.464
 5720SOL    HW118059   2.569   4.633   6.508
 5720SOL    HW218060   2.666   4.600   6.381
 5721SOL     OW18061   2.840   3.551   0.614
 5721SOL    HW118062   2.895   3.512   0.540
 5721SOL    HW218063   2.878   3.638   0.642
 5722SOL     OW18064   1.250   1.164   6.053
 5722SOL    HW118065   1.303   1.112   6.120
 5722SOL    HW218066   1.212   1.102   5.985
 5723SOL     OW18067   4.233   3.443   0.319
 5723SOL    HW118068   4.324   3.479   0.298
 5723SOL    HW218069   4.164   3.493   0.267
 5724SOL     OW18070   5.611   2.419   4.265
 5724SOL    HW118071   5.514   2.418   4.241
 5724SOL    HW218072   5.666   2.423   4.182
 5725SOL     OW18073   6.603   4.050   4.604
 5725SOL    HW118074   6.598   4.070   4.506
 5725SOL    HW218075   6.613   3.951   4.617
 5726SOL     OW18076   5.178   4.379   2.502
 5726SOL    HW118077   5.085   4.415   2.503
 5726SOL    HW218078   5.231   4.419   2.577
 5727SOL     OW18079   0.908   2.145   5.007
 5727SOL    HW118080   0.919   2.076   5.079
 5727SOL    HW218081   0.951   2.230   5.036
 5728SOL     OW18082   4.630   6.572   4.655
 5728SOL    HW118083   4.698   6.583   4.727
 5728SOL    HW218084   4.611   6.661   4.613
 5729SOL     OW18085   2.099   2.023   5.303
 5729SOL    HW118086   2.046   2.039   5.386
 5729SOL    HW218087   2.064   1.942   5.255
 5730SOL     OW18088   6.571   3.771   4.616
 5730SOL    HW118089   6.639   3.734   4.553
 5730SOL    HW218090   6.556   3.707   4.691
 5731SOL     OW18091   0.309   6.474   2.475
 5731SOL    HW118092   0.396   6.465   2.427
 5731SOL    HW218093   0.251   6.539   2.427
 5732SOL     OW18094   0.664   0.175   3.552
 5732SOL    HW118095   0.584   0.161   3.494
 5732SOL    HW218096   0.719   0.251   3.517
 5733SOL     OW18097   3.453   0.633   5.551
 5733SOL    HW118098   3.430   0.537   5.567
 5733SOL    HW218099   3.382   0.691   5.591
 5734SOL     OW18100   2.304   6.195   3.374
 5734SOL    HW118101   2.355   6.146   3.303
 5734SOL    HW218102   2.217   6.228   3.337
 5735SOL     OW18103   2.793   1.246   1.828
 5735SOL    HW118104   2.890   1.221   1.833
 5735SOL    HW218105   2.737   1.167   1.851
 5736SOL     OW18106   1.298   5.067   6.370
 5736SOL    HW118107   1.267   5.145   6.424
 5736SOL    HW218108   1.396   5.076   6.353
 5737SOL     OW18109   5.315   4.421   0.741
 5737SOL    HW118110   5.288   4.452   0.650
 5737SOL    HW218111   5.337   4.499   0.798
 5738SOL     OW18112   1.796   3.821   6.085
 5738SOL    HW118113   1.800   3.888   6.159
 5738SOL    HW218114   1.842   3.737   6.114
 5739SOL     OW18115   0.716   1.635   1.267
 5739SOL    HW118116   0.807   1.602   1.289
 5739SOL    HW218117   0.648   1.583   1.320
 5740SOL     OW18118   3.843   5.918   6.282
 5740SOL    HW118119   3.904   5.961   6.348
 5740SOL    HW218120   3.889   5.912   6.193
 5741SOL     OW18121   0.157   4.880   3.393
 5741SOL    HW118122   0.168   4.961   3.334
 5741SOL    HW218123   0.095   4.816   3.349
 5742SOL     OW18124   6.747   6.449   4.349
 5742SOL    HW118125   6.775   6.355   4.331
 5742SOL    HW218126   6.705   6.454   4.439
 5743SOL     OW18127   1.887   6.947   5.008
 5743SOL    HW118128   1.859   6.879   4.940
 5743SOL    HW218129   1.936   7.021   4.963
 5744SOL     OW18130   5.591   6.598   2.029
 5744SOL    HW118131   5.496   6.619   2.008
 5744SOL    HW218132   5.641   6.584   1.943
 5745SOL     OW18133   1.266   1.809   3.323
 5745SOL    HW118134   1.207   1.749   3.377
 5745SOL    HW218135   1.361   1.798   3.351
 5746SOL     OW18136   6.182   4.069   0.133
 5746SOL    HW118137   6.099   4.019   0.158
 5746SOL    HW218138   6.261   4.009   0.143
 5747SOL     OW18139   1.005   5.978   2.925
 5747SOL    HW118140   0.973   6.064   2.965
 5747SOL    HW218141   1.105   5.973   2.933
 5748SOL     OW18142   2.198   6.082   3.074
 5748SOL    HW118143   2.172   6.124   2.988
 5748SOL    HW218144   2.267   6.011   3.057
 5749SOL     OW18145   2.321   1.767   3.435
 5749SOL    HW118146   2.344   1.837   3.503
 5749SOL    HW218147   2.391   1.768   3.363
 5750SOL     OW18148   6.386   5.443   2.721
 5750SOL    HW118149   6.328   5.364   2.703
 5750SOL    HW218150   6.377   5.470   2.817
 5751SOL     OW18151   2.387   2.893   6.388
 5751SOL    HW118152   2.470   2.946   6.400
 5751SOL    HW218153   2.308   2.948   6.417
 5752SOL     OW18154   6.883   0.455   0.070
 5752SOL    HW118155   6.965   0.465   0.014
 5752SOL    HW218156   6.861   0.543   0.114
 5753SOL     OW18157   3.774   2.233   0.400
 5753SOL    HW118158   3.839   2.308   0.404
 5753SOL    HW218159   3.745   2.209   0.493
 5754SOL     OW18160   6.055   4.379   0.789
 5754SOL    HW118161   6.074   4.388   0.691
 5754SOL    HW218162   6.107   4.302   0.826
 5755SOL     OW18163   3.568   3.603   1.414
 5755SOL    HW118164   3.627   3.633   1.490
 5755SOL    HW218165   3.522   3.518   1.439
 5756SOL     OW18166   0.142   6.173   4.002
 5756SOL    HW118167   0.213   6.215   3.946
 5756SOL    HW218168   0.167   6.178   4.099
 5757SOL     OW18169   0.298   5.339   1.589
 5757SOL    HW118170   0.231   5.270   1.615
 5757SOL    HW218171   0.254   5.409   1.532
 5758SOL     OW18172   0.860   1.907   5.493
 5758SOL    HW118173   0.882   1.838   5.425
 5758SOL    HW218174   0.858   1.997   5.450
 5759SOL     OW18175   5.672   2.188   5.202
 5759SOL    HW118176   5.626   2.166   5.116
 5759SOL    HW218177   5.608   2.178   5.277
 5760SOL     OW18178   2.013   5.654   1.642
 5760SOL    HW118179   2.090   5.590   1.642
 5760SOL    HW218180   1.994   5.682   1.736
 5761SOL     OW18181   5.093   0.178   4.931
 5761SOL    HW118182   5.090   0.276   4.953
 5761SOL    HW218183   5.004   0.149   4.895
 5762SOL     OW18184   5.483   6.213   1.279
 5762SOL    HW118185   5.576   6.184   1.306
 5762SOL    HW218186   5.485   6.248   1.185
 5763SOL     OW18187   1.484   1.551   1.430
 5763SOL    HW118188   1.558   1.483   1.440
 5763SOL    HW218189   1.430   1.554   1.514
 5764SOL     OW18190   4.859   3.432   5.607
 5764SOL    HW118191   4.913   3.348   5.618
 5764SOL    HW218192   4.806   3.426   5.522
 5765SOL     OW18193   5.765   4.583   0.494
 5765SOL    HW118194   5.768   4.519   0.571
 5765SOL    HW218195   5.680   4.572   0.444
 5766SOL     OW18196   2.686   1.011   3.707
 5766SOL    HW118197   2.676   1.045   3.800
 5766SOL    HW218198   2.727   1.081   3.649
 5767SOL     OW18199   6.788   6.978   0.866
 5767SOL    HW118200   6.695   6.946   0.885
 5767SOL    HW218201   6.821   0.007   0.943
 5768SOL     OW18202   6.282   0.370   2.798
 5768SOL    HW118203   6.372   0.327   2.786
 5768SOL    HW218204   6.228   0.358   2.714
 5769SOL     OW18205   2.183   5.753   3.740
 5769SOL    HW118206   2.092   5.735   3.702
 5769SOL    HW218207   2.245   5.780   3.667
 5770SOL     OW18208   6.237   0.824   1.698
 5770SOL    HW118209   6.255   0.834   1.600
 5770SOL    HW218210   6.196   0.734   1.716
 5771SOL     OW18211   0.903   1.446   2.352
 5771SOL    HW118212   0.926   1.354   2.321
 5771SOL    HW218213   0.906   1.450   2.452
 5772SOL     OW18214   6.827   4.569   6.945
 5772SOL    HW118215   6.784   4.658   6.961
 5772SOL    HW218216   6.860   4.565   6.851
 5773SOL     OW18217   5.760   5.939   4.554
 5773SOL    HW118218   5.781   6.037   4.552
 5773SOL    HW218219   5.777   5.903   4.645
 5774SOL     OW18220   2.710   5.102   2.666
 5774SOL    HW118221   2.745   5.046   2.742
 5774SOL    HW218222   2.741   5.064   2.579
 5775SOL     OW18223   0.640   0.423   0.228
 5775SOL    HW118224   0.709   0.381   0.169
 5775SOL    HW218225   0.549   0.396   0.197
 5776SOL     OW18226   5.271   0.981   6.209
 5776SOL    HW118227   5.218   1.017   6.132
 5776SOL    HW218228   5.292   1.056   6.272
 5777SOL     OW18229   5.861   0.616   5.099
 5777SOL    HW118230   5.817   0.541   5.148
 5777SOL    HW218231   5.941   0.581   5.049
 5778SOL     OW18232   2.249   6.749   3.853
 5778SOL    HW118233   2.324   6.798   3.897
 5778SOL    HW218234   2.223   6.794   3.768
 5779SOL     OW18235   4.064   0.704   2.062
 5779SOL    HW118236   4.123   0.776   2.100
 5779SOL    HW218237   3.980   0.697   2.117
 5780SOL     OW18238   5.855   3.735   1.363
 5780SOL    HW118239   5.912   3.656   1.387
 5780SOL    HW218240   5.829   3.730   1.267
 5781SOL     OW18241   2.568   4.933   5.028
 5781SOL    HW118242   2.504   4.872   4.981
 5781SOL    HW218243   2.660   4.896   5.022
 5782SOL     OW18244   3.006   1.238   3.290
 5782SOL    HW118245   2.994   1.334   3.313
 5782SOL    HW218246   3.061   1.231   3.206
 5783SOL     OW18247   2.655   6.618   1.233
 5783SOL    HW118248   2.603   6.547   1.185
 5783SOL    HW218249   2.596   6.697   1.249
 5784SOL     OW18250   1.864   5.439   0.203
 5784SOL    HW118251   1.917   5.488   0.272
 5784SOL    HW218252   1.926   5.386   0.145
 5785SOL     OW18253   2.653   1.583   0.616
 5785SOL    HW118254   2.703   1.668   0.599
 5785SOL    HW218255   2.694   1.509   0.562
 5786SOL     OW18256   0.858   3.430   0.165
 5786SOL    HW118257   0.956   3.427   0.147
 5786SOL    HW218258   0.812   3.362   0.108
 5787SOL     OW18259   0.435   3.096   5.361
 5787SOL    HW118260   0.475   3.108   5.270
 5787SOL    HW218261   0.377   3.174   5.381
 5788SOL     OW18262   2.056   2.496   1.823
 5788SOL    HW118263   2.138   2.554   1.815
 5788SOL    HW218264   1.988   2.526   1.756
 5789SOL     OW18265   3.018   4.967   6.896
 5789SOL    HW118266   3.069   4.959   6.811
 5789SOL    HW218267   3.045   5.051   6.943
 5790SOL     OW18268   6.262   5.947   3.646
 5790SOL    HW118269   6.189   5.994   3.597
 5790SOL    HW218270   6.286   6.000   3.728
 5791SOL     OW18271   4.254   1.798   1.226
 5791SOL    HW118272   4.286   1.806   1.131
 5791SOL    HW218273   4.160   1.765   1.226
 5792SOL     OW18274   4.204   2.344   2.711
 5792SOL    HW118275   4.263   2.424   2.714
 5792SOL    HW218276   4.244   2.276   2.650
 5793SOL     OW18277   3.994   2.709   6.728
 5793SOL    HW118278   4.045   2.685   6.810
 5793SOL    HW218279   3.933   2.633   6.703
 5794SOL     OW18280   3.564   6.399   0.064
 5794SOL    HW118281   3.468   6.395   0.036
 5794SOL    HW218282   3.570   6.393   0.163
 5795SOL     OW18283   2.063   6.346   1.797
 5795SOL    HW118284   2.079   6.389   1.885
 5795SOL    HW218285   2.007   6.264   1.809
 5796SOL     OW18286   4.943   0.728   6.463
 5796SOL    HW118287   4.906   0.640   6.493
 5796SOL    HW218288   5.013   0.759   6.527
 5797SOL     OW18289   6.738   2.717   0.456
 5797SOL    HW118290   6.752   2.721   0.555
 5797SOL    HW218291   6.810   2.662   0.414
 5798SOL     OW18292   1.723   3.707   4.389
 5798SOL    HW118293   1.693   3.789   4.340
 5798SOL    HW218294   1.756   3.639   4.323
 5799SOL     OW18295   2.823   0.182   3.808
 5799SOL    HW118296   2.827   0.172   3.708
 5799SOL    HW218297   2.790   0.097   3.848
 5800SOL     OW18298   1.125   0.399   1.183
 5800SOL    HW118299   1.046   0.391   1.244
 5800SOL    HW218300   1.156   0.495   1.182
 5801SOL     OW18301   1.890   1.792   2.400
 5801SOL    HW118302   1.860   1.712   2.347
 5801SOL    HW218303   1.988   1.784   2.418
 5802SOL     OW18304   0.500   0.230   2.416
 5802SOL    HW118305   0.469   0.141   2.448
 5802SOL    HW218306   0.600   0.228   2.404
 5803SOL     OW18307   0.321   6.328   4.462
 5803SOL    HW118308   0.339   6.252   4.525
 5803SOL    HW218309   0.328   6.295   4.368
 5804SOL     OW18310   5.861   2.087   2.795
 5804SOL    HW118311   5.863   2.102   2.894
 5804SOL    HW218312   5.782   2.032   2.770
 5805SOL     OW18313   1.256   2.903   2.468
 5805SOL    HW118314   1.239   2.805   2.476
 5805SOL    HW218315   1.353   2.922   2.487
 5806SOL     OW18316   6.608   4.249   1.934
 5806SOL    HW118317   6.701   4.285   1.929
 5806SOL    HW218318   6.545   4.312   1.890
 5807SOL     OW18319   1.562   1.241   2.475
 5807SOL    HW118320   1.524   1.332   2.458
 5807SOL    HW218321   1.633   1.247   2.544
 5808SOL     OW18322   6.689   0.429   5.924
 5808SOL    HW118323   6.729   0.510   5.968
 5808SOL    HW218324   6.720   0.347   5.971
 5809SOL     OW18325   0.177   2.758   4.479
 5809SOL    HW118326   0.192   2.660   4.467
 5809SOL    HW218327   0.190   2.783   4.576
 5810SOL     OW18328   2.982   6.387   5.300
 5810SOL    HW118329   2.995   6.316   5.368
 5810SOL    HW218330   3.068   6.439   5.289
 5811SOL     OW18331   3.909   4.142   6.485
 5811SOL    HW118332   3.812   4.165   6.480
 5811SOL    HW218333   3.963   4.226   6.484
 5812SOL     OW18334   5.872   2.641   6.110
 5812SOL    HW118335   5.887   2.633   6.209
 5812SOL    HW218336   5.940   2.702   6.071
 5813SOL     OW18337   5.201   5.566   0.817
 5813SOL    HW118338   5.141   5.561   0.897
 5813SOL    HW218339   5.186   5.653   0.770
 5814SOL     OW18340   5.773   1.231   2.104
 5814SOL    HW118341   5.679   1.196   2.105
 5814SOL    HW218342   5.813   1.216   2.014
 5815SOL     OW18343   6.220   3.198   4.286
 5815SOL    HW118344   6.183   3.214   4.194
 5815SOL    HW218345   6.148   3.165   4.346
 5816SOL     OW18346   0.196   4.044   2.198
 5816SOL    HW118347   0.280   4.069   2.248
 5816SOL    HW218348   0.220   4.013   2.107
 5817SOL     OW18349   6.257   3.490   3.170
 5817SOL    HW118350   6.171   3.543   3.171
 5817SOL    HW218351   6.249   3.415   3.104
 5818SOL     OW18352   2.636   0.353   4.473
 5818SOL    HW118353   2.556   0.354   4.412
 5818SOL    HW218354   2.719   0.346   4.419
 5819SOL     OW18355   3.912   3.976   0.465
 5819SOL    HW118356   3.915   3.890   0.414
 5819SOL    HW218357   3.997   3.986   0.517
 5820SOL     OW18358   6.178   7.014   2.371
 5820SOL    HW118359   6.253   0.011   2.309
 5820SOL    HW218360   6.130   6.933   2.337
 5821SOL     OW18361   6.904   0.222   1.772
 5821SOL    HW118362   6.823   0.192   1.722
 5821SOL    HW218363   6.973   0.256   1.707
 5822SOL     OW18364   1.441   4.109   2.615
 5822SOL    HW118365   1.380   4.085   2.690
 5822SOL    HW218366   1.535   4.114   2.648
 5823SOL     OW18367   1.954   6.598   3.848
 5823SOL    HW118368   1.866   6.571   3.808
 5823SOL    HW218369   2.005   6.516   3.873
 5824SOL     OW18370   1.746   6.694   2.364
 5824SOL    HW118371   1.836   6.715   2.324
 5824SOL    HW218372   1.718   6.602   2.336
 5825SOL     OW18373   4.808   1.451   3.955
 5825SOL    HW118374   4.871   1.378   3.983
 5825SOL    HW218375   4.746   1.416   3.885
 5826SOL     OW18376   1.444   6.885   5.543
 5826SOL    HW118377   1.411   6.805   5.493
 5826SOL    HW218378   1.368   6.945   5.564
 5827SOL     OW18379   2.165   4.164   3.658
 5827SOL    HW118380   2.179   4.078   3.707
 5827SOL    HW218381   2.080   4.207   3.689
 5828SOL     OW18382   4.199   0.671   5.418
 5828SOL    HW118383   4.196   0.737   5.493
 5828SOL    HW218384   4.277   0.610   5.431
 5829SOL     OW18385   2.004   0.413   2.872
 5829SOL    HW118386   2.034   0.341   2.809
 5829SOL    HW218387   1.924   0.459   2.834
 5830SOL     OW18388   4.034   5.280   4.063
 5830SOL    HW118389   4.091   5.355   4.099
 5830SOL    HW218390   4.093   5.204   4.035
 5831SOL     OW18391   2.270   2.080   5.047
 5831SOL    HW118392   2.346   2.015   5.049
 5831SOL    HW218393   2.252   2.113   5.139
 5832SOL     OW18394   3.044   5.364   2.187
 5832SOL    HW118395   3.016   5.268   2.193
 5832SOL    HW218396   3.135   5.374   2.227
 5833SOL     OW18397   3.410   5.631   6.952
 5833SOL    HW118398   3.357   5.636   0.011
 5833SOL    HW218399   3.406   5.719   6.905
 5834SOL     OW18400   6.717   2.809   6.140
 5834SOL    HW118401   6.659   2.754   6.080
 5834SOL    HW218402   6.660   2.873   6.192
 5835SOL     OW18403   4.703   1.872   3.156
 5835SOL    HW118404   4.658   1.954   3.192
 5835SOL    HW218405   4.797   1.869   3.188
 5836SOL     OW18406   5.282   6.190   2.159
 5836SOL    HW118407   5.352   6.260   2.164
 5836SOL    HW218408   5.257   6.173   2.064
 5837SOL     OW18409   3.160   4.682   6.506
 5837SOL    HW118410   3.181   4.586   6.487
 5837SOL    HW218411   3.142   4.730   6.420
 5838SOL     OW18412   4.117   2.921   0.546
 5838SOL    HW118413   4.204   2.900   0.590
 5838SOL    HW218414   4.133   2.971   0.461
 5839SOL     OW18415   1.853   2.263   0.890
 5839SOL    HW118416   1.791   2.320   0.943
 5839SOL    HW218417   1.806   2.179   0.863
 5840SOL     OW18418   0.261   3.706   3.657
 5840SOL    HW118419   0.213   3.617   3.659
 5840SOL    HW218420   0.359   3.690   3.653
 5841SOL     OW18421   5.184   1.286   0.523
 5841SOL    HW118422   5.267   1.237   0.498
 5841SOL    HW218423   5.183   1.302   0.622
 5842SOL     OW18424   3.078   1.796   1.239
 5842SOL    HW118425   3.043   1.889   1.252
 5842SOL    HW218426   3.031   1.754   1.162
 5843SOL     OW18427   3.643   3.247   0.496
 5843SOL    HW118428   3.686   3.318   0.440
 5843SOL    HW218429   3.690   3.160   0.481
 5844SOL     OW18430   0.396   5.931   5.207
 5844SOL    HW118431   0.377   6.018   5.251
 5844SOL    HW218432   0.360   5.932   5.114
 5845SOL     OW18433   1.514   6.751   2.507
 5845SOL    HW118434   1.610   6.739   2.481
 5845SOL    HW218435   1.485   6.672   2.561
 5846SOL     OW18436   0.973   4.245   5.178
 5846SOL    HW118437   0.880   4.242   5.216
 5846SOL    HW218438   1.038   4.209   5.245
 5847SOL     OW18439   1.536   3.920   6.292
 5847SOL    HW118440   1.504   3.843   6.237
 5847SOL    HW218441   1.536   4.003   6.236
 5848SOL     OW18442   1.982   5.671   1.918
 5848SOL    HW118443   2.073   5.675   1.960
 5848SOL    HW218444   1.942   5.580   1.935
 5849SOL     OW18445   2.738   5.805   6.597
 5849SOL    HW118446   2.737   5.770   6.690
 5849SOL    HW218447   2.799   5.884   6.592
 5850SOL     OW18448   0.404   1.493   1.781
 5850SOL    HW118449   0.407   1.451   1.872
 5850SOL    HW218450   0.494   1.484   1.737
 5851SOL     OW18451   6.335   3.903   4.597
 5851SOL    HW118452   6.400   3.829   4.616
 5851SOL    HW218453   6.376   3.990   4.624
 5852SOL     OW18454   4.738   4.192   2.415
 5852SOL    HW118455   4.801   4.180   2.338
 5852SOL    HW218456   4.706   4.103   2.446
 5853SOL     OW18457   4.838   4.800   6.451
 5853SOL    HW118458   4.903   4.787   6.376
 5853SOL    HW218459   4.824   4.713   6.499
 5854SOL     OW18460   3.494   4.915   5.376
 5854SOL    HW118461   3.410   4.938   5.325
 5854SOL    HW218462   3.516   4.819   5.361
 5855SOL     OW18463   2.267   2.767   2.786
 5855SOL    HW118464   2.275   2.859   2.824
 5855SOL    HW218465   2.236   2.773   2.691
 5856SOL     OW18466   1.024   6.343   2.813
 5856SOL    HW118467   0.983   6.296   2.891
 5856SOL    HW218468   1.059   6.275   2.748
 5857SOL     OW18469   5.565   5.003   6.510
 5857SOL    HW118470   5.655   4.992   6.551
 5857SOL    HW218471   5.526   5.090   6.539
 5858SOL     OW18472   1.664   0.951   3.003
 5858SOL    HW118473   1.746   0.950   3.062
 5858SOL    HW218474   1.600   0.881   3.035
 5859SOL     OW18475   5.457   5.755   2.031
 5859SOL    HW118476   5.415   5.770   1.941
 5859SOL    HW218477   5.394   5.787   2.102
 5860SOL     OW18478   0.608   4.450   2.903
 5860SOL    HW118479   0.621   4.483   2.997
 5860SOL    HW218480   0.597   4.351   2.904
 5861SOL     OW18481   4.622   0.688   5.629
 5861SOL    HW118482   4.701   0.662   5.685
 5861SOL    HW218483   4.654   0.735   5.546
 5862SOL     OW18484   6.231   5.204   3.218
 5862SOL    HW118485   6.186   5.132   3.166
 5862SOL    HW218486   6.239   5.176   3.314
 5863SOL     OW18487   3.703   6.942   6.607
 5863SOL    HW118488   3.657   6.920   6.520
 5863SOL    HW218489   3.635   6.946   6.680
 5864SOL     OW18490   3.518   3.629   2.397
 5864SOL    HW118491   3.435   3.641   2.344
 5864SOL    HW218492   3.582   3.571   2.347
 5865SOL     OW18493   6.527   0.597   6.540
 5865SOL    HW118494   6.513   0.557   6.631
 5865SOL    HW218495   6.441   0.635   6.506
 5866SOL     OW18496   3.177   2.947   2.550
 5866SOL    HW118497   3.135   2.874   2.604
 5866SOL    HW218498   3.219   3.014   2.612
 5867SOL     OW18499   3.148   1.729   1.502
 5867SOL    HW118500   3.090   1.765   1.575
 5867SOL    HW218501   3.107   1.750   1.413
 5868SOL     OW18502   0.937   0.963   6.856
 5868SOL    HW118503   0.862   0.901   6.879
 5868SOL    HW218504   1.017   0.940   6.912
 5869SOL     OW18505   1.009   6.000   3.447
 5869SOL    HW118506   1.076   5.931   3.474
 5869SOL    HW218507   0.942   5.959   3.385
 5870SOL     OW18508   3.844   6.144   4.152
 5870SOL    HW118509   3.832   6.243   4.162
 5870SOL    HW218510   3.754   6.099   4.156
 5871SOL     OW18511   3.732   3.104   3.737
 5871SOL    HW118512   3.649   3.124   3.789
 5871SOL    HW218513   3.727   3.149   3.648
 5872SOL     OW18514   4.894   6.379   0.368
 5872SOL    HW118515   4.978   6.325   0.357
 5872SOL    HW218516   4.822   6.321   0.406
 5873SOL     OW18517   4.129   6.181   2.162
 5873SOL    HW118518   4.204   6.245   2.145
 5873SOL    HW218519   4.043   6.222   2.131
 5874SOL     OW18520   0.829   3.839   5.656
 5874SOL    HW118521   0.744   3.788   5.642
 5874SOL    HW218522   0.828   3.921   5.598
 5875SOL     OW18523   3.698   1.837   1.501
 5875SOL    HW118524   3.701   1.927   1.545
 5875SOL    HW218525   3.632   1.839   1.426
 5876SOL     OW18526   3.235   3.297   1.552
 5876SOL    HW118527   3.243   3.218   1.613
 5876SOL    HW218528   3.177   3.366   1.594
 5877SOL     OW18529   5.880   4.534   1.170
 5877SOL    HW118530   5.894   4.437   1.148
 5877SOL    HW218531   5.838   4.580   1.091
 5878SOL     OW18532   2.132   4.081   2.582
 5878SOL    HW118533   2.196   4.127   2.519
 5878SOL    HW218534   2.040   4.115   2.565
 5879SOL     OW18535   0.711   4.177   4.158
 5879SOL    HW118536   0.617   4.143   4.154
 5879SOL    HW218537   0.710   4.271   4.191
 5880SOL     OW18538   3.395   5.786   0.474
 5880SOL    HW118539   3.307   5.805   0.431
 5880SOL    HW218540   3.428   5.697   0.443
 5881SOL     OW18541   1.174   5.587   4.269
 5881SOL    HW118542   1.188   5.560   4.364
 5881SOL    HW218543   1.263   5.608   4.227
 5882SOL     OW18544   4.795   0.608   2.985
 5882SOL    HW118545   4.734   0.559   3.048
 5882SOL    HW218546   4.790   0.566   2.894
 5883SOL     OW18547   0.745   3.461   5.190
 5883SOL    HW118548   0.800   3.537   5.155
 5883SOL    HW218549   0.755   3.382   5.130
 5884SOL     OW18550   0.667   0.965   3.842
 5884SOL    HW118551   0.597   0.894   3.846
 5884SOL    HW218552   0.629   1.046   3.796
 5885SOL     OW18553   5.802   6.642   1.152
 5885SOL    HW118554   5.795   6.549   1.118
 5885SOL    HW218555   5.710   6.680   1.166
 5886SOL     OW18556   0.341   0.816   6.351
 5886SOL    HW118557   0.372   0.881   6.282
 5886SOL    HW218558   0.416   0.798   6.415
 5887SOL     OW18559   4.663   6.189   2.953
 5887SOL    HW118560   4.677   6.275   3.002
 5887SOL    HW218561   4.738   6.126   2.975
 5888SOL     OW18562   0.761   0.965   2.830
 5888SOL    HW118563   0.782   0.958   2.732
 5888SOL    HW218564   0.765   0.874   2.871
 5889SOL     OW18565   2.714   0.232   0.050
 5889SOL    HW118566   2.698   0.285   0.134
 5889SOL    HW218567   2.755   0.144   0.074
 5890SOL     OW18568   3.583   5.011   6.026
 5890SOL    HW118569   3.495   4.973   6.000
 5890SOL    HW218570   3.591   5.105   5.992
 5891SOL     OW18571   2.315   3.597   6.708
 5891SOL    HW118572   2.251   3.650   6.651
 5891SOL    HW218573   2.360   3.528   6.651
 5892SOL     OW18574   1.408   6.811   2.873
 5892SOL    HW118575   1.428   6.806   2.775
 5892SOL    HW218576   1.470   6.752   2.923
 5893SOL     OW18577   1.804   0.840   3.287
 5893SOL    HW118578   1.742   0.767   3.315
 5893SOL    HW218579   1.752   0.925   3.274
 5894SOL     OW18580   0.724   3.652   4.090
 5894SOL    HW118581   0.649   3.668   4.153
 5894SOL    HW218582   0.691   3.598   4.012
 5895SOL     OW18583   5.414   3.535   3.819
 5895SOL    HW118584   5.456   3.503   3.905
 5895SOL    HW218585   5.468   3.501   3.742
 5896SOL     OW18586   4.864   1.974   5.812
 5896SOL    HW118587   4.815   2.043   5.758
 5896SOL    HW218588   4.963   1.983   5.796
 5897SOL     OW18589   4.406   0.089   1.466
 5897SOL    HW118590   4.351   0.022   1.515
 5897SOL    HW218591   4.350   0.133   1.395
 5898SOL     OW18592   2.402   6.458   3.035
 5898SOL    HW118593   2.482   6.411   3.072
 5898SOL    HW218594   2.369   6.408   2.954
 5899SOL     OW18595   5.664   0.446   3.647
 5899SOL    HW118596   5.724   0.501   3.706
 5899SOL    HW218597   5.711   0.361   3.622
 5900SOL     OW18598   3.826   4.865   2.378
 5900SOL    HW118599   3.772   4.867   2.294
 5900SOL    HW218600   3.889   4.942   2.378
 5901SOL     OW18601   3.379   6.354   5.025
 5901SOL    HW118602   3.421   6.374   4.937
 5901SOL    HW218603   3.349   6.259   5.027
 5902SOL     OW18604   6.294   1.368   6.899
 5902SOL    HW118605   6.285   1.468   6.897
 5902SOL    HW218606   6.383   1.344   6.936
 5903SOL     OW18607   6.586   3.177   6.722
 5903SOL    HW118608   6.637   3.091   6.727
 5903SOL    HW218609   6.534   3.189   6.807
 5904SOL     OW18610   0.492   4.326   2.200
 5904SOL    HW118611   0.469   4.247   2.258
 5904SOL    HW218612   0.411   4.353   2.148
 5905SOL     OW18613   6.518   4.892   1.864
 5905SOL    HW118614   6.609   4.933   1.865
 5905SOL    HW218615   6.474   4.912   1.776
 5906SOL     OW18616   0.184   1.608   4.269
 5906SOL    HW118617   0.277   1.571   4.274
 5906SOL    HW218618   0.165   1.640   4.177
 5907SOL     OW18619   2.011   6.757   2.332
 5907SOL    HW118620   2.070   6.809   2.394
 5907SOL    HW218621   2.044   6.767   2.238
 5908SOL     OW18622   0.049   2.629   6.085
 5908SOL    HW118623   0.068   2.598   5.992
 5908SOL    HW218624   0.135   2.653   6.131
 5909SOL     OW18625   6.816   3.799   0.761
 5909SOL    HW118626   6.909   3.765   0.777
 5909SOL    HW218627   6.792   3.786   0.665
 5910SOL     OW18628   2.112   1.421   3.871
 5910SOL    HW118629   2.086   1.513   3.842
 5910SOL    HW218630   2.047   1.387   3.938
 5911SOL     OW18631   6.811   5.797   6.084
 5911SOL    HW118632   6.841   5.885   6.120
 5911SOL    HW218633   6.879   5.763   6.019
 5912SOL     OW18634   1.018   0.420   4.126
 5912SOL    HW118635   0.991   0.508   4.086
 5912SOL    HW218636   0.978   0.410   4.217
 5913SOL     OW18637   6.225   1.650   6.949
 5913SOL    HW118638   6.229   1.656   0.023
 5913SOL    HW218639   6.299   1.704   6.909
 5914SOL     OW18640   0.892   6.519   0.654
 5914SOL    HW118641   0.979   6.481   0.622
 5914SOL    HW218642   0.886   6.509   0.753
 5915SOL     OW18643   3.941   1.556   5.754
 5915SOL    HW118644   3.988   1.609   5.825
 5915SOL    HW218645   3.905   1.618   5.684
 5916SOL     OW18646   1.002   6.473   2.341
 5916SOL    HW118647   1.030   6.393   2.288
 5916SOL    HW218648   0.922   6.451   2.396
 5917SOL     OW18649   3.695   4.416   0.342
 5917SOL    HW118650   3.622   4.412   0.274
 5917SOL    HW218651   3.713   4.325   0.377
 5918SOL     OW18652   2.921   6.352   4.875
 5918SOL    HW118653   2.853   6.377   4.805
 5918SOL    HW218654   2.962   6.435   4.912
 5919SOL     OW18655   3.207   3.466   4.853
 5919SOL    HW118656   3.123   3.512   4.824
 5919SOL    HW218657   3.277   3.534   4.874
 5920SOL     OW18658   6.453   0.561   5.731
 5920SOL    HW118659   6.533   0.502   5.728
 5920SOL    HW218660   6.386   0.524   5.796
 5921SOL     OW18661   2.713   4.132   6.538
 5921SOL    HW118662   2.669   4.065   6.598
 5921SOL    HW218663   2.657   4.145   6.456
 5922SOL     OW18664   5.017   2.788   2.250
 5922SOL    HW118665   4.935   2.817   2.300
 5922SOL    HW218666   5.097   2.805   2.307
 5923SOL     OW18667   6.121   0.823   3.464
 5923SOL    HW118668   6.126   0.847   3.561
 5923SOL    HW218669   6.078   0.734   3.453
 5924SOL     OW18670   5.229   6.941   3.404
 5924SOL    HW118671   5.143   6.928   3.453
 5924SOL    HW218672   5.262   0.009   3.420
 5925SOL     OW18673   4.653   1.134   1.206
 5925SOL    HW118674   4.691   1.215   1.249
 5925SOL    HW218675   4.705   1.111   1.124
 5926SOL     OW18676   4.777   4.547   3.594
 5926SOL    HW118677   4.855   4.533   3.532
 5926SOL    HW218678   4.697   4.500   3.558
 5927SOL     OW18679   0.249   4.856   1.995
 5927SOL    HW118680   0.343   4.830   1.971
 5927SOL    HW218681   0.234   4.952   1.971
 5928SOL     OW18682   2.698   0.584   0.093
 5928SOL    HW118683   2.786   0.629   0.076
 5928SOL    HW218684   2.709   0.515   0.165
 5929SOL     OW18685   1.691   0.941   0.035
 5929SOL    HW118686   1.620   0.870   0.029
 5929SOL    HW218687   1.781   0.897   0.038
 5930SOL     OW18688   1.814   3.615   2.424
 5930SOL    HW118689   1.769   3.530   2.452
 5930SOL    HW218690   1.756   3.664   2.360
 5931SOL     OW18691   5.041   6.684   3.022
 5931SOL    HW118692   4.967   6.709   2.959
 5931SOL    HW218693   5.063   6.763   3.080
 5932SOL     OW18694   2.953   1.105   6.269
 5932SOL    HW118695   3.035   1.101   6.326
 5932SOL    HW218696   2.979   1.096   6.172
 5933SOL     OW18697   6.152   6.481   4.618
 5933SOL    HW118698   6.193   6.424   4.547
 5933SOL    HW218699   6.052   6.484   4.604
 5934SOL     OW18700   3.517   3.396   6.706
 5934SOL    HW118701   3.579   3.468   6.673
 5934SOL    HW218702   3.563   3.308   6.700
 5935SOL     OW18703   1.237   6.438   6.007
 5935SOL    HW118704   1.272   6.447   5.914
 5935SOL    HW218705   1.210   6.342   6.023
 5936SOL     OW18706   3.499   3.202   1.817
 5936SOL    HW118707   3.583   3.147   1.813
 5936SOL    HW218708   3.435   3.161   1.882
 5937SOL     OW18709   0.329   3.256   1.050
 5937SOL    HW118710   0.412   3.256   1.107
 5937SOL    HW218711   0.254   3.215   1.102
 5938SOL     OW18712   0.364   4.370   4.095
 5938SOL    HW118713   0.277   4.389   4.050
 5938SOL    HW218714   0.383   4.272   4.090
 5939SOL     OW18715   3.914   1.496   5.038
 5939SOL    HW118716   3.881   1.541   4.955
 5939SOL    HW218717   3.838   1.453   5.086
 5940SOL     OW18718   4.702   5.488   2.067
 5940SOL    HW118719   4.662   5.573   2.034
 5940SOL    HW218720   4.710   5.423   1.992
 5941SOL     OW18721   0.007   2.378   2.837
 5941SOL    HW118722   0.086   2.332   2.797
 5941SOL    HW218723   0.037   2.445   2.904
 5942SOL     OW18724   5.143   3.083   5.879
 5942SOL    HW118725   5.156   3.181   5.892
 5942SOL    HW218726   5.165   3.058   5.785
 5943SOL     OW18727   3.003   4.311   1.719
 5943SOL    HW118728   2.989   4.397   1.768
 5943SOL    HW218729   2.918   4.282   1.675
 5944SOL     OW18730   6.733   3.302   6.503
 5944SOL    HW118731   6.664   3.283   6.573
 5944SOL    HW218732   6.816   3.251   6.524
 5945SOL     OW18733   6.459   6.194   4.604
 5945SOL    HW118734   6.426   6.117   4.548
 5945SOL    HW218735   6.470   6.275   4.546
 5946SOL     OW18736   2.557   3.771   0.559
 5946SOL    HW118737   2.462   3.750   0.585
 5946SOL    HW218738   2.611   3.688   0.559
 5947SOL     OW18739   4.069   3.156   4.810
 5947SOL    HW118740   4.110   3.075   4.767
 5947SOL    HW218741   3.971   3.142   4.823
 5948SOL     OW18742   5.119   3.186   1.833
 5948SOL    HW118743   5.144   3.136   1.917
 5948SOL    HW218744   5.098   3.120   1.761
 5949SOL     OW18745   0.268   4.525   2.615
 5949SOL    HW118746   0.186   4.574   2.645
 5949SOL    HW218747   0.241   4.450   2.554
 5950SOL     OW18748   3.820   6.754   4.920
 5950SOL    HW118749   3.749   6.811   4.879
 5950SOL    HW218750   3.887   6.728   4.850
 5951SOL     OW18751   0.577   3.773   6.770
 5951SOL    HW118752   0.516   3.795   6.694
 5951SOL    HW218753   0.546   3.820   6.853
 5952SOL     OW18754   4.204   4.575   0.905
 5952SOL    HW118755   4.263   4.650   0.933
 5952SOL    HW218756   4.245   4.528   0.826
 5953SOL     OW18757   6.364   3.108   5.043
 5953SOL    HW118758   6.331   3.085   5.135
 5953SOL    HW218759   6.412   3.030   5.004
 5954SOL     OW18760   1.647   6.056   4.076
 5954SOL    HW118761   1.558   6.014   4.065
 5954SOL    HW218762   1.707   6.027   4.001
 5955SOL     OW18763   5.215   3.624   0.341
 5955SOL    HW118764   5.186   3.656   0.251
 5955SOL    HW218765   5.212   3.700   0.406
 5956SOL     OW18766   5.283   2.563   5.400
 5956SOL    HW118767   5.352   2.496   5.371
 5956SOL    HW218768   5.325   2.630   5.462
 5957SOL     OW18769   6.879   2.286   3.046
 5957SOL    HW118770   6.930   2.316   2.966
 5957SOL    HW218771   6.855   2.365   3.102
 5958SOL     OW18772   3.078   0.176   2.743
 5958SOL    HW118773   2.990   0.208   2.708
 5958SOL    HW218774   3.087   0.202   2.839
 5959SOL     OW18775   4.685   2.333   4.053
 5959SOL    HW118776   4.773   2.382   4.050
 5959SOL    HW218777   4.623   2.379   4.117
 5960SOL     OW18778   4.171   0.023   6.467
 5960SOL    HW118779   4.131   0.067   6.547
 5960SOL    HW218780   4.117   6.966   6.444
 5961SOL     OW18781   2.705   2.465   3.205
 5961SOL    HW118782   2.715   2.564   3.211
 5961SOL    HW218783   2.694   2.438   3.109
 5962SOL     OW18784   5.309   5.925   0.826
 5962SOL    HW118785   5.296   5.912   0.925
 5962SOL    HW218786   5.407   5.936   0.807
 5963SOL     OW18787   3.008   4.001   6.997
 5963SOL    HW118788   2.987   4.091   0.011
 5963SOL    HW218789   3.029   4.011   6.899
 5964SOL     OW18790   2.978   6.643   2.380
 5964SOL    HW118791   2.908   6.606   2.319
 5964SOL    HW218792   3.059   6.669   2.326
 5965SOL     OW18793   1.845   0.286   7.008
 5965SOL    HW118794   1.853   0.233   6.923
 5965SOL    HW218795   1.879   0.231   0.059
 5966SOL     OW18796   2.775   1.289   4.604
 5966SOL    HW118797   2.830   1.206   4.614
 5966SOL    HW218798   2.678   1.264   4.598
 5967SOL     OW18799   3.747   1.712   4.313
 5967SOL    HW118800   3.766   1.672   4.223
 5967SOL    HW218801   3.800   1.664   4.383
 5968SOL     OW18802   5.801   2.838   1.647
 5968SOL    HW118803   5.752   2.845   1.561
 5968SOL    HW218804   5.820   2.741   1.667
 5969SOL     OW18805   5.624   0.655   0.662
 5969SOL    HW118806   5.579   0.730   0.710
 5969SOL    HW218807   5.559   0.612   0.599
 5970SOL     OW18808   6.941   3.303   0.768
 5970SOL    HW118809   6.897   3.357   0.840
 5970SOL    HW218810   0.012   3.329   0.762
 5971SOL     OW18811   6.974   6.365   4.129
 5971SOL    HW118812   0.028   6.341   4.072
 5971SOL    HW218813   6.965   6.464   4.134
 5972SOL     OW18814   5.081   4.655   0.857
 5972SOL    HW118815   5.065   4.643   0.956
 5972SOL    HW218816   5.014   4.601   0.806
 5973SOL     OW18817   3.216   1.531   2.393
 5973SOL    HW118818   3.148   1.535   2.466
 5973SOL    HW218819   3.296   1.480   2.424
 5974SOL     OW18820   5.083   1.692   5.487
 5974SOL    HW118821   5.142   1.671   5.410
 5974SOL    HW218822   5.130   1.670   5.573
 5975SOL     OW18823   4.645   5.199   0.805
 5975SOL    HW118824   4.744   5.207   0.792
 5975SOL    HW218825   4.598   5.223   0.721
 5976SOL     OW18826   2.271   2.783   5.743
 5976SOL    HW118827   2.261   2.873   5.785
 5976SOL    HW218828   2.232   2.713   5.802
 5977SOL     OW18829   6.410   4.267   0.611
 5977SOL    HW118830   6.469   4.321   0.670
 5977SOL    HW218831   6.354   4.328   0.555
 5978SOL     OW18832   2.553   3.554   0.313
 5978SOL    HW118833   2.552   3.652   0.290
 5978SOL    HW218834   2.577   3.501   0.232
 5979SOL     OW18835   5.649   0.964   1.607
 5979SOL    HW118836   5.737   0.942   1.649
 5979SOL    HW218837   5.653   1.056   1.566
 5980SOL     OW18838   2.946   2.961   1.371
 5980SOL    HW118839   2.972   2.878   1.321
 5980SOL    HW218840   2.944   2.940   1.469
 5981SOL     OW18841   2.911   2.509   0.590
 5981SOL    HW118842   2.995   2.456   0.603
 5981SOL    HW218843   2.835   2.464   0.638
 5982SOL     OW18844   5.434   3.289   0.393
 5982SOL    HW118845   5.464   3.376   0.355
 5982SOL    HW218846   5.394   3.232   0.321
 5983SOL     OW18847   0.005   0.924   3.517
 5983SOL    HW118848   0.073   0.897   3.448
 5983SOL    HW218849   6.946   0.872   3.503
 5984SOL     OW18850   5.767   6.838   4.083
 5984SOL    HW118851   5.785   6.742   4.061
 5984SOL    HW218852   5.853   6.889   4.084
 5985SOL     OW18853   6.311   3.261   2.391
 5985SOL    HW118854   6.305   3.309   2.478
 5985SOL    HW218855   6.278   3.321   2.318
 5986SOL     OW18856   4.186   3.554   4.892
 5986SOL    HW118857   4.275   3.509   4.902
 5986SOL    HW218858   4.142   3.522   4.809
 5987SOL     OW18859   0.266   6.693   5.469
 5987SOL    HW118860   0.202   6.640   5.414
 5987SOL    HW218861   0.216   6.742   5.540
 5988SOL     OW18862   0.856   2.939   6.141
 5988SOL    HW118863   0.876   2.943   6.043
 5988SOL    HW218864   0.846   2.843   6.169
 5989SOL     OW18865   0.793   6.027   5.712
 5989SOL    HW118866   0.757   6.080   5.789
 5989SOL    HW218867   0.836   6.089   5.646
 5990SOL     OW18868   3.281   4.786   1.717
 5990SOL    HW118869   3.314   4.694   1.695
 5990SOL    HW218870   3.331   4.821   1.797
 5991SOL     OW18871   4.615   0.181   0.693
 5991SOL    HW118872   4.605   0.258   0.756
 5991SOL    HW218873   4.544   0.186   0.623
 5992SOL     OW18874   3.534   6.640   1.963
 5992SOL    HW118875   3.582   6.693   1.894
 5992SOL    HW218876   3.538   6.688   2.051
 5993SOL     OW18877   5.783   2.068   0.217
 5993SOL    HW118878   5.721   2.144   0.235
 5993SOL    HW218879   5.729   1.987   0.193
 5994SOL     OW18880   0.184   3.297   0.388
 5994SOL    HW118881   0.187   3.219   0.450
 5994SOL    HW218882   0.130   3.274   0.308
 5995SOL     OW18883   5.224   3.913   1.599
 5995SOL    HW118884   5.132   3.951   1.594
 5995SOL    HW218885   5.264   3.909   1.508
 5996SOL     OW18886   2.977   5.599   1.145
 5996SOL    HW118887   3.056   5.555   1.188
 5996SOL    HW218888   2.944   5.673   1.204
 5997SOL     OW18889   6.235   0.632   3.806
 5997SOL    HW118890   6.166   0.695   3.770
 5997SOL    HW218891   6.235   0.634   3.906
 5998SOL     OW18892   6.016   6.107   0.772
 5998SOL    HW118893   6.087   6.129   0.705
 5998SOL    HW218894   6.005   6.008   0.777
 5999SOL     OW18895   4.913   2.673   1.492
 5999SOL    HW118896   5.010   2.667   1.471
 5999SOL    HW218897   4.900   2.678   1.591
 6000SOL     OW18898   0.391   4.146   1.035
 6000SOL    HW118899   0.460   4.114   0.970
 6000SOL    HW218900   0.393   4.088   1.117
 6001SOL     OW18901   6.684   5.434   5.733
 6001SOL    HW118902   6.644   5.395   5.816
 6001SOL    HW218903   6.652   5.383   5.654
 6002SOL     OW18904   6.193   4.623   5.184
 6002SOL    HW118905   6.229   4.534   5.155
 6002SOL    HW218906   6.249   4.696   5.145
 6003SOL     OW18907   1.666   2.450   4.783
 6003SOL    HW118908   1.583   2.505   4.773
 6003SOL    HW218909   1.693   2.447   4.879
 6004SOL     OW18910   4.923   2.208   4.238
 6004SOL    HW118911   4.847   2.236   4.297
 6004SOL    HW218912   4.895   2.130   4.183
 6005SOL     OW18913   4.245   4.773   6.838
 6005SOL    HW118914   4.292   4.768   6.750
 6005SOL    HW218915   4.212   4.867   6.853
 6006SOL     OW18916   3.003   6.077   6.401
 6006SOL    HW118917   3.018   5.989   6.355
 6006SOL    HW218918   3.070   6.144   6.368
 6007SOL     OW18919   2.466   5.945   6.474
 6007SOL    HW118920   2.539   5.878   6.490
 6007SOL    HW218921   2.467   5.974   6.378
 6008SOL     OW18922   3.503   4.114   6.272
 6008SOL    HW118923   3.414   4.070   6.284
 6008SOL    HW218924   3.535   4.100   6.178
 6009SOL     OW18925   3.808   5.308   3.069
 6009SOL    HW118926   3.880   5.248   3.104
 6009SOL    HW218927   3.834   5.403   3.082
 6010SOL     OW18928   0.510   5.290   4.333
 6010SOL    HW118929   0.576   5.349   4.286
 6010SOL    HW218930   0.542   5.195   4.330
 6011SOL     OW18931   6.351   1.956   1.553
 6011SOL    HW118932   6.380   1.875   1.502
 6011SOL    HW218933   6.300   1.928   1.634
 6012SOL     OW18934   6.791   0.194   6.359
 6012SOL    HW118935   6.760   0.110   6.404
 6012SOL    HW218936   6.783   0.271   6.422
 6013SOL     OW18937   5.738   1.608   2.467
 6013SOL    HW118938   5.721   1.593   2.564
 6013SOL    HW218939   5.789   1.693   2.454
 6014SOL     OW18940   3.760   3.708   4.031
 6014SOL    HW118941   3.856   3.710   4.056
 6014SOL    HW218942   3.704   3.727   4.112
 6015SOL     OW18943   5.828   0.791   4.297
 6015SOL    HW118944   5.829   0.705   4.246
 6015SOL    HW218945   5.737   0.833   4.292
 6016SOL     OW18946   4.499   1.148   4.719
 6016SOL    HW118947   4.432   1.083   4.754
 6016SOL    HW218948   4.469   1.182   4.630
 6017SOL     OW18949   0.029   2.151   5.554
 6017SOL    HW118950   0.088   2.085   5.510
 6017SOL    HW218951   7.005   2.107   5.630
 6018SOL     OW18952   2.510   1.200   4.597
 6018SOL    HW118953   2.505   1.146   4.513
 6018SOL    HW218954   2.429   1.183   4.653
 6019SOL     OW18955   6.448   4.067   6.927
 6019SOL    HW118956   6.534   4.017   6.914
 6019SOL    HW218957   6.467   4.165   6.937
 6020SOL     OW18958   0.770   4.968   6.343
 6020SOL    HW118959   0.868   4.976   6.327
 6020SOL    HW218960   0.749   4.878   6.379
 6021SOL     OW18961   5.910   7.015   3.575
 6021SOL    HW118962   5.960   6.942   3.530
 6021SOL    HW218963   5.941   7.022   3.670
 6022SOL     OW18964   6.364   1.811   1.245
 6022SOL    HW118965   6.428   1.818   1.168
 6022SOL    HW218966   6.271   1.829   1.213
 6023SOL     OW18967   3.824   0.346   2.045
 6023SOL    HW118968   3.920   0.361   2.020
 6023SOL    HW218969   3.769   0.423   2.013
 6024SOL     OW18970   1.562   6.204   0.706
 6024SOL    HW118971   1.536   6.293   0.669
 6024SOL    HW218972   1.523   6.132   0.649
 6025SOL     OW18973   3.276   0.584   4.367
 6025SOL    HW118974   3.372   0.556   4.368
 6025SOL    HW218975   3.232   0.548   4.284
 6026SOL     OW18976   5.890   5.360   4.484
 6026SOL    HW118977   5.796   5.394   4.474
 6026SOL    HW218978   5.909   5.342   4.580
 6027SOL     OW18979   5.527   4.185   6.655
 6027SOL    HW118980   5.554   4.110   6.715
 6027SOL    HW218981   5.529   4.271   6.706
 6028SOL     OW18982   5.584   5.489   6.507
 6028SOL    HW118983   5.654   5.477   6.577
 6028SOL    HW218984   5.613   5.561   6.443
 6029SOL     OW18985   2.258   0.796   2.517
 6029SOL    HW118986   2.312   0.733   2.573
 6029SOL    HW218987   2.197   0.744   2.458
 6030SOL     OW18988   5.815   3.470   4.313
 6030SOL    HW118989   5.729   3.521   4.320
 6030SOL    HW218990   5.797   3.377   4.283
 6031SOL     OW18991   0.482   5.832   5.444
 6031SOL    HW118992   0.550   5.762   5.421
 6031SOL    HW218993   0.436   5.862   5.361
 6032SOL     OW18994   3.611   5.864   3.337
 6032SOL    HW118995   3.558   5.926   3.394
 6032SOL    HW218996   3.708   5.872   3.360
 6033SOL     OW18997   1.380   1.945   2.452
 6033SOL    HW118998   1.370   1.854   2.411
 6033SOL    HW218999   1.424   2.006   2.387
 6034SOL     OW19000   1.153   0.202   0.500
 6034SOL    HW119001   1.076   0.151   0.537
 6034SOL    HW219002   1.123   0.261   0.426
 6035SOL     OW19003   2.243   0.024   2.715
 6035SOL    HW119004   2.285   7.017   2.800
 6035SOL    HW219005   2.265   0.120   2.702
 6036SOL     OW19006   6.936   3.040   1.021
 6036SOL    HW119007   6.890   2.997   1.099
 6036SOL    HW219008   6.914   3.138   1.020
 6037SOL     OW19009   5.066   2.283   6.968
 6037SOL    HW119010   5.101   2.241   6.884
 6037SOL    HW219011   5.090   2.225   0.020
 6038SOL     OW19012   0.854   2.279   6.019
 6038SOL    HW119013   0.937   2.252   5.969
 6038SOL    HW219014   0.830   2.373   5.996
 6039SOL     OW19015   4.026   3.325   3.420
 6039SOL    HW119016   4.053   3.294   3.329
 6039SOL    HW219017   4.037   3.424   3.427
 6040SOL     OW19018   0.606   1.514   0.157
 6040SOL    HW119019   0.682   1.549   0.212
 6040SOL    HW219020   0.627   1.421   0.127
 6041SOL     OW19021   2.490   3.227   5.691
 6041SOL    HW119022   2.512   3.151   5.630
 6041SOL    HW219023   2.433   3.195   5.767
 6042SOL     OW19024   3.195   5.676   3.885
 6042SOL    HW119025   3.254   5.602   3.852
 6042SOL    HW219026   3.198   5.678   3.985
 6043SOL     OW19027   2.728   0.627   3.483
 6043SOL    HW119028   2.653   0.577   3.526
 6043SOL    HW219029   2.708   0.725   3.484
 6044SOL     OW19030   1.162   3.290   1.387
 6044SOL    HW119031   1.125   3.281   1.479
 6044SOL    HW219032   1.121   3.221   1.327
 6045SOL     OW19033   4.783   1.568   3.626
 6045SOL    HW119034   4.745   1.655   3.659
 6045SOL    HW219035   4.882   1.577   3.615
 6046SOL     OW19036   3.613   2.894   2.470
 6046SOL    HW119037   3.689   2.949   2.436
 6046SOL    HW219038   3.600   2.814   2.411
 6047SOL     OW19039   6.341   2.083   0.805
 6047SOL    HW119040   6.413   2.150   0.791
 6047SOL    HW219041   6.297   2.062   0.717
 6048SOL     OW19042   5.418   5.676   4.374
 6048SOL    HW119043   5.322   5.668   4.348
 6048SOL    HW219044   5.446   5.772   4.369
 6049SOL     OW19045   4.639   4.592   5.841
 6049SOL    HW119046   4.606   4.520   5.902
 6049SOL    HW219047   4.715   4.557   5.787
 6050SOL     OW19048   3.475   6.279   2.303
 6050SOL    HW119049   3.473   6.188   2.262
 6050SOL    HW219050   3.561   6.324   2.279
 6051SOL     OW19051   0.433   1.358   3.451
 6051SOL    HW119052   0.466   1.452   3.455
 6051SOL    HW219053   0.346   1.355   3.403
 6052SOL     OW19054   5.189   6.556   0.347
 6052SOL    HW119055   5.248   6.556   0.428
 6052SOL    HW219056   5.120   6.485   0.357
 6053SOL     OW19057   4.255   2.584   5.887
 6053SOL    HW119058   4.188   2.557   5.818
 6053SOL    HW219059   4.272   2.683   5.880
 6054SOL     OW19060   3.804   4.192   0.887
 6054SOL    HW119061   3.785   4.120   0.820
 6054SOL    HW219062   3.884   4.166   0.941
 6055SOL     OW19063   3.431   3.940   0.848
 6055SOL    HW119064   3.468   4.000   0.777
 6055SOL    HW219065   3.501   3.925   0.919
 6056SOL     OW19066   5.399   6.040   4.078
 6056SOL    HW119067   5.453   6.111   4.032
 6056SOL    HW219068   5.422   5.951   4.040
 6057SOL     OW19069   4.311   6.956   4.211
 6057SOL    HW119070   4.270   0.003   4.268
 6057SOL    HW219071   4.401   6.986   4.178
 6058SOL     OW19072   5.676   2.357   5.774
 6058SOL    HW119073   5.595   2.400   5.815
 6058SOL    HW219074   5.750   2.354   5.841
 6059SOL     OW19075   4.174   2.714   0.179
 6059SOL    HW119076   4.095   2.664   0.214
 6059SOL    HW219077   4.232   2.653   0.126
 6060SOL     OW19078   2.211   3.244   0.478
 6060SOL    HW119079   2.268   3.253   0.396
 6060SOL    HW219080   2.194   3.335   0.517
 6061SOL     OW19081   3.020   4.535   0.168
 6061SOL    HW119082   2.933   4.581   0.183
 6061SOL    HW219083   3.076   4.589   0.105
 6062SOL     OW19084   1.728   2.500   6.955
 6062SOL    HW119085   1.762   2.480   0.021
 6062SOL    HW219086   1.777   2.444   6.888
 6063SOL     OW19087   4.663   4.249   6.247
 6063SOL    HW119088   4.581   4.209   6.288
 6063SOL    HW219089   4.728   4.177   6.225
 6064SOL     OW19090   6.645   5.177   1.184
 6064SOL    HW119091   6.607   5.266   1.209
 6064SOL    HW219092   6.572   5.109   1.183
 6065SOL     OW19093   1.215   0.186   2.264
 6065SOL    HW119094   1.285   0.125   2.302
 6065SOL    HW219095   1.125   0.147   2.280
 6066SOL     OW19096   5.454   5.797   3.671
 6066SOL    HW119097   5.496   5.785   3.761
 6066SOL    HW219098   5.361   5.830   3.683
 6067SOL     OW19099   5.810   6.883   6.348
 6067SOL    HW119100   5.824   6.785   6.363
 6067SOL    HW219101   5.898   6.927   6.329
 6068SOL     OW19102   4.392   1.988   4.396
 6068SOL    HW119103   4.308   2.041   4.402
 6068SOL    HW219104   4.426   1.968   4.488
 6069SOL     OW19105   0.392   3.997   6.156
 6069SOL    HW119106   0.298   3.988   6.191
 6069SOL    HW219107   0.394   4.061   6.080
 6070SOL     OW19108   2.921   1.411   0.407
 6070SOL    HW119109   2.880   1.383   0.320
 6070SOL    HW219110   2.934   1.511   0.407
 6071SOL     OW19111   6.141   0.748   5.848
 6071SOL    HW119112   6.108   0.717   5.759
 6071SOL    HW219113   6.134   0.848   5.853
 6072SOL     OW19114   6.977   2.562   0.459
 6072SOL    HW119115   0.051   2.553   0.446
 6072SOL    HW219116   6.942   2.480   0.504
 6073SOL     OW19117   4.779   2.344   0.607
 6073SOL    HW119118   4.719   2.398   0.665
 6073SOL    HW219119   4.763   2.247   0.624
 6074SOL     OW19120   0.770   6.384   2.457
 6074SOL    HW119121   0.813   6.294   2.463
 6074SOL    HW219122   0.691   6.386   2.519
 6075SOL     OW19123   5.221   0.217   6.457
 6075SOL    HW119124   5.171   0.225   6.371
 6075SOL    HW219125   5.314   0.183   6.439
 6076SOL     OW19126   1.463   5.605   3.220
 6076SOL    HW119127   1.509   5.536   3.275
 6076SOL    HW219128   1.410   5.665   3.280
 6077SOL     OW19129   5.104   6.838   2.101
 6077SOL    HW119130   5.169   6.888   2.159
 6077SOL    HW219131   5.012   6.873   2.117
 6078SOL     OW19132   3.946   4.221   0.605
 6078SOL    HW119133   3.923   4.165   0.525
 6078SOL    HW219134   3.874   4.289   0.619
 6079SOL     OW19135   3.375   3.394   0.321
 6079SOL    HW119136   3.373   3.311   0.377
 6079SOL    HW219137   3.324   3.378   0.236
 6080SOL     OW19138   6.787   5.221   6.666
 6080SOL    HW119139   6.783   5.321   6.671
 6080SOL    HW219140   6.857   5.187   6.729
 6081SOL     OW19141   1.511   3.840   3.772
 6081SOL    HW119142   1.558   3.928   3.770
 6081SOL    HW219143   1.519   3.800   3.863
 6082SOL     OW19144   4.376   0.921   1.003
 6082SOL    HW119145   4.404   0.924   1.099
 6082SOL    HW219146   4.280   0.947   0.995
 6083SOL     OW19147   4.715   0.254   6.168
 6083SOL    HW119148   4.646   0.321   6.139
 6083SOL    HW219149   4.744   0.274   6.261
 6084SOL     OW19150   0.159   6.253   2.329
 6084SOL    HW119151   0.197   6.306   2.405
 6084SOL    HW219152   0.234   6.222   2.270
 6085SOL     OW19153   0.781   6.943   0.959
 6085SOL    HW119154   0.815   0.009   0.934
 6085SOL    HW219155   0.796   6.927   1.056
 6086SOL     OW19156   3.533   4.212   6.742
 6086SOL    HW119157   3.611   4.152   6.758
 6086SOL    HW219158   3.471   4.206   6.820
 6087SOL     OW19159   5.095   6.732   0.727
 6087SOL    HW119160   5.051   6.811   0.770
 6087SOL    HW219161   5.025   6.667   0.697
 6088SOL     OW19162   5.184   5.791   3.449
 6088SOL    HW119163   5.242   5.728   3.397
 6088SOL    HW219164   5.198   5.884   3.416
 6089SOL     OW19165   6.057   3.984   3.613
 6089SOL    HW119166   5.980   4.010   3.555
 6089SOL    HW219167   6.139   4.035   3.587
 6090SOL     OW19168   3.697   5.854   4.147
 6090SOL    HW119169   3.612   5.807   4.127
 6090SOL    HW219170   3.690   5.899   4.236
 6091SOL     OW19171   1.431   1.518   2.402
 6091SOL    HW119172   1.498   1.504   2.330
 6091SOL    HW219173   1.359   1.579   2.369
 6092SOL     OW19174   3.166   6.314   0.985
 6092SOL    HW119175   3.249   6.279   1.027
 6092SOL    HW219176   3.095   6.244   0.985
 6093SOL     OW19177   2.171   2.071   2.420
 6093SOL    HW119178   2.206   2.021   2.499
 6093SOL    HW219179   2.241   2.135   2.387
 6094SOL     OW19180   0.353   6.208   4.832
 6094SOL    HW119181   0.275   6.264   4.859
 6094SOL    HW219182   0.437   6.247   4.870
 6095SOL     OW19183   4.917   5.012   1.732
 6095SOL    HW119184   4.901   4.972   1.642
 6095SOL    HW219185   4.845   5.080   1.752
 6096SOL     OW19186   5.444   6.455   3.103
 6096SOL    HW119187   5.506   6.387   3.062
 6096SOL    HW219188   5.358   6.410   3.127
 6097SOL     OW19189   1.898   5.463   1.449
 6097SOL    HW119190   1.942   5.509   1.526
 6097SOL    HW219191   1.967   5.435   1.383
 6098SOL     OW19192   6.600   0.935   4.458
 6098SOL    HW119193   6.663   0.987   4.400
 6098SOL    HW219194   6.564   0.995   4.529
 6099SOL     OW19195   3.860   0.700   6.116
 6099SOL    HW119196   3.760   0.708   6.109
 6099SOL    HW219197   3.892   0.627   6.056
 6100SOL     OW19198   0.342   6.177   5.300
 6100SOL    HW119199   0.325   6.261   5.248
 6100SOL    HW219200   0.376   6.200   5.391
 6101SOL     OW19201   0.037   2.867   1.772
 6101SOL    HW119202   0.120   2.906   1.811
 6101SOL    HW219203   0.061   2.799   1.703
 6102SOL     OW19204   4.441   6.737   2.883
 6102SOL    HW119205   4.412   6.741   2.979
 6102SOL    HW219206   4.515   6.803   2.868
 6103SOL     OW19207   6.520   1.801   2.001
 6103SOL    HW119208   6.535   1.722   2.060
 6103SOL    HW219209   6.452   1.861   2.042
 6104SOL     OW19210   6.879   0.562   3.956
 6104SOL    HW119211   6.909   0.641   3.902
 6104SOL    HW219212   6.812   0.509   3.903
 6105SOL     OW19213   3.134   4.689   5.291
 6105SOL    HW119214   3.069   4.625   5.251
 6105SOL    HW219215   3.214   4.638   5.324
 6106SOL     OW19216   5.970   5.405   6.015
 6106SOL    HW119217   6.019   5.418   5.929
 6106SOL    HW219218   5.906   5.329   6.006
 6107SOL     OW19219   5.470   5.123   5.402
 6107SOL    HW119220   5.386   5.096   5.450
 6107SOL    HW219221   5.502   5.048   5.345
 6108SOL     OW19222   2.434   1.709   0.482
 6108SOL    HW119223   2.390   1.792   0.518
 6108SOL    HW219224   2.514   1.688   0.538
 6109SOL     OW19225   6.564   6.905   3.554
 6109SOL    HW119226   6.466   6.921   3.544
 6109SOL    HW219227   6.608   6.987   3.591
 6110SOL     OW19228   1.674   1.436   4.069
 6110SOL    HW119229   1.582   1.407   4.097
 6110SOL    HW219230   1.708   1.374   3.998
 6111SOL     OW19231   1.912   4.399   0.553
 6111SOL    HW119232   1.975   4.362   0.485
 6111SOL    HW219233   1.849   4.327   0.582
 6112SOL     OW19234   5.069   0.273   2.875
 6112SOL    HW119235   5.094   0.259   2.970
 6112SOL    HW219236   5.046   0.185   2.833
 6113SOL     OW19237   2.689   5.358   0.296
 6113SOL    HW119238   2.741   5.422   0.240
 6113SOL    HW219239   2.735   5.269   0.297
 6114SOL     OW19240   4.670   1.735   0.474
 6114SOL    HW119241   4.613   1.740   0.392
 6114SOL    HW219242   4.762   1.766   0.453
 6115SOL     OW19243   0.906   0.398   5.696
 6115SOL    HW119244   0.860   0.434   5.615
 6115SOL    HW219245   1.005   0.411   5.687
 6116SOL     OW19246   5.180   2.064   6.045
 6116SOL    HW119247   5.216   1.978   6.082
 6116SOL    HW219248   5.108   2.098   6.105
 6117SOL     OW19249   2.019   2.226   1.130
 6117SOL    HW119250   1.974   2.162   1.192
 6117SOL    HW219251   1.975   2.222   1.041
 6118SOL     OW19252   6.171   0.738   1.047
 6118SOL    HW119253   6.135   0.831   1.059
 6118SOL    HW219254   6.261   0.731   1.092
 6119SOL     OW19255   0.003   2.100   0.704
 6119SOL    HW119256   0.078   2.070   0.763
 6119SOL    HW219257   0.032   2.095   0.608
 6120SOL     OW19258   2.556   0.760   4.886
 6120SOL    HW119259   2.493   0.813   4.942
 6120SOL    HW219260   2.586   0.678   4.936
 6121SOL     OW19261   0.702   3.155   4.484
 6121SOL    HW119262   0.738   3.073   4.440
 6121SOL    HW219263   0.771   3.228   4.478
 6122SOL     OW19264   5.141   5.006   5.793
 6122SOL    HW119265   5.198   5.084   5.818
 6122SOL    HW219266   5.055   5.039   5.754
 6123SOL     OW19267   5.297   1.336   5.333
 6123SOL    HW119268   5.235   1.371   5.403
 6123SOL    HW219269   5.272   1.241   5.311
 6124SOL     OW19270   2.697   6.284   4.046
 6124SOL    HW119271   2.781   6.311   3.999
 6124SOL    HW219272   2.632   6.248   3.979
 6125SOL     OW19273   2.250   2.433   6.769
 6125SOL    HW119274   2.217   2.499   6.702
 6125SOL    HW219275   2.325   2.472   6.821
 6126SOL     OW19276   6.312   2.983   5.292
 6126SOL    HW119277   6.397   2.941   5.324
 6126SOL    HW219278   6.239   2.915   5.293
 6127SOL     OW19279   4.082   2.316   1.816
 6127SOL    HW119280   4.034   2.235   1.850
 6127SOL    HW219281   4.178   2.312   1.845
 6128SOL     OW19282   5.832   5.783   0.547
 6128SOL    HW119283   5.904   5.818   0.608
 6128SOL    HW219284   5.853   5.688   0.522
 6129SOL     OW19285   1.474   5.729   2.188
 6129SOL    HW119286   1.375   5.715   2.194
 6129SOL    HW219287   1.510   5.758   2.277
 6130SOL     OW19288   6.003   2.469   0.294
 6130SOL    HW119289   6.018   2.419   0.379
 6130SOL    HW219290   6.024   2.409   0.216
 6131SOL     OW19291   6.370   1.583   2.895
 6131SOL    HW119292   6.366   1.518   2.820
 6131SOL    HW219293   6.386   1.533   2.981
 6132SOL     OW19294   3.750   1.444   6.732
 6132SOL    HW119295   3.778   1.540   6.732
 6132SOL    HW219296   3.690   1.427   6.654
 6133SOL     OW19297   1.972   1.636   3.825
 6133SOL    HW119298   1.970   1.699   3.902
 6133SOL    HW219299   1.879   1.623   3.790
 6134SOL     OW19300   5.959   6.645   6.657
 6134SOL    HW119301   5.929   6.730   6.700
 6134SOL    HW219302   5.912   6.567   6.700
 6135SOL     OW19303   6.512   0.145   6.932
 6135SOL    HW119304   6.515   0.234   6.978
 6135SOL    HW219305   6.418   0.125   6.905
 6136SOL     OW19306   1.705   3.361   3.047
 6136SOL    HW119307   1.763   3.414   2.986
 6136SOL    HW219308   1.762   3.309   3.111
 6137SOL     OW19309   6.925   4.149   2.134
 6137SOL    HW119310   6.839   4.170   2.181
 6137SOL    HW219311   6.926   4.191   2.043
 6138SOL     OW19312   4.276   0.089   1.975
 6138SOL    HW119313   4.269   7.015   1.981
 6138SOL    HW219314   4.214   0.123   1.904
 6139SOL     OW19315   1.466   0.371   5.551
 6139SOL    HW119316   1.469   0.272   5.543
 6139SOL    HW219317   1.517   0.412   5.475
 6140SOL     OW19318   1.086   0.182   3.657
 6140SOL    HW119319   1.005   0.177   3.715
 6140SOL    HW219320   1.169   0.180   3.714
 6141SOL     OW19321   0.278   1.151   5.876
 6141SOL    HW119322   0.192   1.201   5.867
 6141SOL    HW219323   0.292   1.126   5.972
 6142SOL     OW19324   0.243   0.552   1.274
 6142SOL    HW119325   0.229   0.617   1.199
 6142SOL    HW219326   0.172   0.483   1.272
 6143SOL     OW19327   6.873   3.970   5.772
 6143SOL    HW119328   6.877   4.039   5.700
 6143SOL    HW219329   6.961   3.965   5.819
 6144SOL     OW19330   4.134   5.335   3.113
 6144SOL    HW119331   4.198   5.339   3.190
 6144SOL    HW219332   4.067   5.264   3.129
 6145SOL     OW19333   4.854   2.965   3.825
 6145SOL    HW119334   4.930   2.988   3.885
 6145SOL    HW219335   4.887   2.960   3.730
 6146SOL     OW19336   5.551   6.830   5.226
 6146SOL    HW119337   5.464   6.812   5.180
 6146SOL    HW219338   5.568   6.929   5.225
 6147SOL     OW19339   1.401   2.031   3.674
 6147SOL    HW119340   1.488   1.985   3.655
 6147SOL    HW219341   1.418   2.110   3.734
 6148SOL     OW19342   3.131   5.812   0.374
 6148SOL    HW119343   3.075   5.895   0.376
 6148SOL    HW219344   3.079   5.736   0.412
 6149SOL     OW19345   2.906   0.264   1.473
 6149SOL    HW119346   2.923   0.317   1.389
 6149SOL    HW219347   2.970   0.293   1.544
 6150SOL     OW19348   0.046   4.223   5.782
 6150SOL    HW119349   0.079   4.136   5.817
 6150SOL    HW219350   0.002   4.209   5.693
 6151SOL     OW19351   4.207   5.015   4.009
 6151SOL    HW119352   4.299   4.979   4.020
 6151SOL    HW219353   4.140   4.944   4.032
 6152SOL     OW19354   1.208   5.024   4.260
 6152SOL    HW119355   1.295   5.061   4.226
 6152SOL    HW219356   1.182   5.074   4.343
 6153SOL     OW19357   5.264   5.427   1.389
 6153SOL    HW119358   5.272   5.343   1.442
 6153SOL    HW219359   5.245   5.405   1.293
 6154SOL     OW19360   5.640   2.923   2.248
 6154SOL    HW119361   5.652   3.020   2.228
 6154SOL    HW219362   5.543   2.899   2.238
 6155SOL     OW19363   1.705   1.571   3.244
 6155SOL    HW119364   1.643   1.623   3.303
 6155SOL    HW219365   1.728   1.626   3.163
 6156SOL     OW19366   5.189   5.032   1.736
 6156SOL    HW119367   5.103   4.989   1.760
 6156SOL    HW219368   5.254   5.022   1.812
 6157SOL     OW19369   1.557   2.653   2.314
 6157SOL    HW119370   1.611   2.710   2.375
 6157SOL    HW219371   1.487   2.604   2.367
 6158SOL     OW19372   2.912   2.447   5.271
 6158SOL    HW119373   2.921   2.500   5.355
 6158SOL    HW219374   3.003   2.417   5.240
 6159SOL     OW19375   5.957   2.962   0.875
 6159SOL    HW119376   5.968   2.987   0.779
 6159SOL    HW219377   5.905   3.033   0.923
 6160SOL     OW19378   1.138   0.693   0.327
 6160SOL    HW119379   1.048   0.726   0.357
 6160SOL    HW219380   1.173   0.754   0.255
 6161SOL     OW19381   4.467   3.178   6.356
 6161SOL    HW119382   4.509   3.223   6.434
 6161SOL    HW219383   4.392   3.234   6.320
 6162SOL     OW19384   5.851   5.168   2.988
 6162SOL    HW119385   5.763   5.163   3.036
 6162SOL    HW219386   5.882   5.263   2.983
 6163SOL     OW19387   5.478   6.330   3.703
 6163SOL    HW119388   5.477   6.421   3.661
 6163SOL    HW219389   5.385   6.296   3.710
 6164SOL     OW19390   3.297   4.085   4.550
 6164SOL    HW119391   3.322   4.088   4.647
 6164SOL    HW219392   3.241   4.004   4.533
 6165SOL     OW19393   3.824   1.682   0.439
 6165SOL    HW119394   3.759   1.659   0.367
 6165SOL    HW219395   3.775   1.703   0.523
 6166SOL     OW19396   1.637   2.460   6.514
 6166SOL    HW119397   1.643   2.559   6.497
 6166SOL    HW219398   1.553   2.440   6.565
 6167SOL     OW19399   1.267   3.744   3.607
 6167SOL    HW119400   1.352   3.793   3.585
 6167SOL    HW219401   1.189   3.798   3.576
 6168SOL     OW19402   0.238   3.954   4.078
 6168SOL    HW119403   0.139   3.944   4.089
 6168SOL    HW219404   0.264   3.921   3.987
 6169SOL     OW19405   2.354   7.010   0.234
 6169SOL    HW119406   2.373   6.984   0.139
 6169SOL    HW219407   2.414   6.958   0.295
 6170SOL     OW19408   3.328   3.917   0.113
 6170SOL    HW119409   3.370   3.872   0.034
 6170SOL    HW219410   3.379   4.000   0.134
 6171SOL     OW19411   2.317   4.206   2.381
 6171SOL    HW119412   2.346   4.114   2.353
 6171SOL    HW219413   2.397   4.262   2.402
 6172SOL     OW19414   1.454   6.092   2.654
 6172SOL    HW119415   1.458   6.155   2.576
 6172SOL    HW219416   1.372   6.036   2.647
 6173SOL     OW19417   1.733   5.904   2.619
 6173SOL    HW119418   1.646   5.886   2.572
 6173SOL    HW219419   1.739   6.002   2.640
 6174SOL     OW19420   5.569   5.367   2.958
 6174SOL    HW119421   5.528   5.458   2.964
 6174SOL    HW219422   5.619   5.359   2.871
 6175SOL     OW19423   5.067   0.232   3.616
 6175SOL    HW119424   5.153   0.189   3.586
 6175SOL    HW219425   5.045   0.309   3.556
 6176SOL     OW19426   6.745   3.728   5.764
 6176SOL    HW119427   6.799   3.812   5.753
 6176SOL    HW219428   6.755   3.671   5.683
 6177SOL     OW19429   6.350   2.746   6.708
 6177SOL    HW119430   6.264   2.720   6.752
 6177SOL    HW219431   6.427   2.719   6.766
 6178SOL     OW19432   6.324   3.086   0.955
 6178SOL    HW119433   6.397   3.089   0.887
 6178SOL    HW219434   6.236   3.101   0.910
 6179SOL     OW19435   0.102   2.575   5.800
 6179SOL    HW119436   0.200   2.583   5.780
 6179SOL    HW219437   0.052   2.642   5.746
 6180SOL     OW19438   4.197   6.764   0.749
 6180SOL    HW119439   4.233   6.837   0.807
 6180SOL    HW219440   4.273   6.707   0.717
 6181SOL     OW19441   4.846   6.536   6.810
 6181SOL    HW119442   4.836   6.474   6.733
 6181SOL    HW219443   4.937   6.578   6.808
 6182SOL     OW19444   4.535   6.377   6.810
 6182SOL    HW119445   4.505   6.290   6.769
 6182SOL    HW219446   4.613   6.360   6.869
 6183SOL     OW19447   3.701   0.487   3.704
 6183SOL    HW119448   3.730   0.457   3.614
 6183SOL    HW219449   3.778   0.481   3.768
 6184SOL     OW19450   0.433   6.754   6.448
 6184SOL    HW119451   0.404   6.827   6.509
 6184SOL    HW219452   0.376   6.753   6.366
 6185SOL     OW19453   6.817   3.616   5.985
 6185SOL    HW119454   6.778   3.671   6.060
 6185SOL    HW219455   6.806   3.665   5.899
 6186SOL     OW19456   5.347   0.056   4.880
 6186SOL    HW119457   5.255   0.093   4.898
 6186SOL    HW219458   5.384   0.100   4.798
 6187SOL     OW19459   4.178   4.980   3.738
 6187SOL    HW119460   4.180   5.016   3.831
 6187SOL    HW219461   4.218   5.048   3.675
 6188SOL     OW19462   2.902   6.491   1.236
 6188SOL    HW119463   2.904   6.440   1.322
 6188SOL    HW219464   2.811   6.531   1.224
 6189SOL     OW19465   5.726   4.891   3.372
 6189SOL    HW119466   5.742   4.952   3.449
 6189SOL    HW219467   5.749   4.939   3.287
 6190SOL     OW19468   5.378   2.651   0.026
 6190SOL    HW119469   5.396   2.704   0.109
 6190SOL    HW219470   5.387   2.711   6.971
 6191SOL     OW19471   6.474   2.053   0.018
 6191SOL    HW119472   6.411   1.994   0.068
 6191SOL    HW219473   6.567   2.017   0.024
 6192SOL     OW19474   2.867   2.454   6.442
 6192SOL    HW119475   2.803   2.531   6.443
 6192SOL    HW219476   2.940   2.472   6.377
 6193SOL     OW19477   4.991   0.448   1.389
 6193SOL    HW119478   5.061   0.391   1.432
 6193SOL    HW219479   5.015   0.544   1.400
 6194SOL     OW19480   1.945   0.782   0.012
 6194SOL    HW119481   1.888   0.709   6.999
 6194SOL    HW219482   2.024   0.797   6.977
 6195SOL     OW19483   3.107   0.644   6.527
 6195SOL    HW119484   3.071   0.706   6.597
 6195SOL    HW219485   3.059   0.660   6.441
 6196SOL     OW19486   0.901   1.469   6.304
 6196SOL    HW119487   0.982   1.453   6.248
 6196SOL    HW219488   0.865   1.381   6.336
 6197SOL     OW19489   2.387   3.103   0.807
 6197SOL    HW119490   2.401   3.202   0.797
 6197SOL    HW219491   2.420   3.074   0.897
 6198SOL     OW19492   4.064   4.775   2.505
 6198SOL    HW119493   4.123   4.703   2.467
 6198SOL    HW219494   3.970   4.762   2.472
 6199SOL     OW19495   1.495   0.061   6.693
 6199SOL    HW119496   1.532   7.022   6.626
 6199SOL    HW219497   1.531   0.152   6.675
 6200SOL     OW19498   4.077   0.793   6.248
 6200SOL    HW119499   4.141   0.726   6.210
 6200SOL    HW219500   3.988   0.783   6.203
 6201SOL     OW19501   2.352   3.876   5.515
 6201SOL    HW119502   2.433   3.850   5.569
 6201SOL    HW219503   2.337   3.808   5.444
 6202SOL     OW19504   3.428   1.757   0.844
 6202SOL    HW119505   3.380   1.694   0.904
 6202SOL    HW219506   3.364   1.823   0.806
 6203SOL     OW19507   4.932   1.364   4.312
 6203SOL    HW119508   4.841   1.360   4.353
 6203SOL    HW219509   4.981   1.444   4.345
 6204SOL     OW19510   1.927   6.362   5.680
 6204SOL    HW119511   1.852   6.355   5.615
 6204SOL    HW219512   1.921   6.288   5.747
 6205SOL     OW19513   5.321   6.043   6.856
 6205SOL    HW119514   5.247   5.983   6.826
 6205SOL    HW219515   5.283   6.129   6.890
 6206SOL     OW19516   5.195   6.988   2.325
 6206SOL    HW119517   5.104   6.960   2.358
 6206SOL    HW219518   5.208   0.060   2.342
 6207SOL     OW19519   1.692   4.045   5.003
 6207SOL    HW119520   1.609   4.012   4.958
 6207SOL    HW219521   1.755   3.969   5.016
 6208SOL     OW19522   6.075   6.887   5.829
 6208SOL    HW119523   6.002   6.932   5.778
 6208SOL    HW219524   6.145   6.853   5.766
 6209SOL     OW19525   3.924   5.912   0.874
 6209SOL    HW119526   3.999   5.891   0.812
 6209SOL    HW219527   3.898   5.829   0.924
 6210SOL     OW19528   5.708   4.413   3.252
 6210SOL    HW119529   5.651   4.334   3.275
 6210SOL    HW219530   5.665   4.496   3.288
 6211SOL     OW19531   3.028   6.895   4.570
 6211SOL    HW119532   2.960   6.968   4.568
 6211SOL    HW219533   2.983   6.806   4.559
 6212SOL     OW19534   6.393   6.843   4.046
 6212SOL    HW119535   6.472   6.820   3.988
 6212SOL    HW219536   6.421   6.912   4.113
 6213SOL     OW19537   6.755   0.255   6.865
 6213SOL    HW119538   6.661   0.222   6.865
 6213SOL    HW219539   6.798   0.235   6.953
 6214SOL     OW19540   6.378   4.584   2.529
 6214SOL    HW119541   6.463   4.530   2.532
 6214SOL    HW219542   6.359   4.610   2.435
 6215SOL     OW19543   3.451   2.950   0.649
 6215SOL    HW119544   3.426   2.943   0.553
 6215SOL    HW219545   3.470   3.045   0.672
 6216SOL     OW19546   5.532   1.478   2.300
 6216SOL    HW119547   5.466   1.452   2.371
 6216SOL    HW219548   5.616   1.511   2.344
 6217SOL     OW19549   5.389   3.021   0.781
 6217SOL    HW119550   5.347   2.936   0.811
 6217SOL    HW219551   5.317   3.085   0.753
 6218SOL     OW19552   2.775   5.319   4.871
 6218SOL    HW119553   2.752   5.336   4.775
 6218SOL    HW219554   2.780   5.221   4.887
 6219SOL     OW19555   1.094   1.768   4.812
 6219SOL    HW119556   1.187   1.769   4.848
 6219SOL    HW219557   1.081   1.846   4.751
 6220SOL     OW19558   1.979   4.153   5.445
 6220SOL    HW119559   2.030   4.090   5.387
 6220SOL    HW219560   2.042   4.199   5.508
 6221SOL     OW19561   3.660   5.336   4.312
 6221SOL    HW119562   3.654   5.314   4.215
 6221SOL    HW219563   3.667   5.435   4.323
 6222SOL     OW19564   7.016   0.423   1.267
 6222SOL    HW119565   0.030   0.338   1.232
 6222SOL    HW219566   6.922   0.406   1.297
 6223SOL     OW19567   4.755   2.749   4.757
 6223SOL    HW119568   4.676   2.690   4.736
 6223SOL    HW219569   4.775   2.745   4.854
 6224SOL     OW19570   2.972   1.715   5.005
 6224SOL    HW119571   2.936   1.622   5.017
 6224SOL    HW219572   3.038   1.715   4.930
 6225SOL     OW19573   3.762   3.381   0.263
 6225SOL    HW119574   3.668   3.410   0.249
 6225SOL    HW219575   3.800   3.347   0.177
 6226SOL     OW19576   5.505   0.437   4.865
 6226SOL    HW119577   5.474   0.363   4.924
 6226SOL    HW219578   5.511   0.522   4.918
 6227SOL     OW19579   3.722   4.593   5.825
 6227SOL    HW119580   3.721   4.635   5.734
 6227SOL    HW219581   3.702   4.496   5.818
 6228SOL     OW19582   0.140   0.586   3.279
 6228SOL    HW119583   0.161   0.675   3.319
 6228SOL    HW219584   0.223   0.530   3.277
 6229SOL     OW19585   2.518   2.510   2.212
 6229SOL    HW119586   2.561   2.581   2.157
 6229SOL    HW219587   2.572   2.426   2.207
 6230SOL     OW19588   2.758   2.221   3.702
 6230SOL    HW119589   2.708   2.141   3.735
 6230SOL    HW219590   2.698   2.278   3.646
 6231SOL     OW19591   6.644   5.124   1.639
 6231SOL    HW119592   6.743   5.134   1.654
 6231SOL    HW219593   6.628   5.057   1.566
 6232SOL     OW19594   0.477   0.744   0.165
 6232SOL    HW119595   0.462   0.737   0.066
 6232SOL    HW219596   0.412   0.809   0.204
 6233SOL     OW19597   4.588   2.238   6.879
 6233SOL    HW119598   4.653   2.306   6.912
 6233SOL    HW219599   4.592   2.234   6.779
 6234SOL     OW19600   2.646   1.642   4.109
 6234SOL    HW119601   2.639   1.543   4.100
 6234SOL    HW219602   2.560   1.678   4.146
 6235SOL     OW19603   2.425   6.802   2.635
 6235SOL    HW119604   2.374   6.888   2.628
 6235SOL    HW219605   2.501   6.803   2.570
 6236SOL     OW19606   0.232   4.473   0.604
 6236SOL    HW119607   0.208   4.377   0.592
 6236SOL    HW219608   0.156   4.531   0.575
 6237SOL     OW19609   4.292   6.956   0.929
 6237SOL    HW119610   4.313   0.027   0.944
 6237SOL    HW219611   4.219   6.928   0.992
 6238SOL     OW19612   5.009   5.333   1.033
 6238SOL    HW119613   5.066   5.401   1.080
 6238SOL    HW219614   4.926   5.317   1.086
 6239SOL     OW19615   2.452   0.071   3.106
 6239SOL    HW119616   2.437   7.006   3.065
 6239SOL    HW219617   2.540   0.071   3.154
 6240SOL     OW19618   1.629   3.564   0.667
 6240SOL    HW119619   1.555   3.498   0.658
 6240SOL    HW219620   1.689   3.558   0.587
 6241SOL     OW19621   4.154   0.241   1.792
 6241SOL    HW119622   4.118   0.208   1.705
 6241SOL    HW219623   4.240   0.289   1.776
 6242SOL     OW19624   4.746   2.507   3.682
 6242SOL    HW119625   4.723   2.420   3.726
 6242SOL    HW219626   4.764   2.576   3.752
 6243SOL     OW19627   5.981   6.288   4.147
 6243SOL    HW119628   6.033   6.207   4.121
 6243SOL    HW219629   6.001   6.311   4.242
 6244SOL     OW19630   2.659   2.018   2.299
 6244SOL    HW119631   2.728   2.087   2.316
 6244SOL    HW219632   2.680   1.935   2.350
 6245SOL     OW19633   2.972   4.708   0.735
 6245SOL    HW119634   2.969   4.786   0.673
 6245SOL    HW219635   2.882   4.667   0.741
 6246SOL     OW19636   2.427   1.696   5.713
 6246SOL    HW119637   2.492   1.772   5.720
 6246SOL    HW219638   2.454   1.623   5.777
 6247SOL     OW19639   6.987   6.254   3.033
 6247SOL    HW119640   6.907   6.313   3.040
 6247SOL    HW219641   0.038   6.295   3.082
 6248SOL     OW19642   0.731   5.065   1.444
 6248SOL    HW119643   0.758   5.003   1.371
 6248SOL    HW219644   0.640   5.101   1.426
 6249SOL     OW19645   6.175   4.254   6.489
 6249SOL    HW119646   6.168   4.167   6.441
 6249SOL    HW219647   6.095   4.266   6.548
 6250SOL     OW19648   6.220   6.402   0.055
 6250SOL    HW119649   6.317   6.377   0.049
 6250SOL    HW219650   6.195   6.456   6.999
 6251SOL     OW19651   4.749   1.668   6.969
 6251SOL    HW119652   4.678   1.699   0.007
 6251SOL    HW219653   4.729   1.574   6.940
 6252SOL     OW19654   2.635   6.044   5.046
 6252SOL    HW119655   2.684   6.123   5.082
 6252SOL    HW219656   2.701   5.978   5.010
 6253SOL     OW19657   2.228   4.022   2.131
 6253SOL    HW119658   2.253   3.935   2.173
 6253SOL    HW219659   2.163   4.070   2.191
 6254SOL     OW19660   5.734   0.480   0.272
 6254SOL    HW119661   5.668   0.420   0.317
 6254SOL    HW219662   5.783   0.533   0.342
 6255SOL     OW19663   0.409   1.447   2.684
 6255SOL    HW119664   0.452   1.357   2.675
 6255SOL    HW219665   0.475   1.518   2.658
 6256SOL     OW19666   3.671   5.145   2.928
 6256SOL    HW119667   3.707   5.226   2.973
 6256SOL    HW219668   3.746   5.084   2.903
 6257SOL     OW19669   5.646   2.910   6.561
 6257SOL    HW119670   5.663   2.944   6.468
 6257SOL    HW219671   5.574   2.841   6.559
 6258SOL     OW19672   4.561   1.587   2.384
 6258SOL    HW119673   4.461   1.578   2.388
 6258SOL    HW219674   4.592   1.580   2.290
 6259SOL     OW19675   2.966   2.261   1.737
 6259SOL    HW119676   2.920   2.176   1.761
 6259SOL    HW219677   2.936   2.334   1.798
 6260SOL     OW19678   3.897   3.924   7.014
 6260SOL    HW119679   3.825   3.987   6.985
 6260SOL    HW219680   3.856   3.847   0.038
 6261SOL     OW19681   4.163   1.241   0.180
 6261SOL    HW119682   4.204   1.161   0.135
 6261SOL    HW219683   4.073   1.259   0.140
 6262SOL     OW19684   1.024   4.873   6.573
 6262SOL    HW119685   1.008   4.964   6.612
 6262SOL    HW219686   1.037   4.881   6.474
 6263SOL     OW19687   6.905   0.008   0.613
 6263SOL    HW119688   6.996   6.993   0.601
 6263SOL    HW219689   6.879   0.002   0.710
 6264SOL     OW19690   2.804   1.823   0.574
 6264SOL    HW119691   2.812   1.915   0.534
 6264SOL    HW219692   2.800   1.830   0.673
 6265SOL     OW19693   4.089   3.240   1.450
 6265SOL    HW119694   4.126   3.147   1.451
 6265SOL    HW219695   4.025   3.251   1.525
 6266SOL     OW19696   2.672   0.417   3.063
 6266SOL    HW119697   2.760   0.411   3.016
 6266SOL    HW219698   2.604   0.455   3.001
 6267SOL     OW19699   3.670   0.329   6.360
 6267SOL    HW119700   3.724   0.412   6.346
 6267SOL    HW219701   3.710   0.274   6.434
 6268SOL     OW19702   3.618   5.224   2.677
 6268SOL    HW119703   3.630   5.212   2.775
 6268SOL    HW219704   3.682   5.292   2.643
 6269SOL     OW19705   6.065   5.287   1.894
 6269SOL    HW119706   6.113   5.375   1.897
 6269SOL    HW219707   6.079   5.244   1.805
 6270SOL     OW19708   0.624   0.151   4.798
 6270SOL    HW119709   0.697   0.211   4.767
 6270SOL    HW219710   0.606   0.166   4.896
 6271SOL     OW19711   6.391   1.605   0.707
 6271SOL    HW119712   6.477   1.590   0.756
 6271SOL    HW219713   6.339   1.677   0.752
 6272SOL     OW19714   2.132   2.028   3.202
 6272SOL    HW119715   2.091   1.940   3.226
 6272SOL    HW219716   2.211   2.045   3.261
 6273SOL     OW19717   3.825   1.383   1.807
 6273SOL    HW119718   3.871   1.335   1.734
 6273SOL    HW219719   3.761   1.451   1.769
 6274SOL     OW19720   3.836   7.021   6.125
 6274SOL    HW119721   3.741   7.021   6.158
 6274SOL    HW219722   3.889   0.064   6.175
 6275SOL     OW19723   2.055   0.243   4.443
 6275SOL    HW119724   2.073   0.333   4.403
 6275SOL    HW219725   1.984   0.251   4.513
 6276SOL     OW19726   1.316   5.161   4.034
 6276SOL    HW119727   1.278   5.175   3.943
 6276SOL    HW219728   1.409   5.125   4.027
 6277SOL     OW19729   5.438   3.170   2.944
 6277SOL    HW119730   5.491   3.228   2.882
 6277SOL    HW219731   5.390   3.228   3.010
 6278SOL     OW19732   5.004   0.569   4.496
 6278SOL    HW119733   4.990   0.571   4.397
 6278SOL    HW219734   5.055   0.487   4.521
 6279SOL     OW19735   4.368   2.024   0.210
 6279SOL    HW119736   4.312   2.008   0.291
 6279SOL    HW219737   4.339   1.962   0.137
 6280SOL     OW19738   0.580   4.783   5.997
 6280SOL    HW119739   0.534   4.861   5.955
 6280SOL    HW219740   0.545   4.768   6.089
 6281SOL     OW19741   2.532   6.755   5.639
 6281SOL    HW119742   2.455   6.693   5.653
 6281SOL    HW219743   2.578   6.733   5.553
 6282SOL     OW19744   1.991   6.839   4.432
 6282SOL    HW119745   1.971   6.907   4.361
 6282SOL    HW219746   2.089   6.840   4.452
 6283SOL     OW19747   6.831   2.617   4.975
 6283SOL    HW119748   6.776   2.552   4.924
 6283SOL    HW219749   6.772   2.672   5.035
 6284SOL     OW19750   1.536   4.084   5.650
 6284SOL    HW119751   1.597   4.120   5.580
 6284SOL    HW219752   1.579   4.007   5.695
 6285SOL     OW19753   1.574   4.141   3.083
 6285SOL    HW119754   1.641   4.193   3.136
 6285SOL    HW219755   1.601   4.141   2.986
 6286SOL     OW19756   5.462   0.852   3.632
 6286SOL    HW119757   5.525   0.915   3.585
 6286SOL    HW219758   5.442   0.774   3.572
 6287SOL     OW19759   4.466   4.479   1.732
 6287SOL    HW119760   4.544   4.501   1.790
 6287SOL    HW219761   4.458   4.380   1.723
 6288SOL     OW19762   5.771   3.609   0.930
 6288SOL    HW119763   5.758   3.567   0.840
 6288SOL    HW219764   5.681   3.628   0.971
 6289SOL     OW19765   1.561   1.413   3.558
 6289SOL    HW119766   1.540   1.412   3.460
 6289SOL    HW219767   1.524   1.330   3.600
 6290SOL     OW19768   5.154   3.544   3.280
 6290SOL    HW119769   5.138   3.469   3.344
 6290SOL    HW219770   5.251   3.552   3.261
 6291SOL     OW19771   3.182   4.078   3.357
 6291SOL    HW119772   3.196   3.984   3.325
 6291SOL    HW219773   3.131   4.076   3.443
 6292SOL     OW19774   1.116   2.097   2.377
 6292SOL    HW119775   1.030   2.062   2.415
 6292SOL    HW219776   1.193   2.050   2.420
 6293SOL     OW19777   4.935   0.240   0.391
 6293SOL    HW119778   4.990   0.263   0.310
 6293SOL    HW219779   4.860   0.306   0.400
 6294SOL     OW19780   4.409   5.382   3.001
 6294SOL    HW119781   4.320   5.338   3.007
 6294SOL    HW219782   4.428   5.407   2.906
 6295SOL     OW19783   5.849   6.626   6.394
 6295SOL    HW119784   5.781   6.570   6.347
 6295SOL    HW219785   5.858   6.596   6.488
 6296SOL     OW19786   6.174   1.499   3.224
 6296SOL    HW119787   6.270   1.470   3.213
 6296SOL    HW219788   6.114   1.423   3.198
 6297SOL     OW19789   5.777   6.691   5.602
 6297SOL    HW119790   5.689   6.738   5.611
 6297SOL    HW219791   5.827   6.728   5.523
 6298SOL     OW19792   1.266   2.615   5.108
 6298SOL    HW119793   1.267   2.659   5.018
 6298SOL    HW219794   1.299   2.521   5.100
 6299SOL     OW19795   6.502   2.917   6.878
 6299SOL    HW119796   6.476   2.934   6.973
 6299SOL    HW219797   6.441   2.968   6.817
 6300SOL     OW19798   5.046   0.364   3.837
 6300SOL    HW119799   5.133   0.335   3.876
 6300SOL    HW219800   5.032   0.318   3.748
 6301SOL     OW19801   3.043   0.047   0.668
 6301SOL    HW119802   3.087   0.122   0.619
 6301SOL    HW219803   3.088   0.034   0.757
 6302SOL     OW19804   1.485   1.268   3.337
 6302SOL    HW119805   1.387   1.265   3.356
 6302SOL    HW219806   1.499   1.288   3.240
 6303SOL     OW19807   2.129   6.084   5.141
 6303SOL    HW119808   2.145   6.002   5.197
 6303SOL    HW219809   2.104   6.057   5.048
 6304SOL     OW19810   2.548   1.374   6.810
 6304SOL    HW119811   2.549   1.355   6.908
 6304SOL    HW219812   2.475   1.440   6.790
 6305SOL     OW19813   6.514   0.480   1.224
 6305SOL    HW119814   6.463   0.468   1.139
 6305SOL    HW219815   6.457   0.526   1.292
 6306SOL     OW19816   6.482   3.062   3.704
 6306SOL    HW119817   6.556   2.996   3.717
 6306SOL    HW219818   6.416   3.055   3.778
 6307SOL     OW19819   2.198   4.893   0.365
 6307SOL    HW119820   2.138   4.815   0.349
 6307SOL    HW219821   2.249   4.880   0.450
 6308SOL     OW19822   3.357   2.171   5.292
 6308SOL    HW119823   3.411   2.123   5.224
 6308SOL    HW219824   3.299   2.239   5.247
 6309SOL     OW19825   5.608   2.146   4.000
 6309SOL    HW119826   5.615   2.239   3.963
 6309SOL    HW219827   5.598   2.081   3.924
 6310SOL     OW19828   1.808   5.092   4.744
 6310SOL    HW119829   1.723   5.047   4.773
 6310SOL    HW219830   1.841   5.048   4.660
 6311SOL     OW19831   5.724   0.759   4.839
 6311SOL    HW119832   5.788   0.753   4.762
 6311SOL    HW219833   5.734   0.678   4.896
 6312SOL     OW19834   3.814   4.931   5.747
 6312SOL    HW119835   3.864   4.962   5.827
 6312SOL    HW219836   3.777   5.010   5.698
 6313SOL     OW19837   2.110   5.264   3.029
 6313SOL    HW119838   2.122   5.194   2.958
 6313SOL    HW219839   2.105   5.354   2.987
 6314SOL     OW19840   2.557   6.669   3.366
 6314SOL    HW119841   2.481   6.607   3.385
 6314SOL    HW219842   2.642   6.616   3.361
 6315SOL     OW19843   3.270   3.177   0.427
 6315SOL    HW119844   3.203   3.145   0.360
 6315SOL    HW219845   3.227   3.185   0.516
 6316SOL     OW19846   5.149   2.370   5.820
 6316SOL    HW119847   5.169   2.466   5.839
 6316SOL    HW219848   5.066   2.364   5.765
 6317SOL     OW19849   5.911   6.508   4.484
 6317SOL    HW119850   5.856   6.504   4.567
 6317SOL    HW219851   5.921   6.603   4.455
 6318SOL     OW19852   2.434   1.922   4.621
 6318SOL    HW119853   2.517   1.883   4.661
 6318SOL    HW219854   2.418   2.013   4.660
 6319SOL     OW19855   0.161   1.646   3.416
 6319SOL    HW119856   0.206   1.679   3.499
 6319SOL    HW219857   0.217   1.670   3.337
 6320SOL     OW19858   6.180   3.315   2.948
 6320SOL    HW119859   6.119   3.243   2.982
 6320SOL    HW219860   6.252   3.274   2.892
 6321SOL     OW19861   2.398   4.107   0.320
 6321SOL    HW119862   2.361   4.153   0.401
 6321SOL    HW219863   2.329   4.106   0.248
 6322SOL     OW19864   1.127   0.804   6.957
 6322SOL    HW119865   1.061   0.730   6.971
 6322SOL    HW219866   1.185   0.812   0.013
 6323SOL     OW19867   3.886   2.773   0.479
 6323SOL    HW119868   3.957   2.841   0.499
 6323SOL    HW219869   3.798   2.819   0.468
 6324SOL     OW19870   4.264   1.179   6.602
 6324SOL    HW119871   4.317   1.113   6.656
 6324SOL    HW219872   4.183   1.133   6.564
 6325SOL     OW19873   0.623   2.212   2.522
 6325SOL    HW119874   0.672   2.205   2.434
 6325SOL    HW219875   0.585   2.123   2.546
 6326SOL     OW19876   5.019   5.841   1.620
 6326SOL    HW119877   5.056   5.851   1.712
 6326SOL    HW219878   5.016   5.744   1.596
 6327SOL     OW19879   5.569   5.610   5.627
 6327SOL    HW119880   5.518   5.694   5.648
 6327SOL    HW219881   5.510   5.547   5.577
 6328SOL     OW19882   3.015   4.015   6.224
 6328SOL    HW119883   3.100   3.963   6.223
 6328SOL    HW219884   3.018   4.085   6.152
 6329SOL     OW19885   0.526   1.600   3.397
 6329SOL    HW119886   0.488   1.643   3.315
 6329SOL    HW219887   0.618   1.567   3.378
 6330SOL     OW19888   3.776   1.651   7.005
 6330SOL    HW119889   3.717   1.729   6.984
 6330SOL    HW219890   3.847   1.642   6.935
 6331SOL     OW19891   6.497   2.647   1.905
 6331SOL    HW119892   6.439   2.654   1.823
 6331SOL    HW219893   6.593   2.644   1.877
 6332SOL     OW19894   5.827   5.945   1.482
 6332SOL    HW119895   5.831   6.008   1.560
 6332SOL    HW219896   5.890   5.869   1.498
 6333SOL     OW19897   3.523   4.908   2.856
 6333SOL    HW119898   3.580   4.842   2.806
 6333SOL    HW219899   3.568   4.997   2.856
 6334SOL     OW19900   2.012   1.109   2.795
 6334SOL    HW119901   1.920   1.142   2.772
 6334SOL    HW219902   2.021   1.102   2.894
 6335SOL     OW19903   6.712   1.296   6.693
 6335SOL    HW119904   6.657   1.379   6.704
 6335SOL    HW219905   6.713   1.269   6.597
 6336SOL     OW19906   0.234   2.489   4.490
 6336SOL    HW119907   0.162   2.471   4.558
 6336SOL    HW219908   0.217   2.432   4.409
 6337SOL     OW19909   6.156   4.969   5.522
 6337SOL    HW119910   6.121   4.878   5.497
 6337SOL    HW219911   6.126   5.036   5.453
 6338SOL     OW19912   3.872   1.153   3.588
 6338SOL    HW119913   3.910   1.153   3.496
 6338SOL    HW219914   3.788   1.206   3.590
 6339SOL     OW19915   6.862   1.710   3.918
 6339SOL    HW119916   6.775   1.676   3.952
 6339SOL    HW219917   6.892   1.655   3.840
 6340SOL     OW19918   1.938   5.759   4.108
 6340SOL    HW119919   1.952   5.707   4.193
 6340SOL    HW219920   2.025   5.765   4.058
 6341SOL     OW19921   0.332   4.710   3.511
 6341SOL    HW119922   0.295   4.670   3.595
 6341SOL    HW219923   0.274   4.786   3.482
 6342SOL     OW19924   1.370   2.675   1.065
 6342SOL    HW119925   1.301   2.603   1.063
 6342SOL    HW219926   1.433   2.658   1.141
 6343SOL     OW19927   3.753   1.202   6.851
 6343SOL    HW119928   3.744   1.290   6.805
 6343SOL    HW219929   3.679   1.141   6.821
 6344SOL     OW19930   0.812   4.425   4.237
 6344SOL    HW119931   0.841   4.503   4.182
 6344SOL    HW219932   0.716   4.435   4.262
 6345SOL     OW19933   3.598   1.604   1.797
 6345SOL    HW119934   3.614   1.627   1.701
 6345SOL    HW219935   3.514   1.650   1.828
 6346SOL     OW19936   0.588   4.857   3.545
 6346SOL    HW119937   0.513   4.791   3.549
 6346SOL    HW219938   0.588   4.912   3.628
 6347SOL     OW19939   2.788   0.439   1.199
 6347SOL    HW119940   2.772   0.344   1.172
 6347SOL    HW219941   2.884   0.451   1.221
 6348SOL     OW19942   0.990   3.131   4.150
 6348SOL    HW119943   0.922   3.191   4.191
 6348SOL    HW219944   0.952   3.039   4.139
 6349SOL     OW19945   2.977   0.629   0.323
 6349SOL    HW119946   3.034   0.591   0.250
 6349SOL    HW219947   2.979   0.729   0.317
 6350SOL     OW19948   1.628   6.174   2.259
 6350SOL    HW119949   1.685   6.091   2.262
 6350SOL    HW219950   1.578   6.176   2.172
 6351SOL     OW19951   6.919   1.039   2.877
 6351SOL    HW119952   6.864   0.960   2.849
 6351SOL    HW219953   7.006   1.038   2.828
 6352SOL     OW19954   0.122   5.521   2.000
 6352SOL    HW119955   0.112   5.461   1.921
 6352SOL    HW219956   0.034   5.564   2.021
 6353SOL     OW19957   0.108   6.891   1.377
 6353SOL    HW119958   0.194   6.928   1.413
 6353SOL    HW219959   0.031   6.941   1.417
 6354SOL     OW19960   0.475   6.518   3.356
 6354SOL    HW119961   0.525   6.596   3.320
 6354SOL    HW219962   0.524   6.434   3.333
 6355SOL     OW19963   1.837   2.095   3.380
 6355SOL    HW119964   1.840   1.995   3.391
 6355SOL    HW219965   1.774   2.118   3.305
 6356SOL     OW19966   3.609   3.368   1.639
 6356SOL    HW119967   3.553   3.318   1.706
 6356SOL    HW219968   3.564   3.363   1.549
 6357SOL     OW19969   4.598   2.116   0.106
 6357SOL    HW119970   4.592   2.122   0.006
 6357SOL    HW219971   4.510   2.087   0.143
 6358SOL     OW19972   6.586   2.248   3.389
 6358SOL    HW119973   6.585   2.256   3.290
 6358SOL    HW219974   6.668   2.198   3.418
 6359SOL     OW19975   0.047   1.242   6.825
 6359SOL    HW119976   0.020   1.202   6.912
 6359SOL    HW219977   0.066   1.339   6.837
 6360SOL     OW19978   3.164   5.655   4.465
 6360SOL    HW119979   3.092   5.611   4.519
 6360SOL    HW219980   3.185   5.599   4.385
 6361SOL     OW19981   4.812   6.347   6.189
 6361SOL    HW119982   4.900   6.337   6.235
 6361SOL    HW219983   4.782   6.442   6.194
 6362SOL     OW19984   6.078   5.625   6.830
 6362SOL    HW119985   6.047   5.711   6.872
 6362SOL    HW219986   6.084   5.637   6.731
 6363SOL     OW19987   0.886   5.584   4.291
 6363SOL    HW119988   0.891   5.594   4.390
 6363SOL    HW219989   0.976   5.598   4.251
 6364SOL     OW19990   2.564   2.418   5.743
 6364SOL    HW119991   2.525   2.434   5.834
 6364SOL    HW219992   2.498   2.444   5.673
 6365SOL     OW19993   4.834   6.674   2.588
 6365SOL    HW119994   4.910   6.609   2.592
 6365SOL    HW219995   4.857   6.749   2.526
 6366SOL     OW19996   0.588   5.220   5.339
 6366SOL    HW119997   0.646   5.198   5.417
 6366SOL    HW219998   0.500   5.254   5.372
 6367SOL     OW19999   5.728   6.788   3.816
 6367SOL    HW120000   5.757   6.809   3.909
 6367SOL    HW220001   5.738   6.869   3.759
 6368SOL     OW20002   2.973   6.662   4.234
 6368SOL    HW120003   3.019   6.641   4.320
 6368SOL    HW220004   3.041   6.684   4.164
 6369SOL     OW20005   2.498   5.097   4.206
 6369SOL    HW120006   2.414   5.135   4.168
 6369SOL    HW220007   2.484   5.000   4.228
 6370SOL     OW20008   6.261   2.710   1.461
 6370SOL    HW120009   6.346   2.722   1.409
 6370SOL    HW220010   6.203   2.643   1.416
 6371SOL     OW20011   5.129   2.368   2.577
 6371SOL    HW120012   5.044   2.398   2.620
 6371SOL    HW220013   5.109   2.298   2.508
 6372SOL     OW20014   3.092   6.026   2.486
 6372SOL    HW120015   3.090   6.041   2.387
 6372SOL    HW220016   3.185   6.040   2.521
 6373SOL     OW20017   4.209   4.196   6.572
 6373SOL    HW120018   4.282   4.179   6.638
 6373SOL    HW220019   4.230   4.149   6.486
 6374SOL     OW20020   3.044   3.046   2.167
 6374SOL    HW120021   2.998   2.959   2.184
 6374SOL    HW220022   2.976   3.116   2.144
 6375SOL     OW20023   1.804   6.311   2.860
 6375SOL    HW120024   1.716   6.300   2.906
 6375SOL    HW220025   1.793   6.286   2.763
 6376SOL     OW20026   0.073   2.467   5.217
 6376SOL    HW120027   0.101   2.484   5.312
 6376SOL    HW220028   6.998   2.467   5.213
 6377SOL     OW20029   0.133   1.216   4.084
 6377SOL    HW120030   0.091   1.126   4.071
 6377SOL    HW220031   0.064   1.287   4.069
 6378SOL     OW20032   4.850   4.067   3.633
 6378SOL    HW120033   4.893   4.021   3.555
 6378SOL    HW220034   4.772   4.121   3.601
 6379SOL     OW20035   2.611   4.693   3.353
 6379SOL    HW120036   2.536   4.641   3.311
 6379SOL    HW220037   2.581   4.787   3.369
 6380SOL     OW20038   0.242   0.789   5.920
 6380SOL    HW120039   0.308   0.864   5.918
 6380SOL    HW220040   0.198   0.786   6.011
 6381SOL     OW20041   3.083   4.037   2.644
 6381SOL    HW120042   3.158   4.018   2.581
 6381SOL    HW220043   3.059   4.134   2.638
 6382SOL     OW20044   0.767   3.479   5.576
 6382SOL    HW120045   0.767   3.516   5.669
 6382SOL    HW220046   0.842   3.520   5.525
 6383SOL     OW20047   3.023   1.043   4.555
 6383SOL    HW120048   2.950   0.980   4.527
 6383SOL    HW220049   3.047   1.102   4.479
 6384SOL     OW20050   6.612   4.917   3.242
 6384SOL    HW120051   6.520   4.893   3.273
 6384SOL    HW220052   6.614   5.014   3.215
 6385SOL     OW20053   0.211   5.856   4.659
 6385SOL    HW120054   0.205   5.787   4.586
 6385SOL    HW220055   0.253   5.939   4.623
 6386SOL     OW20056   2.831   4.922   0.998
 6386SOL    HW120057   2.829   4.935   0.899
 6386SOL    HW220058   2.806   4.828   1.020
 6387SOL     OW20059   6.630   0.720   5.229
 6387SOL    HW120060   6.561   0.708   5.301
 6387SOL    HW220061   6.712   0.668   5.253
 6388SOL     OW20062   2.903   4.729   2.484
 6388SOL    HW120063   2.929   4.633   2.474
 6388SOL    HW220064   2.872   4.745   2.578
 6389SOL     OW20065   0.878   5.028   3.350
 6389SOL    HW120066   0.828   4.944   3.327
 6389SOL    HW220067   0.815   5.105   3.349
 6390SOL     OW20068   0.734   3.406   3.940
 6390SOL    HW120069   0.644   3.426   3.901
 6390SOL    HW220070   0.728   3.325   3.998
 6391SOL     OW20071   3.050   1.691   0.085
 6391SOL    HW120072   2.982   1.749   0.041
 6391SOL    HW220073   3.024   1.595   0.076
 6392SOL     OW20074   1.693   0.115   4.182
 6392SOL    HW120075   1.731   0.148   4.097
 6392SOL    HW220076   1.665   0.019   4.171
 6393SOL     OW20077   6.108   6.756   0.617
 6393SOL    HW120078   6.117   6.852   0.641
 6393SOL    HW220079   6.188   6.727   0.563
 6394SOL     OW20080   2.512   4.591   0.305
 6394SOL    HW120081   2.481   4.549   0.219
 6394SOL    HW220082   2.563   4.523   0.358
 6395SOL     OW20083   6.315   1.790   0.906
 6395SOL    HW120084   6.303   1.888   0.885
 6395SOL    HW220085   6.236   1.757   0.957
 6396SOL     OW20086   5.385   4.249   5.392
 6396SOL    HW120087   5.386   4.150   5.404
 6396SOL    HW220088   5.479   4.283   5.391
 6397SOL     OW20089   0.321   1.298   1.090
 6397SOL    HW120090   0.271   1.383   1.108
 6397SOL    HW220091   0.411   1.319   1.052
 6398SOL     OW20092   3.156   1.437   1.468
 6398SOL    HW120093   3.161   1.537   1.476
 6398SOL    HW220094   3.248   1.398   1.475
 6399SOL     OW20095   2.666   5.403   6.593
 6399SOL    HW120096   2.716   5.363   6.669
 6399SOL    HW220097   2.589   5.457   6.628
 6400SOL     OW20098   2.516   5.618   3.846
 6400SOL    HW120099   2.489   5.526   3.876
 6400SOL    HW220100   2.604   5.642   3.888
 6401SOL     OW20101   0.337   4.967   4.171
 6401SOL    HW120102   0.436   4.982   4.176
 6401SOL    HW220103   0.311   4.943   4.078
 6402SOL     OW20104   2.334   0.825   2.996
 6402SOL    HW120105   2.286   0.854   2.912
 6402SOL    HW220106   2.420   0.876   3.004
 6403SOL     OW20107   0.293   5.661   0.297
 6403SOL    HW120108   0.318   5.566   0.313
 6403SOL    HW220109   0.374   5.719   0.306
 6404SOL     OW20110   5.401   1.359   3.137
 6404SOL    HW120111   5.368   1.391   3.048
 6404SOL    HW220112   5.341   1.287   3.171
 6405SOL     OW20113   2.550   1.249   2.481
 6405SOL    HW120114   2.492   1.168   2.487
 6405SOL    HW220115   2.531   1.311   2.558
 6406SOL     OW20116   2.561   2.075   3.857
 6406SOL    HW120117   2.533   1.980   3.844
 6406SOL    HW220118   2.531   2.106   3.947
 6407SOL     OW20119   4.053   5.340   6.311
 6407SOL    HW120120   4.086   5.261   6.363
 6407SOL    HW220121   3.990   5.394   6.367
 6408SOL     OW20122   6.217   1.820   6.630
 6408SOL    HW120123   6.176   1.900   6.587
 6408SOL    HW220124   6.269   1.848   6.711
 6409SOL     OW20125   1.309   4.435   2.363
 6409SOL    HW120126   1.382   4.420   2.296
 6409SOL    HW220127   1.235   4.369   2.346
 6410SOL     OW20128   1.069   1.347   1.064
 6410SOL    HW120129   1.031   1.383   0.979
 6410SOL    HW220130   1.153   1.395   1.087
 6411SOL     OW20131   1.041   0.842   3.454
 6411SOL    HW120132   1.041   0.771   3.524
 6411SOL    HW220133   1.127   0.893   3.458
 6412SOL     OW20134   0.413   2.536   5.061
 6412SOL    HW120135   0.353   2.457   5.048
 6412SOL    HW220136   0.502   2.504   5.095
 6413SOL     OW20137   6.902   4.629   0.729
 6413SOL    HW120138   6.945   4.634   0.639
 6413SOL    HW220139   6.830   4.698   0.736
 6414SOL     OW20140   5.639   6.588   2.593
 6414SOL    HW120141   5.735   6.578   2.567
 6414SOL    HW220142   5.634   6.626   2.686
 6415SOL     OW20143   1.741   2.113   2.064
 6415SOL    HW120144   1.831   2.126   2.022
 6415SOL    HW220145   1.750   2.109   2.163
 6416SOL     OW20146   1.561   0.596   6.457
 6416SOL    HW120147   1.651   0.635   6.441
 6416SOL    HW220148   1.551   0.573   6.553
 6417SOL     OW20149   0.768   6.720   2.824
 6417SOL    HW120150   0.863   6.688   2.825
 6417SOL    HW220151   0.766   6.819   2.813
 6418SOL     OW20152   6.193   6.195   2.250
 6418SOL    HW120153   6.269   6.161   2.304
 6418SOL    HW220154   6.136   6.255   2.306
 6419SOL     OW20155   2.947   5.009   1.356
 6419SOL    HW120156   3.026   5.026   1.297
 6419SOL    HW220157   2.937   5.086   1.420
 6420SOL     OW20158   1.731   3.975   0.170
 6420SOL    HW120159   1.761   4.001   0.262
 6420SOL    HW220160   1.641   4.014   0.152
 6421SOL     OW20161   5.453   1.761   1.223
 6421SOL    HW120162   5.470   1.854   1.257
 6421SOL    HW220163   5.418   1.766   1.130
 6422SOL     OW20164   5.978   1.451   3.460
 6422SOL    HW120165   6.002   1.543   3.430
 6422SOL    HW220166   6.001   1.386   3.388
 6423SOL     OW20167   4.977   3.734   0.193
 6423SOL    HW120168   4.946   3.642   0.214
 6423SOL    HW220169   4.932   3.766   0.110
 6424SOL     OW20170   6.982   4.650   5.722
 6424SOL    HW120171   0.029   4.596   5.765
 6424SOL    HW220172   6.940   4.710   5.790
 6425SOL     OW20173   1.093   4.907   2.073
 6425SOL    HW120174   1.169   4.843   2.061
 6425SOL    HW220175   1.014   4.876   2.020
 6426SOL     OW20176   0.463   2.774   3.611
 6426SOL    HW120177   0.391   2.762   3.679
 6426SOL    HW220178   0.518   2.854   3.634
 6427SOL     OW20179   2.167   3.348   5.023
 6427SOL    HW120180   2.188   3.251   5.037
 6427SOL    HW220181   2.159   3.393   5.111
 6428SOL     OW20182   6.629   3.528   2.367
 6428SOL    HW120183   6.645   3.575   2.454
 6428SOL    HW220184   6.553   3.464   2.377
 6429SOL     OW20185   1.578   0.745   3.997
 6429SOL    HW120186   1.527   0.830   4.010
 6429SOL    HW220187   1.538   0.673   4.054
 6430SOL     OW20188   5.921   3.319   0.859
 6430SOL    HW120189   5.915   3.235   0.913
 6430SOL    HW220190   5.996   3.376   0.894
 6431SOL     OW20191   5.354   6.944   2.562
 6431SOL    HW120192   5.311   6.959   2.473
 6431SOL    HW220193   5.451   6.970   2.556
 6432SOL     OW20194   5.245   3.207   0.614
 6432SOL    HW120195   5.225   3.290   0.563
 6432SOL    HW220196   5.296   3.144   0.555
 6433SOL     OW20197   2.913   3.839   1.676
 6433SOL    HW120198   2.820   3.876   1.665
 6433SOL    HW220199   2.918   3.749   1.634
 6434SOL     OW20200   1.312   4.859   1.091
 6434SOL    HW120201   1.240   4.889   1.153
 6434SOL    HW220202   1.389   4.922   1.096
 6435SOL     OW20203   4.785   4.347   6.823
 6435SOL    HW120204   4.711   4.365   6.759
 6435SOL    HW220205   4.855   4.291   6.779
 6436SOL     OW20206   1.928   2.793   3.401
 6436SOL    HW120207   1.987   2.864   3.438
 6436SOL    HW220208   1.980   2.735   3.338
 6437SOL     OW20209   1.046   0.679   6.613
 6437SOL    HW120210   1.021   0.712   6.704
 6437SOL    HW220211   1.144   0.663   6.609
 6438SOL     OW20212   1.111   3.694   3.825
 6438SOL    HW120213   1.159   3.672   3.740
 6438SOL    HW220214   1.060   3.779   3.812
 6439SOL     OW20215   0.738   0.102   1.322
 6439SOL    HW120216   0.688   0.036   1.265
 6439SOL    HW220217   0.748   0.066   1.414
 6440SOL     OW20218   1.044   1.698   2.574
 6440SOL    HW120219   1.021   1.615   2.626
 6440SOL    HW220220   1.116   1.748   2.621
 6441SOL     OW20221   2.536   1.247   3.302
 6441SOL    HW120222   2.481   1.169   3.331
 6441SOL    HW220223   2.484   1.332   3.316
 6442SOL     OW20224   3.127   1.193   4.065
 6442SOL    HW120225   3.116   1.160   4.159
 6442SOL    HW220226   3.211   1.247   4.059
 6443SOL     OW20227   2.802   2.078   0.495
 6443SOL    HW120228   2.736   2.150   0.518
 6443SOL    HW220229   2.877   2.117   0.443
 6444SOL     OW20230   0.529   0.984   3.039
 6444SOL    HW120231   0.433   0.966   3.057
 6444SOL    HW220232   0.564   1.048   3.107
 6445SOL     OW20233   4.041   3.348   5.429
 6445SOL    HW120234   4.031   3.326   5.527
 6445SOL    HW220235   4.046   3.447   5.418
 6446SOL     OW20236   6.510   1.201   0.282
 6446SOL    HW120237   6.435   1.268   0.286
 6446SOL    HW220238   6.558   1.199   0.369
 6447SOL     OW20239   1.104   0.562   2.913
 6447SOL    HW120240   1.201   0.544   2.897
 6447SOL    HW220241   1.049   0.494   2.865
 6448SOL     OW20242   5.611   2.961   3.054
 6448SOL    HW120243   5.558   3.037   3.017
 6448SOL    HW220244   5.548   2.888   3.083
 6449SOL     OW20245   3.743   2.898   0.732
 6449SOL    HW120246   3.747   2.952   0.816
 6449SOL    HW220247   3.772   2.804   0.751
 6450SOL     OW20248   6.524   3.612   0.489
 6450SOL    HW120249   6.557   3.570   0.574
 6450SOL    HW220250   6.520   3.543   0.417
 6451SOL     OW20251   2.583   6.510   4.946
 6451SOL    HW120252   2.525   6.430   4.929
 6451SOL    HW220253   2.547   6.562   5.023
 6452SOL     OW20254   3.383   6.258   3.766
 6452SOL    HW120255   3.413   6.351   3.788
 6452SOL    HW220256   3.439   6.222   3.691
 6453SOL     OW20257   1.611   5.880   6.522
 6453SOL    HW120258   1.624   5.954   6.456
 6453SOL    HW220259   1.681   5.885   6.592
 6454SOL     OW20260   3.363   1.483   5.170
 6454SOL    HW120261   3.273   1.473   5.127
 6454SOL    HW220262   3.386   1.399   5.219
 6455SOL     OW20263   5.951   2.550   5.636
 6455SOL    HW120264   5.870   2.523   5.584
 6455SOL    HW220265   5.985   2.472   5.689
 6456SOL     OW20266   0.021   0.374   3.873
 6456SOL    HW120267   0.106   0.421   3.896
 6456SOL    HW220268   6.969   0.437   3.882
 6457SOL     OW20269   6.567   2.529   0.930
 6457SOL    HW120270   6.661   2.511   0.902
 6457SOL    HW220271   6.534   2.455   0.988
 6458SOL     OW20272   1.456   5.745   2.972
 6458SOL    HW120273   1.465   5.691   3.056
 6458SOL    HW220274   1.545   5.785   2.949
 6459SOL     OW20275   5.246   5.065   0.021
 6459SOL    HW120276   5.293   5.086   6.961
 6459SOL    HW220277   5.271   5.132   0.091
 6460SOL     OW20278   3.543   5.092   6.294
 6460SOL    HW120279   3.599   5.061   6.217
 6460SOL    HW220280   3.473   5.155   6.261
 6461SOL     OW20281   3.566   5.441   4.875
 6461SOL    HW120282   3.562   5.521   4.936
 6461SOL    HW220283   3.505   5.456   4.798
 6462SOL     OW20284   2.146   3.576   4.290
 6462SOL    HW120285   2.108   3.487   4.264
 6462SOL    HW220286   2.139   3.586   4.389
 6463SOL     OW20287   1.385   4.519   5.891
 6463SOL    HW120288   1.356   4.465   5.970
 6463SOL    HW220289   1.325   4.598   5.880
 6464SOL     OW20290   0.178   5.358   3.138
 6464SOL    HW120291   0.102   5.420   3.158
 6464SOL    HW220292   0.215   5.379   3.048
 6465SOL     OW20293   6.447   1.122   2.965
 6465SOL    HW120294   6.537   1.156   2.939
 6465SOL    HW220295   6.439   1.026   2.941
 6466SOL     OW20296   0.160   2.443   4.927
 6466SOL    HW120297   0.109   2.476   4.848
 6466SOL    HW220298   0.115   2.473   5.011
 6467SOL     OW20299   2.448   0.696   6.670
 6467SOL    HW120300   2.371   0.746   6.709
 6467SOL    HW220301   2.514   0.761   6.631
 6468SOL     OW20302   5.016   4.946   0.815
 6468SOL    HW120303   5.104   4.989   0.794
 6468SOL    HW220304   5.029   4.849   0.833
 6469SOL     OW20305   0.022   1.298   5.619
 6469SOL    HW120306   6.965   1.352   5.637
 6469SOL    HW220307   0.010   1.245   5.535
 6470SOL     OW20308   6.752   0.083   5.845
 6470SOL    HW120309   6.754   0.147   5.922
 6470SOL    HW220310   6.659   0.048   5.834
 6471SOL     OW20311   5.656   4.942   5.877
 6471SOL    HW120312   5.694   5.001   5.949
 6471SOL    HW220313   5.651   4.994   5.791
 6472SOL     OW20314   1.179   6.059   1.653
 6472SOL    HW120315   1.153   6.129   1.719
 6472SOL    HW220316   1.106   6.047   1.586
 6473SOL     OW20317   2.377   1.702   6.359
 6473SOL    HW120318   2.413   1.636   6.426
 6473SOL    HW220319   2.277   1.697   6.357
 6474SOL     OW20320   1.840   2.924   5.267
 6474SOL    HW120321   1.926   2.968   5.292
 6474SOL    HW220322   1.789   2.902   5.350
 6475SOL     OW20323   4.106   6.217   4.249
 6475SOL    HW120324   4.169   6.225   4.171
 6475SOL    HW220325   4.019   6.180   4.218
 6476SOL     OW20326   4.630   5.010   2.763
 6476SOL    HW120327   4.621   5.096   2.714
 6476SOL    HW220328   4.614   5.024   2.860
 6477SOL     OW20329   6.647   5.561   0.132
 6477SOL    HW120330   6.604   5.651   0.130
 6477SOL    HW220331   6.602   5.504   0.201
 6478SOL     OW20332   4.730   6.704   0.773
 6478SOL    HW120333   4.805   6.690   0.709
 6478SOL    HW220334   4.759   6.673   0.864
 6479SOL     OW20335   4.148   5.180   2.701
 6479SOL    HW120336   4.156   5.157   2.604
 6479SOL    HW220337   4.146   5.095   2.755
 6480SOL     OW20338   2.839   2.452   0.087
 6480SOL    HW120339   2.919   2.397   0.060
 6480SOL    HW220340   2.851   2.546   0.057
 6481SOL     OW20341   4.972   1.194   1.102
 6481SOL    HW120342   4.918   1.279   1.106
 6481SOL    HW220343   4.987   1.159   1.194
 6482SOL     OW20344   6.965   0.526   6.598
 6482SOL    HW120345   6.992   0.512   6.693
 6482SOL    HW220346   6.886   0.467   6.577
 6483SOL     OW20347   1.896   6.399   3.094
 6483SOL    HW120348   1.894   6.390   2.995
 6483SOL    HW220349   1.808   6.373   3.132
 6484SOL     OW20350   4.773   6.807   3.869
 6484SOL    HW120351   4.715   6.790   3.949
 6484SOL    HW220352   4.852   6.862   3.897
 6485SOL     OW20353   1.470   2.372   3.266
 6485SOL    HW120354   1.399   2.431   3.229
 6485SOL    HW220355   1.457   2.278   3.233
 6486SOL     OW20356   1.579   3.607   3.632
 6486SOL    HW120357   1.545   3.690   3.675
 6486SOL    HW220358   1.676   3.619   3.609
 6487SOL     OW20359   5.721   6.374   3.943
 6487SOL    HW120360   5.631   6.345   3.973
 6487SOL    HW220361   5.791   6.313   3.981
 6488SOL     OW20362   3.255   5.438   5.941
 6488SOL    HW120363   3.329   5.376   5.915
 6488SOL    HW220364   3.223   5.415   6.032
 6489SOL     OW20365   1.864   1.775   5.396
 6489SOL    HW120366   1.861   1.795   5.299
 6489SOL    HW220367   1.946   1.720   5.417
 6490SOL     OW20368   3.392   0.928   0.541
 6490SOL    HW120369   3.474   0.970   0.501
 6490SOL    HW220370   3.332   0.897   0.468
 6491SOL     OW20371   3.671   1.910   6.558
 6491SOL    HW120372   3.770   1.899   6.561
 6491SOL    HW220373   3.628   1.839   6.614
 6492SOL     OW20374   5.803   6.513   0.021
 6492SOL    HW120375   5.780   6.422   0.055
 6492SOL    HW220376   5.812   6.510   6.947
 6493SOL     OW20377   0.998   6.540   6.073
 6493SOL    HW120378   1.095   6.516   6.061
 6493SOL    HW220379   0.959   6.484   6.146
 6494SOL     OW20380   1.021   0.391   3.487
 6494SOL    HW120381   1.031   0.315   3.551
 6494SOL    HW220382   1.051   0.476   3.531
 6495SOL     OW20383   5.505   4.697   2.645
 6495SOL    HW120384   5.464   4.788   2.640
 6495SOL    HW220385   5.601   4.705   2.671
 6496SOL     OW20386   1.738   7.003   2.358
 6496SOL    HW120387   1.758   6.913   2.397
 6496SOL    HW220388   1.772   0.049   2.420
 6497SOL     OW20389   1.433   4.566   0.370
 6497SOL    HW120390   1.334   4.558   0.363
 6497SOL    HW220391   1.475   4.478   0.348
 6498SOL     OW20392   1.987   4.542   4.085
 6498SOL    HW120393   1.941   4.479   4.147
 6498SOL    HW220394   2.060   4.589   4.135
 6499SOL     OW20395   5.771   1.365   4.073
 6499SOL    HW120396   5.677   1.349   4.105
 6499SOL    HW220397   5.768   1.401   3.979
 6500SOL     OW20398   5.214   5.135   3.572
 6500SOL    HW120399   5.141   5.190   3.531
 6500SOL    HW220400   5.175   5.053   3.613
 6501SOL     OW20401   6.927   4.137   1.218
 6501SOL    HW120402   6.844   4.163   1.269
 6501SOL    HW220403   6.934   4.194   1.136
 6502SOL     OW20404   0.883   5.366   2.796
 6502SOL    HW120405   0.832   5.312   2.728
 6502SOL    HW220406   0.981   5.348   2.786
 6503SOL     OW20407   4.465   6.771   4.834
 6503SOL    HW120408   4.416   6.846   4.789
 6503SOL    HW220409   4.425   6.684   4.807
 6504SOL     OW20410   3.178   0.749   0.662
 6504SOL    HW120411   3.140   0.769   0.571
 6504SOL    HW220412   3.157   0.655   0.687
 6505SOL     OW20413   6.312   5.217   1.017
 6505SOL    HW120414   6.373   5.143   1.045
 6505SOL    HW220415   6.240   5.228   1.086
 6506SOL     OW20416   2.272   2.335   1.242
 6506SOL    HW120417   2.176   2.328   1.216
 6506SOL    HW220418   2.280   2.329   1.341
 6507SOL     OW20419   2.045   0.363   1.596
 6507SOL    HW120420   2.029   0.342   1.692
 6507SOL    HW220421   2.127   0.316   1.564
 6508SOL     OW20422   2.070   1.866   2.897
 6508SOL    HW120423   2.097   1.870   2.801
 6508SOL    HW220424   1.990   1.925   2.912
 6509SOL     OW20425   0.467   2.754   4.270
 6509SOL    HW120426   0.516   2.667   4.273
 6509SOL    HW220427   0.464   2.793   4.362
 6510SOL     OW20428   5.623   4.738   6.044
 6510SOL    HW120429   5.624   4.819   5.985
 6510SOL    HW220430   5.598   4.766   6.137
 6511SOL     OW20431   6.268   6.039   6.412
 6511SOL    HW120432   6.267   5.974   6.335
 6511SOL    HW220433   6.340   6.107   6.397
 6512SOL     OW20434   4.713   6.455   3.616
 6512SOL    HW120435   4.806   6.486   3.595
 6512SOL    HW220436   4.717   6.367   3.663
 6513SOL     OW20437   3.398   6.911   3.129
 6513SOL    HW120438   3.481   6.856   3.119
 6513SOL    HW220439   3.420   7.007   3.115
 6514SOL     OW20440   3.591   0.024   4.269
 6514SOL    HW120441   3.631   0.082   4.340
 6514SOL    HW220442   3.526   0.077   4.215
 6515SOL     OW20443   0.993   6.837   4.956
 6515SOL    HW120444   1.044   6.866   5.037
 6515SOL    HW220445   0.895   6.853   4.971
 6516SOL     OW20446   0.724   1.623   5.377
 6516SOL    HW120447   0.666   1.545   5.401
 6516SOL    HW220448   0.674   1.708   5.395
 6517SOL     OW20449   1.089   1.552   0.440
 6517SOL    HW120450   1.119   1.628   0.497
 6517SOL    HW220451   1.140   1.554   0.353
 6518SOL     OW20452   6.234   6.060   1.355
 6518SOL    HW120453   6.177   5.978   1.354
 6518SOL    HW220454   6.241   6.094   1.449
 6519SOL     OW20455   2.400   1.967   3.583
 6519SOL    HW120456   2.436   1.921   3.664
 6519SOL    HW220457   2.398   2.066   3.600
 6520SOL     OW20458   5.587   5.384   1.272
 6520SOL    HW120459   5.554   5.294   1.301
 6520SOL    HW220460   5.541   5.455   1.325
 6521SOL     OW20461   7.016   1.505   5.307
 6521SOL    HW120462   7.008   1.410   5.337
 6521SOL    HW220463   0.078   1.518   5.261
 6522SOL     OW20464   2.559   5.300   6.049
 6522SOL    HW120465   2.575   5.273   6.144
 6522SOL    HW220466   2.611   5.382   6.028
 6523SOL     OW20467   2.081   2.080   6.364
 6523SOL    HW120468   2.017   2.003   6.371
 6523SOL    HW220469   2.175   2.047   6.376
 6524SOL     OW20470   4.010   3.912   4.036
 6524SOL    HW120471   4.039   3.892   3.943
 6524SOL    HW220472   4.073   3.869   4.101
 6525SOL     OW20473   0.050   2.826   3.536
 6525SOL    HW120474   0.099   2.857   3.617
 6525SOL    HW220475   7.007   2.894   3.510
 6526SOL     OW20476   1.457   5.938   4.921
 6526SOL    HW120477   1.393   5.983   4.983
 6526SOL    HW220478   1.406   5.890   4.849
 6527SOL     OW20479   1.704   0.895   4.590
 6527SOL    HW120480   1.649   0.964   4.542
 6527SOL    HW220481   1.649   0.850   4.660
 6528SOL     OW20482   6.777   1.306   4.386
 6528SOL    HW120483   6.723   1.384   4.417
 6528SOL    HW220484   6.854   1.338   4.331
 6529SOL     OW20485   6.975   2.334   2.282
 6529SOL    HW120486   6.876   2.332   2.300
 6529SOL    HW220487   7.016   2.412   2.329
 6530SOL     OW20488   6.656   1.944   0.716
 6530SOL    HW120489   6.605   1.957   0.801
 6530SOL    HW220490   6.634   2.018   0.653
 6531SOL     OW20491   4.643   2.706   4.136
 6531SOL    HW120492   4.632   2.627   4.197
 6531SOL    HW220493   4.684   2.782   4.187
 6532SOL     OW20494   6.997   1.679   6.432
 6532SOL    HW120495   6.994   1.610   6.504
 6532SOL    HW220496   6.909   1.728   6.430
 6533SOL     OW20497   4.482   0.411   1.143
 6533SOL    HW120498   4.516   0.317   1.148
 6533SOL    HW220499   4.541   0.471   1.196
 6534SOL     OW20500   2.170   3.981   1.007
 6534SOL    HW120501   2.188   4.064   0.955
 6534SOL    HW220502   2.114   3.919   0.953
 6535SOL     OW20503   0.919   3.927   5.888
 6535SOL    HW120504   0.970   3.852   5.929
 6535SOL    HW220505   0.893   3.903   5.794
 6536SOL     OW20506   6.512   2.563   0.041
 6536SOL    HW120507   6.442   2.623   0.081
 6536SOL    HW220508   6.508   2.474   0.085
 6537SOL     OW20509   1.316   6.996   0.552
 6537SOL    HW120510   1.289   0.050   0.498
 6537SOL    HW220511   1.359   6.928   0.493
 6538SOL     OW20512   2.557   3.123   7.016
 6538SOL    HW120513   2.541   3.220   0.010
 6538SOL    HW220514   2.475   3.084   6.976
 6539SOL     OW20515   2.241   2.118   7.013
 6539SOL    HW120516   2.291   2.059   0.050
 6539SOL    HW220517   2.287   2.121   6.925
 6540SOL     OW20518   3.254   1.383   4.863
 6540SOL    HW120519   3.299   1.308   4.911
 6540SOL    HW220520   3.246   1.361   4.766
 6541SOL     OW20521   2.099   2.517   6.286
 6541SOL    HW120522   2.117   2.426   6.249
 6541SOL    HW220523   2.001   2.527   6.303
 6542SOL     OW20524   5.940   4.432   3.514
 6542SOL    HW120525   5.929   4.392   3.424
 6542SOL    HW220526   5.922   4.530   3.510
 6543SOL     OW20527   6.435   6.140   6.885
 6543SOL    HW120528   6.375   6.205   6.837
 6543SOL    HW220529   6.405   6.130   6.979
 6544SOL     OW20530   6.411   6.674   4.556
 6544SOL    HW120531   6.377   6.634   4.640
 6544SOL    HW220532   6.337   6.724   4.510
 6545SOL     OW20533   4.947   1.666   5.802
 6545SOL    HW120534   5.046   1.675   5.811
 6545SOL    HW220535   4.904   1.755   5.817
 6546SOL     OW20536   3.129   4.458   6.240
 6546SOL    HW120537   3.032   4.459   6.214
 6546SOL    HW220538   3.183   4.417   6.166
 6547SOL     OW20539   4.932   2.405   6.495
 6547SOL    HW120540   4.973   2.484   6.541
 6547SOL    HW220541   4.851   2.434   6.445
 6548SOL     OW20542   6.868   4.820   5.526
 6548SOL    HW120543   6.903   4.741   5.577
 6548SOL    HW220544   6.931   4.897   5.537
 6549SOL     OW20545   3.865   1.608   0.915
 6549SOL    HW120546   3.961   1.589   0.936
 6549SOL    HW220547   3.823   1.527   0.875
 6550SOL     OW20548   0.522   5.621   3.291
 6550SOL    HW120549   0.621   5.631   3.292
 6550SOL    HW220550   0.487   5.645   3.200
 6551SOL     OW20551   2.110   4.686   2.185
 6551SOL    HW120552   2.195   4.640   2.212
 6551SOL    HW220553   2.070   4.637   2.107
 6552SOL     OW20554   2.777   5.167   5.894
 6552SOL    HW120555   2.749   5.152   5.799
 6552SOL    HW220556   2.720   5.240   5.934
 6553SOL     OW20557   0.692   3.229   2.574
 6553SOL    HW120558   0.737   3.158   2.628
 6553SOL    HW220559   0.593   3.210   2.571
 6554SOL     OW20560   0.192   2.571   5.456
 6554SOL    HW120561   0.230   2.504   5.520
 6554SOL    HW220562   0.266   2.630   5.424
 6555SOL     OW20563   0.349   1.436   2.335
 6555SOL    HW120564   0.419   1.482   2.280
 6555SOL    HW220565   0.283   1.504   2.368
 6556SOL     OW20566   4.024   6.269   4.796
 6556SOL    HW120567   4.055   6.276   4.701
 6556SOL    HW220568   4.090   6.216   4.849
 6557SOL     OW20569   6.539   5.407   1.307
 6557SOL    HW120570   6.599   5.482   1.334
 6557SOL    HW220571   6.448   5.420   1.348
 6558SOL     OW20572   6.341   5.714   6.902
 6558SOL    HW120573   6.260   5.656   6.889
 6558SOL    HW220574   6.414   5.685   6.840
 6559SOL     OW20575   4.148   3.595   0.902
 6559SOL    HW120576   4.147   3.695   0.906
 6559SOL    HW220577   4.068   3.560   0.951
 6560SOL     OW20578   3.883   2.322   7.007
 6560SOL    HW120579   3.954   2.253   7.018
 6560SOL    HW220580   3.868   2.370   0.068
 6561SOL     OW20581   3.997   3.543   3.879
 6561SOL    HW120582   3.978   3.529   3.977
 6561SOL    HW220583   4.054   3.468   3.845
 6562SOL     OW20584   6.357   3.959   6.056
 6562SOL    HW120585   6.436   3.926   6.006
 6562SOL    HW220586   6.274   3.943   6.002
 6563SOL     OW20587   1.816   5.438   1.987
 6563SOL    HW120588   1.737   5.423   2.047
 6563SOL    HW220589   1.789   5.494   1.909
 6564SOL     OW20590   1.220   5.625   2.196
 6564SOL    HW120591   1.214   5.589   2.289
 6564SOL    HW220592   1.232   5.549   2.132
 6565SOL     OW20593   6.478   2.843   5.494
 6565SOL    HW120594   6.469   2.920   5.557
 6565SOL    HW220595   6.566   2.798   5.508
 6566SOL     OW20596   3.545   6.896   0.939
 6566SOL    HW120597   3.494   6.978   0.916
 6566SOL    HW220598   3.607   6.915   1.015
 6567SOL     OW20599   5.429   3.018   1.431
 6567SOL    HW120600   5.448   3.094   1.494
 6567SOL    HW220601   5.501   2.949   1.441
 6568SOL     OW20602   3.872   4.272   1.411
 6568SOL    HW120603   3.859   4.187   1.463
 6568SOL    HW220604   3.965   4.274   1.374
 6569SOL     OW20605   0.693   4.633   6.866
 6569SOL    HW120606   0.755   4.608   6.941
 6569SOL    HW220607   0.647   4.551   6.831
 6570SOL     OW20608   6.048   2.516   1.403
 6570SOL    HW120609   6.029   2.436   1.460
 6570SOL    HW220610   6.068   2.485   1.310
 6571SOL     OW20611   2.705   5.612   3.574
 6571SOL    HW120612   2.613   5.646   3.592
 6571SOL    HW220613   2.718   5.525   3.623
 6572SOL     OW20614   0.872   4.147   6.058
 6572SOL    HW120615   0.896   4.067   6.002
 6572SOL    HW220616   0.782   4.180   6.031
 6573SOL     OW20617   1.752   1.706   2.744
 6573SOL    HW120618   1.711   1.754   2.666
 6573SOL    HW220619   1.847   1.683   2.722
 6574SOL     OW20620   3.114   5.098   3.125
 6574SOL    HW120621   3.130   5.033   3.199
 6574SOL    HW220622   3.026   5.144   3.139
 6575SOL     OW20623   0.531   1.814   2.812
 6575SOL    HW120624   0.432   1.818   2.793
 6575SOL    HW220625   0.575   1.756   2.744
 6576SOL     OW20626   1.141   6.186   6.058
 6576SOL    HW120627   1.115   6.148   5.969
 6576SOL    HW220628   1.190   6.117   6.111
 6577SOL     OW20629   6.336   2.411   3.359
 6577SOL    HW120630   6.407   2.346   3.385
 6577SOL    HW220631   6.376   2.501   3.346
 6578SOL     OW20632   6.188   5.154   3.850
 6578SOL    HW120633   6.264   5.094   3.871
 6578SOL    HW220634   6.110   5.100   3.818
 6579SOL     OW20635   0.378   4.121   2.605
 6579SOL    HW120636   0.379   4.048   2.673
 6579SOL    HW220637   0.385   4.209   2.651
 6580SOL     OW20638   6.096   2.471   1.817
 6580SOL    HW120639   6.152   2.554   1.810
 6580SOL    HW220640   6.149   2.392   1.788
 6581SOL     OW20641   2.649   1.600   6.009
 6581SOL    HW120642   2.640   1.522   6.071
 6581SOL    HW220643   2.613   1.682   6.053
 6582SOL     OW20644   6.385   6.972   2.831
 6582SOL    HW120645   6.318   6.989   2.759
 6582SOL    HW220646   6.478   6.988   2.795
 6583SOL     OW20647   5.761   1.498   5.781
 6583SOL    HW120648   5.785   1.570   5.715
 6583SOL    HW220649   5.789   1.527   5.872
 6584SOL     OW20650   6.004   1.719   6.252
 6584SOL    HW120651   6.092   1.677   6.230
 6584SOL    HW220652   6.018   1.810   6.289
 6585SOL     OW20653   1.513   1.267   6.768
 6585SOL    HW120654   1.425   1.310   6.786
 6585SOL    HW220655   1.573   1.331   6.721
 6586SOL     OW20656   6.523   2.591   5.998
 6586SOL    HW120657   6.604   2.571   5.944
 6586SOL    HW220658   6.441   2.565   5.947
 6587SOL     OW20659   2.240   6.584   3.228
 6587SOL    HW120660   2.172   6.518   3.258
 6587SOL    HW220661   2.304   6.540   3.165
 6588SOL     OW20662   1.604   3.090   0.264
 6588SOL    HW120663   1.629   3.057   0.173
 6588SOL    HW220664   1.556   3.177   0.256
 6589SOL     OW20665   4.650   1.718   5.874
 6589SOL    HW120666   4.738   1.673   5.889
 6589SOL    HW220667   4.596   1.666   5.808
 6590SOL     OW20668   0.084   1.297   5.067
 6590SOL    HW120669   0.154   1.262   5.130
 6590SOL    HW220670   0.127   1.320   4.979
 6591SOL     OW20671   5.659   1.313   3.041
 6591SOL    HW120672   5.616   1.277   2.958
 6591SOL    HW220673   5.589   1.356   3.099
 6592SOL     OW20674   4.849   5.548   4.014
 6592SOL    HW120675   4.920   5.482   3.988
 6592SOL    HW220676   4.831   5.610   3.937
 6593SOL     OW20677   3.502   1.080   2.168
 6593SOL    HW120678   3.422   1.132   2.198
 6593SOL    HW220679   3.585   1.127   2.198
 6594SOL     OW20680   5.812   0.590   6.581
 6594SOL    HW120681   5.788   0.636   6.495
 6594SOL    HW220682   5.737   0.531   6.609
 6595SOL     OW20683   1.370   3.880   0.852
 6595SOL    HW120684   1.372   3.970   0.895
 6595SOL    HW220685   1.354   3.810   0.922
 6596SOL     OW20686   4.097   6.938   5.031
 6596SOL    HW120687   4.035   6.914   5.106
 6596SOL    HW220688   4.174   6.991   5.068
 6597SOL     OW20689   0.229   4.648   5.299
 6597SOL    HW120690   0.161   4.664   5.371
 6597SOL    HW220691   0.298   4.585   5.332
 6598SOL     OW20692   1.648   5.828   5.712
 6598SOL    HW120693   1.714   5.860   5.780
 6598SOL    HW220694   1.692   5.762   5.651
 6599SOL     OW20695   4.092   4.192   5.799
 6599SOL    HW120696   4.155   4.211   5.873
 6599SOL    HW220697   4.000   4.180   5.836
 6600SOL     OW20698   4.808   6.083   3.963
 6600SOL    HW120699   4.892   6.029   3.964
 6600SOL    HW220700   4.807   6.145   4.041
 6601SOL     OW20701   1.067   0.377   0.313
 6601SOL    HW120702   1.081   0.476   0.311
 6601SOL    HW220703   0.976   0.356   0.278
 6602SOL     OW20704   6.112   1.595   1.565
 6602SOL    HW120705   6.121   1.499   1.590
 6602SOL    HW220706   6.068   1.645   1.640
 6603SOL     OW20707   2.115   3.541   3.706
 6603SOL    HW120708   2.072   3.539   3.796
 6603SOL    HW220709   2.141   3.448   3.680
 6604SOL     OW20710   3.565   5.623   2.543
 6604SOL    HW120711   3.478   5.636   2.496
 6604SOL    HW220712   3.549   5.589   2.635
 6605SOL     OW20713   5.720   6.275   0.123
 6605SOL    HW120714   5.710   6.179   0.147
 6605SOL    HW220715   5.750   6.326   0.203
 6606SOL     OW20716   5.016   0.837   2.802
 6606SOL    HW120717   5.098   0.870   2.756
 6606SOL    HW220718   5.038   0.756   2.856
 6607SOL     OW20719   1.069   2.421   2.638
 6607SOL    HW120720   0.973   2.408   2.663
 6607SOL    HW220721   1.080   2.406   2.539
 6608SOL     OW20722   5.972   3.634   4.170
 6608SOL    HW120723   5.932   3.573   4.238
 6608SOL    HW220724   5.937   3.612   4.080
 6609SOL     OW20725   5.853   1.962   6.572
 6609SOL    HW120726   5.873   1.865   6.564
 6609SOL    HW220727   5.761   1.981   6.535
 6610SOL     OW20728   2.506   0.743   0.017
 6610SOL    HW120729   2.428   0.690   7.007
 6610SOL    HW220730   2.567   0.682   0.067
 6611SOL     OW20731   5.799   2.768   2.734
 6611SOL    HW120732   5.828   2.835   2.803
 6611SOL    HW220733   5.880   2.725   2.692
 6612SOL     OW20734   1.784   6.541   0.016
 6612SOL    HW120735   1.692   6.503   0.014
 6612SOL    HW220736   1.779   6.639   0.033
 6613SOL     OW20737   4.840   5.427   1.757
 6613SOL    HW120738   4.854   5.360   1.830
 6613SOL    HW220739   4.803   5.381   1.676
 6614SOL     OW20740   5.371   5.804   6.240
 6614SOL    HW120741   5.325   5.861   6.309
 6614SOL    HW220742   5.311   5.729   6.213
 6615SOL     OW20743   1.092   3.917   5.097
 6615SOL    HW120744   1.043   3.976   5.034
 6615SOL    HW220745   1.138   3.972   5.166
 6616SOL     OW20746   4.662   0.250   4.728
 6616SOL    HW120747   4.656   0.348   4.709
 6616SOL    HW220748   4.655   0.199   4.642
 6617SOL     OW20749   3.969   0.288   5.756
 6617SOL    HW120750   3.947   0.227   5.680
 6617SOL    HW220751   4.066   0.310   5.754
 6618SOL     OW20752   0.780   4.650   1.476
 6618SOL    HW120753   0.718   4.722   1.507
 6618SOL    HW220754   0.733   4.562   1.479
 6619SOL     OW20755   5.144   5.656   2.915
 6619SOL    HW120756   5.047   5.664   2.893
 6619SOL    HW220757   5.176   5.738   2.962
 6620SOL     OW20758   1.913   2.558   5.370
 6620SOL    HW120759   1.952   2.466   5.360
 6620SOL    HW220760   1.953   2.603   5.450
 6621SOL     OW20761   2.590   3.823   0.254
 6621SOL    HW120762   2.690   3.823   0.254
 6621SOL    HW220763   2.557   3.894   0.316
 6622SOL     OW20764   0.194   6.308   0.310
 6622SOL    HW120765   0.137   6.381   0.348
 6622SOL    HW220766   0.285   6.344   0.291
 6623SOL     OW20767   3.564   3.671   2.034
 6623SOL    HW120768   3.595   3.737   1.966
 6623SOL    HW220769   3.483   3.623   2.000
 6624SOL     OW20770   3.858   4.910   4.339
 6624SOL    HW120771   3.911   4.994   4.337
 6624SOL    HW220772   3.818   4.899   4.430
 6625SOL     OW20773   6.749   0.698   0.525
 6625SOL    HW120774   6.706   0.724   0.611
 6625SOL    HW220775   6.845   0.725   0.526
 6626SOL     OW20776   3.583   4.926   3.561
 6626SOL    HW120777   3.644   4.897   3.634
 6626SOL    HW220778   3.628   4.913   3.473
 6627SOL     OW20779   2.114   6.571   1.197
 6627SOL    HW120780   2.016   6.586   1.202
 6627SOL    HW220781   2.133   6.504   1.125
 6628SOL     OW20782   3.749   5.917   2.841
 6628SOL    HW120783   3.683   5.955   2.776
 6628SOL    HW220784   3.824   5.873   2.791
 6629SOL     OW20785   3.535   4.599   0.488
 6629SOL    HW120786   3.593   4.574   0.410
 6629SOL    HW220787   3.451   4.545   0.485
 6630SOL     OW20788   3.028   2.235   0.087
 6630SOL    HW120789   2.978   2.155   0.120
 6630SOL    HW220790   3.089   2.209   0.013
 6631SOL     OW20791   4.941   0.893   2.347
 6631SOL    HW120792   4.916   0.909   2.443
 6631SOL    HW220793   5.041   0.895   2.338
 6632SOL     OW20794   6.680   1.846   1.802
 6632SOL    HW120795   6.665   1.765   1.744
 6632SOL    HW220796   6.618   1.842   1.881
 6633SOL     OW20797   0.664   0.359   1.088
 6633SOL    HW120798   0.716   0.352   1.003
 6633SOL    HW220799   0.605   0.279   1.097
 6634SOL     OW20800   6.884   2.980   5.990
 6634SOL    HW120801   6.852   3.074   5.976
 6634SOL    HW220802   6.809   2.924   6.026
 6635SOL     OW20803   4.818   4.323   3.240
 6635SOL    HW120804   4.757   4.360   3.170
 6635SOL    HW220805   4.868   4.245   3.202
 6636SOL     OW20806   2.247   2.376   3.933
 6636SOL    HW120807   2.213   2.322   3.856
 6636SOL    HW220808   2.170   2.418   3.981
 6637SOL     OW20809   6.666   0.807   0.760
 6637SOL    HW120810   6.601   0.863   0.812
 6637SOL    HW220811   6.729   0.762   0.824
 6638SOL     OW20812   2.660   5.535   5.947
 6638SOL    HW120813   2.603   5.579   5.878
 6638SOL    HW220814   2.756   5.549   5.924
 6639SOL     OW20815   5.679   5.612   0.110
 6639SOL    HW120816   5.717   5.652   0.194
 6639SOL    HW220817   5.589   5.572   0.131
 6640SOL     OW20818   5.838   2.983   3.368
 6640SOL    HW120819   5.835   2.890   3.404
 6640SOL    HW220820   5.746   3.020   3.362
 6641SOL     OW20821   2.000   4.369   5.920
 6641SOL    HW120822   1.962   4.449   5.966
 6641SOL    HW220823   1.939   4.340   5.847
 6642SOL     OW20824   0.498   6.072   0.174
 6642SOL    HW120825   0.433   6.128   0.121
 6642SOL    HW220826   0.530   5.996   0.117
 6643SOL     OW20827   4.822   4.638   6.762
 6643SOL    HW120828   4.776   4.720   6.796
 6643SOL    HW220829   4.793   4.559   6.816
 6644SOL     OW20830   3.074   4.886   1.985
 6644SOL    HW120831   3.027   4.846   1.906
 6644SOL    HW220832   3.171   4.898   1.962
 6645SOL     OW20833   0.567   5.319   5.736
 6645SOL    HW120834   0.532   5.396   5.683
 6645SOL    HW220835   0.648   5.347   5.788
 6646SOL     OW20836   2.459   5.796   4.116
 6646SOL    HW120837   2.550   5.821   4.084
 6646SOL    HW220838   2.444   5.699   4.101
 6647SOL     OW20839   3.161   2.052   1.990
 6647SOL    HW120840   3.074   2.038   1.943
 6647SOL    HW220841   3.145   2.110   2.071
 6648SOL     OW20842   4.977   5.534   2.432
 6648SOL    HW120843   4.996   5.614   2.376
 6648SOL    HW220844   4.904   5.480   2.389
 6649SOL     OW20845   3.757   2.311   6.409
 6649SOL    HW120846   3.831   2.373   6.382
 6649SOL    HW220847   3.770   2.284   6.504
 6650SOL     OW20848   3.501   1.856   2.753
 6650SOL    HW120849   3.551   1.777   2.718
 6650SOL    HW220850   3.512   1.933   2.691
 6651SOL     OW20851   1.079   2.713   6.488
 6651SOL    HW120852   1.138   2.633   6.496
 6651SOL    HW220853   1.111   2.785   6.551
 6652SOL     OW20854   6.623   5.511   3.050
 6652SOL    HW120855   6.539   5.493   2.998
 6652SOL    HW220856   6.644   5.608   3.047
 6653SOL     OW20857   3.505   3.557   3.848
 6653SOL    HW120858   3.587   3.501   3.843
 6653SOL    HW220859   3.500   3.617   3.768
 6654SOL     OW20860   2.180   3.235   1.810
 6654SOL    HW120861   2.185   3.314   1.870
 6654SOL    HW220862   2.269   3.220   1.767
 6655SOL     OW20863   2.759   6.125   1.476
 6655SOL    HW120864   2.815   6.206   1.460
 6655SOL    HW220865   2.689   6.118   1.406
 6656SOL     OW20866   6.259   2.521   1.173
 6656SOL    HW120867   6.234   2.495   1.079
 6656SOL    HW220868   6.346   2.479   1.196
 6657SOL     OW20869   2.794   6.222   6.446
 6657SOL    HW120870   2.873   6.161   6.453
 6657SOL    HW220871   2.825   6.313   6.419
 6658SOL     OW20872   5.050   0.696   5.639
 6658SOL    HW120873   5.076   0.621   5.700
 6658SOL    HW220874   5.132   0.737   5.599
 6659SOL     OW20875   1.784   2.914   6.709
 6659SOL    HW120876   1.701   2.961   6.737
 6659SOL    HW220877   1.859   2.980   6.702
 6660SOL     OW20878   6.936   6.859   3.030
 6660SOL    HW120879   6.952   6.783   3.092
 6660SOL    HW220880   6.870   6.833   2.960
 6661SOL     OW20881   0.647   6.150   3.837
 6661SOL    HW120882   0.572   6.096   3.800
 6661SOL    HW220883   0.734   6.113   3.805
 6662SOL     OW20884   1.432   2.453   0.076
 6662SOL    HW120885   1.443   2.506   0.160
 6662SOL    HW220886   1.491   2.491   0.005
 6663SOL     OW20887   0.334   5.483   2.652
 6663SOL    HW120888   0.279   5.567   2.648
 6663SOL    HW220889   0.302   5.420   2.582
 6664SOL     OW20890   1.131   1.281   3.017
 6664SOL    HW120891   1.082   1.235   2.944
 6664SOL    HW220892   1.212   1.327   2.979
 6665SOL     OW20893   2.489   6.711   3.102
 6665SOL    HW120894   2.444   6.627   3.073
 6665SOL    HW220895   2.478   6.723   3.201
 6666SOL     OW20896   6.522   0.404   0.036
 6666SOL    HW120897   6.607   0.454   0.053
 6666SOL    HW220898   6.461   0.416   0.115
 6667SOL     OW20899   6.689   4.244   4.758
 6667SOL    HW120900   6.638   4.178   4.703
 6667SOL    HW220901   6.719   4.320   4.700
 6668SOL     OW20902   0.586   4.754   1.712
 6668SOL    HW120903   0.489   4.732   1.700
 6668SOL    HW220904   0.595   4.829   1.777
 6669SOL     OW20905   2.176   5.972   2.514
 6669SOL    HW120906   2.187   5.893   2.453
 6669SOL    HW220907   2.261   5.990   2.562
 6670SOL     OW20908   3.939   4.541   0.283
 6670SOL    HW120909   3.986   4.569   0.367
 6670SOL    HW220910   3.850   4.502   0.306
 6671SOL     OW20911   6.828   3.089   4.533
 6671SOL    HW120912   6.832   2.996   4.499
 6671SOL    HW220913   6.894   3.146   4.483
 6672SOL     OW20914   1.553   1.126   5.612
 6672SOL    HW120915   1.653   1.130   5.622
 6672SOL    HW220916   1.512   1.101   5.700
 6673SOL     OW20917   4.576   4.420   1.396
 6673SOL    HW120918   4.657   4.419   1.455
 6673SOL    HW220919   4.561   4.513   1.363
 6674SOL     OW20920   0.682   6.860   3.933
 6674SOL    HW120921   0.620   6.921   3.886
 6674SOL    HW220922   0.747   6.820   3.868
 6675SOL     OW20923   5.810   4.951   0.194
 6675SOL    HW120924   5.760   4.950   0.107
 6675SOL    HW220925   5.745   4.940   0.270
 6676SOL     OW20926   0.974   2.580   5.965
 6676SOL    HW120927   1.000   2.676   5.974
 6676SOL    HW220928   1.049   2.528   5.925
 6677SOL     OW20929   0.427   3.457   0.397
 6677SOL    HW120930   0.485   3.468   0.317
 6677SOL    HW220931   0.351   3.397   0.375
 6678SOL     OW20932   0.945   3.224   5.502
 6678SOL    HW120933   0.985   3.313   5.481
 6678SOL    HW220934   0.845   3.229   5.490
 6679SOL     OW20935   1.790   1.947   4.216
 6679SOL    HW120936   1.718   1.943   4.285
 6679SOL    HW220937   1.782   2.031   4.163
 6680SOL     OW20938   2.813   6.534   6.442
 6680SOL    HW120939   2.716   6.530   6.416
 6680SOL    HW220940   2.870   6.528   6.359
 6681SOL     OW20941   5.126   4.912   0.390
 6681SOL    HW120942   5.084   4.992   0.348
 6681SOL    HW220943   5.190   4.870   0.326
 6682SOL     OW20944   0.157   6.620   1.846
 6682SOL    HW120945   0.092   6.546   1.863
 6682SOL    HW220946   0.136   6.697   1.905
 6683SOL     OW20947   5.279   1.957   3.761
 6683SOL    HW120948   5.295   1.872   3.710
 6683SOL    HW220949   5.264   1.935   3.858
 6684SOL     OW20950   2.038   0.043   3.062
 6684SOL    HW120951   2.059   6.972   3.045
 6684SOL    HW220952   2.117   0.099   3.035
 6685SOL     OW20953   4.940   3.640   6.477
 6685SOL    HW120954   5.027   3.595   6.460
 6685SOL    HW220955   4.905   3.613   6.567
 6686SOL     OW20956   6.457   3.942   3.542
 6686SOL    HW120957   6.413   3.970   3.456
 6686SOL    HW220958   6.403   3.869   3.584
 6687SOL     OW20959   1.274   2.197   0.389
 6687SOL    HW120960   1.369   2.218   0.408
 6687SOL    HW220961   1.239   2.133   0.458
 6688SOL     OW20962   0.595   5.084   2.445
 6688SOL    HW120963   0.609   4.991   2.478
 6688SOL    HW220964   0.610   5.087   2.346
 6689SOL     OW20965   4.465   4.678   0.018
 6689SOL    HW120966   4.401   4.685   6.967
 6689SOL    HW220967   4.509   4.588   0.017
 6690SOL     OW20968   1.926   2.674   0.955
 6690SOL    HW120969   1.994   2.628   1.011
 6690SOL    HW220970   1.914   2.768   0.988
 6691SOL     OW20971   2.292   4.316   1.670
 6691SOL    HW120972   2.255   4.407   1.689
 6691SOL    HW220973   2.217   4.256   1.640
 6692SOL     OW20974   3.340   4.125   5.631
 6692SOL    HW120975   3.255   4.169   5.600
 6692SOL    HW220976   3.363   4.050   5.570
 6693SOL     OW20977   4.287   3.461   5.259
 6693SOL    HW120978   4.293   3.550   5.304
 6693SOL    HW220979   4.334   3.392   5.313
 6694SOL     OW20980   3.653   6.149   0.992
 6694SOL    HW120981   3.569   6.196   1.022
 6694SOL    HW220982   3.695   6.104   1.071
 6695SOL     OW20983   1.548   2.235   6.860
 6695SOL    HW120984   1.581   2.170   6.930
 6695SOL    HW220985   1.622   2.256   6.797
 6696SOL     OW20986   2.006   2.899   1.626
 6696SOL    HW120987   1.913   2.934   1.637
 6696SOL    HW220988   2.069   2.951   1.683
 6697SOL     OW20989   4.765   1.449   3.094
 6697SOL    HW120990   4.716   1.471   3.178
 6697SOL    HW220991   4.709   1.387   3.039
 6698SOL     OW20992   4.007   3.294   0.397
 6698SOL    HW120993   3.942   3.333   0.332
 6698SOL    HW220994   4.093   3.345   0.393
 6699SOL     OW20995   1.395   4.429   0.025
 6699SOL    HW120996   1.494   4.422   0.034
 6699SOL    HW220997   1.358   4.342   7.019
 6700SOL     OW20998   6.907   5.888   0.403
 6700SOL    HW120999   6.947   5.979   0.395
 6700SOL    HW221000   6.971   5.820   0.366
 6701SOL     OW21001   0.687   1.953   0.600
 6701SOL    HW121002   0.672   2.052   0.607
 6701SOL    HW221003   0.649   1.908   0.681
 6702SOL     OW21004   3.015   2.083   1.267
 6702SOL    HW121005   3.088   2.082   1.199
 6702SOL    HW221006   3.032   2.155   1.334
 6703SOL     OW21007   0.312   1.909   0.071
 6703SOL    HW121008   0.260   1.994   0.085
 6703SOL    HW221009   0.360   1.885   0.156
 6704SOL     OW21010   5.355   1.682   2.205
 6704SOL    HW121011   5.405   1.755   2.251
 6704SOL    HW221012   5.393   1.594   2.232
 6705SOL     OW21013   5.683   1.506   0.024
 6705SOL    HW121014   5.666   1.497   0.122
 6705SOL    HW221015   5.759   1.569   0.008
 6706SOL     OW21016   0.495   4.673   6.339
 6706SOL    HW121017   0.579   4.678   6.393
 6706SOL    HW221018   0.455   4.765   6.332
 6707SOL     OW21019   1.404   6.251   2.439
 6707SOL    HW121020   1.459   6.227   2.359
 6707SOL    HW221021   1.373   6.346   2.432
 6708SOL     OW21022   2.276   6.078   1.216
 6708SOL    HW121023   2.351   6.068   1.151
 6708SOL    HW221024   2.303   6.142   1.288
 6709SOL     OW21025   4.521   1.537   2.898
 6709SOL    HW121026   4.577   1.562   2.819
 6709SOL    HW221027   4.445   1.479   2.869
 6710SOL     OW21028   3.303   2.722   0.548
 6710SOL    HW121029   3.207   2.721   0.575
 6710SOL    HW221030   3.310   2.756   0.454
 6711SOL     OW21031   3.764   3.970   0.728
 6711SOL    HW121032   3.805   3.881   0.712
 6711SOL    HW221033   3.793   4.034   0.657
 6712SOL     OW21034   3.550   5.598   0.336
 6712SOL    HW121035   3.485   5.622   0.263
 6712SOL    HW221036   3.637   5.646   0.320
 6713SOL     OW21037   2.087   1.930   2.196
 6713SOL    HW121038   2.109   1.982   2.278
 6713SOL    HW221039   2.120   1.836   2.205
 6714SOL     OW21040   6.404   0.892   4.036
 6714SOL    HW121041   6.363   0.934   4.117
 6714SOL    HW221042   6.396   0.955   3.959
 6715SOL     OW21043   0.587   1.377   1.007
 6715SOL    HW121044   0.646   1.426   1.071
 6715SOL    HW221045   0.637   1.299   0.968
 6716SOL     OW21046   2.117   6.073   0.337
 6716SOL    HW121047   2.126   5.983   0.295
 6716SOL    HW221048   2.200   6.094   0.388
 6717SOL     OW21049   3.335   1.689   6.861
 6717SOL    HW121050   3.246   1.669   6.821
 6717SOL    HW221051   3.343   1.641   6.949
 6718SOL     OW21052   3.524   6.776   0.322
 6718SOL    HW121053   3.457   6.848   0.305
 6718SOL    HW221054   3.609   6.797   0.274
 6719SOL     OW21055   0.254   0.334   5.609
 6719SOL    HW121056   0.209   0.287   5.533
 6719SOL    HW221057   0.277   0.428   5.580
 6720SOL     OW21058   2.129   4.928   1.954
 6720SOL    HW121059   2.223   4.906   1.982
 6720SOL    HW221060   2.077   4.844   1.943
 6721SOL     OW21061   5.907   6.303   3.476
 6721SOL    HW121062   5.901   6.365   3.555
 6721SOL    HW221063   5.816   6.281   3.443
 6722SOL     OW21064   4.568   3.451   6.976
 6722SOL    HW121065   4.516   3.488   0.028
 6722SOL    HW221066   4.523   3.368   6.943
 6723SOL     OW21067   4.054   6.499   1.940
 6723SOL    HW121068   4.072   6.555   2.021
 6723SOL    HW221069   3.956   6.480   1.934
 6724SOL     OW21070   3.134   5.187   5.441
 6724SOL    HW121071   3.041   5.211   5.414
 6724SOL    HW221072   3.176   5.129   5.371
 6725SOL     OW21073   0.545   4.613   2.076
 6725SOL    HW121074   0.558   4.531   2.131
 6725SOL    HW221075   0.501   4.589   1.989
 6726SOL     OW21076   2.451   1.982   2.840
 6726SOL    HW121077   2.453   1.907   2.905
 6726SOL    HW221078   2.402   2.060   2.879
 6727SOL     OW21079   3.801   3.639   6.784
 6727SOL    HW121080   3.901   3.638   6.787
 6727SOL    HW221081   3.766   3.661   6.875
 6728SOL     OW21082   4.366   1.308   3.868
 6728SOL    HW121083   4.437   1.298   3.798
 6728SOL    HW221084   4.286   1.353   3.828
 6729SOL     OW21085   5.565   0.295   2.117
 6729SOL    HW121086   5.528   0.330   2.203
 6729SOL    HW221087   5.489   0.270   2.056
 6730SOL     OW21088   1.957   0.555   0.273
 6730SOL    HW121089   1.901   0.472   0.263
 6730SOL    HW221090   2.047   0.539   0.232
 6731SOL     OW21091   2.721   4.814   1.872
 6731SOL    HW121092   2.710   4.729   1.923
 6731SOL    HW221093   2.816   4.823   1.841
 6732SOL     OW21094   1.999   4.702   1.184
 6732SOL    HW121095   1.913   4.717   1.136
 6732SOL    HW221096   2.067   4.769   1.153
 6733SOL     OW21097   5.260   5.800   5.958
 6733SOL    HW121098   5.325   5.724   5.959
 6733SOL    HW221099   5.291   5.872   6.020
 6734SOL     OW21100   2.200   3.341   5.693
 6734SOL    HW121101   2.245   3.331   5.605
 6734SOL    HW221102   2.194   3.252   5.738
 6735SOL     OW21103   0.031   5.024   5.875
 6735SOL    HW121104   0.090   4.945   5.894
 6735SOL    HW221105   0.033   5.087   5.953
 6736SOL     OW21106   2.136   3.655   2.790
 6736SOL    HW121107   2.082   3.712   2.729
 6736SOL    HW221108   2.119   3.559   2.771
 6737SOL     OW21109   2.454   1.105   0.991
 6737SOL    HW121110   2.475   1.109   0.894
 6737SOL    HW221111   2.355   1.097   1.004
 6738SOL     OW21112   3.059   1.259   1.941
 6738SOL    HW121113   3.147   1.230   1.904
 6738SOL    HW221114   3.073   1.309   2.026
 6739SOL     OW21115   3.818   6.037   4.944
 6739SOL    HW121116   3.843   6.095   4.867
 6739SOL    HW221117   3.773   6.092   5.015
 6740SOL     OW21118   6.398   2.277   3.678
 6740SOL    HW121119   6.330   2.295   3.607
 6740SOL    HW221120   6.417   2.362   3.729
 6741SOL     OW21121   6.539   0.128   6.611
 6741SOL    HW121122   6.517   0.198   6.678
 6741SOL    HW221123   6.510   0.159   6.520
 6742SOL     OW21124   6.569   6.077   5.837
 6742SOL    HW121125   6.478   6.036   5.841
 6742SOL    HW221126   6.637   6.008   5.814
 6743SOL     OW21127   4.793   3.384   1.003
 6743SOL    HW121128   4.858   3.432   1.062
 6743SOL    HW221129   4.772   3.440   0.923
 6744SOL     OW21130   4.875   5.075   5.821
 6744SOL    HW121131   4.836   5.005   5.761
 6744SOL    HW221132   4.892   5.036   5.911
 6745SOL     OW21133   0.031   4.550   3.506
 6745SOL    HW121134   0.012   4.616   3.578
 6745SOL    HW221135   6.983   4.553   3.438
 6746SOL     OW21136   0.197   1.577   1.136
 6746SOL    HW121137   0.251   1.651   1.176
 6746SOL    HW221138   0.143   1.612   1.060
 6747SOL     OW21139   5.548   6.293   5.966
 6747SOL    HW121140   5.479   6.360   5.941
 6747SOL    HW221141   5.639   6.331   5.952
 6748SOL     OW21142   0.305   0.501   1.756
 6748SOL    HW121143   0.264   0.516   1.666
 6748SOL    HW221144   0.261   0.423   1.801
 6749SOL     OW21145   3.695   6.577   1.147
 6749SOL    HW121146   3.683   6.670   1.114
 6749SOL    HW221147   3.743   6.522   1.077
 6750SOL     OW21148   2.545   3.287   5.372
 6750SOL    HW121149   2.470   3.278   5.438
 6750SOL    HW221150   2.555   3.202   5.321
 6751SOL     OW21151   3.381   1.871   5.383
 6751SOL    HW121152   3.376   1.851   5.480
 6751SOL    HW221153   3.376   1.970   5.369
 6752SOL     OW21154   6.272   1.900   0.105
 6752SOL    HW121155   6.287   1.902   0.204
 6752SOL    HW221156   6.174   1.907   0.086
 6753SOL     OW21157   5.186   2.336   6.483
 6753SOL    HW121158   5.091   2.358   6.459
 6753SOL    HW221159   5.244   2.352   6.403
 6754SOL     OW21160   5.942   0.512   0.056
 6754SOL    HW121161   5.919   0.544   0.148
 6754SOL    HW221162   5.910   0.418   0.044
 6755SOL     OW21163   4.979   1.929   3.183
 6755SOL    HW121164   5.019   1.979   3.259
 6755SOL    HW221165   4.978   1.831   3.203
 6756SOL     OW21166   5.253   4.047   3.998
 6756SOL    HW121167   5.217   3.971   4.053
 6756SOL    HW221168   5.182   4.116   3.986
 6757SOL     OW21169   5.517   5.305   1.692
 6757SOL    HW121170   5.584   5.247   1.738
 6757SOL    HW221171   5.554   5.397   1.680
 6758SOL     OW21172   5.387   2.057   2.916
 6758SOL    HW121173   5.309   2.002   2.946
 6758SOL    HW221174   5.353   2.133   2.861
 6759SOL     OW21175   0.223   4.892   3.883
 6759SOL    HW121176   0.224   4.793   3.871
 6759SOL    HW221177   0.178   4.934   3.804
 6760SOL     OW21178   0.531   4.465   4.952
 6760SOL    HW121179   0.581   4.547   4.924
 6760SOL    HW221180   0.435   4.488   4.968
 6761SOL     OW21181   5.862   3.513   6.528
 6761SOL    HW121182   5.939   3.530   6.591
 6761SOL    HW221183   5.818   3.600   6.506
 6762SOL     OW21184   5.713   5.239   4.208
 6762SOL    HW121185   5.641   5.249   4.276
 6762SOL    HW221186   5.690   5.291   4.126
 6763SOL     OW21187   5.355   6.093   5.988
 6763SOL    HW121188   5.404   6.050   5.911
 6763SOL    HW221189   5.405   6.173   6.020
 6764SOL     OW21190   2.271   3.735   6.985
 6764SOL    HW121191   2.230   3.699   0.043
 6764SOL    HW221192   2.202   3.739   6.912
 6765SOL     OW21193   5.026   5.207   2.534
 6765SOL    HW121194   4.964   5.140   2.494
 6765SOL    HW221195   5.094   5.234   2.467
 6766SOL     OW21196   1.378   1.225   5.434
 6766SOL    HW121197   1.287   1.202   5.469
 6766SOL    HW221198   1.444   1.220   5.509
 6767SOL     OW21199   1.161   2.448   5.826
 6767SOL    HW121200   1.254   2.470   5.798
 6767SOL    HW221201   1.151   2.348   5.830
 6768SOL     OW21202   0.124   0.271   5.860
 6768SOL    HW121203   0.172   0.330   5.795
 6768SOL    HW221204   0.116   0.317   5.948
 6769SOL     OW21205   1.544   3.063   6.389
 6769SOL    HW121206   1.573   3.066   6.293
 6769SOL    HW221207   1.445   3.059   6.394
 6770SOL     OW21208   6.951   1.511   3.741
 6770SOL    HW121209   6.875   1.459   3.701
 6770SOL    HW221210   0.010   1.492   3.690
 6771SOL     OW21211   3.955   1.236   2.366
 6771SOL    HW121212   3.910   1.211   2.452
 6771SOL    HW221213   3.987   1.330   2.371
 6772SOL     OW21214   0.589   1.101   1.846
 6772SOL    HW121215   0.568   1.023   1.905
 6772SOL    HW221216   0.639   1.170   1.898
 6773SOL     OW21217   0.842   0.910   1.594
 6773SOL    HW121218   0.916   0.905   1.527
 6773SOL    HW221219   0.778   0.834   1.579
 6774SOL     OW21220   3.047   1.647   5.405
 6774SOL    HW121221   2.977   1.718   5.408
 6774SOL    HW221222   3.113   1.669   5.334
 6775SOL     OW21223   0.665   2.900   4.724
 6775SOL    HW121224   0.754   2.922   4.684
 6775SOL    HW221225   0.667   2.920   4.822
 6776SOL     OW21226   3.522   3.697   3.316
 6776SOL    HW121227   3.464   3.725   3.239
 6776SOL    HW221228   3.603   3.756   3.320
 6777SOL     OW21229   0.221   5.978   6.812
 6777SOL    HW121230   0.189   6.066   6.846
 6777SOL    HW221231   0.320   5.972   6.825
 6778SOL     OW21232   5.628   5.971   2.093
 6778SOL    HW121233   5.576   5.892   2.061
 6778SOL    HW221234   5.685   5.944   2.171
 6779SOL     OW21235   4.909   4.284   6.463
 6779SOL    HW121236   4.878   4.219   6.393
 6779SOL    HW221237   4.969   4.237   6.527
 6780SOL     OW21238   3.306   1.257   2.240
 6780SOL    HW121239   3.223   1.249   2.296
 6780SOL    HW221240   3.287   1.315   2.160
 6781SOL     OW21241   6.084   2.527   2.963
 6781SOL    HW121242   6.048   2.574   3.044
 6781SOL    HW221243   6.060   2.430   2.967
 6782SOL     OW21244   6.996   2.106   3.234
 6782SOL    HW121245   6.966   2.174   3.167
 6782SOL    HW221246   6.945   2.021   3.220
 6783SOL     OW21247   0.594   6.060   5.927
 6783SOL    HW121248   0.646   6.137   5.963
 6783SOL    HW221249   0.497   6.081   5.929
 6784SOL     OW21250   1.557   4.129   1.189
 6784SOL    HW121251   1.562   4.211   1.247
 6784SOL    HW221252   1.482   4.071   1.221
 6785SOL     OW21253   5.557   4.946   3.961
 6785SOL    HW121254   5.621   4.920   4.034
 6785SOL    HW221255   5.562   4.878   3.887
 6786SOL     OW21256   6.123   2.062   5.682
 6786SOL    HW121257   6.025   2.060   5.662
 6786SOL    HW221258   6.140   2.028   5.774
 6787SOL     OW21259   3.127   1.938   0.248
 6787SOL    HW121260   3.150   1.850   0.207
 6787SOL    HW221261   3.133   1.930   0.348
 6788SOL     OW21262   0.555   4.306   1.264
 6788SOL    HW121263   0.575   4.366   1.342
 6788SOL    HW221264   0.566   4.211   1.292
 6789SOL     OW21265   5.774   4.760   2.740
 6789SOL    HW121266   5.869   4.792   2.744
 6789SOL    HW221267   5.753   4.708   2.823
 6790SOL     OW21268   0.456   5.815   0.043
 6790SOL    HW121269   0.387   5.754   0.004
 6790SOL    HW221270   0.488   5.779   0.130
 6791SOL     OW21271   2.603   6.684   3.651
 6791SOL    HW121272   2.692   6.668   3.610
 6791SOL    HW221273   2.535   6.625   3.607
 6792SOL     OW21274   3.983   0.170   6.246
 6792SOL    HW121275   4.051   0.226   6.199
 6792SOL    HW221276   3.950   0.219   6.327
 6793SOL     OW21277   2.025   3.365   6.221
 6793SOL    HW121278   1.926   3.351   6.219
 6793SOL    HW221279   2.046   3.455   6.182
 6794SOL     OW21280   6.109   2.439   4.971
 6794SOL    HW121281   6.084   2.529   5.008
 6794SOL    HW221282   6.206   2.422   4.991
 6795SOL     OW21283   1.475   0.933   1.475
 6795SOL    HW121284   1.572   0.948   1.455
 6795SOL    HW221285   1.463   0.843   1.517
 6796SOL     OW21286   6.584   1.640   2.710
 6796SOL    HW121287   6.507   1.661   2.770
 6796SOL    HW221288   6.669   1.660   2.758
 6797SOL     OW21289   1.138   3.036   1.230
 6797SOL    HW121290   1.190   2.977   1.292
 6797SOL    HW221291   1.042   3.006   1.230
 6798SOL     OW21292   4.860   1.169   2.257
 6798SOL    HW121293   4.775   1.118   2.245
 6798SOL    HW221294   4.920   1.152   2.179
 6799SOL     OW21295   6.403   6.910   3.097
 6799SOL    HW121296   6.498   6.924   3.125
 6799SOL    HW221297   6.398   6.911   2.997
 6800SOL     OW21298   6.516   3.267   1.363
 6800SOL    HW121299   6.602   3.307   1.393
 6800SOL    HW221300   6.502   3.178   1.408
 6801SOL     OW21301   0.976   6.324   6.234
 6801SOL    HW121302   0.947   6.250   6.295
 6801SOL    HW221303   1.053   6.294   6.178
 6802SOL     OW21304   3.009   4.757   1.762
 6802SOL    HW121305   3.108   4.752   1.753
 6802SOL    HW221306   2.975   4.673   1.804
 6803SOL     OW21307   5.095   5.778   6.446
 6803SOL    HW121308   5.097   5.730   6.358
 6803SOL    HW221309   5.157   5.732   6.510
 6804SOL     OW21310   3.552   5.135   2.122
 6804SOL    HW121311   3.492   5.166   2.049
 6804SOL    HW221312   3.527   5.180   2.208
 6805SOL     OW21313   0.902   4.281   4.452
 6805SOL    HW121314   0.846   4.200   4.467
 6805SOL    HW221315   0.862   4.338   4.380
 6806SOL     OW21316   6.123   3.352   1.868
 6806SOL    HW121317   6.143   3.255   1.858
 6806SOL    HW221318   6.171   3.403   1.796
 6807SOL     OW21319   3.424   3.986   2.696
 6807SOL    HW121320   3.383   4.015   2.610
 6807SOL    HW221321   3.524   3.981   2.685
 6808SOL     OW21322   3.437   0.552   3.543
 6808SOL    HW121323   3.399   0.639   3.510
 6808SOL    HW221324   3.487   0.568   3.628
 6809SOL     OW21325   5.827   3.145   0.296
 6809SOL    HW121326   5.816   3.245   0.290
 6809SOL    HW221327   5.770   3.109   0.369
 6810SOL     OW21328   2.881   0.431   4.395
 6810SOL    HW121329   2.944   0.507   4.410
 6810SOL    HW221330   2.913   0.351   4.445
 6811SOL     OW21331   6.401   1.279   0.941
 6811SOL    HW121332   6.488   1.307   0.982
 6811SOL    HW221333   6.332   1.350   0.958
 6812SOL     OW21334   3.240   4.973   5.262
 6812SOL    HW121335   3.237   5.010   5.170
 6812SOL    HW221336   3.198   4.882   5.263
 6813SOL     OW21337   0.085   4.338   2.189
 6813SOL    HW121338   0.059   4.242   2.191
 6813SOL    HW221339   0.155   4.352   2.118
 6814SOL     OW21340   5.887   1.124   0.533
 6814SOL    HW121341   5.971   1.102   0.484
 6814SOL    HW221342   5.897   1.213   0.579
 6815SOL     OW21343   0.943   5.889   6.625
 6815SOL    HW121344   0.848   5.875   6.596
 6815SOL    HW221345   0.992   5.802   6.622
 6816SOL     OW21346   6.879   0.245   4.385
 6816SOL    HW121347   6.866   0.245   4.285
 6816SOL    HW221348   6.892   0.339   4.416
 6817SOL     OW21349   4.418   2.135   1.039
 6817SOL    HW121350   4.391   2.097   0.951
 6817SOL    HW221351   4.338   2.166   1.089
 6818SOL     OW21352   0.854   0.045   4.632
 6818SOL    HW121353   0.792   0.055   4.710
 6818SOL    HW221354   0.947   0.029   4.666
 6819SOL     OW21355   4.783   4.419   2.142
 6819SOL    HW121356   4.858   4.354   2.153
 6819SOL    HW221357   4.696   4.370   2.137
 6820SOL     OW21358   2.898   5.230   1.511
 6820SOL    HW121359   2.837   5.305   1.485
 6820SOL    HW221360   2.887   5.210   1.608
 6821SOL     OW21361   3.382   2.868   5.395
 6821SOL    HW121362   3.285   2.873   5.370
 6821SOL    HW221363   3.436   2.917   5.328
 6822SOL     OW21364   5.956   3.788   5.274
 6822SOL    HW121365   5.970   3.809   5.178
 6822SOL    HW221366   5.900   3.706   5.282
 6823SOL     OW21367   0.579   2.889   4.985
 6823SOL    HW121368   0.554   2.847   5.072
 6823SOL    HW221369   0.559   2.987   4.989
 6824SOL     OW21370   0.990   6.913   5.316
 6824SOL    HW121371   0.944   6.868   5.393
 6824SOL    HW221372   1.023   7.003   5.345
 6825SOL     OW21373   4.138   4.247   1.437
 6825SOL    HW121374   4.180   4.185   1.371
 6825SOL    HW221375   4.177   4.230   1.528
 6826SOL     OW21376   6.292   7.005   3.520
 6826SOL    HW121377   6.302   0.051   3.451
 6826SOL    HW221378   6.299   0.021   3.611
 6827SOL     OW21379   4.659   5.623   5.154
 6827SOL    HW121380   4.648   5.719   5.129
 6827SOL    HW221381   4.653   5.613   5.253
 6828SOL     OW21382   3.283   2.039   2.375
 6828SOL    HW121383   3.315   2.086   2.293
 6828SOL    HW221384   3.268   1.942   2.354
 6829SOL     OW21385   3.823   7.003   3.241
 6829SOL    HW121386   3.776   6.925   3.283
 6829SOL    HW221387   3.803   0.060   3.293
 6830SOL     OW21388   4.265   4.695   2.250
 6830SOL    HW121389   4.224   4.783   2.226
 6830SOL    HW221390   4.294   4.648   2.167
 6831SOL     OW21391   1.454   1.711   6.642
 6831SOL    HW121392   1.506   1.791   6.672
 6831SOL    HW221393   1.486   1.682   6.552
 6832SOL     OW21394   3.007   2.572   6.763
 6832SOL    HW121395   2.984   2.477   6.781
 6832SOL    HW221396   3.082   2.576   6.697
 6833SOL     OW21397   3.741   5.442   6.270
 6833SOL    HW121398   3.648   5.444   6.308
 6833SOL    HW221399   3.792   5.521   6.303
 6834SOL     OW21400   6.492   6.776   6.457
 6834SOL    HW121401   6.437   6.834   6.518
 6834SOL    HW221402   6.538   6.834   6.389
 6835SOL     OW21403   3.167   0.778   4.051
 6835SOL    HW121404   3.184   0.720   3.971
 6835SOL    HW221405   3.069   0.783   4.069
 6836SOL     OW21406   1.005   4.661   6.714
 6836SOL    HW121407   0.991   4.751   6.672
 6836SOL    HW221408   0.982   4.666   6.811
 6837SOL     OW21409   5.781   0.775   2.101
 6837SOL    HW121410   5.763   0.681   2.072
 6837SOL    HW221411   5.718   0.801   2.174
 6838SOL     OW21412   2.998   3.879   5.552
 6838SOL    HW121413   2.967   3.869   5.458
 6838SOL    HW221414   3.029   3.972   5.568
 6839SOL     OW21415   6.270   2.946   4.671
 6839SOL    HW121416   6.363   2.979   4.660
 6839SOL    HW221417   6.207   3.024   4.675
 6840SOL     OW21418   3.108   6.114   4.908
 6840SOL    HW121419   3.061   6.199   4.932
 6840SOL    HW221420   3.169   6.088   4.983
 6841SOL     OW21421   4.566   6.877   0.900
 6841SOL    HW121422   4.480   6.899   0.853
 6841SOL    HW221423   4.625   6.825   0.838
 6842SOL     OW21424   0.548   3.804   4.669
 6842SOL    HW121425   0.482   3.749   4.617
 6842SOL    HW221426   0.580   3.752   4.748
 6843SOL     OW21427   4.564   2.434   1.325
 6843SOL    HW121428   4.641   2.451   1.262
 6843SOL    HW221429   4.584   2.352   1.379
 6844SOL     OW21430   3.398   5.404   3.992
 6844SOL    HW121431   3.486   5.371   4.026
 6844SOL    HW221432   3.340   5.432   4.068
 6845SOL     OW21433   3.741   4.462   0.922
 6845SOL    HW121434   3.821   4.513   0.890
 6845SOL    HW221435   3.768   4.367   0.940
 6846SOL     OW21436   4.036   3.110   2.225
 6846SOL    HW121437   3.941   3.092   2.249
 6846SOL    HW221438   4.094   3.036   2.259
 6847SOL     OW21439   6.357   3.802   1.684
 6847SOL    HW121440   6.339   3.740   1.760
 6847SOL    HW221441   6.416   3.877   1.716
 6848SOL     OW21442   6.320   6.215   3.710
 6848SOL    HW121443   6.319   6.267   3.624
 6848SOL    HW221444   6.415   6.204   3.741
 6849SOL     OW21445   3.278   6.367   4.300
 6849SOL    HW121446   3.222   6.328   4.227
 6849SOL    HW221447   3.356   6.307   4.318
 6850SOL     OW21448   5.245   3.316   1.093
 6850SOL    HW121449   5.207   3.292   1.003
 6850SOL    HW221450   5.284   3.235   1.135
 6851SOL     OW21451   1.274   5.744   5.253
 6851SOL    HW121452   1.360   5.714   5.294
 6851SOL    HW221453   1.231   5.813   5.311
 6852SOL     OW21454   0.303   5.129   1.928
 6852SOL    HW121455   0.380   5.186   1.955
 6852SOL    HW221456   0.305   5.114   1.829
 6853SOL     OW21457   6.465   3.607   5.173
 6853SOL    HW121458   6.411   3.530   5.139
 6853SOL    HW221459   6.423   3.642   5.257
 6854SOL     OW21460   0.305   2.270   6.885
 6854SOL    HW121461   0.239   2.345   6.878
 6854SOL    HW221462   0.398   2.307   6.884
 6855SOL     OW21463   2.954   6.414   2.041
 6855SOL    HW121464   2.905   6.416   2.128
 6855SOL    HW221465   2.990   6.505   2.020
 6856SOL     OW21466   0.518   4.768   5.052
 6856SOL    HW121467   0.431   4.781   5.101
 6856SOL    HW221468   0.593   4.804   5.108
 6857SOL     OW21469   3.964   1.290   5.831
 6857SOL    HW121470   4.061   1.270   5.819
 6857SOL    HW221471   3.951   1.388   5.845
 6858SOL     OW21472   3.736   2.480   5.364
 6858SOL    HW121473   3.783   2.518   5.443
 6858SOL    HW221474   3.644   2.449   5.390
 6859SOL     OW21475   3.617   0.378   0.285
 6859SOL    HW121476   3.607   0.475   0.305
 6859SOL    HW221477   3.658   0.366   0.195
 6860SOL     OW21478   4.450   4.878   0.200
 6860SOL    HW121479   4.474   4.845   0.291
 6860SOL    HW221480   4.450   4.801   0.136
 6861SOL     OW21481   5.685   4.243   0.666
 6861SOL    HW121482   5.750   4.194   0.606
 6861SOL    HW221483   5.606   4.272   0.612
 6862SOL     OW21484   3.527   5.484   3.561
 6862SOL    HW121485   3.545   5.549   3.488
 6862SOL    HW221486   3.514   5.392   3.522
 6863SOL     OW21487   0.599   3.006   3.668
 6863SOL    HW121488   0.693   2.983   3.696
 6863SOL    HW221489   0.601   3.079   3.601
 6864SOL     OW21490   4.268   5.560   5.753
 6864SOL    HW121491   4.230   5.506   5.828
 6864SOL    HW221492   4.312   5.499   5.688
 6865SOL     OW21493   6.160   3.209   4.689
 6865SOL    HW121494   6.139   3.259   4.774
 6865SOL    HW221495   6.204   3.271   4.624
 6866SOL     OW21496   0.874   3.591   1.906
 6866SOL    HW121497   0.806   3.539   1.855
 6866SOL    HW221498   0.876   3.559   2.001
 6867SOL     OW21499   2.512   4.497   2.385
 6867SOL    HW121500   2.513   4.494   2.484
 6867SOL    HW221501   2.579   4.564   2.353
 6868SOL     OW21502   1.870   5.157   5.021
 6868SOL    HW121503   1.796   5.114   5.072
 6868SOL    HW221504   1.854   5.146   4.923
 6869SOL     OW21505   6.300   3.502   4.739
 6869SOL    HW121506   6.311   3.473   4.644
 6869SOL    HW221507   6.361   3.580   4.757
 6870SOL     OW21508   5.273   3.840   2.311
 6870SOL    HW121509   5.335   3.816   2.236
 6870SOL    HW221510   5.178   3.837   2.279
 6871SOL     OW21511   4.765   0.342   1.300
 6871SOL    HW121512   4.726   0.295   1.380
 6871SOL    HW221513   4.852   0.384   1.326
 6872SOL     OW21514   3.030   3.578   7.008
 6872SOL    HW121515   3.018   3.623   6.919
 6872SOL    HW221516   2.980   3.492   7.009
 6873SOL     OW21517   5.586   4.210   5.738
 6873SOL    HW121518   5.545   4.301   5.750
 6873SOL    HW221519   5.622   4.179   5.826
 6874SOL     OW21520   1.125   2.700   5.559
 6874SOL    HW121521   1.132   2.675   5.462
 6874SOL    HW221522   1.117   2.800   5.567
 6875SOL     OW21523   2.961   1.574   4.122
 6875SOL    HW121524   2.869   1.547   4.152
 6875SOL    HW221525   2.990   1.517   4.046
 6876SOL     OW21526   3.402   6.498   5.553
 6876SOL    HW121527   3.376   6.464   5.644
 6876SOL    HW221528   3.490   6.456   5.527
 6877SOL     OW21529   2.492   3.903   0.017
 6877SOL    HW121530   2.518   3.894   0.113
 6877SOL    HW221531   2.419   3.838   7.022
 6878SOL     OW21532   1.824   1.683   4.878
 6878SOL    HW121533   1.753   1.699   4.809
 6878SOL    HW221534   1.783   1.647   4.961
 6879SOL     OW21535   1.001   1.506   5.754
 6879SOL    HW121536   0.991   1.426   5.813
 6879SOL    HW221537   0.917   1.560   5.755
 6880SOL     OW21538   1.972   4.339   5.226
 6880SOL    HW121539   1.977   4.291   5.314
 6880SOL    HW221540   2.057   4.328   5.177
 6881SOL     OW21541   6.380   4.856   1.599
 6881SOL    HW121542   6.350   4.766   1.570
 6881SOL    HW221543   6.304   4.904   1.642
 6882SOL     OW21544   2.268   0.047   5.092
 6882SOL    HW121545   2.306   0.084   5.177
 6882SOL    HW221546   2.247   0.122   5.030
 6883SOL     OW21547   3.121   5.846   1.744
 6883SOL    HW121548   3.154   5.922   1.799
 6883SOL    HW221549   3.060   5.789   1.798
 6884SOL     OW21550   3.041   4.939   2.909
 6884SOL    HW121551   3.074   4.989   2.989
 6884SOL    HW221552   3.120   4.905   2.857
 6885SOL     OW21553   3.884   5.417   5.078
 6885SOL    HW121554   3.847   5.496   5.127
 6885SOL    HW221555   3.842   5.334   5.113
 6886SOL     OW21556   5.445   2.175   2.254
 6886SOL    HW121557   5.428   2.244   2.325
 6886SOL    HW221558   5.371   2.178   2.187
 6887SOL     OW21559   4.747   0.568   4.613
 6887SOL    HW121560   4.788   0.574   4.705
 6887SOL    HW221561   4.820   0.572   4.545
 6888SOL     OW21562   5.031   5.771   4.649
 6888SOL    HW121563   5.090   5.710   4.703
 6888SOL    HW221564   5.085   5.815   4.578
 6889SOL     OW21565   1.448   4.136   6.115
 6889SOL    HW121566   1.432   4.127   6.017
 6889SOL    HW221567   1.407   4.221   6.148
 6890SOL     OW21568   2.228   0.579   0.163
 6890SOL    HW121569   2.299   0.567   0.232
 6890SOL    HW221570   2.245   0.663   0.111
 6891SOL     OW21571   3.327   5.193   4.740
 6891SOL    HW121572   3.383   5.271   4.712
 6891SOL    HW221573   3.294   5.145   4.659
 6892SOL     OW21574   4.169   1.122   4.012
 6892SOL    HW121575   4.256   1.142   3.967
 6892SOL    HW221576   4.096   1.122   3.943
 6893SOL     OW21577   6.403   0.019   2.186
 6893SOL    HW121578   6.491   0.002   2.230
 6893SOL    HW221579   6.417   0.069   2.101
 6894SOL     OW21580   6.069   4.664   5.970
 6894SOL    HW121581   6.073   4.697   6.064
 6894SOL    HW221582   6.111   4.574   5.965
 6895SOL     OW21583   4.126   5.026   6.613
 6895SOL    HW121584   4.037   5.070   6.617
 6895SOL    HW221585   4.174   5.055   6.530
 6896SOL     OW21586   4.196   6.649   3.591
 6896SOL    HW121587   4.237   6.562   3.562
 6896SOL    HW221588   4.174   6.644   3.688
 6897SOL     OW21589   3.537   2.197   0.656
 6897SOL    HW121590   3.549   2.282   0.604
 6897SOL    HW221591   3.518   2.219   0.752
 6898SOL     OW21592   4.046   1.516   2.449
 6898SOL    HW121593   3.996   1.570   2.381
 6898SOL    HW221594   4.016   1.542   2.541
 6899SOL     OW21595   5.579   6.720   6.855
 6899SOL    HW121596   5.560   6.635   6.806
 6899SOL    HW221597   5.498   6.780   6.849
 6900SOL     OW21598   4.050   1.318   5.427
 6900SOL    HW121599   4.030   1.412   5.454
 6900SOL    HW221600   3.996   1.255   5.484
 6901SOL     OW21601   1.516   0.724   0.089
 6901SOL    HW121602   1.591   0.730   0.155
 6901SOL    HW221603   1.498   0.628   0.068
 6902SOL     OW21604   6.335   5.451   1.517
 6902SOL    HW121605   6.248   5.478   1.478
 6902SOL    HW221606   6.377   5.529   1.563
 6903SOL     OW21607   4.197   4.035   1.256
 6903SOL    HW121608   4.270   4.104   1.259
 6903SOL    HW221609   4.212   3.968   1.329
 6904SOL     OW21610   0.012   1.588   3.153
 6904SOL    HW121611   0.059   1.599   3.065
 6904SOL    HW221612   0.012   1.491   3.179
 6905SOL     OW21613   4.380   4.785   1.045
 6905SOL    HW121614   4.426   4.851   0.987
 6905SOL    HW221615   4.317   4.833   1.107
 6906SOL     OW21616   4.263   5.995   3.957
 6906SOL    HW121617   4.193   5.924   3.964
 6906SOL    HW221618   4.293   6.002   3.862
 6907SOL     OW21619   3.668   1.536   1.527
 6907SOL    HW121620   3.672   1.632   1.500
 6907SOL    HW221621   3.758   1.494   1.513
 6908SOL     OW21622   0.116   6.503   6.458
 6908SOL    HW121623   0.017   6.508   6.474
 6908SOL    HW221624   0.165   6.528   6.542
 6909SOL     OW21625   4.776   3.334   6.724
 6909SOL    HW121626   4.749   3.300   6.815
 6909SOL    HW221627   4.813   3.427   6.733
 6910SOL     OW21628   6.509   1.390   2.295
 6910SOL    HW121629   6.423   1.359   2.336
 6910SOL    HW221630   6.514   1.357   2.201
 6911SOL     OW21631   3.976   0.805   5.347
 6911SOL    HW121632   4.032   0.879   5.311
 6911SOL    HW221633   4.028   0.720   5.347
 6912SOL     OW21634   4.966   5.183   1.413
 6912SOL    HW121635   5.049   5.227   1.445
 6912SOL    HW221636   4.987   5.089   1.386
 6913SOL     OW21637   4.895   5.575   5.042
 6913SOL    HW121638   4.803   5.588   5.078
 6913SOL    HW221639   4.962   5.590   5.114
 6914SOL     OW21640   6.279   4.802   0.268
 6914SOL    HW121641   6.337   4.858   0.209
 6914SOL    HW221642   6.284   4.707   0.238
 6915SOL     OW21643   1.045   5.951   1.208
 6915SOL    HW121644   1.141   5.934   1.185
 6915SOL    HW221645   1.025   6.048   1.197
 6916SOL     OW21646   6.834   1.586   6.988
 6916SOL    HW121647   6.824   1.491   7.018
 6916SOL    HW221648   6.892   1.590   6.907
 6917SOL     OW21649   4.913   0.003   6.548
 6917SOL    HW121650   4.838   6.966   6.570
 6917SOL    HW221651   4.967   0.020   6.631
 6918SOL     OW21652   2.343   2.842   3.524
 6918SOL    HW121653   2.342   2.939   3.500
 6918SOL    HW221654   2.328   2.786   3.443
 6919SOL     OW21655   1.496   6.164   3.349
 6919SOL    HW121656   1.552   6.232   3.398
 6919SOL    HW221657   1.545   6.134   3.267
 6920SOL     OW21658   4.648   6.299   4.649
 6920SOL    HW121659   4.637   6.398   4.656
 6920SOL    HW221660   4.571   6.261   4.599
 6921SOL     OW21661   0.199   6.536   2.940
 6921SOL    HW121662   0.163   6.498   2.855
 6921SOL    HW221663   0.254   6.467   2.987
 6922SOL     OW21664   1.473   5.672   0.051
 6922SOL    HW121665   1.442   5.767   0.064
 6922SOL    HW221666   1.440   5.638   6.989
 6923SOL     OW21667   4.423   6.472   4.350
 6923SOL    HW121668   4.516   6.506   4.333
 6923SOL    HW221669   4.357   6.540   4.319
 6924SOL     OW21670   6.771   5.851   1.469
 6924SOL    HW121671   6.802   5.869   1.562
 6924SOL    HW221672   6.804   5.923   1.408
 6925SOL     OW21673   5.966   5.733   2.991
 6925SOL    HW121674   6.020   5.797   3.045
 6925SOL    HW221675   5.869   5.752   3.005
 6926SOL     OW21676   2.926   3.749   4.632
 6926SOL    HW121677   2.911   3.689   4.710
 6926SOL    HW221678   2.849   3.813   4.624
 6927SOL     OW21679   4.525   3.688   6.013
 6927SOL    HW121680   4.486   3.600   6.037
 6927SOL    HW221681   4.624   3.680   6.003
 6928SOL     OW21682   6.186   6.919   6.500
 6928SOL    HW121683   6.261   6.938   6.563
 6928SOL    HW221684   6.099   6.939   6.544
 6929SOL     OW21685   3.660   5.010   0.334
 6929SOL    HW121686   3.701   5.100   0.324
 6929SOL    HW221687   3.588   4.998   0.266
 6930SOL     OW21688   1.106   6.574   3.282
 6930SOL    HW121689   1.072   6.495   3.233
 6930SOL    HW221690   1.167   6.544   3.355
 6931SOL     OW21691   1.499   0.892   2.007
 6931SOL    HW121692   1.476   0.926   1.916
 6931SOL    HW221693   1.479   0.962   2.075
 6932SOL     OW21694   2.719   2.204   0.096
 6932SOL    HW121695   2.787   2.137   0.127
 6932SOL    HW221696   2.762   2.294   0.089
 6933SOL     OW21697   3.796   6.554   6.758
 6933SOL    HW121698   3.829   6.610   6.682
 6933SOL    HW221699   3.701   6.527   6.742
 6934SOL     OW21700   6.215   4.416   6.020
 6934SOL    HW121701   6.257   4.423   6.110
 6934SOL    HW221702   6.134   4.357   6.025
 6935SOL     OW21703   4.444   5.544   3.447
 6935SOL    HW121704   4.466   5.541   3.545
 6935SOL    HW221705   4.517   5.498   3.395
 6936SOL     OW21706   1.521   4.364   1.347
 6936SOL    HW121707   1.432   4.323   1.366
 6936SOL    HW221708   1.554   4.412   1.428
 6937SOL     OW21709   4.320   6.921   6.223
 6937SOL    HW121710   4.246   6.945   6.287
 6937SOL    HW221711   4.292   6.943   6.130
 6938SOL     OW21712   5.499   2.149   4.966
 6938SOL    HW121713   5.488   2.091   4.885
 6938SOL    HW221714   5.475   2.243   4.944
 6939SOL     OW21715   0.786   5.233   2.567
 6939SOL    HW121716   0.800   5.317   2.515
 6939SOL    HW221717   0.713   5.179   2.525
 6940SOL     OW21718   3.765   0.608   5.203
 6940SOL    HW121719   3.668   0.614   5.181
 6940SOL    HW221720   3.806   0.699   5.197
 6941SOL     OW21721   3.965   3.051   3.115
 6941SOL    HW121722   3.997   3.018   3.026
 6941SOL    HW221723   4.012   3.136   3.138
 6942SOL     OW21724   0.004   1.563   0.330
 6942SOL    HW121725   6.996   1.632   0.266
 6942SOL    HW221726   6.967   1.557   0.408
 6943SOL     OW21727   5.154   5.867   6.771
 6943SOL    HW121728   5.058   5.859   6.741
 6943SOL    HW221729   5.214   5.829   6.701
 6944SOL     OW21730   1.576   6.761   6.142
 6944SOL    HW121731   1.646   6.705   6.186
 6944SOL    HW221732   1.488   6.748   6.189
 6945SOL     OW21733   5.048   1.903   5.293
 6945SOL    HW121734   5.064   1.843   5.371
 6945SOL    HW221735   4.972   1.965   5.314
 6946SOL     OW21736   6.099   4.674   3.712
 6946SOL    HW121737   6.193   4.708   3.716
 6946SOL    HW221738   6.066   4.656   3.805
 6947SOL     OW21739   3.841   0.076   2.963
 6947SOL    HW121740   3.803   0.028   3.043
 6947SOL    HW221741   3.868   0.009   2.894
 6948SOL     OW21742   3.787   1.605   4.794
 6948SOL    HW121743   3.689   1.603   4.811
 6948SOL    HW221744   3.811   1.531   4.731
 6949SOL     OW21745   5.165   0.702   2.523
 6949SOL    HW121746   5.069   0.690   2.549
 6949SOL    HW221747   5.207   0.771   2.581
 6950SOL     OW21748   2.054   0.938   3.282
 6950SOL    HW121749   1.966   0.893   3.297
 6950SOL    HW221750   2.119   0.874   3.243
 6951SOL     OW21751   5.549   5.310   5.804
 6951SOL    HW121752   5.630   5.254   5.818
 6951SOL    HW221753   5.551   5.388   5.867
 6952SOL     OW21754   0.463   5.079   4.819
 6952SOL    HW121755   0.407   5.146   4.770
 6952SOL    HW221756   0.494   5.118   4.905
 6953SOL     OW21757   5.167   1.459   5.040
 6953SOL    HW121758   5.196   1.519   4.966
 6953SOL    HW221759   5.068   1.465   5.050
 6954SOL     OW21760   0.618   5.054   3.055
 6954SOL    HW121761   0.541   5.002   3.092
 6954SOL    HW221762   0.677   4.992   3.002
 6955SOL     OW21763   6.085   5.440   2.403
 6955SOL    HW121764   6.147   5.487   2.465
 6955SOL    HW221765   6.035   5.507   2.347
 6956SOL     OW21766   3.282   4.784   1.283
 6956SOL    HW121767   3.350   4.712   1.268
 6956SOL    HW221768   3.321   4.855   1.342
 6957SOL     OW21769   0.889   4.010   0.404
 6957SOL    HW121770   0.906   4.101   0.366
 6957SOL    HW221771   0.849   4.019   0.495
 6958SOL     OW21772   2.485   3.701   6.217
 6958SOL    HW121773   2.451   3.734   6.305
 6958SOL    HW221774   2.547   3.768   6.177
 6959SOL     OW21775   3.405   1.199   4.352
 6959SOL    HW121776   3.476   1.265   4.329
 6959SOL    HW221777   3.397   1.132   4.278
 6960SOL     OW21778   6.997   5.152   6.835
 6960SOL    HW121779   6.957   5.126   6.923
 6960SOL    HW221780   0.065   5.184   6.849
 6961SOL     OW21781   6.777   1.623   2.994
 6961SOL    HW121782   6.706   1.566   3.036
 6961SOL    HW221783   6.851   1.638   3.059
 6962SOL     OW21784   4.484   3.409   0.543
 6962SOL    HW121785   4.532   3.324   0.524
 6962SOL    HW221786   4.386   3.393   0.545
 6963SOL     OW21787   6.086   5.662   2.000
 6963SOL    HW121788   6.132   5.687   2.084
 6963SOL    HW221789   6.144   5.599   1.948
 6964SOL     OW21790   3.972   6.245   5.271
 6964SOL    HW121791   4.017   6.295   5.197
 6964SOL    HW221792   3.972   6.302   5.354
 6965SOL     OW21793   6.841   3.232   5.976
 6965SOL    HW121794   6.894   3.281   5.907
 6965SOL    HW221795   6.845   3.281   6.063
 6966SOL     OW21796   4.434   2.458   3.800
 6966SOL    HW121797   4.439   2.528   3.730
 6966SOL    HW221798   4.512   2.396   3.791
 6967SOL     OW21799   2.110   1.363   6.821
 6967SOL    HW121800   2.093   1.413   6.906
 6967SOL    HW221801   2.048   1.396   6.750
 6968SOL     OW21802   4.951   0.194   2.076
 6968SOL    HW121803   5.009   0.205   2.157
 6968SOL    HW221804   4.863   0.157   2.104
 6969SOL     OW21805   3.466   1.367   1.472
 6969SOL    HW121806   3.470   1.334   1.566
 6969SOL    HW221807   3.525   1.448   1.462
 6970SOL     OW21808   4.852   3.586   0.408
 6970SOL    HW121809   4.764   3.581   0.456
 6970SOL    HW221810   4.918   3.634   0.466
 6971SOL     OW21811   5.593   0.763   2.609
 6971SOL    HW121812   5.579   0.858   2.581
 6971SOL    HW221813   5.636   0.712   2.535
 6972SOL     OW21814   5.518   4.625   4.402
 6972SOL    HW121815   5.592   4.667   4.454
 6972SOL    HW221816   5.542   4.625   4.305
 6973SOL     OW21817   2.412   4.908   3.954
 6973SOL    HW121818   2.395   4.811   3.972
 6973SOL    HW221819   2.328   4.960   3.970
 6974SOL     OW21820   3.568   3.883   4.807
 6974SOL    HW121821   3.520   3.850   4.725
 6974SOL    HW221822   3.666   3.866   4.797
 6975SOL     OW21823   3.699   1.312   5.765
 6975SOL    HW121824   3.685   1.374   5.688
 6975SOL    HW221825   3.796   1.290   5.774
 6976SOL     OW21826   2.013   4.946   0.030
 6976SOL    HW121827   2.035   5.008   0.107
 6976SOL    HW221828   2.097   4.925   7.006
 6977SOL     OW21829   3.687   2.083   2.745
 6977SOL    HW121830   3.772   2.129   2.770
 6977SOL    HW221831   3.635   2.140   2.682
 6978SOL     OW21832   6.432   0.865   2.868
 6978SOL    HW121833   6.411   0.787   2.808
 6978SOL    HW221834   6.530   0.866   2.888
 6979SOL     OW21835   0.416   4.947   3.229
 6979SOL    HW121836   0.480   4.935   3.304
 6979SOL    HW221837   0.353   5.022   3.251
 6980SOL     OW21838   3.322   0.865   4.658
 6980SOL    HW121839   3.303   0.797   4.729
 6980SOL    HW221840   3.248   0.865   4.591
 6981SOL     OW21841   2.714   4.829   6.720
 6981SOL    HW121842   2.722   4.919   6.675
 6981SOL    HW221843   2.802   4.782   6.715
 6982SOL     OW21844   0.087   6.632   4.649
 6982SOL    HW121845   0.054   6.618   4.556
 6982SOL    HW221846   0.175   6.584   4.660
 6983SOL     OW21847   6.096   0.844   3.748
 6983SOL    HW121848   6.040   0.883   3.821
 6983SOL    HW221849   6.188   0.884   3.751
 6984SOL     OW21850   1.662   1.535   6.747
 6984SOL    HW121851   1.710   1.595   6.811
 6984SOL    HW221852   1.590   1.586   6.700
 6985SOL     OW21853   4.619   6.576   1.953
 6985SOL    HW121854   4.521   6.556   1.944
 6985SOL    HW221855   4.659   6.583   1.861
 6986SOL     OW21856   2.234   6.470   4.951
 6986SOL    HW121857   2.243   6.407   5.028
 6986SOL    HW221858   2.159   6.440   4.892
 6987SOL     OW21859   0.283   3.617   6.666
 6987SOL    HW121860   0.223   3.648   6.740
 6987SOL    HW221861   0.236   3.548   6.612
 6988SOL     OW21862   4.819   0.874   4.765
 6988SOL    HW121863   4.803   0.948   4.699
 6988SOL    HW221864   4.829   0.914   4.856
 6989SOL     OW21865   1.465   2.464   4.349
 6989SOL    HW121866   1.403   2.542   4.361
 6989SOL    HW221867   1.559   2.495   4.360
 6990SOL     OW21868   3.842   3.269   0.006
 6990SOL    HW121869   3.906   3.345   7.021
 6990SOL    HW221870   3.810   3.240   6.940
 6991SOL     OW21871   4.398   4.308   5.418
 6991SOL    HW121872   4.337   4.230   5.430
 6991SOL    HW221873   4.444   4.301   5.329
 6992SOL     OW21874   5.111   6.733   5.367
 6992SOL    HW121875   5.121   6.759   5.270
 6992SOL    HW221876   5.024   6.768   5.402
 6993SOL     OW21877   0.462   6.932   2.725
 6993SOL    HW121878   0.422   6.983   2.801
 6993SOL    HW221879   0.432   6.837   2.729
 6994SOL     OW21880   1.267   3.027   0.137
 6994SOL    HW121881   1.322   2.949   0.109
 6994SOL    HW221882   1.233   3.012   0.231
 6995SOL     OW21883   0.207   5.708   2.987
 6995SOL    HW121884   0.286   5.648   2.978
 6995SOL    HW221885   0.144   5.672   3.056
 6996SOL     OW21886   2.201   6.672   6.067
 6996SOL    HW121887   2.213   6.612   5.988
 6996SOL    HW221888   2.104   6.676   6.091
 6997SOL     OW21889   4.619   0.085   4.509
 6997SOL    HW121890   4.601   7.012   4.518
 6997SOL    HW221891   4.567   0.122   4.433
 6998SOL     OW21892   1.619   2.874   3.194
 6998SOL    HW121893   1.614   2.885   3.095
 6998SOL    HW221894   1.639   2.778   3.215
 6999SOL     OW21895   3.804   1.756   6.272
 6999SOL    HW121896   3.852   1.794   6.193
 6999SOL    HW221897   3.706   1.770   6.262
 7000SOL     OW21898   7.016   6.389   1.488
 7000SOL    HW121899   7.013   6.471   1.545
 7000SOL    HW221900   6.934   6.386   1.431
 7001SOL     OW21901   2.803   2.022   5.530
 7001SOL    HW121902   2.868   2.075   5.475
 7001SOL    HW221903   2.761   2.081   5.598
 7002SOL     OW21904   1.698   4.954   2.931
 7002SOL    HW121905   1.682   4.901   3.014
 7002SOL    HW221906   1.797   4.959   2.913
 7003SOL     OW21907   2.738   6.231   0.193
 7003SOL    HW121908   2.755   6.322   0.155
 7003SOL    HW221909   2.644   6.203   0.171
 7004SOL     OW21910   0.880   5.162   0.865
 7004SOL    HW121911   0.796   5.179   0.812
 7004SOL    HW221912   0.858   5.109   0.946
 7005SOL     OW21913   5.547   6.818   5.508
 7005SOL    HW121914   5.495   6.754   5.564
 7005SOL    HW221915   5.568   6.776   5.420
 7006SOL     OW21916   4.281   4.740   5.162
 7006SOL    HW121917   4.283   4.663   5.098
 7006SOL    HW221918   4.187   4.773   5.171
 7007SOL     OW21919   4.908   5.309   2.200
 7007SOL    HW121920   4.949   5.226   2.237
 7007SOL    HW221921   4.925   5.314   2.101
 7008SOL     OW21922   0.749   4.840   4.340
 7008SOL    HW121923   0.800   4.788   4.271
 7008SOL    HW221924   0.811   4.868   4.413
 7009SOL     OW21925   0.257   4.623   2.301
 7009SOL    HW121926   0.303   4.683   2.366
 7009SOL    HW221927   0.277   4.528   2.324
 7010SOL     OW21928   4.207   4.862   6.351
 7010SOL    HW121929   4.111   4.857   6.377
 7010SOL    HW221930   4.229   4.955   6.320
 7011SOL     OW21931   2.335   1.648   4.822
 7011SOL    HW121932   2.265   1.657   4.752
 7011SOL    HW221933   2.412   1.709   4.800
 7012SOL     OW21934   1.257   1.262   2.394
 7012SOL    HW121935   1.259   1.196   2.319
 7012SOL    HW221936   1.325   1.333   2.377
 7013SOL     OW21937   0.978   0.841   2.254
 7013SOL    HW121938   0.923   0.785   2.193
 7013SOL    HW221939   1.054   0.882   2.204
 7014SOL     OW21940   2.592   4.947   1.147
 7014SOL    HW121941   2.681   4.957   1.103
 7014SOL    HW221942   2.544   4.869   1.108
 7015SOL     OW21943   4.983   2.512   2.207
 7015SOL    HW121944   5.068   2.480   2.247
 7015SOL    HW221945   4.981   2.612   2.208
 7016SOL     OW21946   3.245   4.831   0.588
 7016SOL    HW121947   3.258   4.764   0.661
 7016SOL    HW221948   3.326   4.889   0.582
 7017SOL     OW21949   3.861   1.628   4.082
 7017SOL    HW121950   3.935   1.695   4.082
 7017SOL    HW221951   3.896   1.540   4.114
 7018SOL     OW21952   0.057   5.379   4.098
 7018SOL    HW121953   7.014   5.310   4.076
 7018SOL    HW221954   0.134   5.336   4.146
 7019SOL     OW21955   1.981   6.077   0.105
 7019SOL    HW121956   1.892   6.036   0.126
 7019SOL    HW221957   2.025   6.108   0.189
 7020SOL     OW21958   6.970   6.843   5.916
 7020SOL    HW121959   0.008   6.765   5.913
 7020SOL    HW221960   6.929   6.855   5.825
 7021SOL     OW21961   3.245   0.994   6.008
 7021SOL    HW121962   3.153   1.028   5.986
 7021SOL    HW221963   3.289   1.058   6.072
 7022SOL     OW21964   5.176   5.378   6.451
 7022SOL    HW121965   5.082   5.384   6.417
 7022SOL    HW221966   5.240   5.398   6.377
 7023SOL     OW21967   6.389   4.348   2.876
 7023SOL    HW121968   6.364   4.271   2.935
 7023SOL    HW221969   6.343   4.340   2.788
 7024SOL     OW21970   0.485   6.161   0.694
 7024SOL    HW121971   0.473   6.154   0.595
 7024SOL    HW221972   0.450   6.078   0.737
 7025SOL     OW21973   2.653   0.453   6.043
 7025SOL    HW121974   2.584   0.455   6.115
 7025SOL    HW221975   2.646   0.367   5.992
 7026SOL     OW21976   4.345   1.994   0.827
 7026SOL    HW121977   4.265   2.005   0.768
 7026SOL    HW221978   4.420   1.953   0.775
 7027SOL     OW21979   4.347   6.991   4.724
 7027SOL    HW121980   4.303   0.054   4.738
 7027SOL    HW221981   4.296   6.938   4.656
 7028SOL     OW21982   3.391   6.718   4.616
 7028SOL    HW121983   3.300   6.678   4.602
 7028SOL    HW221984   3.406   6.730   4.714
 7029SOL     OW21985   3.218   0.468   5.157
 7029SOL    HW121986   3.287   0.537   5.133
 7029SOL    HW221987   3.257   0.377   5.151
 7030SOL     OW21988   2.049   4.148   4.184
 7030SOL    HW121989   2.133   4.173   4.136
 7030SOL    HW221990   2.056   4.054   4.217
 7031SOL     OW21991   2.475   6.672   5.136
 7031SOL    HW121992   2.376   6.679   5.140
 7031SOL    HW221993   2.515   6.726   5.210
 7032SOL     OW21994   5.839   1.407   2.718
 7032SOL    HW121995   5.830   1.504   2.741
 7032SOL    HW221996   5.910   1.396   2.648
 7033SOL     OW21997   6.424   0.233   4.337
 7033SOL    HW121998   6.329   0.229   4.368
 7033SOL    HW221999   6.455   0.328   4.336
 7034SOL     OW22000   6.340   5.794   2.999
 7034SOL    HW122001   6.412   5.773   3.064
 7034SOL    HW222002   6.334   5.893   2.986
 7035SOL     OW22003   6.413   5.270   2.030
 7035SOL    HW122004   6.494   5.257   2.088
 7035SOL    HW222005   6.334   5.291   2.088
 7036SOL     OW22006   6.500   4.509   1.376
 7036SOL    HW122007   6.492   4.442   1.302
 7036SOL    HW222008   6.582   4.490   1.429
 7037SOL     OW22009   1.220   6.793   6.758
 7037SOL    HW122010   1.320   6.788   6.764
 7037SOL    HW222011   1.180   6.719   6.813
 7038SOL     OW22012   1.646   4.268   4.185
 7038SOL    HW122013   1.587   4.239   4.110
 7038SOL    HW222014   1.609   4.234   4.272
 7039SOL     OW22015   4.331   1.363   6.424
 7039SOL    HW122016   4.323   1.309   6.340
 7039SOL    HW222017   4.304   1.308   6.502
 7040SOL     OW22018   4.809   2.732   6.018
 7040SOL    HW122019   4.853   2.693   5.938
 7040SOL    HW222020   4.838   2.682   6.100
 7041SOL     OW22021   2.523   1.415   2.243
 7041SOL    HW122022   2.424   1.424   2.240
 7041SOL    HW222023   2.551   1.370   2.328
 7042SOL     OW22024   2.276   0.441   6.539
 7042SOL    HW122025   2.374   0.447   6.518
 7042SOL    HW222026   2.259   0.362   6.598
 7043SOL     OW22027   1.540   2.160   3.092
 7043SOL    HW122028   1.445   2.155   3.061
 7043SOL    HW222029   1.589   2.228   3.038
 7044SOL     OW22030   4.843   6.072   2.275
 7044SOL    HW122031   4.883   6.097   2.187
 7044SOL    HW222032   4.841   6.152   2.334
 7045SOL     OW22033   5.559   5.281   0.983
 7045SOL    HW122034   5.537   5.297   1.079
 7045SOL    HW222035   5.652   5.313   0.964
 7046SOL     OW22036   2.506   0.856   4.632
 7046SOL    HW122037   2.532   0.823   4.723
 7046SOL    HW222038   2.409   0.881   4.633
 7047SOL     OW22039   1.910   1.206   4.066
 7047SOL    HW122040   1.874   1.250   3.984
 7047SOL    HW222041   1.865   1.117   4.078
 7048SOL     OW22042   6.614   6.548   0.162
 7048SOL    HW122043   6.611   6.580   0.068
 7048SOL    HW222044   6.631   6.625   0.224
 7049SOL     OW22045   2.333   1.340   0.664
 7049SOL    HW122046   2.280   1.408   0.613
 7049SOL    HW222047   2.394   1.387   0.728
 7050SOL     OW22048   3.923   3.872   5.037
 7050SOL    HW122049   3.905   3.879   4.939
 7050SOL    HW222050   3.919   3.964   5.078
 7051SOL     OW22051   6.139   6.922   2.009
 7051SOL    HW122052   6.074   6.960   2.075
 7051SOL    HW222053   6.137   6.975   1.925
 7052SOL     OW22054   6.436   1.869   3.201
 7052SOL    HW122055   6.411   1.930   3.276
 7052SOL    HW222056   6.511   1.810   3.231
 7053SOL     OW22057   6.892   4.669   6.396
 7053SOL    HW122058   6.965   4.635   6.336
 7053SOL    HW222059   6.905   4.766   6.412
 7054SOL     OW22060   6.952   0.089   1.443
 7054SOL    HW122061   6.863   0.105   1.484
 7054SOL    HW222062   7.020   0.147   1.489
 7055SOL     OW22063   3.306   6.976   5.453
 7055SOL    HW122064   3.234   6.923   5.409
 7055SOL    HW222065   3.269   7.021   5.534
 7056SOL     OW22066   4.788   5.265   3.552
 7056SOL    HW122067   4.690   5.286   3.546
 7056SOL    HW222068   4.801   5.177   3.597
 7057SOL     OW22069   0.843   6.141   3.097
 7057SOL    HW122070   0.830   6.071   3.167
 7057SOL    HW222071   0.765   6.203   3.097
 7058SOL     OW22072   0.760   5.080   5.141
 7058SOL    HW122073   0.748   4.982   5.156
 7058SOL    HW222074   0.690   5.130   5.192
 7059SOL     OW22075   1.612   0.188   2.823
 7059SOL    HW122076   1.522   0.198   2.865
 7059SOL    HW222077   1.663   0.117   2.872
 7060SOL     OW22078   2.832   6.946   1.116
 7060SOL    HW122079   2.830   6.916   1.212
 7060SOL    HW222080   2.810   6.869   1.057
 7061SOL     OW22081   0.129   1.166   2.475
 7061SOL    HW122082   0.065   1.206   2.410
 7061SOL    HW222083   0.222   1.193   2.450
 7062SOL     OW22084   6.129   1.554   5.125
 7062SOL    HW122085   6.034   1.525   5.124
 7062SOL    HW222086   6.188   1.478   5.095
 7063SOL     OW22087   2.998   6.684   1.667
 7063SOL    HW122088   3.087   6.683   1.622
 7063SOL    HW222089   3.004   6.737   1.751
 7064SOL     OW22090   4.185   2.300   0.304
 7064SOL    HW122091   4.173   2.251   0.217
 7064SOL    HW222092   4.226   2.390   0.286
 7065SOL     OW22093   4.663   3.973   1.664
 7065SOL    HW122094   4.608   4.031   1.604
 7065SOL    HW222095   4.690   4.025   1.745
 7066SOL     OW22096   3.567   6.366   0.330
 7066SOL    HW122097   3.638   6.387   0.396
 7066SOL    HW222098   3.534   6.273   0.345
 7067SOL     OW22099   0.236   4.123   5.045
 7067SOL    HW122100   0.323   4.171   5.038
 7067SOL    HW222101   0.221   4.069   4.962
 7068SOL     OW22102   1.038   0.875   2.958
 7068SOL    HW122103   0.982   0.950   2.991
 7068SOL    HW222104   0.983   0.791   2.955
 7069SOL     OW22105   1.541   4.086   5.238
 7069SOL    HW122106   1.593   4.112   5.157
 7069SOL    HW222107   1.592   4.111   5.320
 7070SOL     OW22108   5.962   5.628   4.784
 7070SOL    HW122109   5.879   5.602   4.833
 7070SOL    HW222110   6.033   5.653   4.849
 7071SOL     OW22111   1.342   6.663   5.419
 7071SOL    HW122112   1.262   6.661   5.359
 7071SOL    HW222113   1.385   6.573   5.419
 7072SOL     OW22114   0.461   6.458   6.458
 7072SOL    HW122115   0.404   6.389   6.503
 7072SOL    HW222116   0.414   6.546   6.460
 7073SOL     OW22117   0.889   0.806   6.107
 7073SOL    HW122118   0.936   0.756   6.180
 7073SOL    HW222119   0.891   0.752   6.023
 7074SOL     OW22120   3.569   2.739   1.321
 7074SOL    HW122121   3.507   2.816   1.312
 7074SOL    HW222122   3.633   2.756   1.396
 7075SOL     OW22123   1.112   5.376   3.466
 7075SOL    HW122124   1.110   5.347   3.370
 7075SOL    HW222125   1.142   5.300   3.523
 7076SOL     OW22126   2.785   2.699   6.917
 7076SOL    HW122127   2.720   2.742   6.854
 7076SOL    HW222128   2.838   2.630   6.867
 7077SOL     OW22129   2.203   5.521   5.958
 7077SOL    HW122130   2.123   5.524   5.898
 7077SOL    HW222131   2.203   5.436   6.009
 7078SOL     OW22132   6.223   0.601   2.954
 7078SOL    HW122133   6.249   0.520   2.903
 7078SOL    HW222134   6.157   0.655   2.901
 7079SOL     OW22135   5.305   5.527   5.277
 7079SOL    HW122136   5.315   5.445   5.332
 7079SOL    HW222137   5.395   5.563   5.253
 7080SOL     OW22138   5.176   0.227   4.296
 7080SOL    HW122139   5.100   0.265   4.349
 7080SOL    HW222140   5.143   0.199   4.206
 7081SOL     OW22141   3.644   1.197   5.024
 7081SOL    HW122142   3.618   1.229   4.933
 7081SOL    HW222143   3.622   1.266   5.092
 7082SOL     OW22144   5.445   0.788   6.284
 7082SOL    HW122145   5.387   0.867   6.263
 7082SOL    HW222146   5.411   0.708   6.236
 7083SOL     OW22147   3.148   0.286   5.956
 7083SOL    HW122148   3.239   0.326   5.943
 7083SOL    HW222149   3.079   0.348   5.920
 7084SOL     OW22150   6.945   6.219   6.532
 7084SOL    HW122151   0.013   6.225   6.498
 7084SOL    HW222152   6.899   6.307   6.518
 7085SOL     OW22153   2.566   2.529   1.268
 7085SOL    HW122154   2.554   2.439   1.310
 7085SOL    HW222155   2.663   2.544   1.250
 7086SOL     OW22156   6.484   1.008   6.364
 7086SOL    HW122157   6.534   1.009   6.451
 7086SOL    HW222158   6.409   0.942   6.369
 7087SOL     OW22159   1.776   2.814   3.931
 7087SOL    HW122160   1.676   2.808   3.930
 7087SOL    HW222161   1.806   2.874   3.856
 7088SOL     OW22162   6.850   2.374   5.112
 7088SOL    HW122163   6.867   2.285   5.071
 7088SOL    HW222164   6.844   2.443   5.040
 7089SOL     OW22165   2.604   1.937   0.281
 7089SOL    HW122166   2.689   1.951   0.231
 7089SOL    HW222167   2.617   1.962   0.377
 7090SOL     OW22168   2.369   2.207   4.637
 7090SOL    HW122169   2.282   2.227   4.593
 7090SOL    HW222170   2.441   2.263   4.596
 7091SOL     OW22171   0.345   5.595   6.930
 7091SOL    HW122172   0.355   5.520   6.995
 7091SOL    HW222173   0.248   5.620   6.923
 7092SOL     OW22174   3.035   3.430   0.437
 7092SOL    HW122175   3.129   3.397   0.432
 7092SOL    HW222176   3.030   3.522   0.397
 7093SOL     OW22177   3.516   3.007   5.181
 7093SOL    HW122178   3.477   3.082   5.127
 7093SOL    HW222179   3.583   2.958   5.125
 7094SOL     OW22180   0.414   0.434   6.081
 7094SOL    HW122181   0.360   0.350   6.093
 7094SOL    HW222182   0.374   0.507   6.137
 7095SOL     OW22183   0.841   3.239   6.386
 7095SOL    HW122184   0.810   3.315   6.329
 7095SOL    HW222185   0.767   3.173   6.397
 7096SOL     OW22186   4.914   1.427   2.362
 7096SOL    HW122187   4.890   1.341   2.317
 7096SOL    HW222188   4.935   1.409   2.458
 7097SOL     OW22189   0.233   0.780   1.824
 7097SOL    HW122190   0.256   0.683   1.818
 7097SOL    HW222191   0.218   0.817   1.732
 7098SOL     OW22192   1.755   6.596   5.897
 7098SOL    HW122193   1.787   6.683   5.860
 7098SOL    HW222194   1.711   6.543   5.824
 7099SOL     OW22195   0.114   0.850   6.182
 7099SOL    HW122196   0.179   0.809   6.245
 7099SOL    HW222197   0.118   0.950   6.191
 7100SOL     OW22198   5.883   2.873   1.195
 7100SOL    HW122199   5.820   2.933   1.145
 7100SOL    HW222200   5.963   2.926   1.222
 7101SOL     OW22201   2.817   0.020   5.200
 7101SOL    HW122202   2.908   0.054   5.223
 7101SOL    HW222203   2.814   7.021   5.103
 7102SOL     OW22204   4.597   2.525   0.700
 7102SOL    HW122205   4.520   2.465   0.721
 7102SOL    HW222206   4.598   2.602   0.764
 7103SOL     OW22207   3.712   6.622   6.325
 7103SOL    HW122208   3.786   6.568   6.365
 7103SOL    HW222209   3.688   6.697   6.387
 7104SOL     OW22210   1.030   2.220   2.980
 7104SOL    HW122211   1.043   2.203   3.078
 7104SOL    HW222212   1.031   2.134   2.931
 7105SOL     OW22213   3.280   4.018   5.182
 7105SOL    HW122214   3.186   4.029   5.150
 7105SOL    HW222215   3.307   4.100   5.234
 7106SOL     OW22216   3.194   2.562   5.370
 7106SOL    HW122217   3.184   2.491   5.300
 7106SOL    HW222218   3.290   2.573   5.393
 7107SOL     OW22219   2.861   1.227   0.192
 7107SOL    HW122220   2.800   1.192   0.263
 7107SOL    HW222221   2.890   1.152   0.133
 7108SOL     OW22222   4.693   0.214   1.052
 7108SOL    HW122223   4.723   0.226   1.147
 7108SOL    HW222224   4.759   0.258   0.991
 7109SOL     OW22225   3.572   6.255   6.456
 7109SOL    HW122226   3.596   6.213   6.368
 7109SOL    HW222227   3.503   6.326   6.441
 7110SOL     OW22228   4.312   4.897   3.336
 7110SOL    HW122229   4.310   4.996   3.328
 7110SOL    HW222230   4.227   4.864   3.376
 7111SOL     OW22231   1.970   3.319   3.900
 7111SOL    HW122232   1.962   3.416   3.920
 7111SOL    HW222233   1.913   3.267   3.964
 7112SOL     OW22234   1.009   6.765   3.097
 7112SOL    HW122235   1.065   6.717   3.165
 7112SOL    HW222236   1.007   6.713   3.012
 7113SOL     OW22237   4.155   3.415   4.446
 7113SOL    HW122238   4.210   3.484   4.400
 7113SOL    HW222239   4.113   3.355   4.377
 7114SOL     OW22240   3.648   0.994   0.347
 7114SOL    HW122241   3.715   0.949   0.407
 7114SOL    HW222242   3.689   1.011   0.258
 7115SOL     OW22243   4.809   1.714   1.080
 7115SOL    HW122244   4.870   1.789   1.105
 7115SOL    HW222245   4.718   1.749   1.059
 7116SOL     OW22246   5.342   3.659   3.022
 7116SOL    HW122247   5.378   3.614   2.941
 7116SOL    HW222248   5.242   3.659   3.019
 7117SOL     OW22249   5.669   6.571   1.779
 7117SOL    HW122250   5.615   6.487   1.771
 7117SOL    HW222251   5.663   6.623   1.694
 7118SOL     OW22252   6.923   3.097   1.353
 7118SOL    HW122253   6.825   3.102   1.333
 7118SOL    HW222254   6.935   3.077   1.450
 7119SOL     OW22255   6.182   2.036   3.361
 7119SOL    HW122256   6.167   2.074   3.270
 7119SOL    HW222257   6.096   1.995   3.394
 7120SOL     OW22258   4.906   0.552   3.266
 7120SOL    HW122259   4.870   0.501   3.188
 7120SOL    HW222260   4.843   0.626   3.290
 7121SOL     OW22261   3.236   6.657   2.276
 7121SOL    HW122262   3.229   6.558   2.291
 7121SOL    HW222263   3.200   6.679   2.185
 7122SOL     OW22264   6.213   0.904   6.370
 7122SOL    HW122265   6.189   0.907   6.273
 7122SOL    HW222266   6.196   0.812   6.406
 7123SOL     OW22267   2.176   4.872   1.082
 7123SOL    HW122268   2.211   4.958   1.119
 7123SOL    HW222269   2.129   4.890   0.995
 7124SOL     OW22270   0.542   5.166   1.054
 7124SOL    HW122271   0.471   5.121   1.002
 7124SOL    HW222272   0.522   5.158   1.152
 7125SOL     OW22273   5.803   6.219   2.647
 7125SOL    HW122274   5.852   6.295   2.690
 7125SOL    HW222275   5.853   6.134   2.664
 7126SOL     OW22276   1.317   4.975   0.552
 7126SOL    HW122277   1.402   4.928   0.527
 7126SOL    HW222278   1.327   5.016   0.643
 7127SOL     OW22279   3.567   6.237   4.511
 7127SOL    HW122280   3.471   6.251   4.537
 7127SOL    HW222281   3.574   6.230   4.411
 7128SOL     OW22282   3.160   4.166   1.540
 7128SOL    HW122283   3.115   4.203   1.622
 7128SOL    HW222284   3.102   4.096   1.499
 7129SOL     OW22285   2.573   0.567   1.349
 7129SOL    HW122286   2.636   0.542   1.276
 7129SOL    HW222287   2.518   0.487   1.374
 7130SOL     OW22288   1.971   4.975   3.044
 7130SOL    HW122289   1.993   5.021   2.959
 7130SOL    HW222290   1.964   4.876   3.028
 7131SOL     OW22291   2.649   0.767   3.200
 7131SOL    HW122292   2.591   0.737   3.276
 7131SOL    HW222293   2.610   0.850   3.159
 7132SOL     OW22294   3.127   4.044   3.064
 7132SOL    HW122295   3.200   4.055   2.997
 7132SOL    HW222296   3.125   4.122   3.126
 7133SOL     OW22297   5.393   5.214   2.746
 7133SOL    HW122298   5.371   5.255   2.834
 7133SOL    HW222299   5.383   5.283   2.674
 7134SOL     OW22300   5.597   3.846   3.863
 7134SOL    HW122301   5.577   3.936   3.901
 7134SOL    HW222302   5.650   3.855   3.779
 7135SOL     OW22303   0.824   1.655   4.868
 7135SOL    HW122304   0.776   1.609   4.793
 7135SOL    HW222305   0.923   1.653   4.850
 7136SOL     OW22306   2.276   1.691   0.262
 7136SOL    HW122307   2.344   1.680   0.335
 7136SOL    HW222308   2.284   1.615   0.198
 7137SOL     OW22309   4.106   0.849   4.645
 7137SOL    HW122310   4.012   0.871   4.619
 7137SOL    HW222311   4.106   0.767   4.703
 7138SOL     OW22312   2.720   3.962   0.855
 7138SOL    HW122313   2.727   4.026   0.932
 7138SOL    HW222314   2.628   3.968   0.816
 7139SOL     OW22315   3.539   2.092   1.139
 7139SOL    HW122316   3.457   2.035   1.147
 7139SOL    HW222317   3.609   2.058   1.201
 7140SOL     OW22318   6.350   3.399   5.049
 7140SOL    HW122319   6.382   3.310   5.083
 7140SOL    HW222320   6.359   3.402   4.949
 7141SOL     OW22321   2.961   6.648   0.729
 7141SOL    HW122322   3.049   6.640   0.776
 7141SOL    HW222323   2.911   6.562   0.735
 7142SOL     OW22324   3.846   5.754   4.424
 7142SOL    HW122325   3.869   5.851   4.409
 7142SOL    HW222326   3.851   5.734   4.521
 7143SOL     OW22327   2.045   3.287   4.534
 7143SOL    HW122328   2.008   3.199   4.504
 7143SOL    HW222329   2.047   3.350   4.456
 7144SOL     OW22330   0.394   2.682   3.330
 7144SOL    HW122331   0.428   2.718   3.243
 7144SOL    HW222332   0.383   2.756   3.396
 7145SOL     OW22333   5.033   0.064   6.780
 7145SOL    HW122334   5.122   0.054   6.824
 7145SOL    HW222335   4.983   0.139   6.822
 7146SOL     OW22336   3.504   4.866   0.489
 7146SOL    HW122337   3.515   4.767   0.483
 7146SOL    HW222338   3.573   4.910   0.431
 7147SOL     OW22339   0.356   0.411   3.272
 7147SOL    HW122340   0.368   0.356   3.355
 7147SOL    HW222341   0.351   0.350   3.193
 7148SOL     OW22342   0.804   1.093   1.206
 7148SOL    HW122343   0.884   1.045   1.241
 7148SOL    HW222344   0.744   1.029   1.159
 7149SOL     OW22345   6.007   1.247   4.113
 7149SOL    HW122346   5.914   1.277   4.093
 7149SOL    HW222347   6.005   1.155   4.152
 7150SOL     OW22348   5.972   3.380   0.003
 7150SOL    HW122349   6.021   3.467   0.012
 7150SOL    HW222350   5.908   3.370   0.079
 7151SOL     OW22351   2.901   6.184   1.084
 7151SOL    HW122352   2.924   6.100   1.036
 7151SOL    HW222353   2.807   6.180   1.117
 7152SOL     OW22354   1.425   2.586   3.774
 7152SOL    HW122355   1.501   2.538   3.730
 7152SOL    HW222356   1.438   2.585   3.873
 7153SOL     OW22357   3.641   1.301   3.550
 7153SOL    HW122358   3.554   1.252   3.548
 7153SOL    HW222359   3.628   1.391   3.591
 7154SOL     OW22360   5.060   5.948   3.959
 7154SOL    HW122361   5.098   5.860   3.989
 7154SOL    HW222362   5.091   6.020   4.021
 7155SOL     OW22363   2.758   0.204   1.093
 7155SOL    HW122364   2.820   0.128   1.113
 7155SOL    HW222365   2.663   0.175   1.105
 7156SOL     OW22366   7.009   5.604   4.984
 7156SOL    HW122367   7.012   5.704   4.979
 7156SOL    HW222368   6.930   5.570   4.934
 7157SOL     OW22369   4.390   4.465   1.141
 7157SOL    HW122370   4.369   4.559   1.168
 7157SOL    HW222371   4.422   4.464   1.046
 7158SOL     OW22372   6.236   7.014   4.297
 7158SOL    HW122373   6.221   6.968   4.385
 7158SOL    HW222374   6.332   7.006   4.271
 7159SOL     OW22375   0.664   5.740   6.839
 7159SOL    HW122376   0.639   5.758   6.743
 7159SOL    HW222377   0.614   5.661   6.872
 7160SOL     OW22378   5.538   0.786   2.248
 7160SOL    HW122379   5.530   0.884   2.263
 7160SOL    HW222380   5.451   0.741   2.268
 7161SOL     OW22381   3.730   3.396   3.901
 7161SOL    HW122382   3.769   3.379   3.811
 7161SOL    HW222383   3.786   3.463   3.950
 7162SOL     OW22384   3.411   4.911   3.098
 7162SOL    HW122385   3.383   5.002   3.066
 7162SOL    HW222386   3.473   4.870   3.032
 7163SOL     OW22387   2.323   0.296   2.742
 7163SOL    HW122388   2.422   0.281   2.753
 7163SOL    HW222389   2.303   0.311   2.645
 7164SOL     OW22390   2.284   1.320   2.876
 7164SOL    HW122391   2.230   1.379   2.936
 7164SOL    HW222392   2.222   1.267   2.818
 7165SOL     OW22393   4.705   0.753   1.797
 7165SOL    HW122394   4.676   0.813   1.872
 7165SOL    HW222395   4.729   0.663   1.834
 7166SOL     OW22396   4.952   4.651   1.728
 7166SOL    HW122397   4.869   4.603   1.757
 7166SOL    HW222398   5.020   4.647   1.801
 7167SOL     OW22399   4.770   2.735   5.026
 7167SOL    HW122400   4.750   2.822   5.071
 7167SOL    HW222401   4.693   2.672   5.040
 7168SOL     OW22402   1.413   0.962   4.072
 7168SOL    HW122403   1.457   1.011   3.997
 7168SOL    HW222404   1.349   1.023   4.118
 7169SOL     OW22405   1.565   2.667   6.223
 7169SOL    HW122406   1.469   2.695   6.217
 7169SOL    HW222407   1.614   2.702   6.143
 7170SOL     OW22408   6.415   4.895   4.484
 7170SOL    HW122409   6.410   4.812   4.429
 7170SOL    HW222410   6.510   4.923   4.494
 7171SOL     OW22411   4.211   3.156   5.283
 7171SOL    HW122412   4.202   3.215   5.203
 7171SOL    HW222413   4.183   3.206   5.365
 7172SOL     OW22414   1.527   0.208   0.641
 7172SOL    HW122415   1.493   0.146   0.712
 7172SOL    HW222416   1.626   0.218   0.651
 7173SOL     OW22417   6.547   6.288   5.671
 7173SOL    HW122418   6.550   6.213   5.737
 7173SOL    HW222419   6.578   6.372   5.715
 7174SOL     OW22420   1.407   5.519   0.443
 7174SOL    HW122421   1.484   5.515   0.380
 7174SOL    HW222422   1.418   5.449   0.514
 7175SOL     OW22423   6.759   3.584   5.551
 7175SOL    HW122424   6.747   3.601   5.453
 7175SOL    HW222425   6.698   3.510   5.580
 7176SOL     OW22426   5.717   3.973   1.671
 7176SOL    HW122427   5.682   3.932   1.756
 7176SOL    HW222428   5.653   3.954   1.597
 7177SOL     OW22429   0.676   6.239   2.143
 7177SOL    HW122430   0.754   6.299   2.164
 7177SOL    HW222431   0.600   6.295   2.108
 7178SOL     OW22432   0.549   2.663   6.191
 7178SOL    HW122433   0.526   2.565   6.193
 7178SOL    HW222434   0.601   2.682   6.108
 7179SOL     OW22435   2.711   3.839   6.090
 7179SOL    HW122436   2.676   3.904   6.023
 7179SOL    HW222437   2.713   3.747   6.050
 7180SOL     OW22438   7.024   6.086   2.196
 7180SOL    HW122439   0.054   6.143   2.257
 7180SOL    HW222440   0.052   6.006   2.168
 7181SOL     OW22441   4.952   0.816   2.065
 7181SOL    HW122442   5.045   0.829   2.031
 7181SOL    HW222443   4.945   0.853   2.157
 7182SOL     OW22444   3.199   3.638   5.429
 7182SOL    HW122445   3.116   3.679   5.468
 7182SOL    HW222446   3.181   3.543   5.404
 7183SOL     OW22447   1.220   5.574   2.453
 7183SOL    HW122448   1.254   5.629   2.530
 7183SOL    HW222449   1.245   5.479   2.467
 7184SOL     OW22450   2.190   6.513   3.605
 7184SOL    HW122451   2.191   6.497   3.704
 7184SOL    HW222452   2.136   6.595   3.585
 7185SOL     OW22453   4.643   2.499   6.721
 7185SOL    HW122454   4.573   2.434   6.691
 7185SOL    HW222455   4.710   2.453   6.778
 7186SOL     OW22456   0.642   6.557   4.532
 7186SOL    HW122457   0.631   6.642   4.481
 7186SOL    HW222458   0.621   6.479   4.473
 7187SOL     OW22459   1.867   4.755   1.450
 7187SOL    HW122460   1.886   4.756   1.352
 7187SOL    HW222461   1.908   4.835   1.494
 7188SOL     OW22462   5.253   1.437   1.129
 7188SOL    HW122463   5.192   1.468   1.202
 7188SOL    HW222464   5.317   1.369   1.165
 7189SOL     OW22465   6.021   1.030   4.569
 7189SOL    HW122466   6.031   1.108   4.631
 7189SOL    HW222467   6.071   1.048   4.485
 7190SOL     OW22468   4.655   4.818   3.331
 7190SOL    HW122469   4.626   4.831   3.426
 7190SOL    HW222470   4.754   4.806   3.327
 7191SOL     OW22471   1.640   3.297   2.570
 7191SOL    HW122472   1.554   3.263   2.609
 7191SOL    HW222473   1.707   3.224   2.567
 7192SOL     OW22474   3.202   5.034   5.674
 7192SOL    HW122475   3.140   5.042   5.596
 7192SOL    HW222476   3.158   5.072   5.756
 7193SOL     OW22477   4.354   1.566   3.349
 7193SOL    HW122478   4.258   1.572   3.320
 7193SOL    HW222479   4.413   1.587   3.271
 7194SOL     OW22480   2.811   1.524   1.907
 7194SOL    HW122481   2.839   1.433   1.876
 7194SOL    HW222482   2.833   1.535   2.004
 7195SOL     OW22483   0.734   5.735   1.566
 7195SOL    HW122484   0.785   5.750   1.482
 7195SOL    HW222485   0.776   5.787   1.641
 7196SOL     OW22486   3.588   3.292   2.363
 7196SOL    HW122487   3.491   3.272   2.347
 7196SOL    HW222488   3.603   3.311   2.460
 7197SOL     OW22489   0.871   2.146   6.267
 7197SOL    HW122490   0.842   2.176   6.177
 7197SOL    HW222491   0.813   2.188   6.337
 7198SOL     OW22492   1.324   6.082   6.729
 7198SOL    HW122493   1.328   5.983   6.743
 7198SOL    HW222494   1.307   6.102   6.633
 7199SOL     OW22495   6.556   6.353   2.755
 7199SOL    HW122496   6.617   6.399   2.690
 7199SOL    HW222497   6.507   6.280   2.708
 7200SOL     OW22498   2.204   1.396   1.147
 7200SOL    HW122499   2.229   1.398   1.244
 7200SOL    HW222500   2.133   1.463   1.129
 7201SOL     OW22501   2.160   4.435   3.848
 7201SOL    HW122502   2.111   4.445   3.761
 7201SOL    HW222503   2.101   4.389   3.914
 7202SOL     OW22504   3.693   1.036   6.484
 7202SOL    HW122505   3.625   1.083   6.540
 7202SOL    HW222506   3.779   1.088   6.484
 7203SOL     OW22507   5.500   0.939   6.628
 7203SOL    HW122508   5.550   0.930   6.715
 7203SOL    HW222509   5.565   0.951   6.553
 7204SOL     OW22510   5.968   1.918   2.600
 7204SOL    HW122511   5.926   1.983   2.664
 7204SOL    HW222512   6.039   1.964   2.547
 7205SOL     OW22513   2.328   4.489   2.187
 7205SOL    HW122514   2.373   4.482   2.276
 7205SOL    HW222515   2.343   4.404   2.136
 7206SOL     OW22516   5.884   0.995   1.761
 7206SOL    HW122517   5.976   0.966   1.738
 7206SOL    HW222518   5.863   1.080   1.713
 7207SOL     OW22519   3.772   0.107   2.205
 7207SOL    HW122520   3.737   0.118   2.298
 7207SOL    HW222521   3.760   0.193   2.154
 7208SOL     OW22522   2.999   0.285   5.520
 7208SOL    HW122523   2.941   0.245   5.448
 7208SOL    HW222524   2.952   0.363   5.561
 7209SOL     OW22525   4.063   3.416   4.692
 7209SOL    HW122526   4.103   3.406   4.601
 7209SOL    HW222527   4.059   3.326   4.736
 7210SOL     OW22528   4.107   0.423   4.520
 7210SOL    HW122529   4.025   0.480   4.511
 7210SOL    HW222530   4.157   0.423   4.434
 7211SOL     OW22531   1.391   5.410   3.025
 7211SOL    HW122532   1.459   5.418   2.952
 7211SOL    HW222533   1.393   5.493   3.081
 7212SOL     OW22534   5.639   6.509   4.214
 7212SOL    HW122535   5.712   6.494   4.147
 7212SOL    HW222536   5.678   6.510   4.306
 7213SOL     OW22537   5.321   0.836   5.619
 7213SOL    HW122538   5.309   0.756   5.677
 7213SOL    HW222539   5.369   0.810   5.535
 7214SOL     OW22540   1.198   4.863   5.151
 7214SOL    HW122541   1.188   4.875   5.052
 7214SOL    HW222542   1.188   4.951   5.197
 7215SOL     OW22543   0.947   3.551   3.430
 7215SOL    HW122544   1.005   3.472   3.450
 7215SOL    HW222545   0.992   3.610   3.364
 7216SOL     OW22546   2.054   1.149   1.610
 7216SOL    HW122547   2.138   1.183   1.568
 7216SOL    HW222548   2.057   1.049   1.615
 7217SOL     OW22549   1.005   2.854   2.052
 7217SOL    HW122550   1.055   2.838   1.966
 7217SOL    HW222551   1.020   2.948   2.082
 7218SOL     OW22552   5.545   2.684   5.456
 7218SOL    HW122553   5.534   2.737   5.372
 7218SOL    HW222554   5.630   2.632   5.450
 7219SOL     OW22555   3.945   1.705   2.258
 7219SOL    HW122556   3.911   1.784   2.309
 7219SOL    HW222557   3.882   1.684   2.183
 7220SOL     OW22558   6.889   0.736   2.881
 7220SOL    HW122559   6.920   0.695   2.967
 7220SOL    HW222560   6.968   0.751   2.821
 7221SOL     OW22561   6.191   5.675   5.572
 7221SOL    HW122562   6.143   5.625   5.644
 7221SOL    HW222563   6.213   5.613   5.497
 7222SOL     OW22564   6.909   6.320   2.093
 7222SOL    HW122565   6.947   6.239   2.137
 7222SOL    HW222566   6.916   6.398   2.156
 7223SOL     OW22567   3.480   0.651   5.278
 7223SOL    HW122568   3.492   0.640   5.377
 7223SOL    HW222569   3.480   0.560   5.235
 7224SOL     OW22570   4.698   6.562   4.257
 7224SOL    HW122571   4.652   6.629   4.198
 7224SOL    HW222572   4.791   6.548   4.225
 7225SOL     OW22573   2.552   6.439   0.141
 7225SOL    HW122574   2.575   6.485   0.227
 7225SOL    HW222575   2.459   6.465   0.113
 7226SOL     OW22576   6.522   6.915   0.877
 7226SOL    HW122577   6.509   6.896   0.974
 7226SOL    HW222578   6.492   6.837   0.823
 7227SOL     OW22579   6.119   2.663   6.351
 7227SOL    HW122580   6.173   2.707   6.280
 7227SOL    HW222581   6.111   2.724   6.430
 7228SOL     OW22582   1.259   0.883   2.827
 7228SOL    HW122583   1.177   0.875   2.885
 7228SOL    HW222584   1.253   0.818   2.751
 7229SOL     OW22585   0.812   0.486   3.354
 7229SOL    HW122586   0.767   0.406   3.314
 7229SOL    HW222587   0.881   0.456   3.420
 7230SOL     OW22588   6.020   3.623   3.130
 7230SOL    HW122589   5.958   3.700   3.142
 7230SOL    HW222590   5.993   3.571   3.049
 7231SOL     OW22591   5.245   1.015   6.560
 7231SOL    HW122592   5.335   0.992   6.597
 7231SOL    HW222593   5.256   1.083   6.487
 7232SOL     OW22594   3.510   4.618   1.237
 7232SOL    HW122595   3.527   4.650   1.144
 7232SOL    HW222596   3.505   4.518   1.238
 7233SOL     OW22597   6.883   2.038   6.145
 7233SOL    HW122598   6.976   2.015   6.114
 7233SOL    HW222599   6.867   2.136   6.134
 7234SOL     OW22600   6.007   2.070   2.013
 7234SOL    HW122601   5.929   2.008   2.008
 7234SOL    HW222602   5.975   2.165   2.008
 7235SOL     OW22603   6.105   3.273   4.956
 7235SOL    HW122604   6.037   3.324   5.009
 7235SOL    HW222605   6.163   3.221   5.019
 7236SOL     OW22606   3.216   1.126   3.099
 7236SOL    HW122607   3.208   1.094   3.005
 7236SOL    HW222608   3.306   1.166   3.114
 7237SOL     OW22609   6.080   6.033   6.031
 7237SOL    HW122610   5.980   6.021   6.033
 7237SOL    HW222611   6.107   6.098   6.102
 7238SOL     OW22612   1.090   1.197   1.291
 7238SOL    HW122613   1.182   1.158   1.278
 7238SOL    HW222614   1.068   1.256   1.213
 7239SOL     OW22615   4.258   1.582   1.780
 7239SOL    HW122616   4.282   1.516   1.709
 7239SOL    HW222617   4.287   1.546   1.869
 7240SOL     OW22618   3.169   4.094   0.502
 7240SOL    HW122619   3.239   4.088   0.432
 7240SOL    HW222620   3.079   4.100   0.459
 7241SOL     OW22621   3.316   0.213   5.189
 7241SOL    HW122622   3.376   0.231   5.267
 7241SOL    HW222623   3.363   0.150   5.126
 7242SOL     OW22624   4.712   4.706   0.077
 7242SOL    HW122625   4.727   4.657   0.163
 7242SOL    HW222626   4.619   4.688   0.045
 7243SOL     OW22627   0.026   5.700   0.261
 7243SOL    HW122628   0.125   5.688   0.273
 7243SOL    HW222629   7.024   5.659   0.174
 7244SOL     OW22630   5.737   1.309   0.734
 7244SOL    HW122631   5.663   1.257   0.777
 7244SOL    HW222632   5.752   1.394   0.785
 7245SOL     OW22633   6.825   1.861   3.664
 7245SOL    HW122634   6.733   1.828   3.642
 7245SOL    HW222635   6.855   1.823   3.751
 7246SOL     OW22636   0.898   6.187   5.503
 7246SOL    HW122637   0.874   6.282   5.526
 7246SOL    HW222638   0.841   6.155   5.428
 7247SOL     OW22639   3.353   5.614   2.747
 7247SOL    HW122640   3.263   5.570   2.743
 7247SOL    HW222641   3.404   5.578   2.825
 7248SOL     OW22642   3.046   0.241   4.511
 7248SOL    HW122643   3.051   0.317   4.576
 7248SOL    HW222644   3.104   0.167   4.543
 7249SOL     OW22645   6.227   5.334   6.988
 7249SOL    HW122646   6.292   5.262   6.963
 7249SOL    HW222647   6.133   5.300   6.977
 7250SOL     OW22648   3.013   4.149   6.495
 7250SOL    HW122649   2.921   4.174   6.525
 7250SOL    HW222650   3.010   4.121   6.399
 7251SOL     OW22651   5.391   0.056   5.266
 7251SOL    HW122652   5.383   0.057   5.366
 7251SOL    HW222653   5.300   0.041   5.226
 7252SOL     OW22654   4.159   3.785   5.093
 7252SOL    HW122655   4.197   3.773   5.001
 7252SOL    HW222656   4.067   3.824   5.086
 7253SOL     OW22657   5.278   5.290   1.159
 7253SOL    HW122658   5.361   5.236   1.161
 7253SOL    HW222659   5.205   5.238   1.114
 7254SOL     OW22660   4.833   6.376   5.100
 7254SOL    HW122661   4.753   6.430   5.078
 7254SOL    HW222662   4.899   6.433   5.150
 7255SOL     OW22663   3.471   4.190   2.291
 7255SOL    HW122664   3.485   4.234   2.380
 7255SOL    HW222665   3.389   4.134   2.294
 7256SOL     OW22666   4.651   4.905   3.935
 7256SOL    HW122667   4.648   5.005   3.935
 7256SOL    HW222668   4.576   4.869   3.879
 7257SOL     OW22669   5.857   4.101   3.437
 7257SOL    HW122670   5.863   4.142   3.346
 7257SOL    HW222671   5.806   4.161   3.498
 7258SOL     OW22672   3.093   6.850   5.316
 7258SOL    HW122673   3.002   6.831   5.353
 7258SOL    HW222674   3.097   6.823   5.220
 7259SOL     OW22675   1.915   5.519   5.871
 7259SOL    HW122676   1.824   5.492   5.839
 7259SOL    HW222677   1.908   5.601   5.927
 7260SOL     OW22678   3.534   2.106   1.777
 7260SOL    HW122679   3.586   2.093   1.693
 7260SOL    HW222680   3.546   2.199   1.810
 7261SOL     OW22681   1.131   3.936   1.651
 7261SOL    HW122682   1.128   3.894   1.742
 7261SOL    HW222683   1.220   3.919   1.610
 7262SOL     OW22684   6.157   1.860   5.155
 7262SOL    HW122685   6.248   1.877   5.119
 7262SOL    HW222686   6.137   1.762   5.150
 7263SOL     OW22687   4.314   6.593   1.861
 7263SOL    HW122688   4.243   6.546   1.913
 7263SOL    HW222689   4.310   6.564   1.765
 7264SOL     OW22690   1.125   6.800   4.723
 7264SOL    HW122691   1.113   6.816   4.820
 7264SOL    HW222692   1.061   6.729   4.693
 7265SOL     OW22693   4.363   3.852   5.862
 7265SOL    HW122694   4.433   3.788   5.894
 7265SOL    HW222695   4.292   3.862   5.932
 7266SOL     OW22696   5.102   1.575   1.768
 7266SOL    HW122697   5.159   1.642   1.816
 7266SOL    HW222698   5.055   1.620   1.693
 7267SOL     OW22699   0.033   2.816   4.256
 7267SOL    HW122700   0.100   2.798   4.327
 7267SOL    HW222701   0.072   2.795   4.167
 7268SOL     OW22702   3.176   6.987   1.245
 7268SOL    HW122703   3.225   6.921   1.188
 7268SOL    HW222704   3.152   6.945   1.332
 7269SOL     OW22705   1.851   6.938   2.052
 7269SOL    HW122706   1.857   0.008   2.023
 7269SOL    HW222707   1.756   6.907   2.046
 7270SOL     OW22708   3.606   1.404   2.686
 7270SOL    HW122709   3.636   1.492   2.650
 7270SOL    HW222710   3.507   1.402   2.692
 7271SOL     OW22711   5.962   4.701   4.233
 7271SOL    HW122712   5.912   4.629   4.281
 7271SOL    HW222713   6.047   4.721   4.281
 7272SOL     OW22714   6.027   2.271   1.517
 7272SOL    HW122715   6.021   2.257   1.616
 7272SOL    HW222716   6.112   2.229   1.483
 7273SOL     OW22717   6.060   6.266   6.260
 7273SOL    HW122718   6.143   6.284   6.313
 7273SOL    HW222719   5.981   6.271   6.320
 7274SOL     OW22720   0.254   4.354   4.739
 7274SOL    HW122721   0.283   4.266   4.702
 7274SOL    HW222722   0.213   4.340   4.829
 7275SOL     OW22723   6.035   6.629   1.308
 7275SOL    HW122724   6.040   6.656   1.405
 7275SOL    HW222725   5.942   6.603   1.285
 7276SOL     OW22726   2.982   2.181   3.965
 7276SOL    HW122727   3.035   2.160   3.883
 7276SOL    HW222728   2.926   2.263   3.948
 7277SOL     OW22729   5.354   1.741   4.330
 7277SOL    HW122730   5.432   1.777   4.381
 7277SOL    HW222731   5.286   1.813   4.319
 7278SOL     OW22732   2.212   1.536   3.590
 7278SOL    HW122733   2.195   1.525   3.688
 7278SOL    HW222734   2.216   1.634   3.568
 7279SOL     OW22735   4.121   4.382   1.165
 7279SOL    HW122736   4.060   4.395   1.087
 7279SOL    HW222737   4.214   4.409   1.141
 7280SOL     OW22738   6.388   1.627   5.442
 7280SOL    HW122739   6.445   1.666   5.369
 7280SOL    HW222740   6.361   1.534   5.416
 7281SOL     OW22741   3.901   5.838   2.079
 7281SOL    HW122742   3.815   5.871   2.119
 7281SOL    HW222743   3.930   5.755   2.128
 7282SOL     OW22744   6.399   3.929   2.297
 7282SOL    HW122745   6.358   4.004   2.350
 7282SOL    HW222746   6.350   3.844   2.316
 7283SOL     OW22747   4.590   5.152   3.027
 7283SOL    HW122748   4.674   5.206   3.033
 7283SOL    HW222749   4.511   5.214   3.031
 7284SOL     OW22750   0.122   1.447   2.663
 7284SOL    HW122751   0.205   1.395   2.645
 7284SOL    HW222752   0.042   1.391   2.642
 7285SOL     OW22753   4.884   3.068   1.769
 7285SOL    HW122754   4.918   3.001   1.835
 7285SOL    HW222755   4.785   3.074   1.776
 7286SOL     OW22756   6.178   1.553   3.795
 7286SOL    HW122757   6.147   1.460   3.773
 7286SOL    HW222758   6.102   1.607   3.829
 7287SOL     OW22759   2.797   1.434   2.808
 7287SOL    HW122760   2.889   1.468   2.829
 7287SOL    HW222761   2.796   1.335   2.810
 7288SOL     OW22762   2.608   1.665   2.394
 7288SOL    HW122763   2.643   1.707   2.310
 7288SOL    HW222764   2.570   1.575   2.373
 7289SOL     OW22765   6.639   2.177   1.417
 7289SOL    HW122766   6.739   2.183   1.414
 7289SOL    HW222767   6.612   2.137   1.505
 7290SOL     OW22768   3.837   1.374   4.645
 7290SOL    HW122769   3.758   1.321   4.674
 7290SOL    HW222770   3.910   1.312   4.615
 7291SOL     OW22771   2.468   1.503   0.820
 7291SOL    HW122772   2.542   1.540   0.763
 7291SOL    HW222773   2.396   1.572   0.830
 7292SOL     OW22774   2.651   6.813   2.448
 7292SOL    HW122775   2.744   6.848   2.445
 7292SOL    HW222776   2.651   6.719   2.483
 7293SOL     OW22777   6.585   1.602   4.018
 7293SOL    HW122778   6.575   1.507   4.048
 7293SOL    HW222779   6.546   1.663   4.087
 7294SOL     OW22780   3.350   6.188   2.566
 7294SOL    HW122781   3.397   6.233   2.490
 7294SOL    HW222782   3.284   6.252   2.606
 7295SOL     OW22783   5.472   4.229   1.095
 7295SOL    HW122784   5.477   4.328   1.097
 7295SOL    HW222785   5.380   4.200   1.072
 7296SOL     OW22786   4.616   5.107   1.991
 7296SOL    HW122787   4.595   5.139   1.899
 7296SOL    HW222788   4.537   5.120   2.050
 7297SOL     OW22789   4.364   6.783   1.139
 7297SOL    HW122790   4.420   6.844   1.083
 7297SOL    HW222791   4.269   6.815   1.140
 7298SOL     OW22792   3.852   5.240   0.430
 7298SOL    HW122793   3.916   5.300   0.478
 7298SOL    HW222794   3.883   5.145   0.439
 7299SOL     OW22795   1.137   3.293   6.197
 7299SOL    HW122796   1.051   3.343   6.195
 7299SOL    HW222797   1.134   3.225   6.270
 7300SOL     OW22798   6.878   5.345   2.352
 7300SOL    HW122799   6.903   5.248   2.357
 7300SOL    HW222800   6.960   5.399   2.332
 7301SOL     OW22801   4.232   1.774   6.447
 7301SOL    HW122802   4.223   1.821   6.359
 7301SOL    HW222803   4.146   1.781   6.498
 7302SOL     OW22804   5.697   1.817   5.829
 7302SOL    HW122805   5.660   1.826   5.921
 7302SOL    HW222806   5.624   1.787   5.767
 7303SOL     OW22807   2.754   1.749   2.175
 7303SOL    HW122808   2.725   1.823   2.114
 7303SOL    HW222809   2.823   1.784   2.239
 7304SOL     OW22810   2.811   5.526   0.639
 7304SOL    HW122811   2.796   5.427   0.627
 7304SOL    HW222812   2.843   5.543   0.732
 7305SOL     OW22813   6.135   1.259   0.083
 7305SOL    HW122814   6.139   1.306   7.019
 7305SOL    HW222815   6.188   1.174   0.078
 7306SOL     OW22816   1.092   2.729   1.810
 7306SOL    HW122817   1.185   2.693   1.798
 7306SOL    HW222818   1.026   2.659   1.783
 7307SOL     OW22819   1.904   0.248   0.887
 7307SOL    HW122820   1.823   0.307   0.895
 7307SOL    HW222821   1.892   0.168   0.945
 7308SOL     OW22822   4.131   1.068   2.648
 7308SOL    HW122823   4.116   1.056   2.550
 7308SOL    HW222824   4.128   1.166   2.669
 7309SOL     OW22825   2.412   5.371   3.854
 7309SOL    HW122826   2.315   5.355   3.837
 7309SOL    HW222827   2.462   5.286   3.842
 7310SOL     OW22828   2.575   3.007   6.033
 7310SOL    HW122829   2.594   2.959   5.947
 7310SOL    HW222830   2.647   2.987   6.099
 7311SOL     OW22831   0.546   6.013   5.619
 7311SOL    HW122832   0.635   6.015   5.664
 7311SOL    HW222833   0.544   5.940   5.552
 7312SOL     OW22834   6.408   2.053   3.858
 7312SOL    HW122835   6.503   2.084   3.853
 7312SOL    HW222836   6.355   2.097   3.786
 7313SOL     OW22837   2.362   0.611   2.691
 7313SOL    HW122838   2.445   0.645   2.736
 7313SOL    HW222839   2.388   0.537   2.628
 7314SOL     OW22840   0.812   4.395   5.573
 7314SOL    HW122841   0.870   4.476   5.568
 7314SOL    HW222842   0.769   4.390   5.663
 7315SOL     OW22843   2.349   4.880   2.242
 7315SOL    HW122844   2.441   4.857   2.274
 7315SOL    HW222845   2.345   4.870   2.142
 7316SOL     OW22846   3.991   1.724   1.269
 7316SOL    HW122847   3.991   1.692   1.364
 7316SOL    HW222848   3.914   1.683   1.220
 7317SOL     OW22849   4.092   2.147   0.068
 7317SOL    HW122850   4.012   2.119   0.120
 7317SOL    HW222851   4.106   2.084   7.016
 7318SOL     OW22852   5.346   6.612   0.609
 7318SOL    HW122853   5.259   6.644   0.647
 7318SOL    HW222854   5.358   6.515   0.630
 7319SOL     OW22855   5.690   6.412   6.324
 7319SOL    HW122856   5.692   6.323   6.278
 7319SOL    HW222857   5.597   6.449   6.321
 7320SOL     OW22858   0.677   2.428   1.111
 7320SOL    HW122859   0.728   2.359   1.060
 7320SOL    HW222860   0.655   2.505   1.050
 7321SOL     OW22861   1.789   2.070   0.028
 7321SOL    HW122862   1.857   2.048   0.098
 7321SOL    HW222863   1.818   2.033   6.965
 7322SOL     OW22864   1.210   3.273   3.256
 7322SOL    HW122865   1.302   3.295   3.227
 7322SOL    HW222866   1.183   3.334   3.331
 7323SOL     OW22867   0.880   2.690   0.543
 7323SOL    HW122868   0.899   2.715   0.448
 7323SOL    HW222869   0.784   2.710   0.564
 7324SOL     OW22870   4.856   3.863   3.428
 7324SOL    HW122871   4.834   3.775   3.469
 7324SOL    HW222872   4.955   3.872   3.418
 7325SOL     OW22873   4.335   1.108   5.800
 7325SOL    HW122874   4.394   1.029   5.783
 7325SOL    HW222875   4.268   1.116   5.726
 7326SOL     OW22876   3.848   0.490   0.540
 7326SOL    HW122877   3.800   0.505   0.627
 7326SOL    HW222878   3.785   0.449   0.474
 7327SOL     OW22879   1.451   4.484   3.207
 7327SOL    HW122880   1.393   4.548   3.157
 7327SOL    HW222881   1.492   4.420   3.142
 7328SOL     OW22882   4.681   4.913   5.085
 7328SOL    HW122883   4.585   4.933   5.067
 7328SOL    HW222884   4.700   4.818   5.058
 7329SOL     OW22885   3.037   3.220   1.040
 7329SOL    HW122886   3.020   3.160   0.961
 7329SOL    HW222887   3.112   3.282   1.018
 7330SOL     OW22888   2.578   3.266   1.410
 7330SOL    HW122889   2.628   3.209   1.474
 7330SOL    HW222890   2.639   3.335   1.371
 7331SOL     OW22891   5.381   2.358   2.450
 7331SOL    HW122892   5.458   2.395   2.501
 7331SOL    HW222893   5.295   2.390   2.490
 7332SOL     OW22894   2.973   6.451   6.172
 7332SOL    HW122895   2.977   6.397   6.088
 7332SOL    HW222896   2.945   6.545   6.151
 7333SOL     OW22897   0.488   1.536   1.416
 7333SOL    HW122898   0.429   1.468   1.371
 7333SOL    HW222899   0.558   1.489   1.469
 7334SOL     OW22900   1.713   5.964   3.636
 7334SOL    HW122901   1.775   5.991   3.562
 7334SOL    HW222902   1.750   5.993   3.724
 7335SOL     OW22903   0.077   3.975   2.427
 7335SOL    HW122904   0.089   4.001   2.331
 7335SOL    HW222905   0.014   4.039   2.472
 7336SOL     OW22906   2.774   6.505   1.671
 7336SOL    HW122907   2.851   6.569   1.665
 7336SOL    HW222908   2.688   6.554   1.660
 7337SOL     OW22909   2.785   1.466   3.103
 7337SOL    HW122910   2.711   1.494   3.042
 7337SOL    HW222911   2.811   1.372   3.084
 7338SOL     OW22912   5.201   3.722   1.323
 7338SOL    HW122913   5.135   3.797   1.312
 7338SOL    HW222914   5.234   3.692   1.233
 7339SOL     OW22915   6.933   6.152   4.651
 7339SOL    HW122916   6.994   6.185   4.578
 7339SOL    HW222917   6.953   6.056   4.669
 7340SOL     OW22918   3.249   6.855   0.678
 7340SOL    HW122919   3.277   6.760   0.693
 7340SOL    HW222920   3.203   6.890   0.759
 7341SOL     OW22921   6.558   5.781   5.212
 7341SOL    HW122922   6.524   5.778   5.118
 7341SOL    HW222923   6.517   5.706   5.264
 7342SOL     OW22924   1.376   5.165   1.121
 7342SOL    HW122925   1.428   5.245   1.149
 7342SOL    HW222926   1.301   5.150   1.186
 7343SOL     OW22927   5.110   2.830   2.743
 7343SOL    HW122928   5.177   2.812   2.671
 7343SOL    HW222929   5.138   2.911   2.795
 7344SOL     OW22930   2.329   1.021   0.249
 7344SOL    HW122931   2.231   1.003   0.250
 7344SOL    HW222932   2.354   1.074   0.330
 7345SOL     OW22933   3.425   5.339   0.385
 7345SOL    HW122934   3.457   5.431   0.408
 7345SOL    HW222935   3.449   5.275   0.458
 7346SOL     OW22936   3.775   4.917   1.818
 7346SOL    HW122937   3.856   4.911   1.876
 7346SOL    HW222938   3.694   4.888   1.870
 7347SOL     OW22939   6.594   3.390   2.033
 7347SOL    HW122940   6.641   3.473   2.063
 7347SOL    HW222941   6.661   3.318   2.016
 7348SOL     OW22942   0.646   1.535   5.079
 7348SOL    HW122943   0.722   1.548   5.015
 7348SOL    HW222944   0.667   1.582   5.165
 7349SOL     OW22945   3.437   1.145   0.272
 7349SOL    HW122946   3.507   1.077   0.294
 7349SOL    HW222947   3.482   1.233   0.252
 7350SOL     OW22948   2.190   1.190   2.603
 7350SOL    HW122949   2.128   1.177   2.680
 7350SOL    HW222950   2.138   1.180   2.517
 7351SOL     OW22951   4.584   4.436   0.024
 7351SOL    HW122952   4.585   4.384   0.109
 7351SOL    HW222953   4.662   4.409   6.993
 7352SOL     OW22954   6.523   1.279   3.351
 7352SOL    HW122955   6.440   1.251   3.303
 7352SOL    HW222956   6.550   1.207   3.415
 7353SOL     OW22957   4.974   2.326   4.817
 7353SOL    HW122958   4.949   2.384   4.895
 7353SOL    HW222959   5.072   2.308   4.819
 7354SOL     OW22960   6.554   4.259   5.191
 7354SOL    HW122961   6.637   4.284   5.139
 7354SOL    HW222962   6.569   4.277   5.288
 7355SOL     OW22963   0.894   4.447   1.164
 7355SOL    HW122964   0.910   4.522   1.100
 7355SOL    HW222965   0.949   4.462   1.247
 7356SOL     OW22966   6.783   1.448   5.631
 7356SOL    HW122967   6.719   1.439   5.554
 7356SOL    HW222968   6.736   1.426   5.716
 7357SOL     OW22969   0.345   1.512   0.744
 7357SOL    HW122970   0.279   1.540   0.674
 7357SOL    HW222971   0.296   1.463   0.817
 7358SOL     OW22972   3.477   0.680   3.810
 7358SOL    HW122973   3.426   0.738   3.747
 7358SOL    HW222974   3.569   0.718   3.823
 7359SOL     OW22975   3.286   3.171   2.654
 7359SOL    HW122976   3.268   3.186   2.751
 7359SOL    HW222977   3.376   3.208   2.631
 7360SOL     OW22978   0.352   3.331   5.474
 7360SOL    HW122979   0.417   3.400   5.442
 7360SOL    HW222980   0.347   3.333   5.573
 7361SOL     OW22981   5.011   0.150   1.818
 7361SOL    HW122982   5.012   0.059   1.775
 7361SOL    HW222983   4.965   0.145   1.906
 7362SOL     OW22984   1.953   6.672   6.143
 7362SOL    HW122985   1.898   6.615   6.205
 7362SOL    HW222986   1.915   6.666   6.050
 7363SOL     OW22987   5.553   2.947   6.068
 7363SOL    HW122988   5.579   2.882   5.996
 7363SOL    HW222989   5.632   3.004   6.092
 7364SOL     OW22990   5.242   0.940   1.441
 7364SOL    HW122991   5.184   0.905   1.368
 7364SOL    HW222992   5.185   0.970   1.518
 7365SOL     OW22993   3.417   0.631   1.953
 7365SOL    HW122994   3.353   0.554   1.950
 7365SOL    HW222995   3.376   0.706   2.005
 7366SOL     OW22996   0.849   5.430   0.271
 7366SOL    HW122997   0.899   5.515   0.281
 7366SOL    HW222998   0.810   5.425   0.179
 7367SOL     OW22999   5.192   3.576   6.717
 7367SOL    HW123000   5.138   3.512   6.772
 7367SOL    HW223001   5.237   3.526   6.643
 7368SOL     OW23002   2.978   3.179   3.441
 7368SOL    HW123003   3.050   3.154   3.505
 7368SOL    HW223004   2.934   3.096   3.407
 7369SOL     OW23005   4.860   2.623   6.269
 7369SOL    HW123006   4.905   2.669   6.346
 7369SOL    HW223007   4.800   2.551   6.304
 7370SOL     OW23008   1.853   6.277   1.214
 7370SOL    HW123009   1.803   6.222   1.281
 7370SOL    HW223010   1.828   6.373   1.224
 7371SOL     OW23011   2.273   5.175   4.088
 7371SOL    HW123012   2.297   5.191   3.992
 7371SOL    HW223013   2.210   5.098   4.095
 7372SOL     OW23014   3.257   6.659   6.052
 7372SOL    HW123015   3.208   6.689   6.134
 7372SOL    HW223016   3.338   6.607   6.079
 7373SOL     OW23017   3.701   0.549   1.955
 7373SOL    HW123018   3.601   0.560   1.959
 7373SOL    HW223019   3.741   0.632   1.916
 7374SOL     OW23020   2.159   3.746   6.540
 7374SOL    HW123021   2.115   3.834   6.558
 7374SOL    HW223022   2.167   3.733   6.441
 7375SOL     OW23023   1.582   6.623   3.021
 7375SOL    HW123024   1.647   6.694   3.050
 7375SOL    HW223025   1.580   6.550   3.089
 7376SOL     OW23026   2.592   3.901   5.647
 7376SOL    HW123027   2.605   3.978   5.585
 7376SOL    HW223028   2.677   3.849   5.655
 7377SOL     OW23029   4.792   4.918   1.473
 7377SOL    HW123030   4.715   4.898   1.412
 7377SOL    HW223031   4.878   4.909   1.423
 7378SOL     OW23032   6.653   2.392   5.601
 7378SOL    HW123033   6.750   2.384   5.576
 7378SOL    HW223034   6.635   2.335   5.681
 7379SOL     OW23035   4.189   1.242   1.123
 7379SOL    HW123036   4.262   1.310   1.115
 7379SOL    HW223037   4.182   1.190   1.038
 7380SOL     OW23038   6.714   2.403   4.852
 7380SOL    HW123039   6.614   2.407   4.847
 7380SOL    HW223040   6.747   2.334   4.788
 7381SOL     OW23041   5.401   2.381   0.208
 7381SOL    HW123042   5.372   2.461   0.156
 7381SOL    HW223043   5.391   2.299   0.153
 7382SOL     OW23044   6.683   5.906   3.974
 7382SOL    HW123045   6.685   5.818   4.021
 7382SOL    HW223046   6.716   5.977   4.035
 7383SOL     OW23047   6.595   6.077   3.754
 7383SOL    HW123048   6.628   6.170   3.739
 7383SOL    HW223049   6.620   6.048   3.846
 7384SOL     OW23050   6.106   1.378   1.823
 7384SOL    HW123051   6.148   1.343   1.739
 7384SOL    HW223052   6.064   1.301   1.873
 7385SOL     OW23053   5.086   0.285   1.584
 7385SOL    HW123054   5.160   0.235   1.540
 7385SOL    HW223055   5.082   0.261   1.681
 7386SOL     OW23056   0.488   2.857   5.903
 7386SOL    HW123057   0.574   2.808   5.920
 7386SOL    HW223058   0.509   2.943   5.856
 7387SOL     OW23059   3.984   5.857   3.785
 7387SOL    HW123060   3.895   5.811   3.785
 7387SOL    HW223061   4.012   5.878   3.878
 7388SOL     OW23062   6.129   4.293   4.646
 7388SOL    HW123063   6.161   4.363   4.581
 7388SOL    HW223064   6.059   4.237   4.602
 7389SOL     OW23065   0.825   4.144   5.479
 7389SOL    HW123066   0.743   4.107   5.434
 7389SOL    HW223067   0.812   4.242   5.496
 7390SOL     OW23068   2.015   6.614   5.664
 7390SOL    HW123069   2.000   6.518   5.685
 7390SOL    HW223070   1.986   6.670   5.742
 7391SOL     OW23071   0.106   3.791   0.074
 7391SOL    HW123072   0.147   3.844   0.149
 7391SOL    HW223073   0.059   3.711   0.112
 7392SOL     OW23074   2.062   4.880   3.271
 7392SOL    HW123075   1.999   4.804   3.283
 7392SOL    HW223076   2.025   4.944   3.204
 7393SOL     OW23077   0.810   3.224   0.787
 7393SOL    HW123078   0.724   3.227   0.837
 7393SOL    HW223079   0.802   3.281   0.704
 7394SOL     OW23080   2.875   3.376   6.570
 7394SOL    HW123081   2.787   3.378   6.617
 7394SOL    HW223082   2.864   3.411   6.477
 7395SOL     OW23083   1.890   6.671   0.686
 7395SOL    HW123084   1.848   6.608   0.752
 7395SOL    HW223085   1.820   6.712   0.629
 7396SOL     OW23086   1.303   6.975   1.045
 7396SOL    HW123087   1.217   6.926   1.026
 7396SOL    HW223088   1.288   0.048   1.036
 7397SOL     OW23089   6.392   4.447   4.818
 7397SOL    HW123090   6.467   4.511   4.798
 7397SOL    HW223091   6.305   4.488   4.788
 7398SOL     OW23092   4.097   5.942   3.078
 7398SOL    HW123093   4.045   5.885   3.141
 7398SOL    HW223094   4.192   5.911   3.075
 7399SOL     OW23095   5.177   4.245   4.993
 7399SOL    HW123096   5.091   4.293   4.975
 7399SOL    HW223097   5.247   4.311   5.018
 7400SOL     OW23098   2.437   5.078   6.842
 7400SOL    HW123099   2.425   4.979   6.832
 7400SOL    HW223100   2.530   5.097   6.875
 7401SOL     OW23101   5.207   1.490   4.257
 7401SOL    HW123102   5.264   1.561   4.297
 7401SOL    HW223103   5.265   1.414   4.227
 7402SOL     OW23104   2.078   0.064   3.336
 7402SOL    HW123105   2.052   0.065   3.239
 7402SOL    HW223106   2.151   7.021   3.350
 7403SOL     OW23107   1.915   3.602   1.687
 7403SOL    HW123108   1.886   3.626   1.595
 7403SOL    HW223109   2.015   3.588   1.688
 7404SOL     OW23110   1.034   1.532   2.820
 7404SOL    HW123111   1.014   1.435   2.808
 7404SOL    HW223112   1.107   1.543   2.887
 7405SOL     OW23113   2.982   4.667   5.848
 7405SOL    HW123114   3.073   4.625   5.849
 7405SOL    HW223115   2.982   4.747   5.908
 7406SOL     OW23116   0.418   5.503   2.035
 7406SOL    HW123117   0.450   5.571   2.100
 7406SOL    HW223118   0.318   5.509   2.027
 7407SOL     OW23119   1.662   0.706   5.508
 7407SOL    HW123120   1.640   0.648   5.586
 7407SOL    HW223121   1.757   0.734   5.513
 7408SOL     OW23122   0.520   3.517   5.350
 7408SOL    HW123123   0.477   3.589   5.296
 7408SOL    HW223124   0.598   3.480   5.301
 7409SOL     OW23125   2.921   5.711   6.132
 7409SOL    HW123126   2.897   5.653   6.210
 7409SOL    HW223127   2.946   5.654   6.054
 7410SOL     OW23128   5.834   5.287   0.925
 7410SOL    HW123129   5.925   5.245   0.926
 7410SOL    HW223130   5.792   5.276   0.835
 7411SOL     OW23131   4.795   5.353   5.880
 7411SOL    HW123132   4.697   5.349   5.896
 7411SOL    HW223133   4.827   5.264   5.847
 7412SOL     OW23134   1.161   2.424   0.046
 7412SOL    HW123135   1.143   2.430   6.973
 7412SOL    HW223136   1.259   2.435   0.062
 7413SOL     OW23137   6.924   3.231   4.133
 7413SOL    HW123138   7.006   3.212   4.186
 7413SOL    HW223139   6.852   3.265   4.193
 7414SOL     OW23140   6.357   5.528   2.965
 7414SOL    HW123141   6.345   5.627   2.965
 7414SOL    HW223142   6.305   5.487   3.039
 7415SOL     OW23143   2.752   1.764   2.623
 7415SOL    HW123144   2.704   1.711   2.553
 7415SOL    HW223145   2.748   1.861   2.600
 7416SOL     OW23146   5.554   6.974   4.000
 7416SOL    HW123147   5.482   6.909   3.975
 7416SOL    HW223148   5.638   6.924   4.021
 7417SOL     OW23149   1.007   6.193   0.381
 7417SOL    HW123150   0.914   6.226   0.366
 7417SOL    HW223151   1.025   6.114   0.321
 7418SOL     OW23152   1.167   3.598   0.349
 7418SOL    HW123153   1.265   3.608   0.332
 7418SOL    HW223154   1.127   3.689   0.366
 7419SOL     OW23155   5.336   0.833   4.909
 7419SOL    HW123156   5.397   0.907   4.883
 7419SOL    HW223157   5.242   0.855   4.884
 7420SOL     OW23158   6.916   5.681   2.002
 7420SOL    HW123159   6.856   5.691   1.923
 7420SOL    HW223160   6.862   5.654   2.082
 7421SOL     OW23161   4.238   2.992   1.523
 7421SOL    HW123162   4.208   2.908   1.570
 7421SOL    HW223163   4.316   3.031   1.572
 7422SOL     OW23164   1.180   2.864   0.917
 7422SOL    HW123165   1.218   2.948   0.880
 7422SOL    HW223166   1.245   2.789   0.905
 7423SOL     OW23167   2.098   5.707   6.998
 7423SOL    HW123168   2.186   5.661   7.006
 7423SOL    HW223169   2.051   5.675   6.915
 7424SOL     OW23170   5.814   1.385   4.550
 7424SOL    HW123171   5.885   1.372   4.481
 7424SOL    HW223172   5.811   1.481   4.577
 7425SOL     OW23173   4.123   6.999   5.902
 7425SOL    HW123174   4.035   6.993   5.855
 7425SOL    HW223175   4.140   6.913   5.951
 7426SOL     OW23176   0.652   1.221   0.082
 7426SOL    HW123177   0.602   1.156   0.025
 7426SOL    HW223178   0.732   1.175   0.122
 7427SOL     OW23179   4.281   5.432   4.402
 7427SOL    HW123180   4.218   5.441   4.479
 7427SOL    HW223181   4.374   5.454   4.432
 7428SOL     OW23182   2.771   1.744   5.822
 7428SOL    HW123183   2.811   1.687   5.750
 7428SOL    HW223184   2.733   1.685   5.894
 7429SOL     OW23185   6.760   6.725   3.487
 7429SOL    HW123186   6.818   6.789   3.537
 7429SOL    HW223187   6.669   6.765   3.473
 7430SOL     OW23188   0.690   4.272   4.765
 7430SOL    HW123189   0.790   4.272   4.768
 7430SOL    HW223190   0.656   4.355   4.809
 7431SOL     OW23191   1.081   4.705   2.641
 7431SOL    HW123192   1.093   4.780   2.576
 7431SOL    HW223193   1.013   4.641   2.605
 7432SOL     OW23194   1.056   6.010   5.274
 7432SOL    HW123195   0.971   6.061   5.264
 7432SOL    HW223196   1.133   6.074   5.283
 7433SOL     OW23197   6.589   5.732   1.150
 7433SOL    HW123198   6.628   5.695   1.234
 7433SOL    HW223199   6.609   5.671   1.074
 7434SOL     OW23200   4.560   0.028   6.679
 7434SOL    HW123201   4.487   6.988   6.659
 7434SOL    HW223202   4.604   0.004   6.765
 7435SOL     OW23203   1.683   5.926   0.579
 7435SOL    HW123204   1.751   5.997   0.592
 7435SOL    HW223205   1.645   5.900   0.669
 7436SOL     OW23206   5.309   3.088   6.835
 7436SOL    HW123207   5.234   3.038   6.878
 7436SOL    HW223208   5.278   3.128   6.749
 7437SOL     OW23209   0.181   5.634   6.050
 7437SOL    HW123210   0.197   5.546   6.005
 7437SOL    HW223211   0.263   5.661   6.100
 7438SOL     OW23212   6.095   4.410   1.848
 7438SOL    HW123213   6.069   4.503   1.821
 7438SOL    HW223214   6.072   4.346   1.775
 7439SOL     OW23215   1.476   6.450   3.702
 7439SOL    HW123216   1.460   6.359   3.739
 7439SOL    HW223217   1.509   6.443   3.608
 7440SOL     OW23218   0.818   2.415   4.065
 7440SOL    HW123219   0.865   2.362   4.135
 7440SOL    HW223220   0.799   2.357   3.986
 7441SOL     OW23221   5.544   0.164   3.851
 7441SOL    HW123222   5.531   0.082   3.906
 7441SOL    HW223223   5.568   0.241   3.911
 7442SOL     OW23224   1.511   1.189   7.018
 7442SOL    HW123225   1.571   1.117   0.028
 7442SOL    HW223226   1.535   1.209   6.923
 7443SOL     OW23227   6.874   1.371   0.770
 7443SOL    HW123228   6.918   1.364   0.859
 7443SOL    HW223229   6.911   1.300   0.709
 7444SOL     OW23230   0.249   2.499   6.421
 7444SOL    HW123231   0.270   2.564   6.347
 7444SOL    HW223232   0.207   2.417   6.383
 7445SOL     OW23233   5.630   3.032   2.530
 7445SOL    HW123234   5.538   3.045   2.568
 7445SOL    HW223235   5.637   2.938   2.494
 7446SOL     OW23236   6.999   3.486   1.017
 7446SOL    HW123237   6.967   3.416   1.081
 7446SOL    HW223238   6.971   3.576   1.049
 7447SOL     OW23239   0.312   4.414   6.545
 7447SOL    HW123240   0.297   4.318   6.521
 7447SOL    HW223241   0.343   4.465   6.465
 7448SOL     OW23242   6.886   6.451   5.896
 7448SOL    HW123243   6.918   6.483   5.806
 7448SOL    HW223244   6.794   6.486   5.912
 7449SOL     OW23245   4.374   1.050   1.782
 7449SOL    HW123246   4.408   0.975   1.838
 7449SOL    HW223247   4.395   1.137   1.824
 7450SOL     OW23248   3.160   0.225   3.000
 7450SOL    HW123249   3.127   0.283   3.075
 7450SOL    HW223250   3.260   0.227   2.998
 7451SOL     OW23251   1.452   0.937   3.315
 7451SOL    HW123252   1.520   0.950   3.244
 7451SOL    HW223253   1.421   0.841   3.314
 7452SOL     OW23254   1.520   6.774   4.756
 7452SOL    HW123255   1.451   6.770   4.827
 7452SOL    HW223256   1.608   6.742   4.792
 7453SOL     OW23257   5.150   5.900   4.990
 7453SOL    HW123258   5.084   5.973   5.000
 7453SOL    HW223259   5.143   5.837   5.068
 7454SOL     OW23260   0.672   3.346   0.587
 7454SOL    HW123261   0.608   3.303   0.650
 7454SOL    HW223262   0.622   3.404   0.523
 7455SOL     OW23263   5.649   1.505   0.279
 7455SOL    HW123264   5.561   1.464   0.302
 7455SOL    HW223265   5.712   1.495   0.356
 7456SOL     OW23266   1.865   3.187   5.699
 7456SOL    HW123267   1.875   3.266   5.638
 7456SOL    HW223268   1.902   3.106   5.655
 7457SOL     OW23269   5.948   0.340   6.078
 7457SOL    HW123270   5.945   0.423   6.021
 7457SOL    HW223271   6.038   0.297   6.068
 7458SOL     OW23272   2.425   0.835   0.427
 7458SOL    HW123273   2.402   0.881   0.342
 7458SOL    HW223274   2.521   0.851   0.449
 7459SOL     OW23275   4.374   0.411   4.876
 7459SOL    HW123276   4.370   0.331   4.816
 7459SOL    HW223277   4.334   0.389   4.964
 7460SOL     OW23278   1.063   5.275   0.161
 7460SOL    HW123279   1.048   5.182   0.196
 7460SOL    HW223280   0.988   5.334   0.190
 7461SOL     OW23281   4.680   0.311   4.041
 7461SOL    HW123282   4.696   0.410   4.042
 7461SOL    HW223283   4.614   0.288   3.970
 7462SOL     OW23284   1.824   1.560   2.275
 7462SOL    HW123285   1.727   1.573   2.256
 7462SOL    HW223286   1.873   1.542   2.189
 7463SOL     OW23287   3.376   3.462   2.039
 7463SOL    HW123288   3.353   3.525   2.113
 7463SOL    HW223289   3.432   3.387   2.075
 7464SOL     OW23290   5.428   6.451   6.241
 7464SOL    HW123291   5.360   6.378   6.242
 7464SOL    HW223292   5.444   6.481   6.147
 7465SOL     OW23293   3.239   0.700   1.302
 7465SOL    HW123294   3.145   0.728   1.319
 7465SOL    HW223295   3.298   0.732   1.376
 7466SOL     OW23296   0.896   0.337   6.413
 7466SOL    HW123297   0.931   0.278   6.485
 7466SOL    HW223298   0.796   0.332   6.411
 7467SOL     OW23299   6.073   1.917   1.289
 7467SOL    HW123300   6.127   1.977   1.347
 7467SOL    HW223301   5.987   1.963   1.264
 7468SOL     OW23302   6.393   3.743   3.725
 7468SOL    HW123303   6.402   3.647   3.696
 7468SOL    HW223304   6.329   3.748   3.801
 7469SOL     OW23305   6.835   1.290   1.940
 7469SOL    HW123306   6.868   1.372   1.986
 7469SOL    HW223307   6.895   1.213   1.961
 7470SOL     OW23308   0.298   2.515   2.307
 7470SOL    HW123309   0.209   2.558   2.291
 7470SOL    HW223310   0.365   2.585   2.333
 7471SOL     OW23311   6.096   5.641   6.141
 7471SOL    HW123312   6.054   5.590   6.065
 7471SOL    HW223313   6.108   5.579   6.218
 7472SOL     OW23314   3.230   5.700   3.392
 7472SOL    HW123315   3.272   5.784   3.428
 7472SOL    HW223316   3.217   5.635   3.467
 7473SOL     OW23317   0.322   3.558   5.042
 7473SOL    HW123318   0.342   3.569   4.945
 7473SOL    HW223319   0.270   3.474   5.056
 7474SOL     OW23320   4.091   0.802   2.659
 7474SOL    HW123321   4.037   0.777   2.740
 7474SOL    HW223322   4.119   0.898   2.666
 7475SOL     OW23323   4.319   1.581   0.135
 7475SOL    HW123324   4.236   1.633   0.112
 7475SOL    HW223325   4.319   1.495   0.085
 7476SOL     OW23326   3.075   6.939   5.039
 7476SOL    HW123327   3.076   0.014   5.033
 7476SOL    HW223328   3.120   6.901   4.958
 7477SOL     OW23329   4.802   2.215   3.414
 7477SOL    HW123330   4.873   2.265   3.465
 7477SOL    HW223331   4.833   2.200   3.320
 7478SOL     OW23332   2.092   4.965   0.850
 7478SOL    HW123333   2.084   5.064   0.835
 7478SOL    HW223334   2.059   4.916   0.769
 7479SOL     OW23335   4.640   0.569   6.115
 7479SOL    HW123336   4.606   0.630   6.044
 7479SOL    HW223337   4.740   0.565   6.111
 7480SOL     OW23338   0.053   5.008   1.295
 7480SOL    HW123339   0.083   4.919   1.259
 7480SOL    HW223340   6.978   5.013   1.292
 7481SOL     OW23341   6.289   5.346   0.432
 7481SOL    HW123342   6.264   5.426   0.486
 7481SOL    HW223343   6.208   5.312   0.384
 7482SOL     OW23344   4.869   0.241   4.234
 7482SOL    HW123345   4.817   0.280   4.158
 7482SOL    HW223346   4.806   0.207   4.304
 7483SOL     OW23347   3.409   0.352   6.383
 7483SOL    HW123348   3.378   0.397   6.299
 7483SOL    HW223349   3.509   0.345   6.381
 7484SOL     OW23350   2.614   0.177   2.271
 7484SOL    HW123351   2.562   0.251   2.227
 7484SOL    HW223352   2.712   0.192   2.257
 7485SOL     OW23353   1.631   6.996   6.475
 7485SOL    HW123354   1.636   0.029   6.394
 7485SOL    HW223355   1.601   6.904   6.449
 7486SOL     OW23356   1.819   0.294   5.376
 7486SOL    HW123357   1.889   0.243   5.327
 7486SOL    HW223358   1.742   0.313   5.315
 7487SOL     OW23359   4.278   5.154   3.551
 7487SOL    HW123360   4.231   5.235   3.513
 7487SOL    HW223361   4.371   5.150   3.514
 7488SOL     OW23362   3.681   0.891   5.896
 7488SOL    HW123363   3.742   0.967   5.918
 7488SOL    HW223364   3.708   0.851   5.808
 7489SOL     OW23365   6.402   3.685   3.331
 7489SOL    HW123366   6.356   3.608   3.287
 7489SOL    HW223367   6.475   3.652   3.391
 7490SOL     OW23368   5.515   1.502   1.778
 7490SOL    HW123369   5.521   1.575   1.845
 7490SOL    HW223370   5.605   1.460   1.766
 7491SOL     OW23371   6.554   5.735   6.544
 7491SOL    HW123372   6.527   5.810   6.605
 7491SOL    HW223373   6.612   5.770   6.471
 7492SOL     OW23374   2.421   2.648   4.394
 7492SOL    HW123375   2.454   2.594   4.472
 7492SOL    HW223376   2.464   2.614   4.310
 7493SOL     OW23377   5.488   3.621   6.917
 7493SOL    HW123378   5.434   3.638   6.999
 7493SOL    HW223379   5.427   3.606   6.839
 7494SOL     OW23380   4.857   1.986   1.381
 7494SOL    HW123381   4.770   2.001   1.428
 7494SOL    HW223382   4.863   2.046   1.302
 7495SOL     OW23383   0.182   1.662   2.499
 7495SOL    HW123384   0.252   1.721   2.540
 7495SOL    HW223385   0.167   1.582   2.557
 7496SOL     OW23386   1.356   4.682   5.564
 7496SOL    HW123387   1.444   4.729   5.559
 7496SOL    HW223388   1.365   4.591   5.522
 7497SOL     OW23389   2.296   4.855   1.428
 7497SOL    HW123390   2.360   4.778   1.420
 7497SOL    HW223391   2.346   4.938   1.452
 7498SOL     OW23392   4.452   1.310   4.464
 7498SOL    HW123393   4.413   1.402   4.453
 7498SOL    HW223394   4.431   1.256   4.383
 7499SOL     OW23395   4.815   5.730   3.811
 7499SOL    HW123396   4.781   5.734   3.717
 7499SOL    HW223397   4.914   5.717   3.809
 7500SOL     OW23398   5.323   4.590   1.579
 7500SOL    HW123399   5.233   4.550   1.589
 7500SOL    HW223400   5.350   4.635   1.664
 7501SOL     OW23401   6.834   4.355   3.606
 7501SOL    HW123402   6.819   4.321   3.513
 7501SOL    HW223403   6.796   4.446   3.615
 7502SOL     OW23404   2.134   1.526   4.628
 7502SOL    HW123405   2.074   1.462   4.580
 7502SOL    HW223406   2.080   1.599   4.669
 7503SOL     OW23407   2.599   2.688   6.127
 7503SOL    HW123408   2.526   2.686   6.195
 7503SOL    HW223409   2.560   2.690   6.035
 7504SOL     OW23410   4.219   5.682   3.912
 7504SOL    HW123411   4.166   5.658   3.831
 7504SOL    HW223412   4.314   5.701   3.886
 7505SOL     OW23413   1.212   1.499   4.857
 7505SOL    HW123414   1.262   1.581   4.829
 7505SOL    HW223415   1.159   1.520   4.939
 7506SOL     OW23416   3.846   1.612   3.519
 7506SOL    HW123417   3.945   1.620   3.506
 7506SOL    HW223418   3.799   1.667   3.451
 7507SOL     OW23419   1.117   6.059   5.807
 7507SOL    HW123420   1.114   6.078   5.709
 7507SOL    HW223421   1.125   5.960   5.822
 7508SOL     OW23422   4.503   0.188   3.904
 7508SOL    HW123423   4.409   0.223   3.902
 7508SOL    HW223424   4.536   0.178   3.810
 7509SOL     OW23425   4.943   3.670   5.534
 7509SOL    HW123426   4.997   3.721   5.601
 7509SOL    HW223427   4.910   3.586   5.576
 7510SOL     OW23428   3.819   4.145   4.896
 7510SOL    HW123429   3.826   4.241   4.868
 7510SOL    HW223430   3.854   4.135   4.989
 7511SOL     OW23431   1.434   0.989   2.493
 7511SOL    HW123432   1.473   1.081   2.485
 7511SOL    HW223433   1.485   0.926   2.435
 7512SOL     OW23434   2.185   2.710   1.733
 7512SOL    HW123435   2.100   2.753   1.701
 7512SOL    HW223436   2.236   2.675   1.654
 7513SOL     OW23437   1.177   2.824   6.720
 7513SOL    HW123438   1.215   2.916   6.723
 7513SOL    HW223439   1.088   2.824   6.765
 7514SOL     OW23440   2.726   6.125   3.310
 7514SOL    HW123441   2.783   6.066   3.366
 7514SOL    HW223442   2.631   6.095   3.316
 7515SOL     OW23443   6.200   5.207   2.643
 7515SOL    HW123444   6.209   5.148   2.722
 7515SOL    HW223445   6.108   5.246   2.640
 7516SOL     OW23446   0.754   0.749   3.021
 7516SOL    HW123447   0.797   0.754   3.111
 7516SOL    HW223448   0.686   0.821   3.012
 7517SOL     OW23449   0.519   4.003   1.436
 7517SOL    HW123450   0.618   3.988   1.428
 7517SOL    HW223451   0.482   3.946   1.510
 7518SOL     OW23452   4.707   5.762   3.576
 7518SOL    HW123453   4.757   5.684   3.538
 7518SOL    HW223454   4.637   5.728   3.640
 7519SOL     OW23455   2.193   5.728   4.004
 7519SOL    HW123456   2.252   5.805   4.029
 7519SOL    HW223457   2.178   5.728   3.905
 7520SOL     OW23458   2.238   0.125   4.607
 7520SOL    HW123459   2.191   0.173   4.532
 7520SOL    HW223460   2.219   0.027   4.601
 7521SOL     OW23461   5.318   4.340   5.984
 7521SOL    HW123462   5.228   4.381   6.003
 7521SOL    HW223463   5.357   4.385   5.904
 7522SOL     OW23464   1.714   0.836   1.843
 7522SOL    HW123465   1.799   0.889   1.840
 7522SOL    HW223466   1.651   0.877   1.909
 7523SOL     OW23467   6.225   6.655   6.480
 7523SOL    HW123468   6.132   6.632   6.506
 7523SOL    HW223469   6.235   6.755   6.476
 7524SOL     OW23470   6.699   1.534   4.492
 7524SOL    HW123471   6.612   1.540   4.542
 7524SOL    HW223472   6.715   1.619   4.443
 7525SOL     OW23473   1.684   6.731   1.083
 7525SOL    HW123474   1.692   6.825   1.115
 7525SOL    HW223475   1.653   6.673   1.159
 7526SOL     OW23476   3.449   3.193   4.996
 7526SOL    HW123477   3.415   3.275   4.949
 7526SOL    HW223478   3.523   3.152   4.942
 7527SOL     OW23479   5.419   4.541   2.410
 7527SOL    HW123480   5.501   4.547   2.467
 7527SOL    HW223481   5.345   4.499   2.462
 7528SOL     OW23482   6.457   4.121   6.272
 7528SOL    HW123483   6.418   4.106   6.363
 7528SOL    HW223484   6.446   4.039   6.217
 7529SOL     OW23485   2.997   0.575   5.845
 7529SOL    HW123486   2.965   0.657   5.798
 7529SOL    HW223487   2.923   0.508   5.850
 7530SOL     OW23488   0.338   3.496   2.231
 7530SOL    HW123489   0.329   3.595   2.243
 7530SOL    HW223490   0.247   3.455   2.224
 7531SOL     OW23491   3.441   1.984   3.219
 7531SOL    HW123492   3.410   2.067   3.172
 7531SOL    HW223493   3.491   2.009   3.302
 7532SOL     OW23494   5.027   5.050   2.318
 7532SOL    HW123495   5.098   5.011   2.259
 7532SOL    HW223496   4.974   4.975   2.360
 7533SOL     OW23497   3.840   0.173   4.688
 7533SOL    HW123498   3.908   0.113   4.730
 7533SOL    HW223499   3.802   0.235   4.757
 7534SOL     OW23500   4.927   0.143   4.572
 7534SOL    HW123501   4.928   0.078   4.648
 7534SOL    HW223502   4.833   0.154   4.539
 7535SOL     OW23503   3.219   3.629   6.368
 7535SOL    HW123504   3.234   3.608   6.465
 7535SOL    HW223505   3.130   3.673   6.357
 7536SOL     OW23506   3.512   6.069   3.954
 7536SOL    HW123507   3.466   6.132   3.891
 7536SOL    HW223508   3.568   6.005   3.901
 7537SOL     OW23509   2.418   4.739   6.165
 7537SOL    HW123510   2.411   4.671   6.092
 7537SOL    HW223511   2.348   4.720   6.234
 7538SOL     OW23512   3.568   3.347   2.635
 7538SOL    HW123513   3.518   3.418   2.682
 7538SOL    HW223514   3.665   3.354   2.658
 7539SOL     OW23515   1.991   2.719   4.512
 7539SOL    HW123516   1.977   2.816   4.533
 7539SOL    HW223517   2.053   2.678   4.579
 7540SOL     OW23518   2.174   1.522   0.474
 7540SOL    HW123519   2.197   1.589   0.404
 7540SOL    HW223520   2.151   1.569   0.559
 7541SOL     OW23521   6.671   2.669   5.629
 7541SOL    HW123522   6.703   2.688   5.722
 7541SOL    HW223523   6.609   2.590   5.630
 7542SOL     OW23524   1.835   0.115   6.789
 7542SOL    HW123525   1.916   0.060   6.766
 7542SOL    HW223526   1.753   0.063   6.768
 7543SOL     OW23527   3.918   3.116   6.769
 7543SOL    HW123528   4.009   3.129   6.729
 7543SOL    HW223529   3.921   3.047   6.840
 7544SOL     OW23530   1.844   2.017   2.965
 7544SOL    HW123531   1.746   2.017   2.945
 7544SOL    HW223532   1.867   2.096   3.021
 7545SOL     OW23533   5.361   6.565   4.180
 7545SOL    HW123534   5.321   6.656   4.189
 7545SOL    HW223535   5.453   6.573   4.142
 7546SOL     OW23536   4.814   0.508   6.596
 7546SOL    HW123537   4.831   0.557   6.681
 7546SOL    HW223538   4.724   0.463   6.602
 7547SOL     OW23539   3.310   0.289   0.122
 7547SOL    HW123540   3.241   0.296   0.194
 7547SOL    HW223541   3.353   0.199   0.126
 7548SOL     OW23542   1.339   2.555   1.353
 7548SOL    HW123543   1.373   2.587   1.441
 7548SOL    HW223544   1.400   2.485   1.317
 7549SOL     OW23545   6.233   2.298   2.045
 7549SOL    HW123546   6.147   2.260   2.077
 7549SOL    HW223547   6.309   2.255   2.093
 7550SOL     OW23548   1.938   5.431   1.061
 7550SOL    HW123549   1.906   5.364   0.994
 7550SOL    HW223550   1.869   5.503   1.070
 7551SOL     OW23551   4.687   3.946   6.462
 7551SOL    HW123552   4.780   3.981   6.454
 7551SOL    HW223553   4.661   3.899   6.378
 7552SOL     OW23554   3.617   5.255   4.025
 7552SOL    HW123555   3.626   5.162   3.991
 7552SOL    HW223556   3.699   5.307   4.001
 7553SOL     OW23557   4.260   4.663   5.747
 7553SOL    HW123558   4.272   4.664   5.846
 7553SOL    HW223559   4.315   4.590   5.708
 7554SOL     OW23560   6.387   1.100   1.136
 7554SOL    HW123561   6.485   1.083   1.148
 7554SOL    HW223562   6.372   1.162   1.059
 7555SOL     OW23563   0.943   5.806   5.682
 7555SOL    HW123564   0.955   5.791   5.584
 7555SOL    HW223565   0.871   5.874   5.697
 7556SOL     OW23566   0.067   3.089   4.271
 7556SOL    HW123567   0.156   3.124   4.300
 7556SOL    HW223568   0.060   2.992   4.295
 7557SOL     OW23569   4.619   3.774   0.256
 7557SOL    HW123570   4.593   3.871   0.262
 7557SOL    HW223571   4.694   3.764   0.190
 7558SOL     OW23572   1.578   3.322   4.021
 7558SOL    HW123573   1.568   3.367   3.933
 7558SOL    HW223574   1.488   3.302   4.059
 7559SOL     OW23575   0.530   4.682   1.240
 7559SOL    HW123576   0.566   4.664   1.148
 7559SOL    HW223577   0.450   4.741   1.233
 7560SOL     OW23578   4.202   6.624   6.738
 7560SOL    HW123579   4.130   6.692   6.755
 7560SOL    HW223580   4.163   6.532   6.741
 7561SOL     OW23581   0.755   2.810   1.087
 7561SOL    HW123582   0.671   2.862   1.069
 7561SOL    HW223583   0.766   2.740   1.017
 7562SOL     OW23584   4.941   5.590   5.485
 7562SOL    HW123585   4.849   5.608   5.449
 7562SOL    HW223586   5.009   5.623   5.419
 7563SOL     OW23587   1.975   1.120   2.421
 7563SOL    HW123588   2.034   1.112   2.341
 7563SOL    HW223589   1.927   1.034   2.436
 7564SOL     OW23590   5.162   6.158   4.116
 7564SOL    HW123591   5.141   6.180   4.212
 7564SOL    HW223592   5.255   6.122   4.111
 7565SOL     OW23593   4.558   4.432   0.905
 7565SOL    HW123594   4.515   4.353   0.862
 7565SOL    HW223595   4.643   4.405   0.949
 7566SOL     OW23596   1.778   6.071   4.700
 7566SOL    HW123597   1.699   6.055   4.641
 7566SOL    HW223598   1.778   6.166   4.730
 7567SOL     OW23599   2.872   3.251   0.324
 7567SOL    HW123600   2.791   3.242   0.381
 7567SOL    HW223601   2.927   3.329   0.357
 7568SOL     OW23602   5.156   4.370   3.080
 7568SOL    HW123603   5.233   4.354   3.018
 7568SOL    HW223604   5.182   4.345   3.173
 7569SOL     OW23605   4.250   0.121   0.617
 7569SOL    HW123606   4.194   0.074   0.686
 7569SOL    HW223607   4.196   0.193   0.574
 7570SOL     OW23608   6.406   4.865   4.828
 7570SOL    HW123609   6.477   4.811   4.783
 7570SOL    HW223610   6.354   4.807   4.890
 7571SOL     OW23611   5.206   4.036   1.991
 7571SOL    HW123612   5.254   3.989   2.065
 7571SOL    HW223613   5.116   3.994   1.977
 7572SOL     OW23614   2.345   1.946   4.347
 7572SOL    HW123615   2.388   1.925   4.435
 7572SOL    HW223616   2.352   2.045   4.329
 7573SOL     OW23617   2.300   5.750   5.147
 7573SOL    HW123618   2.256   5.697   5.220
 7573SOL    HW223619   2.245   5.744   5.064
 7574SOL     OW23620   5.049   6.231   2.628
 7574SOL    HW123621   5.083   6.139   2.645
 7574SOL    HW223622   5.123   6.289   2.594
 7575SOL     OW23623   4.384   2.351   4.937
 7575SOL    HW123624   4.365   2.337   4.840
 7575SOL    HW223625   4.297   2.355   4.988
 7576SOL     OW23626   6.120   3.386   1.075
 7576SOL    HW123627   6.166   3.472   1.097
 7576SOL    HW223628   6.155   3.314   1.136
 7577SOL     OW23629   4.531   0.241   5.465
 7577SOL    HW123630   4.557   0.149   5.436
 7577SOL    HW223631   4.587   0.269   5.543
 7578SOL     OW23632   2.562   4.562   4.481
 7578SOL    HW123633   2.491   4.491   4.487
 7578SOL    HW223634   2.584   4.578   4.385
 7579SOL     OW23635   4.014   1.637   3.023
 7579SOL    HW123636   3.987   1.548   2.986
 7579SOL    HW223637   3.935   1.680   3.067
 7580SOL     OW23638   1.738   4.181   3.324
 7580SOL    HW123639   1.802   4.106   3.315
 7580SOL    HW223640   1.674   4.162   3.399
 7581SOL     OW23641   5.814   0.538   1.028
 7581SOL    HW123642   5.878   0.594   0.976
 7581SOL    HW223643   5.725   0.539   0.982
 7582SOL     OW23644   2.735   1.269   0.875
 7582SOL    HW123645   2.748   1.317   0.962
 7582SOL    HW223646   2.661   1.313   0.824
 7583SOL     OW23647   0.327   3.759   2.260
 7583SOL    HW123648   0.417   3.794   2.235
 7583SOL    HW223649   0.300   3.795   2.350
 7584SOL     OW23650   2.260   1.251   1.453
 7584SOL    HW123651   2.339   1.244   1.515
 7584SOL    HW223652   2.267   1.181   1.382
 7585SOL     OW23653   1.617   4.784   5.570
 7585SOL    HW123654   1.634   4.820   5.662
 7585SOL    HW223655   1.686   4.717   5.547
 7586SOL     OW23656   2.310   1.076   2.049
 7586SOL    HW123657   2.386   1.129   2.011
 7586SOL    HW223658   2.306   0.987   2.004
 7587SOL     OW23659   1.769   1.132   6.308
 7587SOL    HW123660   1.706   1.096   6.377
 7587SOL    HW223661   1.861   1.095   6.324
 7588SOL     OW23662   0.143   4.084   1.339
 7588SOL    HW123663   0.066   4.085   1.275
 7588SOL    HW223664   0.222   4.040   1.296
 7589SOL     OW23665   5.839   6.104   0.401
 7589SOL    HW123666   5.922   6.070   0.358
 7589SOL    HW223667   5.812   6.190   0.357
 7590SOL     OW23668   2.042   1.102   6.251
 7590SOL    HW123669   2.102   1.029   6.283
 7590SOL    HW223670   2.075   1.136   6.163
 7591SOL     OW23671   6.633   4.883   0.353
 7591SOL    HW123672   6.696   4.883   0.431
 7591SOL    HW223673   6.539   4.876   0.386
 7592SOL     OW23674   5.475   5.491   0.272
 7592SOL    HW123675   5.527   5.407   0.283
 7592SOL    HW223676   5.411   5.501   0.349
 7593SOL     OW23677   5.809   2.681   6.382
 7593SOL    HW123678   5.824   2.780   6.383
 7593SOL    HW223679   5.856   2.639   6.459
 7594SOL     OW23680   1.388   5.955   3.973
 7594SOL    HW123681   1.380   5.863   3.936
 7594SOL    HW223682   1.315   5.970   4.040
 7595SOL     OW23683   6.177   2.970   0.074
 7595SOL    HW123684   6.232   3.053   0.064
 7595SOL    HW223685   6.236   2.893   0.100
 7596SOL     OW23686   5.123   4.616   1.932
 7596SOL    HW123687   5.085   4.685   1.994
 7596SOL    HW223688   5.218   4.598   1.956
 7597SOL     OW23689   3.223   5.268   1.570
 7597SOL    HW123690   3.159   5.343   1.585
 7597SOL    HW223691   3.316   5.303   1.564
 7598SOL     OW23692   6.318   1.132   3.224
 7598SOL    HW123693   6.340   1.143   3.128
 7598SOL    HW223694   6.299   1.035   3.244
 7599SOL     OW23695   6.627   2.248   2.021
 7599SOL    HW123696   6.542   2.221   2.067
 7599SOL    HW223697   6.617   2.238   1.923
 7600SOL     OW23698   1.842   2.066   1.643
 7600SOL    HW123699   1.874   2.156   1.612
 7600SOL    HW223700   1.919   2.015   1.682
 7601SOL     OW23701   2.631   6.376   5.324
 7601SOL    HW123702   2.671   6.318   5.253
 7601SOL    HW223703   2.597   6.460   5.282
 7602SOL     OW23704   1.966   3.569   4.865
 7602SOL    HW123705   2.031   3.516   4.920
 7602SOL    HW223706   1.927   3.509   4.795
 7603SOL     OW23707   0.725   0.523   1.781
 7603SOL    HW123708   0.645   0.528   1.840
 7603SOL    HW223709   0.769   0.434   1.793
 7604SOL     OW23710   5.112   6.309   6.590
 7604SOL    HW123711   5.111   6.217   6.552
 7604SOL    HW223712   5.019   6.337   6.612
 7605SOL     OW23713   5.726   4.493   6.136
 7605SOL    HW123714   5.683   4.574   6.096
 7605SOL    HW223715   5.663   4.416   6.132
 7606SOL     OW23716   5.908   2.148   2.298
 7606SOL    HW123717   5.917   2.146   2.198
 7606SOL    HW223718   5.855   2.228   2.325
 7607SOL     OW23719   5.329   6.794   6.892
 7607SOL    HW123720   5.304   6.887   6.921
 7607SOL    HW223721   5.315   6.731   6.969
 7608SOL     OW23722   3.503   2.845   3.382
 7608SOL    HW123723   3.560   2.872   3.304
 7608SOL    HW223724   3.427   2.909   3.392
 7609SOL     OW23725   1.322   2.996   4.556
 7609SOL    HW123726   1.386   2.924   4.528
 7609SOL    HW223727   1.325   3.070   4.489
 7610SOL     OW23728   5.060   0.207   1.220
 7610SOL    HW123729   5.008   0.122   1.221
 7610SOL    HW223730   4.997   0.284   1.234
 7611SOL     OW23731   1.907   2.023   1.286
 7611SOL    HW123732   1.994   2.017   1.333
 7611SOL    HW223733   1.887   1.937   1.241
 7612SOL     OW23734   4.325   1.283   3.005
 7612SOL    HW123735   4.423   1.264   3.000
 7612SOL    HW223736   4.280   1.250   2.922
 7613SOL     OW23737   4.603   1.069   2.243
 7613SOL    HW123738   4.540   1.004   2.202
 7613SOL    HW223739   4.573   1.162   2.223
 7614SOL     OW23740   4.225   1.915   0.444
 7614SOL    HW123741   4.149   1.878   0.390
 7614SOL    HW223742   4.189   1.969   0.520
 7615SOL     OW23743   3.527   5.149   5.552
 7615SOL    HW123744   3.625   5.168   5.560
 7615SOL    HW223745   3.513   5.068   5.495
 7616SOL     OW23746   6.114   4.725   4.007
 7616SOL    HW123747   6.042   4.732   4.076
 7616SOL    HW223748   6.146   4.631   4.002
 7617SOL     OW23749   3.321   5.684   2.392
 7617SOL    HW123750   3.307   5.750   2.466
 7617SOL    HW223751   3.259   5.704   2.317
 7618SOL     OW23752   1.553   2.663   0.866
 7618SOL    HW123753   1.607   2.746   0.855
 7618SOL    HW223754   1.492   2.673   0.945
 7619SOL     OW23755   5.862   3.296   5.401
 7619SOL    HW123756   5.870   3.199   5.421
 7619SOL    HW223757   5.926   3.347   5.458
 7620SOL     OW23758   3.279   6.628   1.821
 7620SOL    HW123759   3.263   6.535   1.788
 7620SOL    HW223760   3.370   6.633   1.864
 7621SOL     OW23761   2.260   1.552   1.930
 7621SOL    HW123762   2.299   1.642   1.911
 7621SOL    HW223763   2.331   1.482   1.918
 7622SOL     OW23764   4.615   2.339   0.246
 7622SOL    HW123765   4.600   2.255   0.195
 7622SOL    HW223766   4.714   2.355   0.255
 7623SOL     OW23767   5.163   0.424   5.260
 7623SOL    HW123768   5.064   0.413   5.253
 7623SOL    HW223769   5.190   0.417   5.356
 7624SOL     OW23770   0.427   0.387   3.556
 7624SOL    HW123771   0.461   0.481   3.563
 7624SOL    HW223772   0.441   0.341   3.644
 7625SOL     OW23773   4.619   0.249   1.512
 7625SOL    HW123774   4.532   0.201   1.500
 7625SOL    HW223775   4.632   0.271   1.608
 7626SOL     OW23776   1.600   5.292   4.722
 7626SOL    HW123777   1.683   5.236   4.722
 7626SOL    HW223778   1.625   5.388   4.709
 7627SOL     OW23779   6.932   2.752   0.223
 7627SOL    HW123780   6.877   2.669   0.230
 7627SOL    HW223781   7.001   2.752   0.296
 7628SOL     OW23782   3.698   1.794   1.072
 7628SOL    HW123783   3.609   1.798   1.026
 7628SOL    HW223784   3.764   1.747   1.013
 7629SOL     OW23785   6.169   5.656   3.766
 7629SOL    HW123786   6.260   5.684   3.796
 7629SOL    HW223787   6.136   5.719   3.697
 7630SOL     OW23788   6.250   0.625   2.433
 7630SOL    HW123789   6.311   0.617   2.512
 7630SOL    HW223790   6.193   0.707   2.443
 7631SOL     OW23791   0.506   2.330   3.755
 7631SOL    HW123792   0.444   2.252   3.754
 7631SOL    HW223793   0.492   2.383   3.839
 7632SOL     OW23794   4.492   1.661   6.762
 7632SOL    HW123795   4.504   1.760   6.766
 7632SOL    HW223796   4.480   1.632   6.667
 7633SOL     OW23797   5.054   4.241   6.698
 7633SOL    HW123798   5.105   4.323   6.722
 7633SOL    HW223799   5.098   4.161   6.739
 7634SOL     OW23800   0.936   1.699   2.240
 7634SOL    HW123801   0.910   1.670   2.148
 7634SOL    HW223802   0.943   1.619   2.300
 7635SOL     OW23803   2.877   4.766   5.623
 7635SOL    HW123804   2.923   4.787   5.537
 7635SOL    HW223805   2.938   4.716   5.683
 7636SOL     OW23806   1.362   0.429   3.980
 7636SOL    HW123807   1.339   0.452   4.075
 7636SOL    HW223808   1.460   0.416   3.971
 7637SOL     OW23809   1.832   5.931   4.285
 7637SOL    HW123810   1.877   5.861   4.228
 7637SOL    HW223811   1.752   5.967   4.236
 7638SOL     OW23812   4.675   4.834   2.016
 7638SOL    HW123813   4.625   4.826   2.102
 7638SOL    HW223814   4.656   4.924   1.975
 7639SOL     OW23815   0.968   1.783   4.422
 7639SOL    HW123816   1.015   1.753   4.339
 7639SOL    HW223817   0.973   1.711   4.491
 7640SOL     OW23818   2.676   2.385   6.820
 7640SOL    HW123819   2.776   2.378   6.821
 7640SOL    HW223820   2.645   2.394   6.725
 7641SOL     OW23821   6.467   3.658   2.857
 7641SOL    HW123822   6.537   3.673   2.787
 7641SOL    HW223823   6.486   3.573   2.905
 7642SOL     OW23824   3.080   1.535   2.856
 7642SOL    HW123825   3.096   1.527   2.758
 7642SOL    HW223826   3.058   1.630   2.878
 7643SOL     OW23827   4.726   2.852   2.899
 7643SOL    HW123828   4.775   2.881   2.982
 7643SOL    HW223829   4.674   2.769   2.919
 7644SOL     OW23830   0.172   3.555   3.367
 7644SOL    HW123831   0.217   3.498   3.297
 7644SOL    HW223832   0.075   3.564   3.345
 7645SOL     OW23833   4.989   3.909   6.579
 7645SOL    HW123834   4.988   3.905   6.679
 7645SOL    HW223835   4.931   3.836   6.543
 7646SOL     OW23836   1.682   1.906   2.571
 7646SOL    HW123837   1.593   1.936   2.535
 7646SOL    HW223838   1.740   1.876   2.496
 7647SOL     OW23839   2.114   4.221   1.491
 7647SOL    HW123840   2.030   4.246   1.443
 7647SOL    HW223841   2.192   4.226   1.428
 7648SOL     OW23842   4.152   0.864   3.480
 7648SOL    HW123843   4.062   0.836   3.447
 7648SOL    HW223844   4.172   0.817   3.566
 7649SOL     OW23845   2.999   0.739   1.359
 7649SOL    HW123846   2.951   0.670   1.412
 7649SOL    HW223847   2.967   0.830   1.385
 7650SOL     OW23848   6.258   4.813   2.609
 7650SOL    HW123849   6.276   4.867   2.692
 7650SOL    HW223850   6.298   4.722   2.619
 7651SOL     OW23851   3.886   1.503   6.206
 7651SOL    HW123852   3.815   1.474   6.142
 7651SOL    HW223853   3.868   1.597   6.237
 7652SOL     OW23854   1.048   2.765   2.691
 7652SOL    HW123855   1.115   2.707   2.736
 7652SOL    HW223856   1.087   2.806   2.609
 7653SOL     OW23857   3.249   2.582   1.328
 7653SOL    HW123858   3.303   2.499   1.322
 7653SOL    HW223859   3.288   2.652   1.269
 7654SOL     OW23860   4.860   3.643   3.600
 7654SOL    HW123861   4.881   3.555   3.642
 7654SOL    HW223862   4.866   3.715   3.669
 7655SOL     OW23863   4.697   6.354   5.792
 7655SOL    HW123864   4.623   6.409   5.829
 7655SOL    HW223865   4.766   6.413   5.752
 7656SOL     OW23866   1.118   6.432   4.883
 7656SOL    HW123867   1.160   6.341   4.889
 7656SOL    HW223868   1.107   6.470   4.975
 7657SOL     OW23869   4.397   1.134   4.261
 7657SOL    HW123870   4.489   1.096   4.262
 7657SOL    HW223871   4.331   1.063   4.237
 7658SOL     OW23872   3.918   0.495   5.942
 7658SOL    HW123873   3.922   0.528   5.847
 7658SOL    HW223874   3.962   0.405   5.947
 7659SOL     OW23875   5.711   0.048   1.029
 7659SOL    HW123876   5.718   0.044   0.929
 7659SOL    HW223877   5.754   0.132   1.062
 7660SOL     OW23878   5.850   4.526   4.579
 7660SOL    HW123879   5.790   4.466   4.632
 7660SOL    HW223880   5.945   4.501   4.597
 7661SOL     OW23881   5.589   3.081   3.341
 7661SOL    HW123882   5.580   3.039   3.432
 7661SOL    HW223883   5.503   3.068   3.290
 7662SOL     OW23884   0.043   5.220   1.968
 7662SOL    HW123885   0.014   5.289   1.903
 7662SOL    HW223886   0.140   5.201   1.956
 7663SOL     OW23887   0.150   5.663   0.678
 7663SOL    HW123888   0.211   5.728   0.633
 7663SOL    HW223889   0.094   5.616   0.610
 7664SOL     OW23890   2.362   5.523   4.086
 7664SOL    HW123891   2.385   5.451   4.021
 7664SOL    HW223892   2.298   5.587   4.044
 7665SOL     OW23893   2.802   6.679   5.107
 7665SOL    HW123894   2.872   6.616   5.072
 7665SOL    HW223895   2.716   6.663   5.059
 7666SOL     OW23896   1.103   1.064   1.010
 7666SOL    HW123897   1.110   1.157   1.048
 7666SOL    HW223898   1.007   1.042   0.994
 7667SOL     OW23899   4.823   5.718   6.478
 7667SOL    HW123900   4.770   5.740   6.396
 7667SOL    HW223901   4.918   5.744   6.464
 7668SOL     OW23902   3.148   3.745   1.294
 7668SOL    HW123903   3.245   3.766   1.278
 7668SOL    HW223904   3.108   3.815   1.353
 7669SOL     OW23905   4.961   6.486   4.115
 7669SOL    HW123906   4.926   6.392   4.113
 7669SOL    HW223907   5.035   6.496   4.049
 7670SOL     OW23908   1.863   4.689   0.809
 7670SOL    HW123909   1.811   4.614   0.766
 7670SOL    HW223910   1.875   4.670   0.906
 7671SOL     OW23911   5.980   2.465   4.275
 7671SOL    HW123912   6.080   2.467   4.282
 7671SOL    HW223913   5.940   2.472   4.366
 7672SOL     OW23914   5.253   0.921   2.713
 7672SOL    HW123915   5.269   1.016   2.686
 7672SOL    HW223916   5.330   0.889   2.769
 7673SOL     OW23917   0.741   4.848   1.265
 7673SOL    HW123918   0.815   4.785   1.241
 7673SOL    HW223919   0.657   4.796   1.281
 7674SOL     OW23920   5.964   0.861   4.920
 7674SOL    HW123921   6.010   0.772   4.916
 7674SOL    HW223922   5.867   0.849   4.898
 7675SOL     OW23923   4.336   6.349   3.740
 7675SOL    HW123924   4.246   6.386   3.716
 7675SOL    HW223925   4.401   6.424   3.754
 7676SOL     OW23926   1.848   0.025   1.061
 7676SOL    HW123927   1.789   0.010   1.140
 7676SOL    HW223928   1.809   7.005   0.981
 7677SOL     OW23929   2.213   3.033   2.957
 7677SOL    HW123930   2.151   3.100   2.996
 7677SOL    HW223931   2.246   2.972   3.029
 7678SOL     OW23932   6.047   6.906   0.292
 7678SOL    HW123933   6.010   6.827   0.242
 7678SOL    HW223934   5.985   6.984   0.281
 7679SOL     OW23935   1.106   5.114   5.269
 7679SOL    HW123936   1.048   5.088   5.347
 7679SOL    HW223937   1.066   5.193   5.223
 7680SOL     OW23938   4.197   2.320   6.673
 7680SOL    HW123939   4.221   2.402   6.620
 7680SOL    HW223940   4.232   2.329   6.766
 7681SOL     OW23941   2.714   1.546   0.001
 7681SOL    HW123942   2.700   1.448   7.012
 7681SOL    HW223943   2.662   1.576   0.081
 7682SOL     OW23944   3.585   6.954   1.393
 7682SOL    HW123945   3.514   7.023   1.406
 7682SOL    HW223946   3.550   6.864   1.418
 7683SOL     OW23947   5.387   1.845   3.159
 7683SOL    HW123948   5.436   1.798   3.086
 7683SOL    HW223949   5.387   1.788   3.242
 7684SOL     OW23950   4.240   2.160   6.323
 7684SOL    HW123951   4.267   2.080   6.270
 7684SOL    HW223952   4.156   2.141   6.373
 7685SOL     OW23953   3.460   3.094   0.942
 7685SOL    HW123954   3.369   3.056   0.924
 7685SOL    HW223955   3.476   3.171   0.880
 7686SOL     OW23956   3.475   0.219   4.118
 7686SOL    HW123957   3.391   0.243   4.167
 7686SOL    HW223958   3.494   0.288   4.049
 7687SOL     OW23959   4.717   4.940   5.589
 7687SOL    HW123960   4.737   4.843   5.575
 7687SOL    HW223961   4.760   4.994   5.516
 7688SOL     OW23962   6.798   6.181   4.304
 7688SOL    HW123963   6.787   6.082   4.315
 7688SOL    HW223964   6.894   6.202   4.287
 7689SOL     OW23965   3.752   6.188   4.711
 7689SOL    HW123966   3.793   6.278   4.727
 7689SOL    HW223967   3.677   6.197   4.645
 7690SOL     OW23968   0.292   5.721   3.433
 7690SOL    HW123969   0.356   5.658   3.390
 7690SOL    HW223970   0.248   5.777   3.363
 7691SOL     OW23971   5.048   3.757   4.748
 7691SOL    HW123972   5.107   3.698   4.693
 7691SOL    HW223973   5.099   3.838   4.777
 7692SOL     OW23974   2.435   6.737   2.072
 7692SOL    HW123975   2.363   6.787   2.024
 7692SOL    HW223976   2.394   6.683   2.146
 7693SOL     OW23977   5.496   1.837   6.877
 7693SOL    HW123978   5.564   1.811   6.809
 7693SOL    HW223979   5.448   1.919   6.847
 7694SOL     OW23980   6.898   5.116   4.459
 7694SOL    HW123981   6.903   5.116   4.559
 7694SOL    HW223982   6.990   5.124   4.422
 7695SOL     OW23983   4.156   0.743   0.242
 7695SOL    HW123984   4.107   0.750   0.329
 7695SOL    HW223985   4.109   0.679   0.182
 7696SOL     OW23986   0.574   3.121   5.791
 7696SOL    HW123987   0.612   3.124   5.698
 7696SOL    HW223988   0.622   3.187   5.849
 7697SOL     OW23989   3.892   1.807   1.737
 7697SOL    HW123990   3.828   1.791   1.661
 7697SOL    HW223991   3.856   1.762   1.820
 7698SOL     OW23992   6.947   3.421   5.819
 7698SOL    HW123993   6.910   3.471   5.897
 7698SOL    HW223994   6.915   3.463   5.734
 7699SOL     OW23995   2.412   4.785   6.894
 7699SOL    HW123996   2.369   4.817   6.979
 7699SOL    HW223997   2.394   4.687   6.883
 7700SOL     OW23998   5.104   6.446   4.820
 7700SOL    HW123999   5.016   6.418   4.784
 7700SOL    HW224000   5.123   6.395   4.904
 7701SOL     OW24001   5.926   1.829   4.816
 7701SOL    HW124002   5.906   1.871   4.905
 7701SOL    HW224003   6.016   1.786   4.820
 7702SOL     OW24004   2.250   6.611   6.372
 7702SOL    HW124005   2.180   6.592   6.303
 7702SOL    HW224006   2.337   6.629   6.327
 7703SOL     OW24007   0.358   1.596   6.499
 7703SOL    HW124008   0.338   1.511   6.449
 7703SOL    HW224009   0.454   1.596   6.527
 7704SOL     OW24010   4.611   4.079   0.404
 7704SOL    HW124011   4.697   4.040   0.439
 7704SOL    HW224012   4.573   4.141   0.473
 7705SOL     OW24013   2.920   5.309   5.093
 7705SOL    HW124014   2.993   5.244   5.072
 7705SOL    HW224015   2.883   5.346   5.007
 7706SOL     OW24016   6.810   1.026   4.661
 7706SOL    HW124017   6.881   1.076   4.710
 7706SOL    HW224018   6.851   0.949   4.612
 7707SOL     OW24019   0.418   5.004   6.015
 7707SOL    HW124020   0.433   4.988   6.112
 7707SOL    HW224021   0.490   5.064   5.980
 7708SOL     OW24022   4.149   6.493   4.496
 7708SOL    HW124023   4.095   6.525   4.419
 7708SOL    HW224024   4.164   6.394   4.487
 7709SOL     OW24025   3.868   2.102   1.886
 7709SOL    HW124026   3.790   2.136   1.938
 7709SOL    HW224027   3.837   2.037   1.817
 7710SOL     OW24028   2.279   1.747   6.959
 7710SOL    HW124029   2.323   1.825   7.004
 7710SOL    HW224030   2.214   1.704   7.022
 7711SOL     OW24031   5.607   6.905   6.577
 7711SOL    HW124032   5.657   6.891   6.491
 7711SOL    HW224033   5.611   7.001   6.602
 7712SOL     OW24034   5.489   5.554   1.437
 7712SOL    HW124035   5.496   5.642   1.390
 7712SOL    HW224036   5.401   5.511   1.414
 7713SOL     OW24037   1.526   4.932   6.876
 7713SOL    HW124038   1.448   4.921   6.814
 7713SOL    HW224039   1.493   4.961   6.966
 7714SOL     OW24040   5.606   4.484   3.736
 7714SOL    HW124041   5.530   4.447   3.789
 7714SOL    HW224042   5.653   4.554   3.789
 7715SOL     OW24043   4.651   1.260   0.852
 7715SOL    HW124044   4.739   1.242   0.808
 7715SOL    HW224045   4.588   1.300   0.786
 7716SOL     OW24046   4.876   2.231   3.144
 7716SOL    HW124047   4.842   2.323   3.127
 7716SOL    HW224048   4.957   2.214   3.088
 7717SOL     OW24049   3.380   1.158   6.212
 7717SOL    HW124050   3.446   1.226   6.180
 7717SOL    HW224051   3.429   1.086   6.262
 7718SOL     OW24052   3.011   5.884   3.971
 7718SOL    HW124053   3.039   5.794   3.938
 7718SOL    HW224054   3.091   5.934   4.004
 7719SOL     OW24055   6.617   2.065   4.275
 7719SOL    HW124056   6.702   2.040   4.322
 7719SOL    HW224057   6.633   2.146   4.219
 7720SOL     OW24058   5.835   5.696   1.979
 7720SOL    HW124059   5.789   5.663   2.062
 7720SOL    HW224060   5.934   5.693   1.993
 7721SOL     OW24061   1.864   4.370   2.788
 7721SOL    HW124062   1.780   4.421   2.772
 7721SOL    HW224063   1.930   4.390   2.716
 7722SOL     OW24064   6.859   5.209   4.056
 7722SOL    HW124065   6.763   5.218   4.033
 7722SOL    HW224066   6.890   5.116   4.037
 7723SOL     OW24067   6.572   3.397   0.315
 7723SOL    HW124068   6.587   3.318   0.256
 7723SOL    HW224069   6.625   3.475   0.281
 7724SOL     OW24070   1.789   4.600   1.056
 7724SOL    HW124071   1.759   4.526   1.116
 7724SOL    HW224072   1.733   4.681   1.074
 7725SOL     OW24073   4.948   3.296   4.771
 7725SOL    HW124074   4.935   3.391   4.798
 7725SOL    HW224075   4.972   3.292   4.674
 7726SOL     OW24076   6.689   4.613   3.609
 7726SOL    HW124077   6.643   4.639   3.524
 7726SOL    HW224078   6.773   4.666   3.619
 7727SOL     OW24079   6.764   2.642   1.785
 7727SOL    HW124080   6.786   2.737   1.761
 7727SOL    HW224081   6.715   2.599   1.710
 7728SOL     OW24082   2.660   2.406   2.951
 7728SOL    HW124083   2.689   2.377   2.859
 7728SOL    HW224084   2.579   2.465   2.944
 7729SOL     OW24085   5.583   2.301   0.518
 7729SOL    HW124086   5.643   2.381   0.518
 7729SOL    HW224087   5.489   2.331   0.537
 7730SOL     OW24088   5.327   0.606   2.339
 7730SOL    HW124089   5.258   0.622   2.410
 7730SOL    HW224090   5.383   0.527   2.364
 7731SOL     OW24091   6.085   1.430   6.567
 7731SOL    HW124092   6.078   1.335   6.597
 7731SOL    HW224093   6.037   1.441   6.480
 7732SOL     OW24094   4.458   4.993   0.878
 7732SOL    HW124095   4.524   5.065   0.860
 7732SOL    HW224096   4.416   4.963   0.792
 7733SOL     OW24097   3.264   0.234   2.410
 7733SOL    HW124098   3.284   0.158   2.472
 7733SOL    HW224099   3.321   0.226   2.328
 7734SOL     OW24100   2.053   1.754   3.333
 7734SOL    HW124101   2.137   1.778   3.382
 7734SOL    HW224102   2.076   1.718   3.243
 7735SOL     OW24103   5.185   4.208   0.074
 7735SOL    HW124104   5.216   4.117   0.099
 7735SOL    HW224105   5.092   4.203   0.038
 7736SOL     OW24106   6.260   4.790   6.484
 7736SOL    HW124107   6.196   4.818   6.556
 7736SOL    HW224108   6.275   4.691   6.490
 7737SOL     OW24109   4.890   1.266   0.691
 7737SOL    HW124110   4.947   1.348   0.684
 7737SOL    HW224111   4.818   1.269   0.621
 7738SOL     OW24112   2.678   5.167   6.920
 7738SOL    HW124113   2.720   5.099   6.981
 7738SOL    HW224114   2.749   5.209   6.864
 7739SOL     OW24115   6.233   3.205   1.301
 7739SOL    HW124116   6.224   3.105   1.299
 7739SOL    HW224117   6.329   3.230   1.290
 7740SOL     OW24118   0.257   6.744   3.096
 7740SOL    HW124119   0.343   6.787   3.068
 7740SOL    HW224120   0.239   6.665   3.038
 7741SOL     OW24121   2.557   5.557   4.647
 7741SOL    HW124122   2.589   5.468   4.615
 7741SOL    HW224123   2.466   5.548   4.688
 7742SOL     OW24124   6.347   0.992   3.772
 7742SOL    HW124125   6.324   1.086   3.745
 7742SOL    HW224126   6.435   0.967   3.732
 7743SOL     OW24127   4.543   2.449   3.214
 7743SOL    HW124128   4.544   2.465   3.313
 7743SOL    HW224129   4.450   2.429   3.184
 7744SOL     OW24130   6.988   0.288   5.007
 7744SOL    HW124131   6.966   0.227   4.930
 7744SOL    HW224132   0.018   0.365   4.974
 7745SOL     OW24133   4.920   3.797   5.803
 7745SOL    HW124134   5.018   3.795   5.821
 7745SOL    HW224135   4.870   3.774   5.887
 7746SOL     OW24136   1.729   0.733   0.273
 7746SOL    HW124137   1.819   0.702   0.243
 7746SOL    HW224138   1.721   0.723   0.372
 7747SOL     OW24139   5.819   5.736   0.946
 7747SOL    HW124140   5.804   5.785   1.032
 7747SOL    HW224141   5.831   5.638   0.965
 7748SOL     OW24142   3.422   3.838   6.890
 7748SOL    HW124143   3.374   3.861   6.806
 7748SOL    HW224144   3.442   3.740   6.892
 7749SOL     OW24145   6.135   3.348   6.005
 7749SOL    HW124146   6.116   3.284   5.931
 7749SOL    HW224147   6.228   3.332   6.038
 7750SOL     OW24148   5.799   4.673   2.452
 7750SOL    HW124149   5.785   4.579   2.482
 7750SOL    HW224150   5.755   4.736   2.516
 7751SOL     OW24151   0.437   2.556   2.081
 7751SOL    HW124152   0.529   2.552   2.122
 7751SOL    HW224153   0.374   2.503   2.137
 7752SOL     OW24154   5.084   2.114   3.362
 7752SOL    HW124155   5.055   2.209   3.378
 7752SOL    HW224156   5.087   2.065   3.449
 7753SOL     OW24157   3.295   1.755   4.678
 7753SOL    HW124158   3.290   1.767   4.777
 7753SOL    HW224159   3.383   1.716   4.653
 7754SOL     OW24160   4.879   6.509   2.247
 7754SOL    HW124161   4.896   6.437   2.314
 7754SOL    HW224162   4.967   6.545   2.215
 7755SOL     OW24163   0.482   5.038   4.501
 7755SOL    HW124164   0.475   4.975   4.579
 7755SOL    HW224165   0.402   5.027   4.442
 7756SOL     OW24166   2.756   5.081   2.015
 7756SOL    HW124167   2.703   4.998   1.998
 7756SOL    HW224168   2.846   5.056   2.050
 7757SOL     OW24169   0.286   4.356   2.018
 7757SOL    HW124170   0.298   4.262   1.984
 7757SOL    HW224171   0.271   4.417   1.940
 7758SOL     OW24172   1.438   1.585   5.465
 7758SOL    HW124173   1.477   1.502   5.426
 7758SOL    HW224174   1.368   1.622   5.404
 7759SOL     OW24175   2.591   2.260   1.002
 7759SOL    HW124176   2.498   2.233   0.979
 7759SOL    HW224177   2.613   2.347   0.957
 7760SOL     OW24178   4.750   2.806   0.263
 7760SOL    HW124179   4.720   2.750   0.340
 7760SOL    HW224180   4.822   2.868   0.294
 7761SOL     OW24181   5.070   5.350   4.016
 7761SOL    HW124182   5.152   5.361   4.071
 7761SOL    HW224183   5.029   5.260   4.035
 7762SOL     OW24184   5.862   1.724   2.180
 7762SOL    HW124185   5.797   1.770   2.241
 7762SOL    HW224186   5.955   1.745   2.210
 7763SOL     OW24187   2.517   0.127   4.071
 7763SOL    HW124188   2.450   0.137   3.997
 7763SOL    HW224189   2.591   0.068   4.040
 7764SOL     OW24190   2.392   3.816   5.846
 7764SOL    HW124191   2.492   3.813   5.838
 7764SOL    HW224192   2.361   3.910   5.828
 7765SOL     OW24193   5.950   2.830   5.019
 7765SOL    HW124194   5.936   2.918   4.973
 7765SOL    HW224195   5.872   2.811   5.079
 7766SOL     OW24196   5.890   4.031   6.295
 7766SOL    HW124197   5.811   4.073   6.339
 7766SOL    HW224198   5.865   3.940   6.262
 7767SOL     OW24199   3.234   0.573   3.848
 7767SOL    HW124200   3.226   0.497   3.783
 7767SOL    HW224201   3.320   0.621   3.834
 7768SOL     OW24202   4.139   5.294   3.781
 7768SOL    HW124203   4.124   5.381   3.733
 7768SOL    HW224204   4.236   5.285   3.805
 7769SOL     OW24205   3.941   2.554   5.594
 7769SOL    HW124206   4.032   2.515   5.609
 7769SOL    HW224207   3.948   2.653   5.589
 7770SOL     OW24208   1.763   2.622   4.227
 7770SOL    HW124209   1.772   2.721   4.236
 7770SOL    HW224210   1.774   2.596   4.131
 7771SOL     OW24211   2.391   3.386   6.558
 7771SOL    HW124212   2.412   3.380   6.460
 7771SOL    HW224213   2.351   3.299   6.588
 7772SOL     OW24214   5.457   0.174   1.863
 7772SOL    HW124215   5.479   0.202   1.770
 7772SOL    HW224216   5.445   0.075   1.866
 7773SOL     OW24217   2.958   6.031   0.402
 7773SOL    HW124218   2.877   5.995   0.449
 7773SOL    HW224219   2.943   6.126   0.377
 7774SOL     OW24220   4.612   1.311   2.537
 7774SOL    HW124221   4.656   1.342   2.453
 7774SOL    HW224222   4.680   1.301   2.609
 7775SOL     OW24223   2.686   2.052   1.220
 7775SOL    HW124224   2.617   2.114   1.184
 7775SOL    HW224225   2.666   1.958   1.192
 7776SOL     OW24226   1.575   1.312   4.408
 7776SOL    HW124227   1.515   1.391   4.422
 7776SOL    HW224228   1.650   1.337   4.347
 7777SOL     OW24229   5.771   5.746   3.991
 7777SOL    HW124230   5.856   5.790   3.964
 7777SOL    HW224231   5.755   5.762   4.089
 7778SOL     OW24232   6.827   4.780   3.147
 7778SOL    HW124233   6.768   4.842   3.198
 7778SOL    HW224234   6.884   4.832   3.084
 7779SOL     OW24235   4.723   6.338   1.399
 7779SOL    HW124236   4.672   6.275   1.341
 7779SOL    HW224237   4.672   6.353   1.484
 7780SOL     OW24238   5.713   6.222   5.101
 7780SOL    HW124239   5.802   6.264   5.117
 7780SOL    HW224240   5.642   6.276   5.148
 7781SOL     OW24241   1.865   2.942   1.022
 7781SOL    HW124242   1.944   2.995   0.990
 7781SOL    HW224243   1.805   3.000   1.076
 7782SOL     OW24244   5.244   2.627   4.737
 7782SOL    HW124245   5.238   2.564   4.660
 7782SOL    HW224246   5.173   2.697   4.729
 7783SOL     OW24247   1.646   6.616   4.464
 7783SOL    HW124248   1.728   6.580   4.421
 7783SOL    HW224249   1.668   6.655   4.553
 7784SOL     OW24250   1.653   1.973   1.814
 7784SOL    HW124251   1.696   1.990   1.903
 7784SOL    HW224252   1.709   2.014   1.742
 7785SOL     OW24253   6.860   6.647   3.226
 7785SOL    HW124254   6.816   6.658   3.315
 7785SOL    HW224255   6.807   6.581   3.171
 7786SOL     OW24256   4.231   1.088   5.310
 7786SOL    HW124257   4.245   1.177   5.354
 7786SOL    HW224258   4.280   1.085   5.223
 7787SOL     OW24259   2.650   2.381   1.847
 7787SOL    HW124260   2.645   2.285   1.819
 7787SOL    HW224261   2.743   2.403   1.875
 7788SOL     OW24262   6.818   4.718   1.307
 7788SOL    HW124263   6.831   4.753   1.400
 7788SOL    HW224264   6.841   4.621   1.303
 7789SOL     OW24265   3.156   1.485   6.072
 7789SOL    HW124266   3.208   1.492   5.986
 7789SOL    HW224267   3.067   1.443   6.054
 7790SOL     OW24268   4.157   4.477   1.650
 7790SOL    HW124269   4.191   4.491   1.557
 7790SOL    HW224270   4.214   4.411   1.697
 7791SOL     OW24271   2.804   5.643   2.817
 7791SOL    HW124272   2.875   5.655   2.747
 7791SOL    HW224273   2.757   5.556   2.802
 7792SOL     OW24274   0.384   1.681   3.152
 7792SOL    HW124275   0.388   1.621   3.072
 7792SOL    HW224276   0.317   1.754   3.137
 7793SOL     OW24277   5.174   0.564   0.269
 7793SOL    HW124278   5.123   0.498   0.214
 7793SOL    HW224279   5.171   0.654   0.226
 7794SOL     OW24280   1.184   6.960   3.232
 7794SOL    HW124281   1.113   6.903   3.191
 7794SOL    HW224282   1.144   7.016   3.305
 7795SOL     OW24283   3.219   5.046   0.242
 7795SOL    HW124284   3.257   5.101   0.316
 7795SOL    HW224285   3.159   4.975   0.280
 7796SOL     OW24286   3.350   2.707   0.131
 7796SOL    HW124287   3.324   2.629   0.076
 7796SOL    HW224288   3.268   2.749   0.172
 7797SOL     OW24289   0.631   5.920   3.511
 7797SOL    HW124290   0.637   5.858   3.589
 7797SOL    HW224291   0.535   5.947   3.498
 7798SOL     OW24292   1.424   3.559   0.418
 7798SOL    HW124293   1.395   3.495   0.489
 7798SOL    HW224294   1.509   3.526   0.377
 7799SOL     OW24295   2.916   5.944   3.421
 7799SOL    HW124296   2.849   5.982   3.485
 7799SOL    HW224297   2.947   5.854   3.454
 7800SOL     OW24298   0.537   6.500   2.341
 7800SOL    HW124299   0.527   6.568   2.268
 7800SOL    HW224300   0.628   6.458   2.335
 7801SOL     OW24301   1.394   1.947   2.013
 7801SOL    HW124302   1.421   1.998   1.931
 7801SOL    HW224303   1.295   1.934   2.013
 7802SOL     OW24304   6.753   3.636   4.460
 7802SOL    HW124305   6.808   3.557   4.487
 7802SOL    HW224306   6.813   3.714   4.440
 7803SOL     OW24307   3.010   2.257   5.607
 7803SOL    HW124308   3.037   2.197   5.531
 7803SOL    HW224309   2.932   2.313   5.579
 7804SOL     OW24310   3.484   2.068   5.071
 7804SOL    HW124311   3.566   2.027   5.032
 7804SOL    HW224312   3.414   2.075   5.000
 7805SOL     OW24313   5.408   3.249   0.052
 7805SOL    HW124314   5.454   3.208   6.998
 7805SOL    HW224315   5.327   3.196   0.075
 7806SOL     OW24316   0.031   1.292   5.895
 7806SOL    HW124317   6.974   1.238   5.912
 7806SOL    HW224318   0.040   1.310   5.797
 7807SOL     OW24319   2.062   4.927   6.275
 7807SOL    HW124320   2.105   4.943   6.186
 7807SOL    HW224321   2.065   5.011   6.329
 7808SOL     OW24322   6.989   3.870   3.179
 7808SOL    HW124323   6.993   3.776   3.212
 7808SOL    HW224324   0.017   3.929   3.240
 7809SOL     OW24325   4.758   5.560   2.661
 7809SOL    HW124326   4.832   5.501   2.695
 7809SOL    HW224327   4.789   5.607   2.578
 7810SOL     OW24328   2.535   6.596   6.293
 7810SOL    HW124329   2.586   6.681   6.306
 7810SOL    HW224330   2.520   6.581   6.195
 7811SOL     OW24331   1.335   6.249   3.091
 7811SOL    HW124332   1.313   6.171   3.033
 7811SOL    HW224333   1.302   6.232   3.184
 7812SOL     OW24334   3.118   1.443   6.348
 7812SOL    HW124335   3.025   1.476   6.365
 7812SOL    HW224336   3.134   1.437   6.250
 7813SOL     OW24337   5.395   0.624   0.487
 7813SOL    HW124338   5.348   0.572   0.559
 7813SOL    HW224339   5.334   0.635   0.409
 7814SOL     OW24340   6.539   3.042   2.521
 7814SOL    HW124341   6.578   3.074   2.435
 7814SOL    HW224342   6.453   2.995   2.502
 7815SOL     OW24343   5.867   4.865   5.275
 7815SOL    HW124344   5.917   4.789   5.317
 7815SOL    HW224345   5.769   4.856   5.295
 7816SOL     OW24346   0.576   1.446   5.534
 7816SOL    HW124347   0.614   1.493   5.613
 7816SOL    HW224348   0.476   1.441   5.543
 7817SOL     OW24349   3.906   2.672   7.021
 7817SOL    HW124350   3.881   2.668   0.093
 7817SOL    HW224351   3.841   2.619   6.967
 7818SOL     OW24352   5.954   0.594   3.518
 7818SOL    HW124353   5.861   0.622   3.492
 7818SOL    HW224354   5.977   0.509   3.471
 7819SOL     OW24355   1.514   3.130   4.764
 7819SOL    HW124356   1.598   3.079   4.742
 7819SOL    HW224357   1.490   3.189   4.688
 7820SOL     OW24358   1.073   0.257   5.116
 7820SOL    HW124359   1.047   0.189   5.184
 7820SOL    HW224360   1.107   0.339   5.163
 7821SOL     OW24361   4.043   6.393   0.337
 7821SOL    HW124362   4.081   6.369   0.427
 7821SOL    HW224363   4.063   6.319   0.272
 7822SOL     OW24364   6.842   1.371   5.051
 7822SOL    HW124365   6.858   1.451   4.993
 7822SOL    HW224366   6.929   1.337   5.087
 7823SOL     OW24367   2.475   3.573   5.402
 7823SOL    HW124368   2.473   3.474   5.388
 7823SOL    HW224369   2.403   3.616   5.347
 7824SOL     OW24370   5.259   3.335   3.090
 7824SOL    HW124371   5.319   3.400   3.135
 7824SOL    HW224372   5.164   3.363   3.101
 7825SOL     OW24373   3.734   3.571   2.197
 7825SOL    HW124374   3.757   3.486   2.150
 7825SOL    HW224375   3.659   3.617   2.150
 7826SOL     OW24376   6.752   0.349   1.316
 7826SOL    HW124377   6.675   0.402   1.281
 7826SOL    HW224378   6.751   0.257   1.276
 7827SOL     OW24379   4.531   3.432   0.797
 7827SOL    HW124380   4.460   3.389   0.853
 7827SOL    HW224381   4.501   3.435   0.702
 7828SOL     OW24382   0.526   5.588   0.555
 7828SOL    HW124383   0.534   5.606   0.653
 7828SOL    HW224384   0.477   5.502   0.540
 7829SOL     OW24385   4.007   3.446   2.945
 7829SOL    HW124386   4.061   3.457   2.862
 7829SOL    HW224387   3.912   3.424   2.921
 7830SOL     OW24388   6.048   3.663   0.068
 7830SOL    HW124389   6.037   3.660   0.168
 7830SOL    HW224390   6.144   3.680   0.046
 7831SOL     OW24391   1.874   2.626   6.664
 7831SOL    HW124392   1.843   2.720   6.660
 7831SOL    HW224393   1.796   2.565   6.677
 7832SOL     OW24394   2.647   2.556   5.375
 7832SOL    HW124395   2.596   2.620   5.318
 7832SOL    HW224396   2.697   2.492   5.317
 7833SOL     OW24397   1.500   6.573   0.935
 7833SOL    HW124398   1.468   6.523   1.015
 7833SOL    HW224399   1.570   6.639   0.963
 7834SOL     OW24400   0.028   0.370   1.542
 7834SOL    HW124401   0.025   0.387   1.443
 7834SOL    HW224402   0.060   0.452   1.589
 7835SOL     OW24403   2.938   2.107   4.235
 7835SOL    HW124404   2.957   2.101   4.137
 7835SOL    HW224405   2.861   2.047   4.257
 7836SOL     OW24406   1.942   0.916   6.555
 7836SOL    HW124407   1.899   0.879   6.638
 7836SOL    HW224408   1.998   0.995   6.578
 7837SOL     OW24409   5.028   6.415   2.992
 7837SOL    HW124410   5.028   6.512   3.017
 7837SOL    HW224411   4.953   6.397   2.929
 7838SOL     OW24412   3.310   6.790   4.284
 7838SOL    HW124413   3.331   6.833   4.196
 7838SOL    HW224414   3.284   6.860   4.350
 7839SOL     OW24415   6.999   4.951   4.051
 7839SOL    HW124416   0.073   4.937   4.039
 7839SOL    HW224417   6.950   4.913   3.972
 7840SOL     OW24418   5.213   2.973   5.626
 7840SOL    HW124419   5.207   3.059   5.576
 7840SOL    HW224420   5.307   2.937   5.621
 7841SOL     OW24421   1.142   1.645   6.312
 7841SOL    HW124422   1.058   1.693   6.335
 7841SOL    HW224423   1.177   1.679   6.224
 7842SOL     OW24424   2.636   0.913   2.389
 7842SOL    HW124425   2.664   0.893   2.296
 7842SOL    HW224426   2.593   1.003   2.393
 7843SOL     OW24427   6.719   3.232   1.149
 7843SOL    HW124428   6.780   3.297   1.194
 7843SOL    HW224429   6.626   3.269   1.147
 7844SOL     OW24430   4.072   1.192   4.253
 7844SOL    HW124431   4.129   1.156   4.179
 7844SOL    HW224432   3.977   1.197   4.223
 7845SOL     OW24433   1.034   0.682   4.000
 7845SOL    HW124434   1.132   0.666   3.987
 7845SOL    HW224435   1.008   0.769   3.957
 7846SOL     OW24436   3.492   6.775   2.222
 7846SOL    HW124437   3.410   6.729   2.255
 7846SOL    HW224438   3.466   6.862   2.179
 7847SOL     OW24439   6.853   0.437   0.581
 7847SOL    HW124440   6.942   0.446   0.536
 7847SOL    HW224441   6.803   0.523   0.572
 7848SOL     OW24442   4.404   4.199   0.814
 7848SOL    HW124443   4.305   4.216   0.816
 7848SOL    HW224444   4.429   4.138   0.889
 7849SOL     OW24445   5.835   3.994   5.056
 7849SOL    HW124446   5.807   3.935   4.980
 7849SOL    HW224447   5.900   4.062   5.023
 7850SOL     OW24448   0.666   1.114   4.345
 7850SOL    HW124449   0.570   1.122   4.371
 7850SOL    HW224450   0.691   1.191   4.286
 7851SOL     OW24451   4.597   6.728   0.472
 7851SOL    HW124452   4.599   6.642   0.523
 7851SOL    HW224453   4.554   6.799   0.527
 7852SOL     OW24454   1.671   6.937   0.053
 7852SOL    HW124455   1.613   6.857   0.066
 7852SOL    HW224456   1.728   6.924   6.997
 7853SOL     OW24457   2.092   3.083   0.864
 7853SOL    HW124458   2.072   2.993   0.828
 7853SOL    HW224459   2.179   3.115   0.828
 7854SOL     OW24460   3.341   4.071   2.934
 7854SOL    HW124461   3.425   4.100   2.979
 7854SOL    HW224462   3.362   4.037   2.842
 7855SOL     OW24463   3.609   6.984   5.607
 7855SOL    HW124464   3.705   6.974   5.580
 7855SOL    HW224465   3.604   7.005   5.704
 7856SOL     OW24466   4.397   3.460   6.136
 7856SOL    HW124467   4.355   3.528   6.196
 7856SOL    HW224468   4.343   3.377   6.136
 7857SOL     OW24469   1.065   2.237   4.618
 7857SOL    HW124470   1.092   2.259   4.712
 7857SOL    HW224471   1.121   2.288   4.553
 7858SOL     OW24472   6.099   4.469   3.198
 7858SOL    HW124473   6.120   4.506   3.107
 7858SOL    HW224474   6.184   4.447   3.245
 7859SOL     OW24475   0.934   6.059   6.383
 7859SOL    HW124476   0.918   6.066   6.482
 7859SOL    HW224477   0.982   5.974   6.363
 7860SOL     OW24478   3.596   0.309   1.654
 7860SOL    HW124479   3.645   0.304   1.567
 7860SOL    HW224480   3.519   0.372   1.645
 7861SOL     OW24481   5.467   4.049   0.563
 7861SOL    HW124482   5.414   4.077   0.643
 7861SOL    HW224483   5.539   3.986   0.591
 7862SOL     OW24484   3.529   4.320   1.496
 7862SOL    HW124485   3.556   4.327   1.401
 7862SOL    HW224486   3.479   4.234   1.511
 7863SOL     OW24487   5.989   5.706   2.454
 7863SOL    HW124488   5.904   5.681   2.500
 7863SOL    HW224489   6.028   5.786   2.499
 7864SOL     OW24490   0.484   5.726   4.303
 7864SOL    HW124491   0.420   5.677   4.363
 7864SOL    HW224492   0.501   5.671   4.221
 7865SOL     OW24493   3.047   0.752   2.518
 7865SOL    HW124494   3.098   0.800   2.446
 7865SOL    HW224495   3.044   0.809   2.600
 7866SOL     OW24496   2.503   2.485   3.935
 7866SOL    HW124497   2.507   2.552   3.860
 7866SOL    HW224498   2.409   2.451   3.944
 7867SOL     OW24499   5.641   4.082   2.585
 7867SOL    HW124500   5.593   4.115   2.505
 7867SOL    HW224501   5.591   4.107   2.668
 7868SOL     OW24502   5.311   6.976   0.970
 7868SOL    HW124503   5.327   0.021   1.040
 7868SOL    HW224504   5.241   7.008   0.906
 7869SOL     OW24505   6.795   2.081   3.504
 7869SOL    HW124506   6.853   2.076   3.422
 7869SOL    HW224507   6.810   1.999   3.560
 7870SOL     OW24508   0.189   6.335   3.156
 7870SOL    HW124509   0.282   6.297   3.156
 7870SOL    HW224510   0.187   6.418   3.212
 7871SOL     OW24511   5.640   3.396   4.020
 7871SOL    HW124512   5.661   3.350   4.107
 7871SOL    HW224513   5.627   3.327   3.949
 7872SOL     OW24514   6.442   3.415   3.951
 7872SOL    HW124515   6.396   3.474   4.018
 7872SOL    HW224516   6.465   3.328   3.995
 7873SOL     OW24517   6.976   5.036   5.101
 7873SOL    HW124518   6.975   4.968   5.174
 7873SOL    HW224519   0.046   5.052   5.072
 7874SOL     OW24520   6.144   1.052   0.451
 7874SOL    HW124521   6.190   1.001   0.378
 7874SOL    HW224522   6.165   1.010   0.539
 7875SOL     OW24523   4.611   3.713   6.850
 7875SOL    HW124524   4.578   3.635   6.903
 7875SOL    HW224525   4.564   3.715   6.762
 7876SOL     OW24526   6.468   0.805   4.774
 7876SOL    HW124527   6.524   0.878   4.812
 7876SOL    HW224528   6.373   0.834   4.769
 7877SOL     OW24529   6.596   2.605   2.473
 7877SOL    HW124530   6.510   2.636   2.432
 7877SOL    HW224531   6.652   2.561   2.403
 7878SOL     OW24532   4.697   4.251   1.203
 7878SOL    HW124533   4.638   4.290   1.273
 7878SOL    HW224534   4.774   4.313   1.186
 7879SOL     OW24535   5.016   0.730   5.356
 7879SOL    HW124536   5.110   0.721   5.324
 7879SOL    HW224537   5.010   0.706   5.453
 7880SOL     OW24538   1.066   6.798   6.123
 7880SOL    HW124539   1.107   6.845   6.045
 7880SOL    HW224540   1.050   6.702   6.100
 7881SOL     OW24541   0.378   5.425   3.970
 7881SOL    HW124542   0.327   5.360   4.025
 7881SOL    HW224543   0.464   5.384   3.940
 7882SOL     OW24544   0.771   4.231   1.845
 7882SOL    HW124545   0.785   4.327   1.872
 7882SOL    HW224546   0.849   4.200   1.792
 7883SOL     OW24547   3.574   2.107   3.422
 7883SOL    HW124548   3.603   2.127   3.516
 7883SOL    HW224549   3.625   2.165   3.358
 7884SOL     OW24550   0.902   3.852   4.577
 7884SOL    HW124551   0.965   3.872   4.502
 7884SOL    HW224552   0.825   3.915   4.574
 7885SOL     OW24553   5.545   5.415   3.521
 7885SOL    HW124554   5.464   5.379   3.567
 7885SOL    HW224555   5.589   5.484   3.579
 7886SOL     OW24556   5.010   3.131   3.014
 7886SOL    HW124557   4.962   3.218   3.003
 7886SOL    HW224558   5.082   3.141   3.082
 7887SOL     OW24559   2.218   2.910   1.274
 7887SOL    HW124560   2.254   3.002   1.289
 7887SOL    HW224561   2.294   2.847   1.258
 7888SOL     OW24562   5.875   1.106   5.050
 7888SOL    HW124563   5.905   1.017   5.014
 7888SOL    HW224564   5.866   1.171   4.975
 7889SOL     OW24565   5.615   4.976   0.013
 7889SOL    HW124566   5.543   4.909   0.029
 7889SOL    HW224567   5.589   5.038   6.965
 7890SOL     OW24568   2.007   3.347   4.260
 7890SOL    HW124569   1.989   3.249   4.248
 7890SOL    HW224570   1.950   3.399   4.196
 7891SOL     OW24571   6.508   1.790   4.205
 7891SOL    HW124572   6.502   1.889   4.189
 7891SOL    HW224573   6.425   1.759   4.251
 7892SOL     OW24574   0.907   1.726   5.216
 7892SOL    HW124575   0.857   1.670   5.282
 7892SOL    HW224576   0.986   1.676   5.183
 7893SOL     OW24577   5.740   0.034   6.994
 7893SOL    HW124578   5.807   0.103   7.024
 7893SOL    HW224579   5.761   0.008   6.899
 7894SOL     OW24580   3.556   1.984   6.076
 7894SOL    HW124581   3.541   1.885   6.085
 7894SOL    HW224582   3.495   2.033   6.138
 7895SOL     OW24583   5.371   6.706   2.978
 7895SOL    HW124584   5.397   6.614   3.008
 7895SOL    HW224585   5.318   6.751   3.050
 7896SOL     OW24586   2.363   2.499   1.022
 7896SOL    HW124587   2.336   2.442   1.100
 7896SOL    HW224588   2.376   2.442   0.941
 7897SOL     OW24589   3.882   2.688   0.846
 7897SOL    HW124590   3.913   2.607   0.796
 7897SOL    HW224591   3.957   2.753   0.853
 7898SOL     OW24592   5.535   6.524   3.350
 7898SOL    HW124593   5.563   6.620   3.354
 7898SOL    HW224594   5.486   6.508   3.265
 7899SOL     OW24595   6.547   4.603   3.948
 7899SOL    HW124596   6.541   4.508   3.980
 7899SOL    HW224597   6.641   4.623   3.922
 7900SOL     OW24598   0.950   3.810   1.221
 7900SOL    HW124599   1.048   3.794   1.238
 7900SOL    HW224600   0.906   3.723   1.200
 7901SOL     OW24601   0.405   1.471   6.790
 7901SOL    HW124602   0.390   1.478   6.691
 7901SOL    HW224603   0.479   1.406   6.808
 7902SOL     OW24604   1.455   0.103   2.360
 7902SOL    HW124605   1.405   0.035   2.414
 7902SOL    HW224606   1.553   0.086   2.368
 7903SOL     OW24607   2.698   2.102   5.038
 7903SOL    HW124608   2.750   2.100   5.123
 7903SOL    HW224609   2.739   2.168   4.975
 7904SOL     OW24610   4.821   1.302   2.696
 7904SOL    HW124611   4.847   1.230   2.761
 7904SOL    HW224612   4.895   1.368   2.687
 7905SOL     OW24613   4.981   1.604   0.792
 7905SOL    HW124614   5.059   1.633   0.736
 7905SOL    HW224615   5.005   1.520   0.841
 7906SOL     OW24616   0.983   5.420   0.966
 7906SOL    HW124617   0.891   5.419   0.926
 7906SOL    HW224618   1.035   5.343   0.930
 7907SOL     OW24619   6.278   0.090   2.617
 7907SOL    HW124620   6.224   0.173   2.628
 7907SOL    HW224621   6.235   0.032   2.548
 7908SOL     OW24622   0.660   0.099   6.267
 7908SOL    HW124623   0.729   0.102   6.195
 7908SOL    HW224624   0.679   0.023   6.329
 7909SOL     OW24625   5.702   4.183   2.154
 7909SOL    HW124626   5.622   4.183   2.215
 7909SOL    HW224627   5.736   4.089   2.145
 7910SOL     OW24628   0.777   4.261   6.798
 7910SOL    HW124629   0.785   4.309   6.886
 7910SOL    HW224630   0.682   4.231   6.786
 7911SOL     OW24631   0.203   4.491   6.769
 7911SOL    HW124632   0.240   4.496   6.676
 7911SOL    HW224633   0.162   4.401   6.784
 7912SOL     OW24634   6.433   4.994   1.176
 7912SOL    HW124635   6.366   4.978   1.249
 7912SOL    HW224636   6.504   4.923   1.181
 7913SOL     OW24637   1.270   4.582   1.045
 7913SOL    HW124638   1.289   4.680   1.051
 7913SOL    HW224639   1.174   4.565   1.068
 7914SOL     OW24640   6.731   6.757   5.259
 7914SOL    HW124641   6.764   6.761   5.165
 7914SOL    HW224642   6.647   6.702   5.262
 7915SOL     OW24643   4.022   5.435   2.681
 7915SOL    HW124644   4.049   5.485   2.763
 7915SOL    HW224645   4.026   5.337   2.698
 7916SOL     OW24646   0.879   6.910   4.399
 7916SOL    HW124647   0.855   6.968   4.321
 7916SOL    HW224648   0.885   6.966   4.481
 7917SOL     OW24649   4.030   2.821   1.317
 7917SOL    HW124650   4.035   2.843   1.219
 7917SOL    HW224651   4.064   2.898   1.370
 7918SOL     OW24652   2.187   2.174   3.763
 7918SOL    HW124653   2.196   2.113   3.841
 7918SOL    HW224654   2.279   2.197   3.728
 7919SOL     OW24655   2.041   6.353   4.806
 7919SOL    HW124656   1.988   6.413   4.746
 7919SOL    HW224657   2.070   6.272   4.756
 7920SOL     OW24658   4.790   0.585   1.108
 7920SOL    HW124659   4.700   0.616   1.140
 7920SOL    HW224660   4.792   0.485   1.105
 7921SOL     OW24661   5.911   2.447   0.971
 7921SOL    HW124662   5.851   2.506   0.917
 7921SOL    HW224663   5.918   2.483   1.065
 7922SOL     OW24664   2.033   5.961   1.747
 7922SOL    HW124665   2.089   5.920   1.676
 7922SOL    HW224666   1.936   5.942   1.728
 7923SOL     OW24667   5.196   0.887   0.513
 7923SOL    HW124668   5.290   0.922   0.515
 7923SOL    HW224669   5.136   0.956   0.472
 7924SOL     OW24670   6.718   6.207   0.424
 7924SOL    HW124671   6.706   6.153   0.507
 7924SOL    HW224672   6.814   6.208   0.398
 7925SOL     OW24673   1.483   5.650   6.520
 7925SOL    HW124674   1.537   5.732   6.507
 7925SOL    HW224675   1.541   5.578   6.560
 7926SOL     OW24676   4.822   5.454   0.328
 7926SOL    HW124677   4.758   5.499   0.265
 7926SOL    HW224678   4.915   5.478   0.304
 7927SOL     OW24679   4.233   6.976   2.630
 7927SOL    HW124680   4.326   7.003   2.655
 7927SOL    HW224681   4.195   6.918   2.702
 7928SOL     OW24682   5.708   2.155   3.420
 7928SOL    HW124683   5.730   2.252   3.432
 7928SOL    HW224684   5.698   2.135   3.322
 7929SOL     OW24685   4.259   4.102   6.304
 7929SOL    HW124686   4.163   4.096   6.276
 7929SOL    HW224687   4.317   4.074   6.228
 7930SOL     OW24688   4.314   6.174   6.243
 7930SOL    HW124689   4.377   6.132   6.178
 7930SOL    HW224690   4.268   6.251   6.200
 7931SOL     OW24691   4.170   2.298   1.228
 7931SOL    HW124692   4.105   2.355   1.279
 7931SOL    HW224693   4.240   2.265   1.291
 7932SOL     OW24694   1.862   3.937   2.282
 7932SOL    HW124695   1.763   3.932   2.296
 7932SOL    HW224696   1.881   3.975   2.191
 7933SOL     OW24697   1.086   1.846   0.050
 7933SOL    HW124698   1.003   1.863   0.104
 7933SOL    HW224699   1.158   1.907   0.081
 7934SOL     OW24700   0.826   5.833   1.292
 7934SOL    HW124701   0.921   5.851   1.268
 7934SOL    HW224702   0.766   5.886   1.233
 7935SOL     OW24703   4.820   2.945   3.187
 7935SOL    HW124704   4.893   2.888   3.223
 7935SOL    HW224705   4.856   3.036   3.165
 7936SOL     OW24706   3.137   5.479   3.551
 7936SOL    HW124707   3.150   5.396   3.497
 7936SOL    HW224708   3.179   5.467   3.641
 7937SOL     OW24709   3.389   0.892   6.881
 7937SOL    HW124710   3.463   0.837   6.919
 7937SOL    HW224711   3.321   0.910   6.952
 7938SOL     OW24712   2.791   6.335   4.334
 7938SOL    HW124713   2.750   6.426   4.329
 7938SOL    HW224714   2.751   6.276   4.263
 7939SOL     OW24715   0.239   1.477   3.992
 7939SOL    HW124716   0.328   1.485   4.037
 7939SOL    HW224717   0.210   1.382   3.990
 7940SOL     OW24718   5.579   1.236   3.689
 7940SOL    HW124719   5.499   1.202   3.641
 7940SOL    HW224720   5.634   1.293   3.628
 7941SOL     OW24721   3.698   6.911   1.156
 7941SOL    HW124722   3.650   6.924   1.242
 7941SOL    HW224723   3.797   6.904   1.174
 7942SOL     OW24724   1.493   5.152   0.849
 7942SOL    HW124725   1.470   5.153   0.946
 7942SOL    HW224726   1.522   5.059   0.822
 7943SOL     OW24727   1.636   6.273   5.915
 7943SOL    HW124728   1.568   6.202   5.902
 7943SOL    HW224729   1.598   6.362   5.890
 7944SOL     OW24730   1.393   2.618   1.618
 7944SOL    HW124731   1.453   2.687   1.658
 7944SOL    HW224732   1.328   2.585   1.687
 7945SOL     OW24733   6.249   4.425   3.656
 7945SOL    HW124734   6.243   4.352   3.588
 7945SOL    HW224735   6.185   4.498   3.633
 7946SOL     OW24736   3.681   1.334   6.359
 7946SOL    HW124737   3.697   1.364   6.265
 7946SOL    HW224738   3.768   1.322   6.406
 7947SOL     OW24739   0.391   3.823   6.552
 7947SOL    HW124740   0.347   3.746   6.597
 7947SOL    HW224741   0.417   3.798   6.459
 7948SOL     OW24742   1.695   4.770   2.470
 7948SOL    HW124743   1.741   4.762   2.559
 7948SOL    HW224744   1.763   4.769   2.397
 7949SOL     OW24745   3.316   6.298   6.732
 7949SOL    HW124746   3.260   6.239   6.673
 7949SOL    HW224747   3.372   6.241   6.793
 7950SOL     OW24748   5.630   4.422   5.311
 7950SOL    HW124749   5.670   4.380   5.393
 7950SOL    HW224750   5.697   4.420   5.237
 7951SOL     OW24751   4.098   5.860   2.552
 7951SOL    HW124752   4.073   5.898   2.463
 7951SOL    HW224753   4.101   5.933   2.620
 7952SOL     OW24754   6.138   4.678   6.231
 7952SOL    HW124755   6.203   4.606   6.208
 7952SOL    HW224756   6.181   4.744   6.293
 7953SOL     OW24757   1.820   0.253   0.621
 7953SOL    HW124758   1.875   0.170   0.612
 7953SOL    HW224759   1.867   0.317   0.682
 7954SOL     OW24760   4.091   3.928   6.636
 7954SOL    HW124761   4.112   4.026   6.637
 7954SOL    HW224762   4.010   3.912   6.579
 7955SOL     OW24763   1.639   1.907   6.711
 7955SOL    HW124764   1.736   1.929   6.697
 7955SOL    HW224765   1.583   1.973   6.662
 7956SOL     OW24766   6.644   6.461   0.546
 7956SOL    HW124767   6.650   6.456   0.646
 7956SOL    HW224768   6.668   6.372   0.507
 7957SOL     OW24769   4.618   0.781   5.950
 7957SOL    HW124770   4.631   0.833   6.034
 7957SOL    HW224771   4.706   0.773   5.902
 7958SOL     OW24772   5.875   2.727   0.247
 7958SOL    HW124773   5.901   2.762   0.156
 7958SOL    HW224774   5.896   2.630   0.252
 7959SOL     OW24775   6.341   1.573   6.556
 7959SOL    HW124776   6.297   1.659   6.581
 7959SOL    HW224777   6.272   1.502   6.542
 7960SOL     OW24778   0.641   1.037   5.450
 7960SOL    HW124779   0.664   1.046   5.547
 7960SOL    HW224780   0.685   1.110   5.398
 7961SOL     OW24781   6.496   6.313   0.254
 7961SOL    HW124782   6.546   6.396   0.228
 7961SOL    HW224783   6.558   6.250   0.300
 7962SOL     OW24784   5.658   6.971   5.891
 7962SOL    HW124785   5.726   7.013   5.830
 7962SOL    HW224786   5.693   6.972   5.985
 7963SOL     OW24787   6.766   6.872   4.215
 7963SOL    HW124788   6.827   6.882   4.294
 7963SOL    HW224789   6.757   6.775   4.191
 7964SOL     OW24790   6.897   4.325   1.917
 7964SOL    HW124791   6.943   4.329   1.828
 7964SOL    HW224792   6.909   4.411   1.965
 7965SOL     OW24793   4.304   2.760   6.249
 7965SOL    HW124794   4.288   2.849   6.207
 7965SOL    HW224795   4.217   2.714   6.265
 7966SOL     OW24796   4.905   3.550   4.816
 7966SOL    HW124797   4.954   3.633   4.790
 7966SOL    HW224798   4.869   3.561   4.909
 7967SOL     OW24799   1.758   4.026   1.392
 7967SOL    HW124800   1.767   4.081   1.475
 7967SOL    HW224801   1.777   4.083   1.312
 7968SOL     OW24802   0.448   2.703   4.842
 7968SOL    HW124803   0.448   2.636   4.916
 7968SOL    HW224804   0.486   2.790   4.876
 7969SOL     OW24805   4.133   5.765   6.754
 7969SOL    HW124806   4.175   5.844   6.798
 7969SOL    HW224807   4.103   5.699   6.824
 7970SOL     OW24808   6.184   3.065   3.068
 7970SOL    HW124809   6.219   3.003   3.138
 7970SOL    HW224810   6.212   3.032   2.978
 7971SOL     OW24811   2.583   1.570   0.253
 7971SOL    HW124812   2.490   1.536   0.237
 7971SOL    HW224813   2.580   1.646   0.318
 7972SOL     OW24814   3.908   3.875   3.565
 7972SOL    HW124815   3.923   3.837   3.656
 7972SOL    HW224816   3.819   3.920   3.562
 7973SOL     OW24817   6.237   4.331   2.617
 7973SOL    HW124818   6.225   4.250   2.560
 7973SOL    HW224819   6.302   4.393   2.574
 7974SOL     OW24820   6.981   2.847   6.228
 7974SOL    HW124821   6.885   2.868   6.210
 7974SOL    HW224822   7.014   2.780   6.161
 7975SOL     OW24823   5.557   0.553   0.924
 7975SOL    HW124824   5.557   0.453   0.925
 7975SOL    HW224825   5.562   0.585   0.829
 7976SOL     OW24826   0.492   0.378   0.635
 7976SOL    HW124827   0.484   0.475   0.657
 7976SOL    HW224828   0.421   0.327   0.683
 7977SOL     OW24829   5.478   5.736   3.975
 7977SOL    HW124830   5.471   5.646   4.019
 7977SOL    HW224831   5.574   5.761   3.965
 7978SOL     OW24832   0.294   4.380   1.682
 7978SOL    HW124833   0.394   4.371   1.674
 7978SOL    HW224834   0.254   4.386   1.591
 7979SOL     OW24835   1.958   2.289   4.830
 7979SOL    HW124836   1.898   2.297   4.909
 7979SOL    HW224837   2.053   2.280   4.860
 7980SOL     OW24838   4.122   5.385   0.274
 7980SOL    HW124839   4.109   5.354   0.368
 7980SOL    HW224840   4.184   5.464   0.273
 7981SOL     OW24841   1.919   4.367   3.334
 7981SOL    HW124842   1.986   4.358   3.259
 7981SOL    HW224843   1.848   4.297   3.324
 7982SOL     OW24844   6.347   1.395   5.325
 7982SOL    HW124845   6.348   1.406   5.226
 7982SOL    HW224846   6.284   1.322   5.350
 7983SOL     OW24847   4.500   0.820   1.952
 7983SOL    HW124848   4.511   0.772   2.039
 7983SOL    HW224849   4.438   0.768   1.892
 7984SOL     OW24850   0.557   2.359   2.843
 7984SOL    HW124851   0.505   2.280   2.877
 7984SOL    HW224852   0.532   2.377   2.748
 7985SOL     OW24853   2.559   3.037   5.509
 7985SOL    HW124854   2.536   2.961   5.569
 7985SOL    HW224855   2.543   3.011   5.414
 7986SOL     OW24856   3.547   1.029   4.124
 7986SOL    HW124857   3.543   1.100   4.054
 7986SOL    HW224858   3.472   0.964   4.111
 7987SOL     OW24859   0.970   3.932   6.949
 7987SOL    HW124860   0.967   3.878   6.865
 7987SOL    HW224861   0.979   3.870   0.003
 7988SOL     OW24862   6.444   0.821   2.108
 7988SOL    HW124863   6.484   0.772   2.030
 7988SOL    HW224864   6.477   0.915   2.108
 7989SOL     OW24865   0.326   4.579   0.839
 7989SOL    HW124866   0.380   4.526   0.904
 7989SOL    HW224867   0.284   4.517   0.773
 7990SOL     OW24868   4.344   5.725   5.335
 7990SOL    HW124869   4.390   5.769   5.258
 7990SOL    HW224870   4.396   5.740   5.418
 7991SOL     OW24871   5.802   1.178   5.320
 7991SOL    HW124872   5.704   1.195   5.311
 7991SOL    HW224873   5.833   1.123   5.243
 7992SOL     OW24874   2.528   6.811   6.682
 7992SOL    HW124875   2.499   6.894   6.729
 7992SOL    HW224876   2.536   6.737   6.749
 7993SOL     OW24877   6.295   5.929   0.853
 7993SOL    HW124878   6.273   6.010   0.798
 7993SOL    HW224879   6.317   5.958   0.947
 7994SOL     OW24880   5.967   0.023   3.840
 7994SOL    HW124881   6.024   6.969   3.864
 7994SOL    HW224882   6.026   0.099   3.812
 7995SOL     OW24883   0.736   5.109   1.724
 7995SOL    HW124884   0.761   5.093   1.628
 7995SOL    HW224885   0.709   5.204   1.736
 7996SOL     OW24886   3.087   0.308   3.293
 7996SOL    HW124887   3.006   0.362   3.317
 7996SOL    HW224888   3.162   0.369   3.266
 7997SOL     OW24889   1.629   1.742   5.875
 7997SOL    HW124890   1.679   1.737   5.788
 7997SOL    HW224891   1.621   1.651   5.914
 7998SOL     OW24892   2.022   1.041   0.426
 7998SOL    HW124893   2.055   1.019   0.334
 7998SOL    HW224894   2.026   1.140   0.441
 7999SOL     OW24895   0.939   0.192   4.432
 7999SOL    HW124896   0.921   0.125   4.504
 7999SOL    HW224897   1.025   0.168   4.385
 8000SOL     OW24898   3.863   5.444   0.226
 8000SOL    HW124899   3.961   5.427   0.213
 8000SOL    HW224900   3.831   5.392   0.305
 8001SOL     OW24901   4.295   5.685   1.139
 8001SOL    HW124902   4.394   5.681   1.121
 8001SOL    HW224903   4.276   5.760   1.201
 8002SOL     OW24904   0.906   0.132   5.621
 8002SOL    HW124905   0.889   0.068   5.696
 8002SOL    HW224906   0.886   0.225   5.651
 8003SOL     OW24907   2.282   5.399   2.421
 8003SOL    HW124908   2.352   5.327   2.419
 8003SOL    HW224909   2.213   5.377   2.490
 8004SOL     OW24910   1.427   2.615   4.062
 8004SOL    HW124911   1.370   2.687   4.100
 8004SOL    HW224912   1.504   2.598   4.123
 8005SOL     OW24913   2.248   0.199   2.990
 8005SOL    HW124914   2.275   0.270   2.924
 8005SOL    HW224915   2.330   0.154   3.025
 8006SOL     OW24916   3.890   4.702   5.360
 8006SOL    HW124917   3.900   4.605   5.342
 8006SOL    HW224918   3.861   4.716   5.455
 8007SOL     OW24919   6.712   0.227   0.336
 8007SOL    HW124920   6.791   0.285   0.355
 8007SOL    HW224921   6.631   0.284   0.323
 8008SOL     OW24922   5.541   6.561   0.149
 8008SOL    HW124923   5.629   6.584   0.107
 8008SOL    HW224924   5.554   6.552   0.248
 8009SOL     OW24925   5.421   1.588   6.940
 8009SOL    HW124926   5.506   1.561   6.984
 8009SOL    HW224927   5.422   1.686   6.922
 8010SOL     OW24928   3.007   1.107   6.001
 8010SOL    HW124929   2.932   1.044   5.982
 8010SOL    HW224930   3.038   1.148   5.915
 8011SOL     OW24931   3.916   1.955   3.127
 8011SOL    HW124932   3.842   1.937   3.063
 8011SOL    HW224933   4.004   1.958   3.078
 8012SOL     OW24934   6.249   1.736   4.305
 8012SOL    HW124935   6.181   1.663   4.300
 8012SOL    HW224936   6.218   1.814   4.251
 8013SOL     OW24937   3.050   1.433   2.173
 8013SOL    HW124938   2.950   1.440   2.175
 8013SOL    HW224939   3.087   1.451   2.265
 8014SOL     OW24940   2.384   2.270   2.740
 8014SOL    HW124941   2.298   2.270   2.792
 8014SOL    HW224942   2.430   2.182   2.753
 8015SOL     OW24943   3.612   6.939   5.187
 8015SOL    HW124944   3.709   6.915   5.179
 8015SOL    HW224945   3.588   7.002   5.113
 8016SOL     OW24946   3.332   1.789   4.962
 8016SOL    HW124947   3.297   1.757   5.050
 8016SOL    HW224948   3.307   1.885   4.949
 8017SOL     OW24949   6.743   5.963   1.025
 8017SOL    HW124950   6.833   5.957   0.981
 8017SOL    HW224951   6.715   5.872   1.057
 8018SOL     OW24952   4.099   2.048   6.817
 8018SOL    HW124953   4.081   1.950   6.807
 8018SOL    HW224954   4.162   2.078   6.745
 8019SOL     OW24955   2.659   3.502   0.938
 8019SOL    HW124956   2.742   3.514   0.884
 8019SOL    HW224957   2.664   3.415   0.988
 8020SOL     OW24958   0.509   0.971   5.795
 8020SOL    HW124959   0.599   1.012   5.775
 8020SOL    HW224960   0.448   1.041   5.833
 8021SOL     OW24961   1.240   2.218   1.137
 8021SOL    HW124962   1.157   2.268   1.111
 8021SOL    HW224963   1.215   2.126   1.167
 8022SOL     OW24964   5.101   1.260   2.066
 8022SOL    HW124965   5.042   1.326   2.018
 8022SOL    HW224966   5.188   1.254   2.018
 8023SOL     OW24967   4.874   6.066   1.633
 8023SOL    HW124968   4.933   6.136   1.674
 8023SOL    HW224969   4.923   5.978   1.631
 8024SOL     OW24970   2.490   1.128   6.688
 8024SOL    HW124971   2.429   1.158   6.615
 8024SOL    HW224972   2.519   1.207   6.741
 8025SOL     OW24973   1.312   6.030   2.093
 8025SOL    HW124974   1.259   6.001   2.014
 8025SOL    HW224975   1.391   6.082   2.063
 8026SOL     OW24976   0.668   6.120   6.552
 8026SOL    HW124977   0.696   6.089   6.642
 8026SOL    HW224978   0.574   6.093   6.535
 8027SOL     OW24979   3.364   0.756   6.614
 8027SOL    HW124980   3.357   0.788   6.708
 8027SOL    HW224981   3.275   0.725   6.582
 8028SOL     OW24982   3.108   5.684   5.463
 8028SOL    HW124983   3.124   5.655   5.558
 8028SOL    HW224984   3.195   5.701   5.418
 8029SOL     OW24985   0.620   6.864   0.103
 8029SOL    HW124986   0.609   6.957   0.136
 8029SOL    HW224987   0.682   6.863   0.024
 8030SOL     OW24988   0.657   4.008   1.052
 8030SOL    HW124989   0.635   3.948   1.129
 8030SOL    HW224990   0.731   3.967   0.998
 8031SOL     OW24991   0.180   0.239   3.521
 8031SOL    HW124992   0.128   0.241   3.606
 8031SOL    HW224993   0.263   0.295   3.531
 8032SOL     OW24994   6.689   2.956   1.135
 8032SOL    HW124995   6.611   2.926   1.081
 8032SOL    HW224996   6.702   3.055   1.123
 8033SOL     OW24997   4.451   3.627   1.216
 8033SOL    HW124998   4.483   3.702   1.274
 8033SOL    HW224999   4.505   3.545   1.233
 8034SOL     OW25000   6.428   0.300   5.961
 8034SOL    HW125001   6.369   0.372   5.997
 8034SOL    HW225002   6.524   0.328   5.965
 8035SOL     OW25003   6.143   1.741   3.107
 8035SOL    HW125004   6.213   1.804   3.140
 8035SOL    HW225005   6.147   1.657   3.161
 8036SOL     OW25006   5.420   2.679   4.176
 8036SOL    HW125007   5.373   2.721   4.098
 8036SOL    HW225008   5.519   2.686   4.163
 8037SOL     OW25009   1.601   1.814   5.433
 8037SOL    HW125010   1.698   1.789   5.434
 8037SOL    HW225011   1.547   1.737   5.469
 8038SOL     OW25012   6.997   5.099   2.203
 8038SOL    HW125013   6.921   5.033   2.200
 8038SOL    HW225014   7.008   5.140   2.112
 8039SOL     OW25015   1.121   2.344   5.342
 8039SOL    HW125016   1.219   2.364   5.332
 8039SOL    HW225017   1.084   2.395   5.420
 8040SOL     OW25018   1.777   5.048   6.888
 8040SOL    HW125019   1.837   5.004   6.954
 8040SOL    HW225020   1.691   4.997   6.882
 8041SOL     OW25021   3.476   1.224   3.107
 8041SOL    HW125022   3.543   1.271   3.050
 8041SOL    HW225023   3.495   1.242   3.204
 8042SOL     OW25024   4.206   4.109   5.553
 8042SOL    HW125025   4.151   4.130   5.472
 8042SOL    HW225026   4.154   4.131   5.636
 8043SOL     OW25027   4.889   5.645   6.824
 8043SOL    HW125028   4.959   5.601   6.768
 8043SOL    HW225029   4.827   5.575   6.860
 8044SOL     OW25030   2.653   3.429   1.737
 8044SOL    HW125031   2.564   3.429   1.782
 8044SOL    HW225032   2.652   3.495   1.662
 8045SOL     OW25033   6.487   2.758   3.486
 8045SOL    HW125034   6.557   2.692   3.514
 8045SOL    HW225035   6.404   2.743   3.540
 8046SOL     OW25036   6.842   4.766   2.234
 8046SOL    HW125037   6.914   4.756   2.302
 8046SOL    HW225038   6.833   4.682   2.182
 8047SOL     OW25039   3.131   6.488   6.797
 8047SOL    HW125040   3.200   6.434   6.748
 8047SOL    HW225041   3.042   6.474   6.754
 8048SOL     OW25042   3.976   2.371   6.061
 8048SOL    HW125043   3.913   2.349   5.987
 8048SOL    HW225044   4.069   2.379   6.024
 8049SOL     OW25045   1.556   1.993   0.619
 8049SOL    HW125046   1.545   2.067   0.552
 8049SOL    HW225047   1.466   1.968   0.655
 8050SOL     OW25048   0.725   5.119   5.585
 8050SOL    HW125049   0.659   5.183   5.623
 8050SOL    HW225050   0.817   5.157   5.593
 8051SOL     OW25051   4.374   6.053   3.706
 8051SOL    HW125052   4.430   6.052   3.623
 8051SOL    HW225053   4.363   6.147   3.737
 8052SOL     OW25054   2.959   1.876   2.335
 8052SOL    HW125055   2.956   1.975   2.320
 8052SOL    HW225056   3.045   1.839   2.298
 8053SOL     OW25057   2.137   2.593   6.573
 8053SOL    HW125058   2.137   2.548   6.484
 8053SOL    HW225059   2.044   2.597   6.608
 8054SOL     OW25060   4.736   3.404   5.373
 8054SOL    HW125061   4.722   3.481   5.310
 8054SOL    HW225062   4.648   3.372   5.407
 8055SOL     OW25063   5.560   0.625   6.907
 8055SOL    HW125064   5.562   0.541   6.962
 8055SOL    HW225065   5.635   0.623   6.841
 8056SOL     OW25066   2.438   0.633   4.245
 8056SOL    HW125067   2.404   0.686   4.167
 8056SOL    HW225068   2.511   0.572   4.215
 8057SOL     OW25069   2.864   2.056   1.940
 8057SOL    HW125070   2.880   2.144   1.987
 8057SOL    HW225071   2.808   2.071   1.859
 8058SOL     OW25072   3.311   6.943   2.112
 8058SOL    HW125073   3.242   7.006   2.147
 8058SOL    HW225074   3.292   6.923   2.016
 8059SOL     OW25075   3.143   2.591   5.956
 8059SOL    HW125076   3.105   2.570   5.865
 8059SOL    HW225077   3.075   2.568   6.026
 8060SOL     OW25078   6.186   0.469   6.231
 8060SOL    HW125079   6.129   0.551   6.239
 8060SOL    HW225080   6.183   0.418   6.317
 8061SOL     OW25081   0.232   0.277   2.667
 8061SOL    HW125082   0.181   0.197   2.635
 8061SOL    HW225083   0.176   0.359   2.658
 8062SOL     OW25084   4.174   5.817   5.758
 8062SOL    HW125085   4.222   5.730   5.746
 8062SOL    HW225086   4.188   5.851   5.851
 8063SOL     OW25087   3.701   4.965   3.323
 8063SOL    HW125088   3.767   4.918   3.264
 8063SOL    HW225089   3.640   5.020   3.267
 8064SOL     OW25090   6.306   1.864   0.372
 8064SOL    HW125091   6.314   1.768   0.396
 8064SOL    HW225092   6.386   1.914   0.408
 8065SOL     OW25093   4.024   5.965   6.552
 8065SOL    HW125094   3.971   6.014   6.620
 8065SOL    HW225095   4.075   5.891   6.596
 8066SOL     OW25096   0.300   6.947   5.808
 8066SOL    HW125097   0.226   6.912   5.750
 8066SOL    HW225098   0.330   0.011   5.775
 8067SOL     OW25099   4.963   2.375   3.568
 8067SOL    HW125100   4.897   2.446   3.594
 8067SOL    HW225101   5.055   2.404   3.595
 8068SOL     OW25102   5.646   4.057   1.355
 8068SOL    HW125103   5.732   4.034   1.310
 8068SOL    HW225104   5.612   3.977   1.404
 8069SOL     OW25105   2.379   4.917   3.298
 8069SOL    HW125106   2.384   4.880   3.390
 8069SOL    HW225107   2.287   4.903   3.260
 8070SOL     OW25108   4.586   4.616   0.316
 8070SOL    HW125109   4.575   4.688   0.385
 8070SOL    HW225110   4.505   4.557   0.316
 8071SOL     OW25111   2.377   0.174   6.242
 8071SOL    HW125112   2.341   0.099   6.186
 8071SOL    HW225113   2.318   0.255   6.231
 8072SOL     OW25114   1.793   1.478   5.650
 8072SOL    HW125115   1.822   1.574   5.647
 8072SOL    HW225116   1.714   1.469   5.710
 8073SOL     OW25117   4.567   0.691   6.862
 8073SOL    HW125118   4.523   0.679   6.773
 8073SOL    HW225119   4.498   0.714   6.931
 8074SOL     OW25120   1.762   1.211   6.044
 8074SOL    HW125121   1.853   1.247   6.020
 8074SOL    HW225122   1.763   1.181   6.139
 8075SOL     OW25123   0.188   6.706   0.650
 8075SOL    HW125124   0.141   6.629   0.607
 8075SOL    HW225125   0.278   6.678   0.682
 8076SOL     OW25126   7.017   6.136   0.395
 8076SOL    HW125127   0.065   6.190   0.355
 8076SOL    HW225128   6.997   6.170   0.487
 8077SOL     OW25129   4.698   4.330   0.582
 8077SOL    HW125130   4.599   4.316   0.586
 8077SOL    HW225131   4.745   4.244   0.604
 8078SOL     OW25132   0.458   1.337   2.012
 8078SOL    HW125133   0.372   1.305   2.052
 8078SOL    HW225134   0.535   1.298   2.062
 8079SOL     OW25135   1.526   1.350   6.064
 8079SOL    HW125136   1.606   1.295   6.039
 8079SOL    HW225137   1.488   1.314   6.150
 8080SOL     OW25138   1.050   3.334   3.034
 8080SOL    HW125139   1.112   3.301   3.105
 8080SOL    HW225140   1.086   3.419   2.995
 8081SOL     OW25141   5.668   5.888   5.061
 8081SOL    HW125142   5.702   5.896   5.155
 8081SOL    HW225143   5.583   5.941   5.052
 8082SOL     OW25144   3.706   1.609   3.060
 8082SOL    HW125145   3.706   1.609   3.160
 8082SOL    HW225146   3.679   1.700   3.027
 8083SOL     OW25147   6.004   2.160   4.322
 8083SOL    HW125148   5.972   2.254   4.329
 8083SOL    HW225149   6.035   2.128   4.411
 8084SOL     OW25150   3.759   1.760   5.941
 8084SOL    HW125151   3.762   1.693   5.867
 8084SOL    HW225152   3.669   1.759   5.983
 8085SOL     OW25153   1.635   6.232   4.290
 8085SOL    HW125154   1.625   6.186   4.202
 8085SOL    HW225155   1.585   6.319   4.289
 8086SOL     OW25156   6.696   0.595   2.307
 8086SOL    HW125157   6.700   0.650   2.224
 8086SOL    HW225158   6.627   0.524   2.297
 8087SOL     OW25159   0.832   0.615   0.200
 8087SOL    HW125160   0.830   0.655   0.292
 8087SOL    HW225161   0.742   0.575   0.180
 8088SOL     OW25162   6.490   0.251   4.822
 8088SOL    HW125163   6.520   0.277   4.914
 8088SOL    HW225164   6.512   0.324   4.758
 8089SOL     OW25165   6.535   2.270   5.878
 8089SOL    HW125166   6.472   2.301   5.950
 8089SOL    HW225167   6.629   2.285   5.909
 8090SOL     OW25168   4.310   1.845   5.060
 8090SOL    HW125169   4.247   1.767   5.053
 8090SOL    HW225170   4.275   1.921   5.006
 8091SOL     OW25171   1.798   5.104   4.076
 8091SOL    HW125172   1.855   5.183   4.099
 8091SOL    HW225173   1.816   5.031   4.142
 8092SOL     OW25174   4.807   2.003   6.090
 8092SOL    HW125175   4.861   2.079   6.128
 8092SOL    HW225176   4.830   1.991   5.993
 8093SOL     OW25177   3.430   6.027   2.178
 8093SOL    HW125178   3.343   5.991   2.211
 8093SOL    HW225179   3.444   5.999   2.083
 8094SOL     OW25180   2.174   4.729   4.204
 8094SOL    HW125181   2.194   4.722   4.301
 8094SOL    HW225182   2.250   4.691   4.151
 8095SOL     OW25183   1.569   4.901   5.328
 8095SOL    HW125184   1.504   4.974   5.351
 8095SOL    HW225185   1.607   4.864   5.413
 8096SOL     OW25186   1.324   5.994   1.345
 8096SOL    HW125187   1.286   5.945   1.423
 8096SOL    HW225188   1.392   6.060   1.377
 8097SOL     OW25189   4.690   6.167   5.978
 8097SOL    HW125190   4.706   6.232   5.904
 8097SOL    HW225191   4.716   6.207   6.065
 8098SOL     OW25192   1.795   5.952   5.189
 8098SOL    HW125193   1.889   5.927   5.213
 8098SOL    HW225194   1.782   5.944   5.091
 8099SOL     OW25195   2.399   4.865   2.917
 8099SOL    HW125196   2.488   4.826   2.939
 8099SOL    HW225197   2.328   4.811   2.963
 8100SOL     OW25198   0.519   1.062   6.925
 8100SOL    HW125199   0.422   1.084   6.937
 8100SOL    HW225200   0.536   1.036   6.830
 8101SOL     OW25201   3.017   6.086   1.327
 8101SOL    HW125202   2.981   5.997   1.354
 8101SOL    HW225203   2.985   6.108   1.235
 8102SOL     OW25204   1.831   3.156   4.743
 8102SOL    HW125205   1.781   3.235   4.777
 8102SOL    HW225206   1.930   3.175   4.748
 8103SOL     OW25207   3.215   1.051   1.490
 8103SOL    HW125208   3.121   1.064   1.521
 8103SOL    HW225209   3.226   1.092   1.399
 8104SOL     OW25210   2.094   5.802   0.224
 8104SOL    HW125211   2.060   5.736   0.291
 8104SOL    HW225212   2.079   5.765   0.132
 8105SOL     OW25213   6.981   0.318   3.270
 8105SOL    HW125214   7.019   0.380   3.338
 8105SOL    HW225215   6.982   0.224   3.305
 8106SOL     OW25216   2.139   0.118   6.064
 8106SOL    HW125217   2.187   0.035   6.035
 8106SOL    HW225218   2.064   0.136   6.001
 8107SOL     OW25219   1.635   6.319   6.203
 8107SOL    HW125220   1.543   6.351   6.181
 8107SOL    HW225221   1.697   6.343   6.129
 8108SOL     OW25222   0.780   1.368   6.905
 8108SOL    HW125223   0.873   1.401   6.926
 8108SOL    HW225224   0.742   1.324   6.986
 8109SOL     OW25225   6.409   3.148   0.672
 8109SOL    HW125226   6.481   3.206   0.710
 8109SOL    HW225227   6.333   3.205   0.642
 8110SOL     OW25228   3.818   5.032   1.355
 8110SOL    HW125229   3.745   5.056   1.419
 8110SOL    HW225230   3.782   5.038   1.261
 8111SOL     OW25231   6.419   1.137   2.616
 8111SOL    HW125232   6.396   1.106   2.524
 8111SOL    HW225233   6.374   1.079   2.684
 8112SOL     OW25234   1.631   3.701   5.911
 8112SOL    HW125235   1.678   3.770   5.966
 8112SOL    HW225236   1.537   3.690   5.944
 8113SOL     OW25237   5.672   3.210   5.844
 8113SOL    HW125238   5.699   3.210   5.940
 8113SOL    HW225239   5.642   3.302   5.818
 8114SOL     OW25240   1.756   4.095   1.714
 8114SOL    HW125241   1.799   4.019   1.762
 8114SOL    HW225242   1.818   4.173   1.714
 8115SOL     OW25243   2.513   1.780   6.131
 8115SOL    HW125244   2.434   1.794   6.072
 8115SOL    HW225245   2.482   1.753   6.222
 8116SOL     OW25246   3.952   3.462   1.029
 8116SOL    HW125247   3.973   3.372   0.989
 8116SOL    HW225248   3.899   3.449   1.113
 8117SOL     OW25249   2.467   6.937   3.390
 8117SOL    HW125250   2.505   6.849   3.418
 8117SOL    HW225251   2.533   6.985   3.332
 8118SOL     OW25252   6.114   3.320   0.362
 8118SOL    HW125253   6.127   3.223   0.345
 8118SOL    HW225254   6.170   3.374   0.299
 8119SOL     OW25255   6.088   6.468   0.290
 8119SOL    HW125256   6.157   6.439   0.357
 8119SOL    HW225257   6.114   6.435   0.199
 8120SOL     OW25258   3.210   6.610   1.431
 8120SOL    HW125259   3.193   6.707   1.449
 8120SOL    HW225260   3.185   6.589   1.337
 8121SOL     OW25261   0.897   3.700   3.070
 8121SOL    HW125262   0.973   3.731   3.126
 8121SOL    HW225263   0.850   3.625   3.116
 8122SOL     OW25264   0.901   4.854   1.741
 8122SOL    HW125265   0.851   4.940   1.731
 8122SOL    HW225266   0.837   4.778   1.750
 8123SOL     OW25267   0.423   1.866   6.833
 8123SOL    HW125268   0.516   1.846   6.864
 8123SOL    HW225269   0.362   1.868   6.912
 8124SOL     OW25270   5.401   4.467   4.608
 8124SOL    HW125271   5.350   4.515   4.679
 8124SOL    HW225272   5.435   4.534   4.541
 8125SOL     OW25273   1.631   6.079   3.131
 8125SOL    HW125274   1.684   5.994   3.125
 8125SOL    HW225275   1.636   6.127   3.044
 8126SOL     OW25276   3.552   5.093   4.467
 8126SOL    HW125277   3.585   5.169   4.411
 8126SOL    HW225278   3.629   5.049   4.512
 8127SOL     OW25279   3.365   2.979   0.080
 8127SOL    HW125280   3.367   2.885   0.116
 8127SOL    HW225281   3.456   3.003   0.046
 8128SOL     OW25282   3.647   2.993   1.577
 8128SOL    HW125283   3.719   2.926   1.557
 8128SOL    HW225284   3.688   3.084   1.584
 8129SOL     OW25285   1.952   2.943   2.292
 8129SOL    HW125286   1.981   2.893   2.210
 8129SOL    HW225287   2.014   3.019   2.308
 8130SOL     OW25288   1.686   5.214   6.487
 8130SOL    HW125289   1.629   5.171   6.417
 8130SOL    HW225290   1.747   5.145   6.527
 8131SOL     OW25291   1.981   3.739   6.853
 8131SOL    HW125292   1.971   3.718   6.756
 8131SOL    HW225293   1.963   3.657   6.907
 8132SOL     OW25294   0.194   0.132   5.103
 8132SOL    HW125295   0.121   0.197   5.083
 8132SOL    HW225296   0.156   0.039   5.108
 8133SOL     OW25297   4.052   4.857   0.683
 8133SOL    HW125298   4.054   4.917   0.763
 8133SOL    HW225299   4.010   4.905   0.606
 8134SOL     OW25300   5.652   1.052   6.108
 8134SOL    HW125301   5.576   0.994   6.137
 8134SOL    HW225302   5.631   1.094   6.019
 8135SOL     OW25303   2.189   0.037   1.690
 8135SOL    HW125304   2.258   0.099   1.651
 8135SOL    HW225305   2.135   0.086   1.758
 8136SOL     OW25306   4.518   4.395   2.327
 8136SOL    HW125307   4.576   4.318   2.355
 8136SOL    HW225308   4.496   4.386   2.230
 8137SOL     OW25309   4.174   1.323   4.748
 8137SOL    HW125310   4.130   1.281   4.827
 8137SOL    HW225311   4.146   1.275   4.665
 8138SOL     OW25312   5.009   1.292   1.622
 8138SOL    HW125313   5.056   1.374   1.654
 8138SOL    HW225314   4.920   1.284   1.668
 8139SOL     OW25315   0.799   2.253   3.816
 8139SOL    HW125316   0.889   2.252   3.773
 8139SOL    HW225317   0.729   2.269   3.746
 8140SOL     OW25318   3.905   0.754   2.833
 8140SOL    HW125319   3.858   0.697   2.901
 8140SOL    HW225320   3.876   0.849   2.843
 8141SOL     OW25321   4.640   4.811   4.634
 8141SOL    HW125322   4.615   4.863   4.553
 8141SOL    HW225323   4.582   4.840   4.711
 8142SOL     OW25324   6.759   5.942   0.653
 8142SOL    HW125325   6.827   5.947   0.726
 8142SOL    HW225326   6.802   5.907   0.570
 8143SOL     OW25327   5.868   3.534   4.577
 8143SOL    HW125328   5.938   3.606   4.576
 8143SOL    HW225329   5.880   3.474   4.499
 8144SOL     OW25330   6.007   6.540   5.991
 8144SOL    HW125331   6.001   6.550   6.090
 8144SOL    HW225332   6.040   6.625   5.950
 8145SOL     OW25333   5.823   6.085   2.928
 8145SOL    HW125334   5.804   5.989   2.948
 8145SOL    HW225335   5.918   6.106   2.951
 8146SOL     OW25336   3.084   1.235   4.351
 8146SOL    HW125337   3.160   1.299   4.360
 8146SOL    HW225338   2.999   1.286   4.338
 8147SOL     OW25339   5.026   0.755   3.522
 8147SOL    HW125340   5.005   0.806   3.606
 8147SOL    HW225341   4.967   0.674   3.517
 8148SOL     OW25342   5.495   3.846   3.474
 8148SOL    HW125343   5.588   3.850   3.511
 8148SOL    HW225344   5.442   3.925   3.507
 8149SOL     OW25345   4.400   4.639   3.321
 8149SOL    HW125346   4.452   4.626   3.237
 8149SOL    HW225347   4.411   4.733   3.353
 8150SOL     OW25348   0.650   5.437   1.273
 8150SOL    HW125349   0.701   5.438   1.188
 8150SOL    HW225350   0.592   5.518   1.279
 8151SOL     OW25351   1.261   1.727   5.264
 8151SOL    HW125352   1.226   1.765   5.349
 8151SOL    HW225353   1.290   1.802   5.204
 8152SOL     OW25354   1.020   1.329   3.478
 8152SOL    HW125355   1.026   1.424   3.448
 8152SOL    HW225356   1.050   1.269   3.403
 8153SOL     OW25357   2.151   6.750   0.653
 8153SOL    HW125358   2.145   6.850   0.656
 8153SOL    HW225359   2.059   6.711   0.653
 8154SOL     OW25360   1.993   7.000   3.870
 8154SOL    HW125361   2.048   0.021   3.800
 8154SOL    HW225362   2.051   6.935   3.919
 8155SOL     OW25363   3.259   3.028   3.364
 8155SOL    HW125364   3.224   3.018   3.457
 8155SOL    HW225365   3.272   3.124   3.344
 8156SOL     OW25366   6.532   0.377   6.263
 8156SOL    HW125367   6.463   0.439   6.301
 8156SOL    HW225368   6.621   0.423   6.261
 8157SOL     OW25369   6.428   3.641   6.528
 8157SOL    HW125370   6.496   3.714   6.530
 8157SOL    HW225371   6.433   3.593   6.441
 8158SOL     OW25372   1.738   5.277   2.373
 8158SOL    HW125373   1.817   5.336   2.356
 8158SOL    HW225374   1.662   5.304   2.313
 8159SOL     OW25375   1.805   5.708   2.343
 8159SOL    HW125376   1.836   5.783   2.285
 8159SOL    HW225377   1.713   5.726   2.376
 8160SOL     OW25378   4.301   2.042   2.088
 8160SOL    HW125379   4.225   2.032   2.024
 8160SOL    HW225380   4.388   2.027   2.039
 8161SOL     OW25381   4.681   1.282   0.507
 8161SOL    HW125382   4.734   1.260   0.425
 8161SOL    HW225383   4.646   1.375   0.499
 8162SOL     OW25384   5.509   0.674   1.706
 8162SOL    HW125385   5.506   0.754   1.766
 8162SOL    HW225386   5.425   0.620   1.718
 8163SOL     OW25387   2.467   4.113   5.418
 8163SOL    HW125388   2.480   4.088   5.322
 8163SOL    HW225389   2.399   4.053   5.459
 8164SOL     OW25390   4.460   2.182   1.671
 8164SOL    HW125391   4.446   2.262   1.729
 8164SOL    HW225392   4.403   2.190   1.589
 8165SOL     OW25393   2.164   4.836   1.659
 8165SOL    HW125394   2.211   4.853   1.572
 8165SOL    HW225395   2.099   4.909   1.677
 8166SOL     OW25396   2.992   0.060   1.813
 8166SOL    HW125397   3.079   0.095   1.778
 8166SOL    HW225398   2.924   0.132   1.809
 8167SOL     OW25399   5.162   2.802   3.755
 8167SOL    HW125400   5.197   2.808   3.661
 8167SOL    HW225401   5.131   2.708   3.772
 8168SOL     OW25402   3.118   0.916   2.751
 8168SOL    HW125403   3.197   0.971   2.725
 8168SOL    HW225404   3.146   0.822   2.770
 8169SOL     OW25405   4.866   4.083   6.184
 8169SOL    HW125406   4.915   3.999   6.204
 8169SOL    HW225407   4.907   4.128   6.105
 8170SOL     OW25408   0.606   5.772   3.984
 8170SOL    HW125409   0.642   5.854   3.939
 8170SOL    HW225410   0.506   5.780   3.991
 8171SOL     OW25411   0.820   1.720   5.713
 8171SOL    HW125412   0.813   1.757   5.621
 8171SOL    HW225413   0.730   1.690   5.744
 8172SOL     OW25414   6.972   6.224   0.647
 8172SOL    HW125415   7.022   6.153   0.697
 8172SOL    HW225416   6.881   6.236   0.688
 8173SOL     OW25417   5.378   3.072   6.286
 8173SOL    HW125418   5.462   3.069   6.231
 8173SOL    HW225419   5.319   2.995   6.262
 8174SOL     OW25420   5.466   0.372   2.367
 8174SOL    HW125421   5.410   0.315   2.428
 8174SOL    HW225422   5.563   0.353   2.384
 8175SOL     OW25423   1.158   3.841   6.329
 8175SOL    HW125424   1.168   3.930   6.372
 8175SOL    HW225425   1.228   3.779   6.365
 8176SOL     OW25426   2.603   5.704   3.206
 8176SOL    HW125427   2.553   5.657   3.132
 8176SOL    HW225428   2.682   5.753   3.167
 8177SOL     OW25429   1.021   0.072   6.178
 8177SOL    HW125430   1.080   7.022   6.150
 8177SOL    HW225431   0.937   0.071   6.124
 8178SOL     OW25432   1.975   6.920   6.444
 8178SOL    HW125433   1.921   6.871   6.375
 8178SOL    HW225434   2.072   6.902   6.429
 8179SOL     OW25435   2.999   1.428   0.022
 8179SOL    HW125436   2.943   1.360   0.069
 8179SOL    HW225437   3.082   1.384   7.013
 8180SOL     OW25438   4.917   5.416   4.753
 8180SOL    HW125439   4.955   5.465   4.831
 8180SOL    HW225440   4.880   5.481   4.687
 8181SOL     OW25441   2.581   2.203   2.510
 8181SOL    HW125442   2.496   2.246   2.540
 8181SOL    HW225443   2.591   2.214   2.411
 8182SOL     OW25444   3.811   2.311   5.865
 8182SOL    HW125445   3.811   2.331   5.767
 8182SOL    HW225446   3.728   2.348   5.906
 8183SOL     OW25447   1.678   3.382   4.818
 8183SOL    HW125448   1.699   3.441   4.740
 8183SOL    HW225449   1.590   3.409   4.858
 8184SOL     OW25450   5.883   6.178   5.617
 8184SOL    HW125451   5.977   6.161   5.589
 8184SOL    HW225452   5.871   6.275   5.639
 8185SOL     OW25453   1.196   1.574   3.057
 8185SOL    HW125454   1.199   1.673   3.073
 8185SOL    HW225455   1.282   1.546   3.014
 8186SOL     OW25456   3.753   4.800   6.030
 8186SOL    HW125457   3.746   4.751   5.943
 8186SOL    HW225458   3.692   4.879   6.028
 8187SOL     OW25459   1.333   1.740   5.793
 8187SOL    HW125460   1.398   1.665   5.797
 8187SOL    HW225461   1.268   1.724   5.719
 8188SOL     OW25462   5.808   3.879   2.650
 8188SOL    HW125463   5.755   3.963   2.635
 8188SOL    HW225464   5.827   3.835   2.562
 8189SOL     OW25465   6.136   4.453   2.318
 8189SOL    HW125466   6.130   4.550   2.339
 8189SOL    HW225467   6.069   4.430   2.248
 8190SOL     OW25468   5.227   3.460   2.593
 8190SOL    HW125469   5.238   3.454   2.692
 8190SOL    HW225470   5.269   3.544   2.559
 8191SOL     OW25471   0.539   5.146   2.177
 8191SOL    HW125472   0.520   5.069   2.116
 8191SOL    HW225473   0.456   5.173   2.225
 8192SOL     OW25474   1.556   3.713   1.085
 8192SOL    HW125475   1.628   3.677   1.026
 8192SOL    HW225476   1.467   3.686   1.049
 8193SOL     OW25477   3.346   0.553   6.209
 8193SOL    HW125478   3.278   0.624   6.225
 8193SOL    HW225479   3.434   0.595   6.186
 8194SOL     OW25480   1.665   0.410   0.876
 8194SOL    HW125481   1.644   0.492   0.930
 8194SOL    HW225482   1.651   0.429   0.779
 8195SOL     OW25483   6.020   0.183   0.949
 8195SOL    HW125484   6.101   0.222   0.907
 8195SOL    HW225485   5.971   0.253   1.001
 8196SOL     OW25486   2.467   0.477   6.232
 8196SOL    HW125487   2.368   0.466   6.231
 8196SOL    HW225488   2.502   0.451   6.322
 8197SOL     OW25489   0.962   6.908   0.126
 8197SOL    HW125490   0.895   6.862   0.184
 8197SOL    HW225491   0.989   6.995   0.168
 8198SOL     OW25492   4.243   6.363   2.675
 8198SOL    HW125493   4.291   6.388   2.759
 8198SOL    HW225494   4.250   6.438   2.609
 8199SOL     OW25495   6.018   3.724   0.791
 8199SOL    HW125496   6.029   3.819   0.761
 8199SOL    HW225497   5.926   3.711   0.826
 8200SOL     OW25498   4.865   3.687   1.593
 8200SOL    HW125499   4.902   3.779   1.608
 8200SOL    HW225500   4.929   3.633   1.539
 8201SOL     OW25501   6.311   1.346   4.518
 8201SOL    HW125502   6.361   1.429   4.540
 8201SOL    HW225503   6.259   1.360   4.434
 8202SOL     OW25504   1.730   4.339   3.931
 8202SOL    HW125505   1.748   4.314   4.026
 8202SOL    HW225506   1.665   4.415   3.928
 8203SOL     OW25507   6.198   3.658   1.174
 8203SOL    HW125508   6.099   3.662   1.184
 8203SOL    HW225509   6.241   3.687   1.260
 8204SOL     OW25510   3.636   7.015   0.623
 8204SOL    HW125511   3.586   0.033   0.548
 8204SOL    HW225512   3.642   6.916   0.607
 8205SOL     OW25513   5.638   5.511   3.272
 8205SOL    HW125514   5.571   5.554   3.212
 8205SOL    HW225515   5.591   5.471   3.351
 8206SOL     OW25516   4.559   1.794   3.913
 8206SOL    HW125517   4.525   1.876   3.960
 8206SOL    HW225518   4.611   1.738   3.977
 8207SOL     OW25519   2.947   6.703   0.177
 8207SOL    HW125520   2.870   6.668   0.125
 8207SOL    HW225521   3.027   6.644   0.163
 8208SOL     OW25522   1.500   4.880   6.086
 8208SOL    HW125523   1.419   4.837   6.126
 8208SOL    HW225524   1.556   4.810   6.041
 8209SOL     OW25525   0.809   6.546   5.352
 8209SOL    HW125526   0.800   6.479   5.425
 8209SOL    HW225527   0.733   6.537   5.288
 8210SOL     OW25528   3.315   1.586   0.105
 8210SOL    HW125529   3.326   1.578   0.204
 8210SOL    HW225530   3.221   1.613   0.085
 8211SOL     OW25531   2.926   3.576   4.848
 8211SOL    HW125532   2.860   3.508   4.815
 8211SOL    HW225533   2.923   3.580   4.947
 8212SOL     OW25534   3.502   6.333   1.712
 8212SOL    HW125535   3.471   6.244   1.679
 8212SOL    HW225536   3.542   6.384   1.637
 8213SOL     OW25537   4.291   4.207   1.698
 8213SOL    HW125538   4.227   4.134   1.723
 8213SOL    HW225539   4.372   4.202   1.757
 8214SOL     OW25540   3.925   5.234   4.457
 8214SOL    HW125541   3.984   5.193   4.387
 8214SOL    HW225542   3.852   5.286   4.413
 8215SOL     OW25543   3.313   6.086   6.264
 8215SOL    HW125544   3.413   6.083   6.264
 8215SOL    HW225545   3.278   6.003   6.219
 8216SOL     OW25546   5.699   4.697   1.613
 8216SOL    HW125547   5.757   4.623   1.578
 8216SOL    HW225548   5.679   4.679   1.710
 8217SOL     OW25549   2.105   6.260   3.663
 8217SOL    HW125550   2.166   6.340   3.660
 8217SOL    HW225551   2.155   6.179   3.632
 8218SOL     OW25552   2.777   6.260   5.122
 8218SOL    HW125553   2.785   6.309   5.035
 8218SOL    HW225554   2.849   6.291   5.185
 8219SOL     OW25555   3.988   3.005   1.784
 8219SOL    HW125556   4.046   3.054   1.848
 8219SOL    HW225557   4.037   2.924   1.750
 8220SOL     OW25558   3.176   3.839   4.617
 8220SOL    HW125559   3.208   3.876   4.703
 8220SOL    HW225560   3.081   3.808   4.627
 8221SOL     OW25561   5.761   3.938   3.112
 8221SOL    HW125562   5.745   4.032   3.081
 8221SOL    HW225563   5.672   3.894   3.130
 8222SOL     OW25564   6.757   2.773   0.719
 8222SOL    HW125565   6.827   2.744   0.784
 8222SOL    HW225566   6.666   2.764   0.761
 8223SOL     OW25567   2.142   6.346   6.336
 8223SOL    HW125568   2.177   6.259   6.301
 8223SOL    HW225569   2.214   6.392   6.388
 8224SOL     OW25570   5.228   1.080   0.199
 8224SOL    HW125571   5.271   1.107   0.285
 8224SOL    HW225572   5.288   1.106   0.123
 8225SOL     OW25573   5.831   2.370   7.017
 8225SOL    HW125574   5.795   2.444   6.960
 8225SOL    HW225575   5.766   2.351   0.066
 8226SOL     OW25576   3.748   1.027   0.104
 8226SOL    HW125577   3.822   0.963   0.086
 8226SOL    HW225578   3.773   1.118   0.069
 8227SOL     OW25579   3.938   2.188   2.726
 8227SOL    HW125580   3.996   2.127   2.672
 8227SOL    HW225581   3.936   2.278   2.683
 8228SOL     OW25582   2.539   0.100   4.661
 8228SOL    HW125583   2.448   0.084   4.623
 8228SOL    HW225584   2.531   0.161   4.741
 8229SOL     OW25585   4.437   4.290   0.567
 8229SOL    HW125586   4.364   4.265   0.503
 8229SOL    HW225587   4.426   4.238   0.652
 8230SOL     OW25588   5.461   0.517   5.927
 8230SOL    HW125589   5.503   0.607   5.940
 8230SOL    HW225590   5.516   0.464   5.862
 8231SOL     OW25591   2.835   1.347   2.540
 8231SOL    HW125592   2.762   1.281   2.524
 8231SOL    HW225593   2.872   1.334   2.632
 8232SOL     OW25594   3.362   5.514   3.223
 8232SOL    HW125595   3.459   5.527   3.244
 8232SOL    HW225596   3.310   5.595   3.250
 8233SOL     OW25597   1.586   0.950   6.441
 8233SOL    HW125598   1.563   0.976   6.535
 8233SOL    HW225599   1.517   0.984   6.378
 8234SOL     OW25600   1.557   2.209   0.458
 8234SOL    HW125601   1.582   2.229   0.363
 8234SOL    HW225602   1.618   2.258   0.519
 8235SOL     OW25603   0.648   0.717   1.619
 8235SOL    HW125604   0.569   0.673   1.577
 8235SOL    HW225605   0.697   0.652   1.676
 8236SOL     OW25606   0.990   0.117   1.681
 8236SOL    HW125607   1.050   0.056   1.733
 8236SOL    HW225608   1.046   0.178   1.624
 8237SOL     OW25609   3.994   4.617   5.972
 8237SOL    HW125610   3.972   4.632   5.876
 8237SOL    HW225611   3.920   4.651   6.029
 8238SOL     OW25612   0.522   5.219   1.339
 8238SOL    HW125613   0.567   5.307   1.328
 8238SOL    HW225614   0.455   5.224   1.413
 8239SOL     OW25615   2.087   1.654   6.344
 8239SOL    HW125616   2.060   1.559   6.364
 8239SOL    HW225617   2.027   1.716   6.394
 8240SOL     OW25618   3.790   3.546   4.733
 8240SOL    HW125619   3.791   3.629   4.790
 8240SOL    HW225620   3.875   3.495   4.747
 8241SOL     OW25621   1.860   3.383   5.494
 8241SOL    HW125622   1.918   3.460   5.520
 8241SOL    HW225623   1.853   3.379   5.394
 8242SOL     OW25624   0.623   3.546   2.312
 8242SOL    HW125625   0.547   3.495   2.271
 8242SOL    HW225626   0.617   3.541   2.412
 8243SOL     OW25627   1.260   5.432   4.035
 8243SOL    HW125628   1.358   5.427   4.015
 8243SOL    HW225629   1.230   5.348   4.080
 8244SOL     OW25630   6.737   1.442   3.576
 8244SOL    HW125631   6.718   1.354   3.531
 8244SOL    HW225632   6.786   1.502   3.513
 8245SOL     OW25633   5.686   2.603   2.246
 8245SOL    HW125634   5.708   2.700   2.256
 8245SOL    HW225635   5.680   2.580   2.149
 8246SOL     OW25636   1.958   5.083   6.689
 8246SOL    HW125637   2.026   5.014   6.710
 8246SOL    HW225638   1.887   5.083   6.760
 8247SOL     OW25639   2.961   5.318   2.942
 8247SOL    HW125640   3.046   5.370   2.936
 8247SOL    HW225641   2.933   5.311   3.038
 8248SOL     OW25642   6.255   5.311   4.118
 8248SOL    HW125643   6.211   5.285   4.032
 8248SOL    HW225644   6.203   5.276   4.195
 8249SOL     OW25645   3.053   1.276   6.746
 8249SOL    HW125646   2.988   1.351   6.757
 8249SOL    HW225647   3.012   1.191   6.779
 8250SOL     OW25648   1.099   1.970   6.610
 8250SOL    HW125649   1.135   1.880   6.583
 8250SOL    HW225650   1.013   1.987   6.561
 8251SOL     OW25651   1.019   2.378   5.073
 8251SOL    HW125652   1.073   2.386   5.156
 8251SOL    HW225653   0.955   2.454   5.067
 8252SOL     OW25654   0.947   1.853   6.395
 8252SOL    HW125655   0.886   1.825   6.470
 8252SOL    HW225656   0.893   1.868   6.312
 8253SOL     OW25657   4.442   5.845   6.812
 8253SOL    HW125658   4.416   5.815   6.904
 8253SOL    HW225659   4.510   5.781   6.774
 8254SOL     OW25660   6.033   5.323   0.329
 8254SOL    HW125661   5.953   5.322   0.268
 8254SOL    HW225662   6.053   5.230   0.358
 8255SOL     OW25663   2.418   0.383   5.488
 8255SOL    HW125664   2.471   0.369   5.572
 8255SOL    HW225665   2.384   0.477   5.485
 8256SOL     OW25666   1.230   5.252   4.906
 8256SOL    HW125667   1.297   5.313   4.949
 8256SOL    HW225668   1.141   5.297   4.903
 8257SOL     OW25669   5.299   3.960   3.106
 8257SOL    HW125670   5.226   3.935   3.043
 8257SOL    HW225671   5.375   3.896   3.096
 8258SOL     OW25672   0.435   3.208   2.864
 8258SOL    HW125673   0.429   3.136   2.934
 8258SOL    HW225674   0.346   3.252   2.855
 8259SOL     OW25675   5.653   2.020   4.245
 8259SOL    HW125676   5.674   2.073   4.163
 8259SOL    HW225677   5.645   1.923   4.222
 8260SOL     OW25678   5.173   2.731   1.027
 8260SOL    HW125679   5.173   2.830   1.044
 8260SOL    HW225680   5.080   2.702   1.005
 8261SOL     OW25681   5.433   1.517   2.784
 8261SOL    HW125682   5.355   1.456   2.795
 8261SOL    HW225683   5.429   1.561   2.694
 8262SOL     OW25684   5.434   3.310   2.168
 8262SOL    HW125685   5.455   3.405   2.143
 8262SOL    HW225686   5.517   3.255   2.163
 8263SOL     OW25687   6.611   1.382   5.440
 8263SOL    HW125688   6.637   1.321   5.365
 8263SOL    HW225689   6.516   1.409   5.430
 8264SOL     OW25690   3.111   0.449   2.684
 8264SOL    HW125691   3.181   0.503   2.637
 8264SOL    HW225692   3.140   0.353   2.689
 8265SOL     OW25693   4.940   6.062   0.592
 8265SOL    HW125694   4.927   5.963   0.584
 8265SOL    HW225695   5.037   6.082   0.603
 8266SOL     OW25696   3.299   0.993   3.964
 8266SOL    HW125697   3.275   0.902   3.999
 8266SOL    HW225698   3.223   1.056   3.981
 8267SOL     OW25699   2.125   3.360   2.698
 8267SOL    HW125700   2.067   3.333   2.620
 8267SOL    HW225701   2.202   3.297   2.705
 8268SOL     OW25702   3.177   4.374   6.497
 8268SOL    HW125703   3.152   4.403   6.405
 8268SOL    HW225704   3.124   4.293   6.522
 8269SOL     OW25705   6.554   3.005   4.612
 8269SOL    HW125706   6.631   3.015   4.548
 8269SOL    HW225707   6.583   3.036   4.703
 8270SOL     OW25708   4.263   6.066   6.800
 8270SOL    HW125709   4.326   5.990   6.785
 8270SOL    HW225710   4.221   6.093   6.713
 8271SOL     OW25711   3.557   6.998   5.890
 8271SOL    HW125712   3.602   0.059   5.915
 8271SOL    HW225713   3.458   7.010   5.894
 8272SOL     OW25714   1.155   0.879   2.045
 8272SOL    HW125715   1.075   0.878   1.984
 8272SOL    HW225716   1.221   0.811   2.014
 8273SOL     OW25717   3.991   0.851   6.989
 8273SOL    HW125718   4.074   0.806   6.956
 8273SOL    HW225719   3.940   0.787   0.021
 8274SOL     OW25720   5.190   6.261   5.374
 8274SOL    HW125721   5.218   6.357   5.378
 8274SOL    HW225722   5.255   6.205   5.425
 8275SOL     OW25723   5.247   1.002   4.336
 8275SOL    HW125724   5.168   1.052   4.301
 8275SOL    HW225725   5.218   0.938   4.407
 8276SOL     OW25726   6.518   2.309   6.928
 8276SOL    HW125727   6.523   2.209   6.930
 8276SOL    HW225728   6.597   2.345   6.878
 8277SOL     OW25729   1.492   0.219   0.383
 8277SOL    HW125730   1.470   0.316   0.380
 8277SOL    HW225731   1.489   0.187   0.478
 8278SOL     OW25732   2.865   1.090   0.700
 8278SOL    HW125733   2.816   1.155   0.758
 8278SOL    HW225734   2.932   1.041   0.755
 8279SOL     OW25735   3.948   5.773   5.317
 8279SOL    HW125736   3.958   5.862   5.360
 8279SOL    HW225737   4.032   5.719   5.332
 8280SOL     OW25738   5.307   3.810   6.743
 8280SOL    HW125739   5.391   3.797   6.691
 8280SOL    HW225740   5.251   3.727   6.737
 8281SOL     OW25741   2.745   5.620   6.847
 8281SOL    HW125742   2.673   5.689   6.852
 8281SOL    HW225743   2.734   5.554   6.921
 8282SOL     OW25744   2.731   3.167   1.664
 8282SOL    HW125745   2.663   3.099   1.691
 8282SOL    HW225746   2.712   3.254   1.711
 8283SOL     OW25747   0.487   6.957   3.750
 8283SOL    HW125748   0.401   6.931   3.794
 8283SOL    HW225749   0.484   6.934   3.653
 8284SOL     OW25750   3.761   1.656   2.022
 8284SOL    HW125751   3.780   1.558   2.012
 8284SOL    HW225752   3.673   1.677   1.978
 8285SOL     OW25753   1.635   4.217   7.005
 8285SOL    HW125754   1.650   4.129   6.959
 8285SOL    HW225755   1.649   4.292   6.940
 8286SOL     OW25756   6.380   2.544   5.638
 8286SOL    HW125757   6.395   2.468   5.574
 8286SOL    HW225758   6.331   2.618   5.592
 8287SOL     OW25759   2.184   0.748   3.544
 8287SOL    HW125760   2.134   0.829   3.513
 8287SOL    HW225761   2.118   0.678   3.572
 8288SOL     OW25762   1.755   0.028   3.020
 8288SOL    HW125763   1.733   6.968   3.066
 8288SOL    HW225764   1.849   0.055   3.043
 8289SOL     OW25765   5.777   0.803   6.742
 8289SOL    HW125766   5.765   0.744   6.662
 8289SOL    HW225767   5.866   0.785   6.784
 8290SOL     OW25768   4.602   2.821   1.739
 8290SOL    HW125769   4.608   2.904   1.795
 8290SOL    HW225770   4.681   2.762   1.757
 8291SOL     OW25771   5.064   6.068   6.427
 8291SOL    HW125772   5.028   6.068   6.334
 8291SOL    HW225773   5.078   5.973   6.457
 8292SOL     OW25774   0.851   2.600   5.033
 8292SOL    HW125775   0.849   2.593   4.933
 8292SOL    HW225776   0.870   2.695   5.059
 8293SOL     OW25777   2.777   5.458   3.911
 8293SOL    HW125778   2.778   5.412   3.822
 8293SOL    HW225779   2.733   5.400   3.978
 8294SOL     OW25780   5.259   4.063   5.781
 8294SOL    HW125781   5.199   4.020   5.713
 8294SOL    HW225782   5.346   4.012   5.784
 8295SOL     OW25783   4.923   4.560   2.360
 8295SOL    HW125784   4.871   4.519   2.285
 8295SOL    HW225785   4.926   4.659   2.348
 8296SOL     OW25786   3.953   6.648   2.550
 8296SOL    HW125787   3.913   6.612   2.634
 8296SOL    HW225788   3.938   6.584   2.475
 8297SOL     OW25789   5.838   4.425   2.986
 8297SOL    HW125790   5.903   4.444   2.913
 8297SOL    HW225791   5.861   4.478   3.067
 8298SOL     OW25792   0.223   6.740   0.043
 8298SOL    HW125793   0.264   6.745   0.134
 8298SOL    HW225794   0.293   6.759   6.999
 8299SOL     OW25795   0.776   3.206   7.020
 8299SOL    HW125796   0.686   3.207   6.975
 8299SOL    HW225797   0.798   3.113   0.024
 8300SOL     OW25798   5.968   5.128   4.158
 8300SOL    HW125799   5.939   5.102   4.066
 8300SOL    HW225800   5.894   5.178   4.204
 8301SOL     OW25801   5.830   6.387   0.338
 8301SOL    HW125802   5.926   6.408   0.323
 8301SOL    HW225803   5.803   6.420   0.429
 8302SOL     OW25804   3.618   6.689   5.415
 8302SOL    HW125805   3.606   6.597   5.451
 8302SOL    HW225806   3.672   6.685   5.331
 8303SOL     OW25807   0.235   5.324   2.477
 8303SOL    HW125808   0.278   5.247   2.429
 8303SOL    HW225809   0.205   5.391   2.410
 8304SOL     OW25810   5.950   4.250   3.235
 8304SOL    HW125811   5.872   4.274   3.177
 8304SOL    HW225812   6.026   4.312   3.215
 8305SOL     OW25813   5.270   6.829   5.956
 8305SOL    HW125814   5.316   6.850   6.042
 8305SOL    HW225815   5.229   6.913   5.919
 8306SOL     OW25816   6.397   1.404   3.568
 8306SOL    HW125817   6.403   1.497   3.604
 8306SOL    HW225818   6.472   1.388   3.503
 8307SOL     OW25819   1.853   3.599   2.981
 8307SOL    HW125820   1.945   3.574   3.011
 8307SOL    HW225821   1.786   3.564   3.047
 8308SOL     OW25822   1.208   5.791   0.872
 8308SOL    HW125823   1.230   5.800   0.969
 8308SOL    HW225824   1.189   5.881   0.833
 8309SOL     OW25825   6.116   5.250   4.370
 8309SOL    HW125826   6.095   5.191   4.291
 8309SOL    HW225827   6.034   5.299   4.398
 8310SOL     OW25828   1.846   0.660   1.587
 8310SOL    HW125829   1.807   0.701   1.669
 8310SOL    HW225830   1.831   0.561   1.588
 8311SOL     OW25831   4.753   5.845   3.182
 8311SOL    HW125832   4.822   5.917   3.177
 8311SOL    HW225833   4.794   5.761   3.217
 8312SOL     OW25834   6.069   1.661   0.198
 8312SOL    HW125835   6.138   1.689   0.265
 8312SOL    HW225836   6.007   1.595   0.241
 8313SOL     OW25837   5.799   2.223   5.562
 8313SOL    HW125838   5.753   2.273   5.635
 8313SOL    HW225839   5.812   2.128   5.590
 8314SOL     OW25840   4.796   6.239   4.211
 8314SOL    HW125841   4.701   6.266   4.196
 8314SOL    HW225842   4.816   6.238   4.309
 8315SOL     OW25843   3.627   3.004   4.866
 8315SOL    HW125844   3.671   2.927   4.912
 8315SOL    HW225845   3.678   3.026   4.783
 8316SOL     OW25846   2.352   1.998   5.379
 8316SOL    HW125847   2.406   2.055   5.316
 8316SOL    HW225848   2.255   2.009   5.359
 8317SOL     OW25849   1.499   1.662   3.957
 8317SOL    HW125850   1.540   1.586   4.007
 8317SOL    HW225851   1.541   1.668   3.866
 8318SOL     OW25852   4.043   6.567   5.981
 8318SOL    HW125853   4.096   6.516   6.049
 8318SOL    HW225854   3.986   6.635   6.027
 8319SOL     OW25855   2.017   5.637   6.249
 8319SOL    HW125856   1.961   5.657   6.329
 8319SOL    HW225857   1.978   5.682   6.169
 8320SOL     OW25858   3.813   3.249   5.214
 8320SOL    HW125859   3.750   3.231   5.290
 8320SOL    HW225860   3.848   3.342   5.220
 8321SOL     OW25861   0.371   0.085   0.482
 8321SOL    HW125862   0.387   0.178   0.515
 8321SOL    HW225863   0.296   0.086   0.416
 8322SOL     OW25864   0.888   0.062   0.547
 8322SOL    HW125865   0.878   6.996   0.508
 8322SOL    HW225866   0.808   0.117   0.523
 8323SOL     OW25867   5.684   4.634   0.104
 8323SOL    HW125868   5.764   4.658   0.159
 8323SOL    HW225869   5.618   4.710   0.107
 8324SOL     OW25870   5.506   6.860   0.221
 8324SOL    HW125871   5.589   6.871   0.276
 8324SOL    HW225872   5.483   6.763   0.216
 8325SOL     OW25873   1.502   6.719   5.217
 8325SOL    HW125874   1.454   6.724   5.304
 8325SOL    HW225875   1.600   6.704   5.234
 8326SOL     OW25876   1.876   3.494   6.966
 8326SOL    HW125877   1.893   3.404   7.007
 8326SOL    HW225878   1.778   3.512   6.965
 8327SOL     OW25879   1.176   6.154   4.948
 8327SOL    HW125880   1.090   6.104   4.943
 8327SOL    HW225881   1.228   6.139   4.864
 8328SOL     OW25882   0.998   6.618   0.134
 8328SOL    HW125883   0.907   6.586   0.106
 8328SOL    HW225884   0.989   6.702   0.186
 8329SOL     OW25885   1.477   2.645   4.754
 8329SOL    HW125886   1.510   2.725   4.705
 8329SOL    HW225887   1.387   2.664   4.793
 8330SOL     OW25888   3.044   0.829   6.726
 8330SOL    HW125889   3.034   0.929   6.729
 8330SOL    HW225890   3.057   0.794   6.818
 8331SOL     OW25891   1.900   2.251   6.510
 8331SOL    HW125892   1.843   2.181   6.468
 8331SOL    HW225893   1.890   2.337   6.460
 8332SOL     OW25894   6.702   4.139   1.704
 8332SOL    HW125895   6.638   4.194   1.757
 8332SOL    HW225896   6.669   4.132   1.610
 8333SOL     OW25897   1.991   3.912   0.026
 8333SOL    HW125898   1.976   3.824   7.006
 8333SOL    HW225899   1.902   3.953   0.048
 8334SOL     OW25900   3.208   1.738   5.196
 8334SOL    HW125901   3.255   1.781   5.273
 8334SOL    HW225902   3.138   1.801   5.161
 8335SOL     OW25903   5.447   4.730   5.804
 8335SOL    HW125904   5.533   4.725   5.754
 8335SOL    HW225905   5.465   4.721   5.902
 8336SOL     OW25906   1.268   3.962   3.870
 8336SOL    HW125907   1.328   3.927   3.797
 8336SOL    HW225908   1.175   3.929   3.855
 8337SOL     OW25909   6.777   1.185   4.011
 8337SOL    HW125910   6.840   1.262   4.010
 8337SOL    HW225911   6.819   1.108   3.962
 8338SOL     OW25912   2.968   5.202   0.876
 8338SOL    HW125913   2.935   5.129   0.934
 8338SOL    HW225914   2.937   5.290   0.911
 8339SOL     OW25915   5.838   0.454   1.439
 8339SOL    HW125916   5.822   0.529   1.375
 8339SOL    HW225917   5.936   0.446   1.458
 8340SOL     OW25918   6.419   2.134   6.411
 8340SOL    HW125919   6.487   2.187   6.462
 8340SOL    HW225920   6.334   2.186   6.407
 8341SOL     OW25921   3.640   1.246   0.602
 8341SOL    HW125922   3.562   1.277   0.549
 8341SOL    HW225923   3.707   1.203   0.542
 8342SOL     OW25924   4.808   0.581   6.868
 8342SOL    HW125925   4.724   0.634   6.867
 8342SOL    HW225926   4.864   0.609   6.946
 8343SOL     OW25927   5.877   5.036   3.907
 8343SOL    HW125928   5.819   4.991   3.974
 8343SOL    HW225929   5.840   5.127   3.887
 8344SOL     OW25930   1.291   4.706   6.275
 8344SOL    HW125931   1.303   4.611   6.305
 8344SOL    HW225932   1.259   4.762   6.352
 8345SOL     OW25933   5.523   0.030   3.607
 8345SOL    HW125934   5.557   0.103   3.548
 8345SOL    HW225935   5.525   0.062   3.702
 8346SOL     OW25936   5.702   2.600   4.461
 8346SOL    HW125937   5.654   2.535   4.402
 8346SOL    HW225938   5.634   2.655   4.511
 8347SOL     OW25939   2.241   1.940   6.720
 8347SOL    HW125940   2.314   2.004   6.744
 8347SOL    HW225941   2.241   1.926   6.621
 8348SOL     OW25942   2.625   5.930   2.033
 8348SOL    HW125943   2.542   5.978   2.005
 8348SOL    HW225944   2.662   5.971   2.116
 8349SOL     OW25945   5.803   6.269   2.219
 8349SOL    HW125946   5.775   6.265   2.123
 8349SOL    HW225947   5.723   6.280   2.277
 8350SOL     OW25948   1.813   1.800   6.986
 8350SOL    HW125949   1.811   1.715   0.014
 8350SOL    HW225950   1.720   1.837   6.979
 8351SOL     OW25951   0.335   2.991   3.020
 8351SOL    HW125952   0.414   2.933   3.000
 8351SOL    HW225953   0.257   2.934   3.047
 8352SOL     OW25954   2.996   5.613   0.477
 8352SOL    HW125955   3.059   5.537   0.458
 8352SOL    HW225956   2.916   5.578   0.526
 8353SOL     OW25957   1.224   5.512   1.417
 8353SOL    HW125958   1.171   5.493   1.499
 8353SOL    HW225959   1.164   5.509   1.337
 8354SOL     OW25960   3.648   0.745   3.445
 8354SOL    HW125961   3.639   0.645   3.438
 8354SOL    HW225962   3.561   0.787   3.420
 8355SOL     OW25963   3.339   5.879   6.796
 8355SOL    HW125964   3.355   5.915   6.705
 8355SOL    HW225965   3.259   5.924   6.837
 8356SOL     OW25966   2.354   4.885   0.597
 8356SOL    HW125967   2.452   4.876   0.582
 8356SOL    HW225968   2.337   4.958   0.664
 8357SOL     OW25969   4.999   6.482   5.279
 8357SOL    HW125970   5.089   6.515   5.308
 8357SOL    HW225971   4.940   6.471   5.358
 8358SOL     OW25972   1.495   1.060   5.243
 8358SOL    HW125973   1.590   1.032   5.261
 8358SOL    HW225974   1.459   1.108   5.322
 8359SOL     OW25975   4.324   1.924   6.194
 8359SOL    HW125976   4.422   1.914   6.173
 8359SOL    HW225977   4.270   1.898   6.114
 8360SOL     OW25978   4.418   0.387   0.590
 8360SOL    HW125979   4.370   0.470   0.617
 8360SOL    HW225980   4.370   0.307   0.625
 8361SOL     OW25981   4.233   1.573   6.807
 8361SOL    HW125982   4.238   1.480   6.842
 8361SOL    HW225983   4.325   1.611   6.801
 8362SOL     OW25984   0.184   4.038   1.612
 8362SOL    HW125985   0.098   4.007   1.653
 8362SOL    HW225986   0.169   4.060   1.515
 8363SOL     OW25987   1.778   2.811   1.357
 8363SOL    HW125988   1.877   2.818   1.365
 8363SOL    HW225989   1.741   2.893   1.313
 8364SOL     OW25990   0.213   2.632   4.127
 8364SOL    HW125991   0.312   2.640   4.140
 8364SOL    HW225992   0.182   2.542   4.159
 8365SOL     OW25993   1.433   2.319   2.247
 8365SOL    HW125994   1.411   2.229   2.287
 8365SOL    HW225995   1.418   2.315   2.148
 8366SOL     OW25996   5.157   4.874   2.169
 8366SOL    HW125997   5.085   4.859   2.101
 8366SOL    HW225998   5.195   4.786   2.197
 8367SOL     OW25999   2.352   4.568   3.983
 8367SOL    HW126000   2.276   4.530   3.928
 8367SOL    HW226001   2.437   4.523   3.957
 8368SOL     OW26002   6.243   6.733   5.681
 8368SOL    HW126003   6.329   6.745   5.632
 8368SOL    HW226004   6.172   6.702   5.619
 8369SOL     OW26005   2.514   6.492   0.510
 8369SOL    HW126006   2.426   6.525   0.476
 8369SOL    HW226007   2.523   6.513   0.607
 8370SOL     OW26008   2.852   3.880   6.681
 8370SOL    HW126009   2.861   3.870   6.582
 8370SOL    HW226010   2.911   3.954   6.713
 8371SOL     OW26011   2.661   4.380   6.022
 8371SOL    HW126012   2.591   4.442   5.988
 8371SOL    HW226013   2.627   4.334   6.104
 8372SOL     OW26014   2.217   0.015   1.058
 8372SOL    HW126015   2.179   0.074   0.987
 8372SOL    HW226016   2.197   6.944   1.037
 8373SOL     OW26017   5.962   1.607   4.271
 8373SOL    HW126018   5.972   1.706   4.259
 8373SOL    HW226019   5.874   1.578   4.233
 8374SOL     OW26020   6.780   1.055   4.269
 8374SOL    HW126021   6.770   1.137   4.326
 8374SOL    HW226022   6.801   1.082   4.175
 8375SOL     OW26023   2.801   1.513   5.145
 8375SOL    HW126024   2.761   1.424   5.164
 8375SOL    HW226025   2.739   1.585   5.175
 8376SOL     OW26026   0.802   1.735   3.397
 8376SOL    HW126027   0.845   1.825   3.406
 8376SOL    HW226028   0.753   1.731   3.310
 8377SOL     OW26029   4.554   4.994   6.929
 8377SOL    HW126030   4.533   4.956   7.019
 8377SOL    HW226031   4.636   4.950   6.893
 8378SOL     OW26032   4.870   5.704   4.241
 8378SOL    HW126033   4.782   5.748   4.257
 8378SOL    HW226034   4.870   5.662   4.150
 8379SOL     OW26035   5.782   1.986   1.661
 8379SOL    HW126036   5.804   2.084   1.658
 8379SOL    HW226037   5.802   1.950   1.752
 8380SOL     OW26038   0.172   6.268   1.017
 8380SOL    HW126039   0.215   6.198   1.074
 8380SOL    HW226040   0.088   6.300   1.062
 8381SOL     OW26041   0.347   1.517   2.936
 8381SOL    HW126042   0.248   1.510   2.945
 8381SOL    HW226043   0.374   1.493   2.843
 8382SOL     OW26044   1.569   0.608   1.295
 8382SOL    HW126045   1.631   0.677   1.334
 8382SOL    HW226046   1.582   0.521   1.344
 8383SOL     OW26047   2.970   0.381   6.279
 8383SOL    HW126048   2.986   0.476   6.254
 8383SOL    HW226049   3.046   0.325   6.245
 8384SOL     OW26050   0.824   3.953   3.167
 8384SOL    HW126051   0.759   3.969   3.241
 8384SOL    HW226052   0.822   3.856   3.141
 8385SOL     OW26053   4.429   3.146   1.268
 8385SOL    HW126054   4.360   3.109   1.330
 8385SOL    HW226055   4.388   3.162   1.178
 8386SOL     OW26056   2.271   5.921   1.570
 8386SOL    HW126057   2.323   5.856   1.625
 8386SOL    HW226058   2.261   6.007   1.620
 8387SOL     OW26059   0.797   1.525   3.150
 8387SOL    HW126060   0.811   1.583   3.070
 8387SOL    HW226061   0.884   1.517   3.200
 8388SOL     OW26062   4.501   5.594   0.579
 8388SOL    HW126063   4.460   5.514   0.623
 8388SOL    HW226064   4.600   5.583   0.574
 8389SOL     OW26065   0.418   3.046   3.916
 8389SOL    HW126066   0.468   3.069   3.833
 8389SOL    HW226067   0.341   3.109   3.927
 8390SOL     OW26068   2.607   0.054   6.154
 8390SOL    HW126069   2.529   0.101   6.196
 8390SOL    HW226070   2.635   0.104   6.072
 8391SOL     OW26071   5.766   6.063   0.676
 8391SOL    HW126072   5.773   6.051   0.577
 8391SOL    HW226073   5.855   6.090   0.713
 8392SOL     OW26074   5.162   6.687   5.732
 8392SOL    HW126075   5.232   6.641   5.678
 8392SOL    HW226076   5.199   6.710   5.822
 8393SOL     OW26077   0.071   5.242   2.673
 8393SOL    HW126078   0.125   5.282   2.599
 8393SOL    HW226079   0.126   5.173   2.721
 8394SOL     OW26080   0.184   1.889   3.141
 8394SOL    HW126081   0.192   1.988   3.132
 8394SOL    HW226082   0.095   1.867   3.180
 8395SOL     OW26083   1.171   6.293   5.491
 8395SOL    HW126084   1.242   6.231   5.457
 8395SOL    HW226085   1.082   6.248   5.486
 8396SOL     OW26086   4.330   3.364   1.008
 8396SOL    HW126087   4.264   3.321   1.070
 8396SOL    HW226088   4.294   3.452   0.977
 8397SOL     OW26089   2.193   5.086   3.551
 8397SOL    HW126090   2.264   5.017   3.565
 8397SOL    HW226091   2.137   5.060   3.472
 8398SOL     OW26092   5.169   1.457   0.294
 8398SOL    HW126093   5.198   1.431   0.386
 8398SOL    HW226094   5.071   1.477   0.294
 8399SOL     OW26095   5.790   5.794   0.284
 8399SOL    HW126096   5.878   5.750   0.266
 8399SOL    HW226097   5.780   5.809   0.382
 8400SOL     OW26098   6.045   0.197   4.426
 8400SOL    HW126099   6.065   0.288   4.463
 8400SOL    HW226100   6.066   0.127   4.495
 8401SOL     OW26101   3.070   4.193   6.028
 8401SOL    HW126102   3.164   4.227   6.021
 8401SOL    HW226103   3.006   4.269   6.013
 8402SOL     OW26104   4.616   1.455   6.877
 8402SOL    HW126105   4.583   1.377   6.824
 8402SOL    HW226106   4.569   1.538   6.846
 8403SOL     OW26107   1.253   2.039   4.393
 8403SOL    HW126108   1.174   2.030   4.333
 8403SOL    HW226109   1.249   1.969   4.465
 8404SOL     OW26110   4.508   5.293   5.396
 8404SOL    HW126111   4.480   5.197   5.399
 8404SOL    HW226112   4.531   5.319   5.302
 8405SOL     OW26113   1.410   2.386   5.335
 8405SOL    HW126114   1.492   2.431   5.371
 8405SOL    HW226115   1.419   2.376   5.236
 8406SOL     OW26116   5.055   3.551   0.917
 8406SOL    HW126117   5.088   3.461   0.887
 8406SOL    HW226118   5.021   3.545   1.011
 8407SOL     OW26119   4.947   3.339   2.555
 8407SOL    HW126120   5.042   3.352   2.583
 8407SOL    HW226121   4.919   3.413   2.495
 8408SOL     OW26122   4.736   2.683   3.887
 8408SOL    HW126123   4.676   2.705   3.964
 8408SOL    HW226124   4.770   2.767   3.845
 8409SOL     OW26125   0.889   1.880   3.957
 8409SOL    HW126126   0.926   1.887   3.865
 8409SOL    HW226127   0.819   1.951   3.970
 8410SOL     OW26128   2.971   6.414   2.581
 8410SOL    HW126129   2.883   6.368   2.578
 8410SOL    HW226130   2.968   6.496   2.523
 8411SOL     OW26131   1.877   3.263   3.403
 8411SOL    HW126132   1.976   3.278   3.410
 8411SOL    HW226133   1.858   3.194   3.333
 8412SOL     OW26134   6.281   2.996   2.332
 8412SOL    HW126135   6.304   2.996   2.235
 8412SOL    HW226136   6.290   3.088   2.369
 8413SOL     OW26137   2.454   4.549   1.498
 8413SOL    HW126138   2.431   4.477   1.563
 8413SOL    HW226139   2.531   4.603   1.533
 8414SOL     OW26140   4.927   6.924   2.403
 8414SOL    HW126141   4.915   7.002   2.464
 8414SOL    HW226142   4.856   6.926   2.333
 8415SOL     OW26143   6.810   3.493   1.711
 8415SOL    HW126144   6.850   3.425   1.773
 8415SOL    HW226145   6.773   3.569   1.763
 8416SOL     OW26146   5.011   3.842   2.207
 8416SOL    HW126147   4.964   3.821   2.122
 8416SOL    HW226148   4.945   3.876   2.275
 8417SOL     OW26149   2.178   5.915   6.439
 8417SOL    HW126150   2.156   5.818   6.428
 8417SOL    HW226151   2.275   5.924   6.465
 8418SOL     OW26152   5.777   5.416   2.459
 8418SOL    HW126153   5.711   5.346   2.486
 8418SOL    HW226154   5.732   5.505   2.453
 8419SOL     OW26155   4.011   6.907   3.707
 8419SOL    HW126156   3.979   6.936   3.616
 8419SOL    HW226157   3.963   6.823   3.733
 8420SOL     OW26158   3.702   2.003   5.581
 8420SOL    HW126159   3.773   2.073   5.588
 8420SOL    HW226160   3.628   2.025   5.645
 8421SOL     OW26161   1.787   6.621   2.095
 8421SOL    HW126162   1.773   6.641   1.998
 8421SOL    HW226163   1.749   6.696   2.149
 8422SOL     OW26164   3.824   6.466   1.362
 8422SOL    HW126165   3.740   6.511   1.330
 8422SOL    HW226166   3.836   6.483   1.459
 8423SOL     OW26167   2.086   3.958   1.310
 8423SOL    HW126168   2.124   3.935   1.220
 8423SOL    HW226169   2.038   4.045   1.304
 8424SOL     OW26170   3.149   1.953   2.639
 8424SOL    HW126171   3.175   2.025   2.703
 8424SOL    HW226172   3.199   1.966   2.553
 8425SOL     OW26173   5.984   4.664   0.056
 8425SOL    HW126174   6.071   4.635   0.095
 8425SOL    HW226175   5.989   4.760   0.028
 8426SOL     OW26176   4.130   3.537   2.218
 8426SOL    HW126177   4.110   3.485   2.134
 8426SOL    HW226178   4.099   3.631   2.206
 8427SOL     OW26179   2.241   3.223   6.295
 8427SOL    HW126180   2.162   3.283   6.289
 8427SOL    HW226181   2.220   3.147   6.357
 8428SOL     OW26182   5.760   4.582   1.886
 8428SOL    HW126183   5.767   4.500   1.830
 8428SOL    HW226184   5.845   4.635   1.880
 8429SOL     OW26185   2.164   6.807   3.014
 8429SOL    HW126186   2.168   6.718   2.968
 8429SOL    HW226187   2.256   6.843   3.024
 8430SOL     OW26188   4.875   4.043   3.171
 8430SOL    HW126189   4.797   4.059   3.232
 8430SOL    HW226190   4.955   4.020   3.225
 8431SOL     OW26191   3.000   3.970   1.450
 8431SOL    HW126192   2.919   4.025   1.432
 8431SOL    HW226193   2.991   3.925   1.539
 8432SOL     OW26194   4.913   6.489   0.137
 8432SOL    HW126195   4.990   6.552   0.143
 8432SOL    HW226196   4.906   6.437   0.222
 8433SOL     OW26197   1.169   1.014   5.004
 8433SOL    HW126198   1.238   1.085   5.017
 8433SOL    HW226199   1.080   1.056   4.990
 8434SOL     OW26200   5.713   6.165   6.158
 8434SOL    HW126201   5.758   6.077   6.143
 8434SOL    HW226202   5.679   6.200   6.071
 8435SOL     OW26203   5.004   2.394   1.180
 8435SOL    HW126204   5.098   2.401   1.214
 8435SOL    HW226205   4.954   2.478   1.202
 8436SOL     OW26206   3.632   4.339   1.250
 8436SOL    HW126207   3.709   4.309   1.306
 8436SOL    HW226208   3.624   4.280   1.170
 8437SOL     OW26209   6.762   1.905   1.387
 8437SOL    HW126210   6.743   2.003   1.382
 8437SOL    HW226211   6.859   1.891   1.407
 8438SOL     OW26212   2.120   6.622   1.728
 8438SOL    HW126213   2.100   6.527   1.751
 8438SOL    HW226214   2.054   6.655   1.661
 8439SOL     OW26215   6.080   6.780   2.242
 8439SOL    HW126216   6.122   6.820   2.160
 8439SOL    HW226217   6.002   6.724   2.215
 8440SOL     OW26218   0.318   1.923   3.436
 8440SOL    HW126219   0.354   1.976   3.360
 8440SOL    HW226220   0.231   1.962   3.467
 8441SOL     OW26221   4.534   4.714   1.332
 8441SOL    HW126222   4.455   4.760   1.371
 8441SOL    HW226223   4.579   4.774   1.266
 8442SOL     OW26224   1.374   3.606   6.963
 8442SOL    HW126225   1.278   3.579   6.961
 8442SOL    HW226226   1.382   3.703   6.940
 8443SOL     OW26227   1.242   1.707   2.337
 8443SOL    HW126228   1.179   1.678   2.410
 8443SOL    HW226229   1.190   1.741   2.259
 8444SOL     OW26230   4.264   7.016   2.963
 8444SOL    HW126231   4.336   0.007   2.895
 8444SOL    HW226232   4.298   0.016   3.054
 8445SOL     OW26233   3.993   5.592   2.175
 8445SOL    HW126234   3.996   5.571   2.273
 8445SOL    HW226235   3.936   5.524   2.129
 8446SOL     OW26236   6.757   5.122   3.675
 8446SOL    HW126237   6.827   5.187   3.703
 8446SOL    HW226238   6.720   5.148   3.586
 8447SOL     OW26239   4.842   2.905   1.332
 8447SOL    HW126240   4.913   2.974   1.346
 8447SOL    HW226241   4.875   2.817   1.366
 8448SOL     OW26242   0.629   3.045   6.243
 8448SOL    HW126243   0.717   3.027   6.200
 8448SOL    HW226244   0.615   2.981   6.318
 8449SOL     OW26245   1.268   1.981   5.190
 8449SOL    HW126246   1.288   1.985   5.092
 8449SOL    HW226247   1.346   2.017   5.241
 8450SOL     OW26248   2.466   4.994   2.481
 8450SOL    HW126249   2.386   4.969   2.427
 8450SOL    HW226250   2.483   5.092   2.473
 8451SOL     OW26251   4.285   3.215   0.165
 8451SOL    HW126252   4.347   3.152   0.212
 8451SOL    HW226253   4.238   3.272   0.232
 8452SOL     OW26254   6.964   5.917   0.834
 8452SOL    HW126255   6.965   5.817   0.835
 8452SOL    HW226256   0.033   5.951   0.829
 8453SOL     OW26257   0.685   4.835   5.601
 8453SOL    HW126258   0.767   4.782   5.622
 8453SOL    HW226259   0.705   4.932   5.605
 8454SOL     OW26260   1.909   6.590   4.369
 8454SOL    HW126261   1.925   6.686   4.392
 8454SOL    HW226262   1.995   6.540   4.374
 8455SOL     OW26263   5.975   2.173   1.045
 8455SOL    HW126264   6.074   2.183   1.052
 8455SOL    HW226265   5.934   2.263   1.033
 8456SOL     OW26266   5.521   5.815   3.413
 8456SOL    HW126267   5.608   5.865   3.411
 8456SOL    HW226268   5.488   5.809   3.507
 8457SOL     OW26269   6.615   6.201   6.536
 8457SOL    HW126270   6.705   6.233   6.507
 8457SOL    HW226271   6.545   6.233   6.471
 8458SOL     OW26272   1.308   1.574   1.665
 8458SOL    HW126273   1.310   1.647   1.733
 8458SOL    HW226274   1.364   1.497   1.696
 8459SOL     OW26275   2.903   5.542   2.342
 8459SOL    HW126276   2.953   5.476   2.286
 8459SOL    HW226277   2.824   5.498   2.384
 8460SOL     OW26278   3.909   1.322   0.125
 8460SOL    HW126279   3.832   1.374   0.163
 8460SOL    HW226280   3.934   1.361   0.036
 8461SOL     OW26281   5.324   3.931   2.736
 8461SOL    HW126282   5.391   3.992   2.778
 8461SOL    HW226283   5.243   3.924   2.795
 8462SOL     OW26284   2.734   4.296   0.176
 8462SOL    HW126285   2.833   4.307   0.184
 8462SOL    HW226286   2.691   4.315   0.264
 8463SOL     OW26287   6.556   0.764   6.821
 8463SOL    HW126288   6.632   0.699   6.810
 8463SOL    HW226289   6.548   0.820   6.738
 8464SOL     OW26290   0.001   3.726   6.329
 8464SOL    HW126291   0.090   3.681   6.321
 8464SOL    HW226292   7.016   3.763   6.421
 8465SOL     OW26293   5.118   3.265   0.832
 8465SOL    HW126294   5.028   3.221   0.838
 8465SOL    HW226295   5.162   3.240   0.746
 8466SOL     OW26296   6.105   1.273   5.673
 8466SOL    HW126297   6.038   1.207   5.638
 8466SOL    HW226298   6.075   1.306   5.762
 8467SOL     OW26299   3.419   1.462   0.461
 8467SOL    HW126300   3.468   1.545   0.489
 8467SOL    HW226301   3.337   1.450   0.517
 8468SOL     OW26302   6.214   3.237   0.049
 8468SOL    HW126303   6.118   3.256   0.029
 8468SOL    HW226304   6.261   3.323   0.067
 8469SOL     OW26305   4.555   3.327   5.959
 8469SOL    HW126306   4.506   3.394   6.015
 8469SOL    HW226307   4.565   3.242   6.010
 8470SOL     OW26308   1.306   5.125   1.442
 8470SOL    HW126309   1.261   5.158   1.524
 8470SOL    HW226310   1.238   5.093   1.377
 8471SOL     OW26311   3.649   1.933   4.415
 8471SOL    HW126312   3.694   1.845   4.396
 8471SOL    HW226313   3.674   1.999   4.345
 8472SOL     OW26314   6.204   1.734   5.729
 8472SOL    HW126315   6.108   1.749   5.754
 8472SOL    HW226316   6.215   1.640   5.697
 8473SOL     OW26317   4.911   4.196   0.004
 8473SOL    HW126318   4.859   4.181   0.088
 8473SOL    HW226319   4.866   4.266   6.974
 8474SOL     OW26320   3.940   3.967   3.257
 8474SOL    HW126321   4.010   3.905   3.222
 8474SOL    HW226322   3.948   3.975   3.356
 8475SOL     OW26323   0.125   2.880   2.407
 8475SOL    HW126324   0.026   2.885   2.416
 8475SOL    HW226325   0.166   2.862   2.497
 8476SOL     OW26326   6.033   1.075   1.515
 8476SOL    HW126327   6.002   0.992   1.469
 8476SOL    HW226328   6.014   1.154   1.458
 8477SOL     OW26329   5.341   6.812   1.568
 8477SOL    HW126330   5.325   6.827   1.470
 8477SOL    HW226331   5.430   6.767   1.580
 8478SOL     OW26332   6.616   0.915   5.967
 8478SOL    HW126333   6.695   0.856   5.949
 8478SOL    HW226334   6.638   0.979   6.041
 8479SOL     OW26335   1.189   2.515   0.616
 8479SOL    HW126336   1.207   2.498   0.519
 8479SOL    HW226337   1.185   2.614   0.632
 8480SOL     OW26338   4.120   3.790   6.995
 8480SOL    HW126339   4.041   3.851   7.004
 8480SOL    HW226340   4.113   3.737   6.911
 8481SOL     OW26341   4.596   2.154   3.134
 8481SOL    HW126342   4.693   2.135   3.118
 8481SOL    HW226343   4.585   2.251   3.155
 8482SOL     OW26344   4.429   0.756   0.760
 8482SOL    HW126345   4.463   0.669   0.795
 8482SOL    HW226346   4.430   0.824   0.833
 8483SOL     OW26347   3.493   4.977   2.537
 8483SOL    HW126348   3.530   5.041   2.470
 8483SOL    HW226349   3.393   4.979   2.533
 8484SOL     OW26350   5.166   5.427   4.564
 8484SOL    HW126351   5.162   5.449   4.661
 8484SOL    HW226352   5.255   5.455   4.528
 8485SOL     OW26353   3.599   2.290   0.150
 8485SOL    HW126354   3.587   2.361   0.081
 8485SOL    HW226355   3.618   2.332   0.239
 8486SOL     OW26356   6.606   2.810   2.858
 8486SOL    HW126357   6.573   2.867   2.933
 8486SOL    HW226358   6.531   2.753   2.823
 8487SOL     OW26359   7.022   1.540   6.194
 8487SOL    HW126360   6.952   1.552   6.124
 8487SOL    HW226361   7.010   1.608   6.266
 8488SOL     OW26362   4.604   5.019   1.719
 8488SOL    HW126363   4.672   4.952   1.689
 8488SOL    HW226364   4.515   4.973   1.729
 8489SOL     OW26365   5.814   2.219   1.362
 8489SOL    HW126366   5.800   2.124   1.336
 8489SOL    HW226367   5.895   2.226   1.420
 8490SOL     OW26368   3.190   0.355   6.565
 8490SOL    HW126369   3.268   0.343   6.504
 8490SOL    HW226370   3.152   0.447   6.553
 8491SOL     OW26371   2.905   5.655   1.830
 8491SOL    HW126372   2.887   5.740   1.880
 8491SOL    HW226373   2.984   5.609   1.870
 8492SOL     OW26374   6.173   6.397   4.342
 8492SOL    HW126375   6.244   6.352   4.288
 8492SOL    HW226376   6.144   6.481   4.296
 8493SOL     OW26377   4.922   1.543   6.750
 8493SOL    HW126378   4.866   1.607   6.803
 8493SOL    HW226379   4.934   1.578   6.657
 8494SOL     OW26380   6.613   4.897   2.218
 8494SOL    HW126381   6.703   4.859   2.241
 8494SOL    HW226382   6.610   4.993   2.245
 8495SOL     OW26383   6.381   5.441   6.331
 8495SOL    HW126384   6.281   5.431   6.334
 8495SOL    HW226385   6.411   5.494   6.410
 8496SOL     OW26386   5.374   2.933   2.130
 8496SOL    HW126387   5.305   3.006   2.134
 8496SOL    HW226388   5.335   2.848   2.165
 8497SOL     OW26389   6.573   0.670   3.396
 8497SOL    HW126390   6.533   0.578   3.399
 8497SOL    HW226391   6.571   0.704   3.301
 8498SOL     OW26392   4.594   6.776   4.094
 8498SOL    HW126393   4.582   6.875   4.105
 8498SOL    HW226394   4.517   6.738   4.045
 8499SOL     OW26395   5.519   6.354   5.501
 8499SOL    HW126396   5.610   6.361   5.459
 8499SOL    HW226397   5.491   6.258   5.504
 8500SOL     OW26398   0.893   0.642   5.894
 8500SOL    HW126399   0.883   0.656   5.796
 8500SOL    HW226400   0.820   0.583   5.928
 8501SOL     OW26401   1.198   1.712   6.571
 8501SOL    HW126402   1.167   1.655   6.495
 8501SOL    HW226403   1.297   1.703   6.582
 8502SOL     OW26404   0.474   4.230   0.135
 8502SOL    HW126405   0.555   4.286   0.121
 8502SOL    HW226406   0.400   4.287   0.170
 8503SOL     OW26407   5.093   0.850   4.550
 8503SOL    HW126408   5.084   0.753   4.575
 8503SOL    HW226409   5.017   0.877   4.491
 8504SOL     OW26410   1.241   0.341   1.780
 8504SOL    HW126411   1.218   0.369   1.873
 8504SOL    HW226412   1.174   0.378   1.716
 8505SOL     OW26413   5.370   3.085   2.596
 8505SOL    HW126414   5.304   3.105   2.669
 8505SOL    HW226415   5.367   3.158   2.528
 8506SOL     OW26416   1.431   0.809   6.117
 8506SOL    HW126417   1.381   0.743   6.173
 8506SOL    HW226418   1.430   0.898   6.163
 8507SOL     OW26419   3.200   6.085   5.618
 8507SOL    HW126420   3.291   6.076   5.657
 8507SOL    HW226421   3.180   6.182   5.602
 8508SOL     OW26422   3.084   1.670   6.763
 8508SOL    HW126423   3.063   1.767   6.769
 8508SOL    HW226424   2.999   1.617   6.753
 8509SOL     OW26425   5.637   1.947   2.750
 8509SOL    HW126426   5.585   1.982   2.672
 8509SOL    HW226427   5.585   1.962   2.834
 8510SOL     OW26428   0.104   2.093   4.413
 8510SOL    HW126429   0.155   2.176   4.390
 8510SOL    HW226430   0.097   2.034   4.332
 8511SOL     OW26431   5.470   2.102   2.576
 8511SOL    HW126432   5.556   2.153   2.578
 8511SOL    HW226433   5.397   2.162   2.543
 8512SOL     OW26434   1.890   6.367   6.073
 8512SOL    HW126435   1.975   6.383   6.122
 8512SOL    HW226436   1.877   6.438   6.004
 8513SOL     OW26437   4.821   6.753   6.628
 8513SOL    HW126438   4.809   6.699   6.711
 8513SOL    HW226439   4.733   6.763   6.581
 8514SOL     OW26440   2.952   5.935   4.394
 8514SOL    HW126441   3.024   5.885   4.442
 8514SOL    HW226442   2.978   5.946   4.298
 8515SOL     OW26443   5.735   1.580   0.538
 8515SOL    HW126444   5.694   1.665   0.506
 8515SOL    HW226445   5.829   1.573   0.505
 8516SOL     OW26446   0.294   1.887   2.354
 8516SOL    HW126447   0.317   1.898   2.257
 8516SOL    HW226448   0.249   1.798   2.367
 8517SOL     OW26449   0.883   3.539   0.650
 8517SOL    HW126450   0.899   3.610   0.581
 8517SOL    HW226451   0.815   3.474   0.616
 8518SOL     OW26452   3.171   5.410   0.368
 8518SOL    HW126453   3.117   5.327   0.383
 8518SOL    HW226454   3.268   5.388   0.377
 8519SOL     OW26455   1.648   5.212   2.815
 8519SOL    HW126456   1.619   5.143   2.881
 8519SOL    HW226457   1.699   5.168   2.741
 8520SOL     OW26458   3.527   6.987   6.810
 8520SOL    HW126459   3.562   0.006   6.892
 8520SOL    HW226460   3.454   0.018   6.770
 8521SOL     OW26461   1.042   0.111   0.241
 8521SOL    HW126462   0.999   0.163   0.315
 8521SOL    HW226463   1.139   0.136   0.234
 8522SOL     OW26464   2.053   6.140   4.647
 8522SOL    HW126465   1.955   6.120   4.649
 8522SOL    HW226466   2.101   6.064   4.605
 8523SOL     OW26467   1.405   6.797   0.359
 8523SOL    HW126468   1.344   6.721   0.382
 8523SOL    HW226469   1.363   6.853   0.287
 8524SOL     OW26470   1.828   2.455   6.319
 8524SOL    HW126471   1.789   2.436   6.230
 8524SOL    HW226472   1.755   2.472   6.385
 8525SOL     OW26473   5.068   3.172   3.356
 8525SOL    HW126474   4.983   3.221   3.376
 8525SOL    HW226475   5.145   3.222   3.396
 8526SOL     OW26476   1.818   3.282   2.205
 8526SOL    HW126477   1.904   3.312   2.163
 8526SOL    HW226478   1.751   3.356   2.198
 8527SOL     OW26479   4.014   6.878   4.151
 8527SOL    HW126480   3.940   6.884   4.217
 8527SOL    HW226481   4.094   6.926   4.187
 8528SOL     OW26482   5.052   2.954   6.874
 8528SOL    HW126483   5.030   2.980   6.780
 8528SOL    HW226484   4.970   2.919   6.919
 8529SOL     OW26485   0.235   5.218   6.848
 8529SOL    HW126486   0.294   5.148   6.808
 8529SOL    HW226487   0.254   5.306   6.805
 8530SOL     OW26488   1.453   3.583   5.719
 8530SOL    HW126489   1.520   3.637   5.770
 8530SOL    HW226490   1.493   3.554   5.632
 8531SOL     OW26491   3.975   4.872   1.991
 8531SOL    HW126492   3.891   4.856   2.042
 8531SOL    HW226493   4.049   4.894   2.055
 8532SOL     OW26494   1.685   4.341   6.778
 8532SOL    HW126495   1.737   4.305   6.701
 8532SOL    HW226496   1.611   4.400   6.744
 8533SOL     OW26497   3.940   0.648   5.724
 8533SOL    HW126498   3.978   0.714   5.788
 8533SOL    HW226499   3.843   0.668   5.709
 8534SOL     OW26500   1.921   2.883   3.058
 8534SOL    HW126501   1.888   2.791   3.078
 8534SOL    HW226502   1.872   2.920   2.979
 8535SOL     OW26503   6.520   3.143   4.345
 8535SOL    HW126504   6.598   3.162   4.405
 8535SOL    HW226505   6.441   3.119   4.401
 8536SOL     OW26506   7.017   0.964   4.065
 8536SOL    HW126507   7.011   0.928   3.972
 8536SOL    HW226508   0.075   0.930   4.109
 8537SOL     OW26509   5.900   0.037   2.807
 8537SOL    HW126510   5.902   7.004   2.725
 8537SOL    HW226511   5.836   7.024   2.873
 8538SOL     OW26512   5.521   0.680   5.051
 8538SOL    HW126513   5.459   0.737   4.996
 8538SOL    HW226514   5.535   0.723   5.140
 8539SOL     OW26515   0.137   3.495   2.939
 8539SOL    HW126516   0.233   3.513   2.919
 8539SOL    HW226517   0.110   3.409   2.897
 8540SOL     OW26518   4.177   0.539   7.019
 8540SOL    HW126519   4.187   0.575   6.926
 8540SOL    HW226520   4.259   0.488   0.018
 8541SOL     OW26521   3.320   6.603   5.117
 8541SOL    HW126522   3.343   6.509   5.090
 8541SOL    HW226523   3.305   6.606   5.215
 8542SOL     OW26524   1.469   6.071   5.899
 8542SOL    HW126525   1.486   6.014   5.819
 8542SOL    HW226526   1.371   6.089   5.907
 8543SOL     OW26527   2.733   2.883   5.840
 8543SOL    HW126528   2.829   2.885   5.813
 8543SOL    HW226529   2.678   2.851   5.763
 8544SOL     OW26530   5.677   4.682   5.652
 8544SOL    HW126531   5.728   4.758   5.611
 8544SOL    HW226532   5.739   4.627   5.708
 8545SOL     OW26533   2.767   0.103   6.633
 8545SOL    HW126534   2.846   0.137   6.684
 8545SOL    HW226535   2.793   0.089   6.538
 8546SOL     OW26536   4.579   1.237   3.029
 8546SOL    HW126537   4.629   1.153   3.007
 8546SOL    HW226538   4.574   1.247   3.128
 8547SOL     OW26539   5.759   6.451   5.919
 8547SOL    HW126540   5.845   6.477   5.963
 8547SOL    HW226541   5.704   6.532   5.900
 8548SOL     OW26542   1.006   3.741   4.816
 8548SOL    HW126543   0.965   3.784   4.735
 8548SOL    HW226544   1.059   3.661   4.788
 8549SOL     OW26545   1.322   0.458   4.257
 8549SOL    HW126546   1.259   0.381   4.260
 8549SOL    HW226547   1.297   0.525   4.327
 8550SOL     OW26548   6.648   5.297   6.000
 8550SOL    HW126549   6.563   5.336   6.035
 8550SOL    HW226550   6.678   5.223   6.060
 8551SOL     OW26551   2.195   0.422   5.842
 8551SOL    HW126552   2.252   0.341   5.855
 8551SOL    HW226553   2.154   0.420   5.751
 8552SOL     OW26554   2.789   1.479   2.221
 8552SOL    HW126555   2.784   1.578   2.207
 8552SOL    HW226556   2.699   1.438   2.206
 8553SOL     OW26557   5.271   3.700   0.076
 8553SOL    HW126558   5.280   3.798   0.058
 8553SOL    HW226559   5.197   3.663   0.019
 8554SOL     OW26560   2.087   0.963   0.161
 8554SOL    HW126561   2.020   0.892   0.140
 8554SOL    HW226562   2.102   1.019   0.080
 8555SOL     OW26563   3.643   1.806   3.925
 8555SOL    HW126564   3.617   1.774   4.016
 8555SOL    HW226565   3.606   1.898   3.910
 8556SOL     OW26566   0.934   5.692   6.377
 8556SOL    HW126567   0.985   5.609   6.355
 8556SOL    HW226568   0.837   5.671   6.384
 8557SOL     OW26569   6.676   0.993   6.565
 8557SOL    HW126570   6.764   1.016   6.606
 8557SOL    HW226571   6.684   0.907   6.515
 8558SOL     OW26572   2.704   5.931   4.363
 8558SOL    HW126573   2.789   5.951   4.410
 8558SOL    HW226574   2.693   5.832   4.355
 8559SOL     OW26575   2.039   4.474   2.569
 8559SOL    HW126576   2.116   4.415   2.595
 8559SOL    HW226577   2.072   4.567   2.555
 8560SOL     OW26578   2.686   4.338   0.723
 8560SOL    HW126579   2.586   4.337   0.713
 8560SOL    HW226580   2.710   4.304   0.814
 8561SOL     OW26581   3.666   0.321   3.059
 8561SOL    HW126582   3.653   0.405   3.007
 8561SOL    HW226583   3.753   0.279   3.032
 8562SOL     OW26584   5.656   2.310   0.236
 8562SOL    HW126585   5.675   2.297   0.333
 8562SOL    HW226586   5.558   2.329   0.224
 8563SOL     OW26587   2.987   5.147   2.494
 8563SOL    HW126588   2.917   5.075   2.496
 8563SOL    HW226589   3.021   5.163   2.587
 8564SOL     OW26590   4.279   6.990   0.093
 8564SOL    HW126591   4.185   7.008   0.064
 8564SOL    HW226592   4.279   6.937   0.178
 8565SOL     OW26593   1.815   4.440   1.357
 8565SOL    HW126594   1.873   4.500   1.413
 8565SOL    HW226595   1.743   4.400   1.414
 8566SOL     OW26596   2.940   0.995   2.052
 8566SOL    HW126597   2.913   1.091   2.056
 8566SOL    HW226598   3.006   0.982   1.978
 8567SOL     OW26599   1.963   2.962   2.570
 8567SOL    HW126600   2.035   3.012   2.620
 8567SOL    HW226601   1.996   2.939   2.479
 8568SOL     OW26602   6.196   0.187   6.100
 8568SOL    HW126603   6.277   0.241   6.077
 8568SOL    HW226604   6.223   0.112   6.160
 8569SOL     OW26605   4.508   2.133   0.475
 8569SOL    HW126606   4.565   2.209   0.445
 8569SOL    HW226607   4.419   2.138   0.431
 8570SOL     OW26608   2.391   2.338   1.817
 8570SOL    HW126609   2.467   2.337   1.882
 8570SOL    HW226610   2.306   2.361   1.865
 8571SOL     OW26611   1.567   0.505   3.055
 8571SOL    HW126612   1.583   0.574   3.126
 8571SOL    HW226613   1.546   0.418   3.099
 8572SOL     OW26614   2.691   4.277   5.565
 8572SOL    HW126615   2.721   4.354   5.509
 8572SOL    HW226616   2.613   4.232   5.521
 8573SOL     OW26617   3.331   6.608   0.489
 8573SOL    HW126618   3.418   6.657   0.479
 8573SOL    HW226619   3.344   6.528   0.548
 8574SOL     OW26620   4.456   0.525   5.439
 8574SOL    HW126621   4.500   0.563   5.520
 8574SOL    HW226622   4.485   0.430   5.426
 8575SOL     OW26623   3.300   5.938   3.469
 8575SOL    HW126624   3.238   5.982   3.405
 8575SOL    HW226625   3.254   5.924   3.557
 8576SOL     OW26626   1.683   4.758   4.470
 8576SOL    HW126627   1.596   4.798   4.498
 8576SOL    HW226628   1.687   4.662   4.500
 8577SOL     OW26629   1.780   1.489   0.976
 8577SOL    HW126630   1.838   1.412   0.948
 8577SOL    HW226631   1.759   1.546   0.897
 8578SOL     OW26632   0.347   6.952   6.612
 8578SOL    HW126633   0.359   6.969   6.710
 8578SOL    HW226634   0.273   7.009   6.576
 8579SOL     OW26635   2.757   6.460   2.286
 8579SOL    HW126636   2.697   6.466   2.207
 8579SOL    HW226637   2.702   6.457   2.370
 8580SOL     OW26638   1.607   0.482   1.638
 8580SOL    HW126639   1.587   0.401   1.583
 8580SOL    HW226640   1.651   0.455   1.723
 8581SOL     OW26641   3.262   4.854   0.994
 8581SOL    HW126642   3.299   4.945   0.971
 8581SOL    HW226643   3.282   4.834   1.090
 8582SOL     OW26644   3.924   5.317   5.870
 8582SOL    HW126645   4.022   5.310   5.853
 8582SOL    HW226646   3.873   5.299   5.786
 8583SOL     OW26647   3.891   6.924   2.517
 8583SOL    HW126648   3.884   6.824   2.516
 8583SOL    HW226649   3.915   6.954   2.609
 8584SOL     OW26650   6.465   1.573   4.633
 8584SOL    HW126651   6.482   1.543   4.726
 8584SOL    HW226652   6.435   1.669   4.634
 8585SOL     OW26653   5.189   2.801   3.062
 8585SOL    HW126654   5.121   2.789   3.135
 8585SOL    HW226655   5.168   2.740   2.986
 8586SOL     OW26656   6.879   6.381   0.123
 8586SOL    HW126657   6.906   6.376   0.027
 8586SOL    HW226658   6.787   6.420   0.129
 8587SOL     OW26659   0.217   2.156   0.122
 8587SOL    HW126660   0.251   2.233   0.175
 8587SOL    HW226661   0.226   2.175   0.024
 8588SOL     OW26662   2.549   0.998   5.811
 8588SOL    HW126663   2.475   1.064   5.817
 8588SOL    HW226664   2.549   0.940   5.893
 8589SOL     OW26665   6.320   3.224   6.558
 8589SOL    HW126666   6.228   3.246   6.526
 8589SOL    HW226667   6.314   3.167   6.640
 8590SOL     OW26668   0.729   0.688   4.126
 8590SOL    HW126669   0.826   0.707   4.109
 8590SOL    HW226670   0.695   0.750   4.197
 8591SOL     OW26671   6.734   4.542   6.590
 8591SOL    HW126672   6.785   4.589   6.518
 8591SOL    HW226673   6.770   4.449   6.601
 8592SOL     OW26674   0.500   1.610   4.793
 8592SOL    HW126675   0.452   1.567   4.869
 8592SOL    HW226676   0.533   1.700   4.822
 8593SOL     OW26677   5.048   1.681   0.032
 8593SOL    HW126678   4.948   1.688   0.035
 8593SOL    HW226679   5.074   1.616   6.986
 8594SOL     OW26680   6.358   3.578   6.233
 8594SOL    HW126681   6.398   3.669   6.243
 8594SOL    HW226682   6.271   3.574   6.284
 8595SOL     OW26683   6.117   6.281   2.943
 8595SOL    HW126684   6.132   6.366   2.892
 8595SOL    HW226685   6.061   6.300   3.023
 8596SOL     OW26686   0.428   1.493   4.249
 8596SOL    HW126687   0.502   1.445   4.201
 8596SOL    HW226688   0.465   1.547   4.324
 8597SOL     OW26689   6.202   3.069   5.689
 8597SOL    HW126690   6.197   3.116   5.601
 8597SOL    HW226691   6.121   3.091   5.743
 8598SOL     OW26692   6.156   6.891   4.910
 8598SOL    HW126693   6.190   6.984   4.898
 8598SOL    HW226694   6.188   6.834   4.835
 8599SOL     OW26695   6.923   4.141   3.748
 8599SOL    HW126696   6.889   4.216   3.692
 8599SOL    HW226697   6.989   4.176   3.814
 8600SOL     OW26698   5.114   2.108   0.668
 8600SOL    HW126699   5.168   2.191   0.683
 8600SOL    HW226700   5.164   2.029   0.703
 8601SOL     OW26701   0.008   6.162   3.519
 8601SOL    HW126702   7.013   6.128   3.426
 8601SOL    HW226703   0.019   6.084   3.580
 8602SOL     OW26704   1.880   6.150   5.876
 8602SOL    HW126705   1.790   6.188   5.898
 8602SOL    HW226706   1.944   6.171   5.950
 8603SOL     OW26707   0.817   0.272   0.077
 8603SOL    HW126708   0.797   0.274   7.004
 8603SOL    HW226709   0.891   0.207   0.095
 8604SOL     OW26710   0.813   4.692   6.169
 8604SOL    HW126711   0.751   4.723   6.096
 8604SOL    HW226712   0.900   4.664   6.129
 8605SOL     OW26713   6.668   4.472   4.526
 8605SOL    HW126714   6.742   4.445   4.465
 8605SOL    HW226715   6.581   4.444   4.486
 8606SOL     OW26716   1.600   2.470   0.691
 8606SOL    HW126717   1.700   2.479   0.689
 8606SOL    HW226718   1.560   2.552   0.732
 8607SOL     OW26719   2.084   4.075   1.741
 8607SOL    HW126720   2.024   3.996   1.757
 8607SOL    HW226721   2.031   4.149   1.699
 8608SOL     OW26722   1.646   5.484   2.829
 8608SOL    HW126723   1.639   5.385   2.811
 8608SOL    HW226724   1.738   5.515   2.806
 8609SOL     OW26725   4.164   1.713   4.468
 8609SOL    HW126726   4.239   1.669   4.418
 8609SOL    HW226727   4.163   1.681   4.562
 8610SOL     OW26728   6.674   6.185   3.239
 8610SOL    HW126729   6.668   6.222   3.147
 8610SOL    HW226730   6.599   6.121   3.255
 8611SOL     OW26731   2.803   0.829   4.811
 8611SOL    HW126732   2.714   0.797   4.845
 8611SOL    HW226733   2.813   0.926   4.832
 8612SOL     OW26734   3.376   3.071   4.075
 8612SOL    HW126735   3.428   3.024   4.004
 8612SOL    HW226736   3.427   3.150   4.107
 8613SOL     OW26737   4.088   3.326   2.409
 8613SOL    HW126738   4.070   3.267   2.330
 8613SOL    HW226739   4.125   3.414   2.377
 8614SOL     OW26740   1.228   2.738   3.347
 8614SOL    HW126741   1.160   2.796   3.301
 8614SOL    HW226742   1.296   2.707   3.281
 8615SOL     OW26743   3.570   1.328   4.763
 8615SOL    HW126744   3.542   1.403   4.703
 8615SOL    HW226745   3.510   1.249   4.749
 8616SOL     OW26746   5.777   4.667   3.908
 8616SOL    HW126747   5.757   4.661   4.006
 8616SOL    HW226748   5.845   4.738   3.892
 8617SOL     OW26749   2.362   0.349   3.498
 8617SOL    HW126750   2.388   0.341   3.402
 8617SOL    HW226751   2.263   0.337   3.507
 8618SOL     OW26752   5.623   3.805   1.478
 8618SOL    HW126753   5.573   3.723   1.506
 8618SOL    HW226754   5.710   3.778   1.437
 8619SOL     OW26755   4.706   5.071   0.453
 8619SOL    HW126756   4.651   4.992   0.425
 8619SOL    HW226757   4.658   5.121   0.525
 8620SOL     OW26758   2.264   0.283   4.245
 8620SOL    HW126759   2.259   0.356   4.313
 8620SOL    HW226760   2.264   0.194   4.292
 8621SOL     OW26761   5.731   3.093   1.784
 8621SOL    HW126762   5.777   3.011   1.749
 8621SOL    HW226763   5.650   3.066   1.836
 8622SOL     OW26764   6.833   5.114   2.543
 8622SOL    HW126765   6.866   5.197   2.588
 8622SOL    HW226766   6.905   5.045   2.542
 8623SOL     OW26767   1.346   3.202   4.379
 8623SOL    HW126768   1.303   3.247   4.301
 8623SOL    HW226769   1.406   3.267   4.426
 8624SOL     OW26770   3.238   3.932   4.866
 8624SOL    HW126771   3.305   4.005   4.850
 8624SOL    HW226772   3.184   3.953   4.947
 8625SOL     OW26773   4.025   2.764   5.325
 8625SOL    HW126774   3.959   2.741   5.397
 8625SOL    HW226775   4.052   2.681   5.277
 8626SOL     OW26776   4.075   2.909   1.066
 8626SOL    HW126777   3.992   2.938   1.020
 8626SOL    HW226778   4.145   2.885   0.998
 8627SOL     OW26779   1.757   1.240   2.705
 8627SOL    HW126780   1.740   1.309   2.775
 8627SOL    HW226781   1.790   1.284   2.622
 8628SOL     OW26782   0.702   6.291   0.807
 8628SOL    HW126783   0.781   6.254   0.759
 8628SOL    HW226784   0.618   6.255   0.766
 8629SOL     OW26785   6.951   6.754   5.438
 8629SOL    HW126786   6.865   6.771   5.390
 8629SOL    HW226787   7.004   6.685   5.389
 8630SOL     OW26788   4.639   2.702   2.181
 8630SOL    HW126789   4.688   2.727   2.265
 8630SOL    HW226790   4.621   2.785   2.128
 8631SOL     OW26791   2.567   6.205   6.588
 8631SOL    HW126792   2.641   6.211   6.521
 8631SOL    HW226793   2.523   6.115   6.580
 8632SOL     OW26794   5.494   4.980   4.346
 8632SOL    HW126795   5.499   5.077   4.368
 8632SOL    HW226796   5.531   4.927   4.422
 8633SOL     OW26797   5.972   4.266   5.286
 8633SOL    HW126798   6.055   4.249   5.340
 8633SOL    HW226799   5.893   4.268   5.347
 8634SOL     OW26800   4.757   3.057   0.052
 8634SOL    HW126801   4.826   3.108   0.105
 8634SOL    HW226802   4.749   2.964   0.088
 8635SOL     OW26803   5.508   2.720   6.230
 8635SOL    HW126804   5.583   2.780   6.259
 8635SOL    HW226805   5.466   2.757   6.147
 8636SOL     OW26806   4.748   6.690   1.418
 8636SOL    HW126807   4.673   6.751   1.393
 8636SOL    HW226808   4.754   6.615   1.352
 8637SOL     OW26809   2.336   1.993   6.427
 8637SOL    HW126810   2.331   1.893   6.417
 8637SOL    HW226811   2.432   2.022   6.418
 8638SOL     OW26812   4.769   2.697   3.314
 8638SOL    HW126813   4.723   2.773   3.268
 8638SOL    HW226814   4.710   2.616   3.311
 8639SOL     OW26815   3.555   3.580   0.286
 8639SOL    HW126816   3.478   3.521   0.312
 8639SOL    HW226817   3.592   3.625   0.368
 8640SOL     OW26818   3.148   3.185   0.672
 8640SOL    HW126819   3.205   3.252   0.718
 8640SOL    HW226820   3.052   3.201   0.695
 8641SOL     OW26821   4.286   5.131   1.957
 8641SOL    HW126822   4.276   5.225   1.989
 8641SOL    HW226823   4.294   5.131   1.857
 8642SOL     OW26824   1.190   5.308   3.216
 8642SOL    HW126825   1.159   5.230   3.163
 8642SOL    HW226826   1.278   5.339   3.183
 8643SOL     OW26827   4.036   6.263   1.304
 8643SOL    HW126828   3.959   6.325   1.292
 8643SOL    HW226829   4.004   6.168   1.305
 8644SOL     OW26830   6.142   2.054   6.015
 8644SOL    HW126831   6.048   2.049   6.049
 8644SOL    HW226832   6.194   1.975   6.046
 8645SOL     OW26833   5.765   5.043   2.768
 8645SOL    HW126834   5.724   4.952   2.770
 8645SOL    HW226835   5.788   5.072   2.861
 8646SOL     OW26836   6.860   2.240   4.684
 8646SOL    HW126837   6.823   2.216   4.594
 8646SOL    HW226838   6.944   2.188   4.700
 8647SOL     OW26839   2.235   5.526   1.635
 8647SOL    HW126840   2.271   5.434   1.619
 8647SOL    HW226841   2.311   5.590   1.639
 8648SOL     OW26842   4.824   4.556   0.732
 8648SOL    HW126843   4.809   4.654   0.715
 8648SOL    HW226844   4.744   4.505   0.701
 8649SOL     OW26845   5.248   0.580   0.973
 8649SOL    HW126846   5.159   0.563   1.016
 8649SOL    HW226847   5.299   0.646   1.027
 8650SOL     OW26848   2.293   6.610   5.642
 8650SOL    HW126849   2.195   6.628   5.648
 8650SOL    HW226850   2.314   6.526   5.691
 8651SOL     OW26851   4.386   2.397   1.824
 8651SOL    HW126852   4.431   2.455   1.892
 8651SOL    HW226853   4.392   2.439   1.734
 8652SOL     OW26854   1.489   2.884   3.836
 8652SOL    HW126855   1.479   2.810   3.769
 8652SOL    HW226856   1.432   2.961   3.809
 8653SOL     OW26857   6.411   1.825   6.830
 8653SOL    HW126858   6.415   1.904   6.891
 8653SOL    HW226859   6.504   1.798   6.806
 8654SOL     OW26860   0.465   4.838   2.220
 8654SOL    HW126861   0.459   4.740   2.202
 8654SOL    HW226862   0.543   4.856   2.279
 8655SOL     OW26863   6.994   0.790   4.656
 8655SOL    HW126864   6.941   0.720   4.703
 8655SOL    HW226865   0.054   0.807   4.705
 8656SOL     OW26866   4.653   6.982   1.135
 8656SOL    HW126867   4.645   6.922   1.056
 8656SOL    HW226868   4.653   0.052   1.106
 8657SOL     OW26869   3.948   1.395   2.999
 8657SOL    HW126870   4.010   1.332   3.046
 8657SOL    HW226871   3.854   1.372   3.022
 8658SOL     OW26872   5.660   4.122   0.919
 8658SOL    HW126873   5.597   4.167   0.983
 8658SOL    HW226874   5.661   4.173   0.833
 8659SOL     OW26875   2.883   1.004   2.514
 8659SOL    HW126876   2.837   1.036   2.597
 8659SOL    HW226877   2.820   0.950   2.459
 8660SOL     OW26878   0.842   4.513   1.912
 8660SOL    HW126879   0.932   4.507   1.868
 8660SOL    HW226880   0.841   4.589   1.977
 8661SOL     OW26881   6.664   3.993   2.348
 8661SOL    HW126882   6.744   3.950   2.305
 8661SOL    HW226883   6.583   3.937   2.328
 8662SOL     OW26884   1.985   3.886   3.812
 8662SOL    HW126885   2.068   3.859   3.762
 8662SOL    HW226886   1.909   3.829   3.782
 8663SOL     OW26887   4.354   5.453   2.407
 8663SOL    HW126888   4.296   5.488   2.333
 8663SOL    HW226889   4.450   5.461   2.380
 8664SOL     OW26890   3.923   6.055   3.335
 8664SOL    HW126891   3.858   6.074   3.409
 8664SOL    HW226892   3.995   6.125   3.337
 8665SOL     OW26893   5.707   3.284   6.464
 8665SOL    HW126894   5.768   3.363   6.469
 8665SOL    HW226895   5.690   3.248   6.556
 8666SOL     OW26896   4.692   0.081   2.164
 8666SOL    HW126897   4.633   0.096   2.243
 8666SOL    HW226898   4.653   0.127   2.084
 8667SOL     OW26899   4.970   2.051   2.687
 8667SOL    HW126900   4.886   2.071   2.636
 8667SOL    HW226901   5.049   2.058   2.626
 8668SOL     OW26902   4.916   2.501   5.035
 8668SOL    HW126903   4.861   2.441   5.094
 8668SOL    HW226904   4.859   2.576   5.002
 8669SOL     OW26905   6.467   6.539   6.321
 8669SOL    HW126906   6.557   6.540   6.277
 8669SOL    HW226907   6.459   6.617   6.383
 8670SOL     OW26908   6.515   4.658   5.656
 8670SOL    HW126909   6.445   4.678   5.725
 8670SOL    HW226910   6.541   4.742   5.609
 8671SOL     OW26911   0.794   3.492   3.234
 8671SOL    HW126912   0.783   3.393   3.224
 8671SOL    HW226913   0.824   3.513   3.327
 8672SOL     OW26914   0.409   0.868   2.551
 8672SOL    HW126915   0.404   0.968   2.559
 8672SOL    HW226916   0.346   0.837   2.479
 8673SOL     OW26917   0.526   2.133   1.488
 8673SOL    HW126918   0.587   2.199   1.446
 8673SOL    HW226919   0.444   2.179   1.521
 8674SOL     OW26920   0.055   4.033   3.443
 8674SOL    HW126921   6.997   4.016   3.494
 8674SOL    HW226922   0.088   4.126   3.463
 8675SOL     OW26923   4.228   2.089   4.745
 8675SOL    HW126924   4.180   2.052   4.666
 8675SOL    HW226925   4.169   2.081   4.826
 8676SOL     OW26926   5.504   1.489   0.904
 8676SOL    HW126927   5.552   1.467   0.819
 8676SOL    HW226928   5.553   1.449   0.982
 8677SOL     OW26929   2.182   6.939   5.903
 8677SOL    HW126930   2.167   6.861   5.963
 8677SOL    HW226931   2.272   6.931   5.861
 8678SOL     OW26932   1.605   2.237   0.187
 8678SOL    HW126933   1.629   2.164   0.123
 8678SOL    HW226934   1.552   2.307   0.139
 8679SOL     OW26935   1.686   2.165   6.082
 8679SOL    HW126936   1.631   2.165   5.998
 8679SOL    HW226937   1.681   2.256   6.125
 8680SOL     OW26938   6.859   0.731   0.215
 8680SOL    HW126939   6.829   0.708   0.308
 8680SOL    HW226940   6.780   0.737   0.154
 8681SOL     OW26941   5.391   6.359   1.502
 8681SOL    HW126942   5.339   6.443   1.484
 8681SOL    HW226943   5.410   6.313   1.416
 8682SOL     OW26944   1.970   0.670   1.944
 8682SOL    HW126945   1.988   0.758   1.901
 8682SOL    HW226946   1.939   0.683   2.037
 8683SOL     OW26947   2.385   4.793   4.841
 8683SOL    HW126948   2.395   4.704   4.886
 8683SOL    HW226949   2.423   4.789   4.749
 8684SOL     OW26950   2.343   4.399   4.534
 8684SOL    HW126951   2.306   4.385   4.625
 8684SOL    HW226952   2.337   4.314   4.482
 8685SOL     OW26953   4.647   2.495   4.328
 8685SOL    HW126954   4.594   2.420   4.367
 8685SOL    HW226955   4.699   2.539   4.401
 8686SOL     OW26956   1.133   5.009   3.477
 8686SOL    HW126957   1.120   4.969   3.568
 8686SOL    HW226958   1.045   5.020   3.432
 8687SOL     OW26959   5.448   4.451   5.773
 8687SOL    HW126960   5.366   4.434   5.719
 8687SOL    HW226961   5.471   4.548   5.768
 8688SOL     OW26962   1.256   3.741   4.932
 8688SOL    HW126963   1.256   3.800   5.013
 8688SOL    HW226964   1.163   3.710   4.913
 8689SOL     OW26965   4.138   3.490   6.550
 8689SOL    HW126966   4.042   3.501   6.523
 8689SOL    HW226967   4.163   3.393   6.546
 8690SOL     OW26968   1.637   2.722   2.780
 8690SOL    HW126969   1.637   2.804   2.838
 8690SOL    HW226970   1.711   2.661   2.807
 8691SOL     OW26971   3.690   2.506   5.678
 8691SOL    HW126972   3.669   2.537   5.771
 8691SOL    HW226973   3.783   2.535   5.653
 8692SOL     OW26974   4.539   1.894   5.178
 8692SOL    HW126975   4.453   1.862   5.138
 8692SOL    HW226976   4.608   1.902   5.106
 8693SOL     OW26977   6.844   6.828   6.162
 8693SOL    HW126978   6.914   6.878   6.213
 8693SOL    HW226979   6.862   6.837   6.064
 8694SOL     OW26980   5.282   2.963   5.325
 8694SOL    HW126981   5.243   2.924   5.241
 8694SOL    HW226982   5.240   2.919   5.404
 8695SOL     OW26983   3.595   4.478   6.867
 8695SOL    HW126984   3.535   4.430   6.803
 8695SOL    HW226985   3.561   4.466   6.960
 8696SOL     OW26986   2.887   5.417   5.672
 8696SOL    HW126987   2.922   5.458   5.587
 8696SOL    HW226988   2.858   5.323   5.653
 8697SOL     OW26989   1.974   3.644   5.704
 8697SOL    HW126990   2.043   3.669   5.771
 8697SOL    HW226991   1.906   3.584   5.747
 8698SOL     OW26992   4.702   5.450   6.215
 8698SOL    HW126993   4.677   5.395   6.135
 8698SOL    HW226994   4.722   5.543   6.186
 8699SOL     OW26995   1.816   2.758   6.934
 8699SOL    HW126996   1.791   2.806   6.850
 8699SOL    HW226997   1.797   2.660   6.924
 8700SOL     OW26998   1.277   0.774   3.927
 8700SOL    HW126999   1.229   0.832   3.861
 8700SOL    HW227000   1.296   0.826   4.009
 8701SOL     OW27001   1.398   2.683   6.783
 8701SOL    HW127002   1.311   2.711   6.740
 8701SOL    HW227003   1.412   2.736   6.866
 8702SOL     OW27004   5.354   4.667   0.869
 8702SOL    HW127005   5.257   4.653   0.848
 8702SOL    HW227006   5.388   4.745   0.816
 8703SOL     OW27007   2.654   5.717   0.774
 8703SOL    HW127008   2.691   5.648   0.712
 8703SOL    HW227009   2.608   5.671   0.851
 8704SOL     OW27010   0.981   1.007   5.283
 8704SOL    HW127011   0.948   1.040   5.194
 8704SOL    HW227012   0.937   0.920   5.305
 8705SOL     OW27013   3.947   2.231   6.614
 8705SOL    HW127014   3.949   2.163   6.541
 8705SOL    HW227015   4.041   2.254   6.641
 8706SOL     OW27016   4.813   3.411   6.328
 8706SOL    HW127017   4.873   3.464   6.388
 8706SOL    HW227018   4.854   3.322   6.310
 8707SOL     OW27019   2.070   1.746   4.780
 8707SOL    HW127020   2.128   1.781   4.854
 8707SOL    HW227021   1.979   1.724   4.816
 8708SOL     OW27022   5.558   3.034   0.259
 8708SOL    HW127023   5.651   3.040   0.222
 8708SOL    HW227024   5.557   3.070   0.352
 8709SOL     OW27025   5.863   0.007   5.413
 8709SOL    HW127026   5.908   6.998   5.331
 8709SOL    HW227027   5.802   0.082   5.389
 8710SOL     OW27028   1.945   1.547   3.485
 8710SOL    HW127029   1.961   1.631   3.433
 8710SOL    HW227030   2.030   1.519   3.529
 8711SOL     OW27031   1.450   1.431   1.833
 8711SOL    HW127032   1.533   1.488   1.827
 8711SOL    HW227033   1.476   1.335   1.843
 8712SOL     OW27034   1.234   3.879   5.415
 8712SOL    HW127035   1.232   3.852   5.511
 8712SOL    HW227036   1.168   3.825   5.364
 8713SOL     OW27037   0.183   3.624   1.138
 8713SOL    HW127038   0.144   3.606   1.228
 8713SOL    HW227039   0.140   3.565   1.070
 8714SOL     OW27040   6.625   5.530   6.892
 8714SOL    HW127041   6.627   5.530   6.992
 8714SOL    HW227042   6.654   5.620   6.859
 8715SOL     OW27043   1.835   3.611   1.953
 8715SOL    HW127044   1.916   3.649   1.999
 8715SOL    HW227045   1.859   3.588   1.858
 8716SOL     OW27046   6.660   0.220   1.651
 8716SOL    HW127047   6.592   0.164   1.700
 8716SOL    HW227048   6.632   0.316   1.654
 8717SOL     OW27049   2.809   3.006   7.023
 8717SOL    HW127050   2.716   3.028   6.994
 8717SOL    HW227051   2.805   2.950   0.081
 8718SOL     OW27052   2.866   4.920   6.415
 8718SOL    HW127053   2.806   4.982   6.466
 8718SOL    HW227054   2.819   4.833   6.401
 8719SOL     OW27055   3.371   1.133   4.742
 8719SOL    HW127056   3.392   1.042   4.706
 8719SOL    HW227057   3.282   1.131   4.787
 8720SOL     OW27058   7.017   4.835   4.822
 8720SOL    HW127059   0.070   4.872   4.874
 8720SOL    HW227060   0.015   4.831   4.725
 8721SOL     OW27061   0.412   6.978   6.876
 8721SOL    HW127062   0.503   7.002   6.841
 8721SOL    HW227063   0.409   6.881   6.900
 8722SOL     OW27064   3.205   1.026   0.336
 8722SOL    HW127065   3.149   1.092   0.386
 8722SOL    HW227066   3.292   1.068   0.311
 8723SOL     OW27067   3.905   0.264   2.662
 8723SOL    HW127068   3.932   0.218   2.578
 8723SOL    HW227069   3.967   0.239   2.736
 8724SOL     OW27070   3.936   1.419   4.266
 8724SOL    HW127071   3.923   1.453   4.359
 8724SOL    HW227072   4.000   1.342   4.267
 8725SOL     OW27073   0.034   6.576   3.726
 8725SOL    HW127074   0.011   6.581   3.823
 8725SOL    HW227075   7.014   6.496   3.685
 8726SOL     OW27076   0.042   1.373   0.979
 8726SOL    HW127077   0.100   1.335   0.907
 8726SOL    HW227078   0.038   1.473   0.970
 8727SOL     OW27079   5.029   6.413   6.324
 8727SOL    HW127080   5.062   6.506   6.312
 8727SOL    HW227081   5.062   6.376   6.410
 8728SOL     OW27082   6.560   0.407   4.625
 8728SOL    HW127083   6.506   0.491   4.626
 8728SOL    HW227084   6.622   0.407   4.547
 8729SOL     OW27085   5.539   6.132   6.365
 8729SOL    HW127086   5.598   6.137   6.285
 8729SOL    HW227087   5.444   6.144   6.337
 8730SOL     OW27088   4.763   5.216   1.616
 8730SOL    HW127089   4.709   5.142   1.657
 8730SOL    HW227090   4.815   5.179   1.539
 8731SOL     OW27091   6.436   1.639   3.758
 8731SOL    HW127092   6.337   1.624   3.767
 8731SOL    HW227093   6.481   1.618   3.845
 8732SOL     OW27094   6.212   6.687   6.984
 8732SOL    HW127095   6.157   6.700   0.042
 8732SOL    HW227096   6.170   6.617   6.927
 8733SOL     OW27097   6.665   4.432   2.894
 8733SOL    HW127098   6.632   4.492   2.967
 8733SOL    HW227099   6.589   4.375   2.862
 8734SOL     OW27100   0.589   4.029   1.801
 8734SOL    HW127101   0.656   4.104   1.801
 8734SOL    HW227102   0.633   3.945   1.830
 8735SOL     OW27103   6.990   3.095   5.064
 8735SOL    HW127104   6.966   3.030   4.992
 8735SOL    HW227105   0.028   3.050   5.128
 8736SOL     OW27106   1.224   6.183   3.329
 8736SOL    HW127107   1.318   6.178   3.363
 8736SOL    HW227108   1.172   6.106   3.364
 8737SOL     OW27109   1.162   5.575   0.507
 8737SOL    HW127110   1.247   5.541   0.466
 8737SOL    HW227111   1.089   5.576   0.438
 8738SOL     OW27112   1.484   3.056   3.359
 8738SOL    HW127113   1.534   2.991   3.302
 8738SOL    HW227114   1.441   3.125   3.301
 8739SOL     OW27115   5.658   4.559   4.826
 8739SOL    HW127116   5.724   4.627   4.859
 8739SOL    HW227117   5.582   4.553   4.890
 8740SOL     OW27118   3.007   0.462   4.677
 8740SOL    HW127119   3.004   0.503   4.586
 8740SOL    HW227120   3.005   0.534   4.747
 8741SOL     OW27121   0.837   1.059   3.071
 8741SOL    HW127122   0.809   1.137   3.126
 8741SOL    HW227123   0.784   1.057   2.987
 8742SOL     OW27124   2.680   1.859   1.943
 8742SOL    HW127125   2.712   1.949   1.972
 8742SOL    HW227126   2.739   1.824   1.870
 8743SOL     OW27127   0.748   2.534   1.498
 8743SOL    HW127128   0.822   2.593   1.464
 8743SOL    HW227129   0.718   2.566   1.588
 8744SOL     OW27130   3.460   4.371   5.662
 8744SOL    HW127131   3.428   4.278   5.647
 8744SOL    HW227132   3.554   4.370   5.696
 8745SOL     OW27133   5.940   1.421   6.039
 8745SOL    HW127134   6.020   1.372   6.072
 8745SOL    HW227135   5.918   1.496   6.102
 8746SOL     OW27136   4.263   4.889   5.512
 8746SOL    HW127137   4.269   4.919   5.607
 8746SOL    HW227138   4.327   4.942   5.456
 8747SOL     OW27139   0.756   0.366   2.686
 8747SOL    HW127140   0.760   0.412   2.775
 8747SOL    HW227141   0.829   0.298   2.680
 8748SOL     OW27142   5.935   1.873   4.244
 8748SOL    HW127143   5.920   1.927   4.327
 8748SOL    HW227144   5.957   1.933   4.168
 8749SOL     OW27145   2.559   0.849   3.505
 8749SOL    HW127146   2.618   0.893   3.572
 8749SOL    HW227147   2.487   0.797   3.552
 8750SOL     OW27148   3.638   3.722   0.545
 8750SOL    HW127149   3.718   3.720   0.605
 8750SOL    HW227150   3.568   3.661   0.581
 8751SOL     OW27151   2.498   6.571   0.776
 8751SOL    HW127152   2.491   6.534   0.868
 8751SOL    HW227153   2.456   6.662   0.773
 8752SOL     OW27154   6.713   2.746   5.194
 8752SOL    HW127155   6.764   2.812   5.250
 8752SOL    HW227156   6.691   2.665   5.250
 8753SOL     OW27157   2.724   2.476   0.867
 8753SOL    HW127158   2.692   2.563   0.831
 8753SOL    HW227159   2.809   2.489   0.918
 8754SOL     OW27160   1.714   5.315   6.938
 8754SOL    HW127161   1.691   5.314   0.010
 8754SOL    HW227162   1.716   5.221   6.902
 8755SOL     OW27163   0.680   2.864   1.899
 8755SOL    HW127164   0.774   2.899   1.894
 8755SOL    HW227165   0.616   2.941   1.899
 8756SOL     OW27166   1.442   1.682   2.010
 8756SOL    HW127167   1.480   1.662   1.920
 8756SOL    HW227168   1.431   1.781   2.020
 8757SOL     OW27169   4.982   6.010   5.623
 8757SOL    HW127170   4.925   5.999   5.705
 8757SOL    HW227171   4.972   6.103   5.588
 8758SOL     OW27172   3.765   5.614   5.211
 8758SOL    HW127173   3.684   5.611   5.270
 8758SOL    HW227174   3.832   5.677   5.250
 8759SOL     OW27175   6.092   1.134   0.862
 8759SOL    HW127176   6.169   1.096   0.811
 8759SOL    HW227177   6.093   1.234   0.854
 8760SOL     OW27178   2.500   2.467   4.189
 8760SOL    HW127179   2.573   2.402   4.207
 8760SOL    HW227180   2.500   2.492   4.092
 8761SOL     OW27181   4.973   1.515   2.812
 8761SOL    HW127182   5.010   1.574   2.740
 8761SOL    HW227183   4.920   1.570   2.877
 8762SOL     OW27184   3.220   4.862   3.272
 8762SOL    HW127185   3.259   4.869   3.364
 8762SOL    HW227186   3.293   4.863   3.204
 8763SOL     OW27187   0.435   0.904   6.689
 8763SOL    HW127188   0.372   0.831   6.666
 8763SOL    HW227189   0.527   0.866   6.704
 8764SOL     OW27190   2.765   5.143   5.604
 8764SOL    HW127191   2.775   5.207   5.528
 8764SOL    HW227192   2.836   5.073   5.599
 8765SOL     OW27193   4.012   6.585   4.277
 8765SOL    HW127194   3.919   6.550   4.285
 8765SOL    HW227195   4.010   6.675   4.232
 8766SOL     OW27196   5.005   6.675   6.121
 8766SOL    HW127197   5.061   6.602   6.081
 8766SOL    HW227198   5.029   6.686   6.218
 8767SOL     OW27199   1.655   0.951   3.612
 8767SOL    HW127200   1.618   0.968   3.521
 8767SOL    HW227201   1.748   0.987   3.617
 8768SOL     OW27202   7.024   2.048   6.800
 8768SOL    HW127203   0.070   2.032   6.868
 8768SOL    HW227204   0.023   2.128   6.744
 8769SOL     OW27205   6.277   0.000   0.346
 8769SOL    HW127206   6.357   6.988   0.300
 8769SOL    HW227207   6.196   6.971   0.323
 8770SOL     OW27208   4.983   2.546   0.620
 8770SOL    HW127209   5.044   2.534   0.541
 8770SOL    HW227210   4.903   2.487   0.609
 8771SOL     OW27211   0.526   2.438   6.852
 8771SOL    HW127212   0.625   2.437   6.864
 8771SOL    HW227213   0.504   2.440   6.754
 8772SOL     OW27214   0.064   0.022   4.512
 8772SOL    HW127215   0.160   0.029   4.483
 8772SOL    HW227216   0.020   0.111   4.501
 8773SOL     OW27217   0.415   1.013   4.596
 8773SOL    HW127218   0.383   0.918   4.587
 8773SOL    HW227219   0.513   1.013   4.615
 8774SOL     OW27220   1.054   1.473   6.849
 8774SOL    HW127221   1.043   1.569   6.826
 8774SOL    HW227222   1.145   1.442   6.821
 8775SOL     OW27223   5.877   2.722   3.466
 8775SOL    HW127224   5.965   2.759   3.493
 8775SOL    HW227225   5.848   2.652   3.531
 8776SOL     OW27226   4.750   2.582   0.461
 8776SOL    HW127227   4.816   2.512   0.433
 8776SOL    HW227228   4.688   2.544   0.530
 8777SOL     OW27229   6.736   2.065   2.697
 8777SOL    HW127230   6.769   2.155   2.725
 8777SOL    HW227231   6.750   2.000   2.772
 8778SOL     OW27232   3.290   4.459   6.978
 8778SOL    HW127233   3.326   4.444   6.886
 8778SOL    HW227234   3.237   4.544   6.981
 8779SOL     OW27235   4.283   4.671   2.880
 8779SOL    HW127236   4.235   4.755   2.856
 8779SOL    HW227237   4.358   4.655   2.815
 8780SOL     OW27238   0.239   4.636   3.848
 8780SOL    HW127239   0.256   4.548   3.804
 8780SOL    HW227240   0.282   4.637   3.938
 8781SOL     OW27241   2.869   0.969   1.412
 8781SOL    HW127242   2.876   1.068   1.405
 8781SOL    HW227243   2.782   0.938   1.374
 8782SOL     OW27244   5.529   2.048   0.644
 8782SOL    HW127245   5.622   2.080   0.623
 8782SOL    HW227246   5.513   2.057   0.743
 8783SOL     OW27247   5.285   3.607   4.732
 8783SOL    HW127248   5.309   3.566   4.820
 8783SOL    HW227249   5.361   3.663   4.699
 8784SOL     OW27250   4.858   0.577   0.671
 8784SOL    HW127251   4.941   0.601   0.620
 8784SOL    HW227252   4.825   0.658   0.720
 8785SOL     OW27253   0.112   5.348   5.124
 8785SOL    HW127254   0.117   5.345   5.224
 8785SOL    HW227255   0.088   5.440   5.094
 8786SOL     OW27256   5.190   1.425   2.278
 8786SOL    HW127257   5.092   1.433   2.294
 8786SOL    HW227258   5.207   1.373   2.195
 8787SOL     OW27259   3.990   5.651   1.207
 8787SOL    HW127260   3.999   5.592   1.127
 8787SOL    HW227261   4.052   5.729   1.198
 8788SOL     OW27262   0.218   6.973   3.790
 8788SOL    HW127263   0.142   0.005   3.756
 8788SOL    HW227264   0.210   6.881   3.752
 8789SOL     OW27265   0.717   2.665   5.943
 8789SOL    HW127266   0.795   2.612   5.976
 8789SOL    HW227267   0.745   2.719   5.863
 8790SOL     OW27268   4.342   2.729   5.471
 8790SOL    HW127269   4.290   2.814   5.477
 8790SOL    HW227270   4.360   2.708   5.375
 8791SOL     OW27271   3.293   6.191   4.562
 8791SOL    HW127272   3.285   6.092   4.568
 8791SOL    HW227273   3.215   6.228   4.513
 8792SOL     OW27274   5.142   4.411   1.723
 8792SOL    HW127275   5.231   4.367   1.737
 8792SOL    HW227276   5.126   4.477   1.796
 8793SOL     OW27277   6.682   6.071   4.676
 8793SOL    HW127278   6.604   6.120   4.638
 8793SOL    HW227279   6.765   6.097   4.626
 8794SOL     OW27280   6.393   1.001   2.373
 8794SOL    HW127281   6.485   1.009   2.334
 8794SOL    HW227282   6.348   0.920   2.335
 8795SOL     OW27283   1.673   6.316   6.806
 8795SOL    HW127284   1.768   6.322   6.837
 8795SOL    HW227285   1.613   6.297   6.884
 8796SOL     OW27286   6.167   3.673   4.356
 8796SOL    HW127287   6.101   3.680   4.281
 8796SOL    HW227288   6.128   3.717   4.438
 8797SOL     OW27289   4.536   6.559   3.813
 8797SOL    HW127290   4.620   6.551   3.759
 8797SOL    HW227291   4.541   6.641   3.870
 8798SOL     OW27292   2.887   6.676   5.697
 8798SOL    HW127293   2.979   6.678   5.735
 8798SOL    HW227294   2.825   6.725   5.758
 8799SOL     OW27295   1.537   5.803   1.907
 8799SOL    HW127296   1.584   5.717   1.886
 8799SOL    HW227297   1.507   5.802   2.002
 8800SOL     OW27298   6.582   6.218   5.409
 8800SOL    HW127299   6.539   6.260   5.329
 8800SOL    HW227300   6.536   6.249   5.492
 8801SOL     OW27301   6.187   3.583   5.693
 8801SOL    HW127302   6.197   3.654   5.623
 8801SOL    HW227303   6.262   3.590   5.759
 8802SOL     OW27304   1.316   5.981   6.194
 8802SOL    HW127305   1.255   5.903   6.194
 8802SOL    HW227306   1.305   6.032   6.280
 8803SOL     OW27307   6.400   6.285   6.010
 8803SOL    HW127308   6.301   6.289   5.995
 8803SOL    HW227309   6.436   6.202   5.967
 8804SOL     OW27310   1.958   6.118   2.429
 8804SOL    HW127311   2.041   6.081   2.470
 8804SOL    HW227312   1.960   6.218   2.435
 8805SOL     OW27313   5.616   4.640   3.371
 8805SOL    HW127314   5.685   4.710   3.389
 8805SOL    HW227315   5.529   4.684   3.349
 8806SOL     OW27316   1.354   0.221   1.382
 8806SOL    HW127317   1.290   0.222   1.306
 8806SOL    HW227318   1.438   0.268   1.356
 8807SOL     OW27319   5.630   2.904   0.836
 8807SOL    HW127320   5.560   2.973   0.817
 8807SOL    HW227321   5.682   2.885   0.752
 8808SOL     OW27322   1.518   2.143   6.608
 8808SOL    HW127323   1.425   2.154   6.571
 8808SOL    HW227324   1.528   2.197   6.691
 8809SOL     OW27325   0.487   3.861   3.049
 8809SOL    HW127326   0.518   3.771   3.079
 8809SOL    HW227327   0.488   3.924   3.126
 8810SOL     OW27328   0.719   1.110   5.723
 8810SOL    HW127329   0.816   1.108   5.700
 8810SOL    HW227330   0.701   1.181   5.790
 8811SOL     OW27331   4.402   4.776   2.630
 8811SOL    HW127332   4.471   4.846   2.610
 8811SOL    HW227333   4.404   4.705   2.560
 8812SOL     OW27334   4.799   1.219   6.440
 8812SOL    HW127335   4.846   1.273   6.510
 8812SOL    HW227336   4.858   1.214   6.359
 8813SOL     OW27337   2.172   3.809   3.652
 8813SOL    HW127338   2.179   3.709   3.654
 8813SOL    HW227339   2.228   3.844   3.576
 8814SOL     OW27340   4.736   6.752   5.215
 8814SOL    HW127341   4.652   6.715   5.255
 8814SOL    HW227342   4.791   6.795   5.286
 8815SOL     OW27343   5.286   1.169   0.898
 8815SOL    HW127344   5.277   1.269   0.906
 8815SOL    HW227345   5.204   1.132   0.853
 8816SOL     OW27346   0.896   6.058   4.888
 8816SOL    HW127347   0.798   6.038   4.886
 8816SOL    HW227348   0.945   5.980   4.927
 8817SOL     OW27349   1.470   3.416   3.788
 8817SOL    HW127350   1.466   3.328   3.741
 8817SOL    HW227351   1.490   3.489   3.722
 8818SOL     OW27352   0.731   0.346   5.895
 8818SOL    HW127353   0.643   0.394   5.895
 8818SOL    HW227354   0.776   0.359   5.807
 8819SOL     OW27355   5.098   5.034   6.442
 8819SOL    HW127356   5.084   4.962   6.373
 8819SOL    HW227357   5.013   5.046   6.494
 8820SOL     OW27358   3.870   6.913   5.891
 8820SOL    HW127359   3.811   6.832   5.894
 8820SOL    HW227360   3.855   6.968   5.973
 8821SOL     OW27361   0.078   4.513   6.209
 8821SOL    HW127362   0.055   4.446   6.138
 8821SOL    HW227363   0.177   4.521   6.216
 8822SOL     OW27364   6.185   0.606   4.450
 8822SOL    HW127365   6.260   0.669   4.473
 8822SOL    HW227366   6.130   0.645   4.377
 8823SOL     OW27367   3.421   0.799   3.066
 8823SOL    HW127368   3.412   0.751   2.979
 8823SOL    HW227369   3.464   0.888   3.052
 8824SOL     OW27370   1.324   0.369   2.663
 8824SOL    HW127371   1.344   0.453   2.713
 8824SOL    HW227372   1.289   0.300   2.726
 8825SOL     OW27373   0.251   6.701   0.314
 8825SOL    HW127374   0.189   6.776   0.337
 8825SOL    HW227375   0.289   6.662   0.398
 8826SOL     OW27376   1.013   4.355   0.862
 8826SOL    HW127377   1.042   4.277   0.916
 8826SOL    HW227378   1.091   4.391   0.811
 8827SOL     OW27379   4.686   0.158   3.245
 8827SOL    HW127380   4.745   0.083   3.275
 8827SOL    HW227381   4.607   0.121   3.196
 8828SOL     OW27382   5.211   2.863   6.261
 8828SOL    HW127383   5.226   2.794   6.190
 8828SOL    HW227384   5.174   2.819   6.343
 8829SOL     OW27385   6.695   0.976   2.012
 8829SOL    HW127386   6.780   1.004   1.969
 8829SOL    HW227387   6.684   0.877   2.004
 8830SOL     OW27388   3.333   0.833   3.582
 8830SOL    HW127389   3.267   0.875   3.645
 8830SOL    HW227390   3.328   0.878   3.493
 8831SOL     OW27391   0.520   3.047   1.973
 8831SOL    HW127392   0.519   3.137   2.017
 8831SOL    HW227393   0.509   2.976   2.043
 8832SOL     OW27394   5.510   0.486   5.296
 8832SOL    HW127395   5.425   0.446   5.329
 8832SOL    HW227396   5.513   0.482   5.196
 8833SOL     OW27397   5.178   2.403   1.594
 8833SOL    HW127398   5.183   2.422   1.692
 8833SOL    HW227399   5.119   2.324   1.578
 8834SOL     OW27400   6.158   3.809   5.548
 8834SOL    HW127401   6.094   3.836   5.477
 8834SOL    HW227402   6.191   3.891   5.596
 8835SOL     OW27403   6.683   0.818   5.645
 8835SOL    HW127404   6.586   0.831   5.666
 8835SOL    HW227405   6.692   0.773   5.556
 8836SOL     OW27406   4.581   1.299   1.541
 8836SOL    HW127407   4.597   1.335   1.449
 8836SOL    HW227408   4.580   1.199   1.538
 8837SOL     OW27409   3.697   6.453   0.737
 8837SOL    HW127410   3.734   6.503   0.658
 8837SOL    HW227411   3.672   6.360   0.709
 8838SOL     OW27412   1.821   4.006   4.026
 8838SOL    HW127413   1.885   4.074   4.063
 8838SOL    HW227414   1.870   3.943   3.966
 8839SOL     OW27415   5.353   5.850   2.628
 8839SOL    HW127416   5.429   5.861   2.564
 8839SOL    HW227417   5.297   5.772   2.600
 8840SOL     OW27418   6.472   0.506   0.897
 8840SOL    HW127419   6.501   0.601   0.910
 8840SOL    HW227420   6.553   0.448   0.888
 8841SOL     OW27421   3.709   0.603   1.010
 8841SOL    HW127422   3.641   0.551   1.063
 8841SOL    HW227423   3.798   0.558   1.017
 8842SOL     OW27424   4.040   3.846   4.597
 8842SOL    HW127425   3.987   3.852   4.513
 8842SOL    HW227426   4.138   3.855   4.576
 8843SOL     OW27427   2.917   6.167   6.836
 8843SOL    HW127428   2.901   6.264   6.819
 8843SOL    HW227429   2.874   6.141   6.923
 8844SOL     OW27430   3.492   2.393   6.257
 8844SOL    HW127431   3.565   2.362   6.317
 8844SOL    HW227432   3.464   2.485   6.283
 8845SOL     OW27433   6.884   3.892   2.203
 8845SOL    HW127434   6.954   3.822   2.193
 8845SOL    HW227435   6.927   3.982   2.209
 8846SOL     OW27436   5.457   3.782   4.557
 8846SOL    HW127437   5.471   3.868   4.606
 8846SOL    HW227438   5.481   3.794   4.461
 8847SOL     OW27439   1.706   1.958   3.630
 8847SOL    HW127440   1.779   1.911   3.580
 8847SOL    HW227441   1.743   1.995   3.715
 8848SOL     OW27442   5.491   1.247   0.247
 8848SOL    HW127443   5.437   1.306   0.186
 8848SOL    HW227444   5.587   1.250   0.220
 8849SOL     OW27445   3.035   4.836   4.533
 8849SOL    HW127446   3.129   4.826   4.564
 8849SOL    HW227447   2.972   4.816   4.608
 8850SOL     OW27448   3.479   1.206   1.264
 8850SOL    HW127449   3.402   1.160   1.220
 8850SOL    HW227450   3.444   1.273   1.330
 8851SOL     OW27451   6.608   4.605   1.961
 8851SOL    HW127452   6.674   4.554   2.016
 8851SOL    HW227453   6.581   4.549   1.882
 8852SOL     OW27454   4.553   2.577   4.638
 8852SOL    HW127455   4.521   2.642   4.569
 8852SOL    HW227456   4.519   2.486   4.617
 8853SOL     OW27457   4.462   1.573   5.721
 8853SOL    HW127458   4.392   1.645   5.723
 8853SOL    HW227459   4.501   1.567   5.629
 8854SOL     OW27460   1.492   1.448   0.065
 8854SOL    HW127461   1.418   1.501   0.025
 8854SOL    HW227462   1.494   1.357   0.024
 8855SOL     OW27463   6.265   4.606   0.037
 8855SOL    HW127464   6.268   4.658   6.977
 8855SOL    HW227465   6.278   4.509   0.018
 8856SOL     OW27466   5.576   1.245   4.627
 8856SOL    HW127467   5.636   1.318   4.592
 8856SOL    HW227468   5.630   1.163   4.643
 8857SOL     OW27469   0.011   2.461   4.693
 8857SOL    HW127470   6.978   2.541   4.677
 8857SOL    HW227471   6.979   2.378   4.690
 8858SOL     OW27472   6.970   4.156   6.252
 8858SOL    HW127473   6.877   4.168   6.288
 8858SOL    HW227474   6.980   4.211   6.169
 8859SOL     OW27475   2.857   5.021   5.244
 8859SOL    HW127476   2.767   5.065   5.237
 8859SOL    HW227477   2.879   4.975   5.158
 8860SOL     OW27478   1.635   2.758   1.765
 8860SOL    HW127479   1.687   2.842   1.782
 8860SOL    HW227480   1.682   2.680   1.806
 8861SOL     OW27481   3.030   2.744   0.680
 8861SOL    HW127482   3.008   2.646   0.672
 8861SOL    HW227483   2.974   2.796   0.617
 8862SOL     OW27484   6.846   1.981   4.422
 8862SOL    HW127485   6.929   2.028   4.391
 8862SOL    HW227486   6.842   1.983   4.522
 8863SOL     OW27487   1.181   5.589   4.891
 8863SOL    HW127488   1.236   5.531   4.951
 8863SOL    HW227489   1.240   5.653   4.842
 8864SOL     OW27490   1.161   3.316   5.920
 8864SOL    HW127491   1.094   3.255   5.878
 8864SOL    HW227492   1.190   3.278   6.008
 8865SOL     OW27493   2.283   2.106   5.885
 8865SOL    HW127494   2.319   2.098   5.793
 8865SOL    HW227495   2.358   2.119   5.950
 8866SOL     OW27496   4.035   6.338   5.516
 8866SOL    HW127497   3.989   6.382   5.592
 8866SOL    HW227498   4.128   6.376   5.507
 8867SOL     OW27499   6.652   2.181   3.723
 8867SOL    HW127500   6.707   2.157   3.643
 8867SOL    HW227501   6.566   2.221   3.694
 8868SOL     OW27502   4.592   3.812   1.385
 8868SOL    HW127503   4.516   3.869   1.416
 8868SOL    HW227504   4.647   3.784   1.464
 8869SOL     OW27505   4.978   2.982   3.565
 8869SOL    HW127506   5.044   2.911   3.588
 8869SOL    HW227507   4.984   3.004   3.468
 8870SOL     OW27508   3.985   1.311   0.691
 8870SOL    HW127509   3.896   1.332   0.731
 8870SOL    HW227510   4.011   1.384   0.627
 8871SOL     OW27511   1.382   2.157   4.156
 8871SOL    HW127512   1.370   2.080   4.094
 8871SOL    HW227513   1.390   2.124   4.250
 8872SOL     OW27514   1.857   3.438   3.581
 8872SOL    HW127515   1.861   3.366   3.511
 8872SOL    HW227516   1.833   3.398   3.669
 8873SOL     OW27517   6.542   6.354   4.836
 8873SOL    HW127518   6.524   6.310   4.748
 8873SOL    HW227519   6.621   6.414   4.828
 8874SOL     OW27520   1.482   1.430   0.332
 8874SOL    HW127521   1.464   1.338   0.367
 8874SOL    HW227522   1.479   1.429   0.232
 8875SOL     OW27523   1.770   1.307   3.847
 8875SOL    HW127524   1.774   1.371   3.770
 8875SOL    HW227525   1.711   1.230   3.824
 8876SOL     OW27526   2.206   0.438   4.040
 8876SOL    HW127527   2.229   0.383   4.120
 8876SOL    HW227528   2.288   0.459   3.988
 8877SOL     OW27529   3.469   6.420   4.767
 8877SOL    HW127530   3.540   6.362   4.726
 8877SOL    HW227531   3.439   6.488   4.700
 8878SOL     OW27532   5.819   4.856   6.285
 8878SOL    HW127533   5.833   4.886   6.191
 8878SOL    HW227534   5.866   4.769   6.300
 8879SOL     OW27535   4.502   5.561   4.868
 8879SOL    HW127536   4.408   5.529   4.880
 8879SOL    HW227537   4.529   5.616   4.947
 8880SOL     OW27538   0.102   5.368   5.389
 8880SOL    HW127539   0.027   5.302   5.379
 8880SOL    HW227540   0.098   5.411   5.479
 8881SOL     OW27541   6.685   0.696   2.002
 8881SOL    HW127542   6.773   0.703   1.955
 8881SOL    HW227543   6.660   0.600   2.013
 8882SOL     OW27544   6.098   1.957   6.324
 8882SOL    HW127545   6.187   1.925   6.293
 8882SOL    HW227546   6.107   2.003   6.412
 8883SOL     OW27547   6.611   1.184   5.250
 8883SOL    HW127548   6.521   1.213   5.283
 8883SOL    HW227549   6.601   1.137   5.163
 8884SOL     OW27550   6.441   0.708   5.456
 8884SOL    HW127551   6.365   0.770   5.477
 8884SOL    HW227552   6.457   0.647   5.533
 8885SOL     OW27553   5.083   3.461   1.677
 8885SOL    HW127554   5.022   3.428   1.750
 8885SOL    HW227555   5.170   3.412   1.681
 8886SOL     OW27556   3.382   6.451   6.422
 8886SOL    HW127557   3.289   6.420   6.406
 8886SOL    HW227558   3.416   6.500   6.341
 8887SOL     OW27559   1.928   0.485   1.176
 8887SOL    HW127560   1.928   0.554   1.104
 8887SOL    HW227561   1.959   0.398   1.139
 8888SOL     OW27562   3.487   0.919   3.312
 8888SOL    HW127563   3.553   0.992   3.297
 8888SOL    HW227564   3.475   0.867   3.227
 8889SOL     OW27565   3.746   6.646   5.173
 8889SOL    HW127566   3.760   6.717   5.104
 8889SOL    HW227567   3.751   6.556   5.131
 8890SOL     OW27568   1.440   4.815   4.585
 8890SOL    HW127569   1.468   4.728   4.625
 8890SOL    HW227570   1.342   4.811   4.564
 8891SOL     OW27571   2.623   1.954   7.009
 8891SOL    HW127572   2.636   2.045   0.023
 8891SOL    HW227573   2.540   1.913   0.022
 8892SOL     OW27574   1.295   6.916   2.450
 8892SOL    HW127575   1.368   6.855   2.481
 8892SOL    HW227576   1.252   6.878   2.368
 8893SOL     OW27577   0.664   1.482   1.646
 8893SOL    HW127578   0.738   1.451   1.706
 8893SOL    HW227579   0.684   1.574   1.613
 8894SOL     OW27580   3.863   3.526   6.517
 8894SOL    HW127581   3.835   3.573   6.434
 8894SOL    HW227582   3.827   3.574   6.597
 8895SOL     OW27583   0.535   0.176   1.949
 8895SOL    HW127584   0.543   0.273   1.973
 8895SOL    HW227585   0.467   0.134   2.009
 8896SOL     OW27586   2.172   4.055   5.299
 8896SOL    HW127587   2.196   4.089   5.208
 8896SOL    HW227588   2.246   3.999   5.335
 8897SOL     OW27589   1.431   2.323   1.616
 8897SOL    HW127590   1.523   2.315   1.653
 8897SOL    HW227591   1.406   2.420   1.609
 8898SOL     OW27592   6.666   3.064   4.853
 8898SOL    HW127593   6.684   3.135   4.921
 8898SOL    HW227594   6.595   3.002   4.888
 8899SOL     OW27595   2.538   4.228   6.935
 8899SOL    HW127596   2.576   4.158   6.995
 8899SOL    HW227597   2.611   4.267   6.879
 8900SOL     OW27598   5.827   2.114   3.064
 8900SOL    HW127599   5.729   2.113   3.086
 8900SOL    HW227600   5.862   2.021   3.069
 8901SOL     OW27601   2.447   6.366   2.567
 8901SOL    HW127602   2.418   6.282   2.522
 8901SOL    HW227603   2.381   6.438   2.549
 8902SOL     OW27604   2.021   5.375   6.349
 8902SOL    HW127605   2.027   5.463   6.301
 8902SOL    HW227606   1.926   5.360   6.379
 8903SOL     OW27607   0.970   1.872   3.684
 8903SOL    HW127608   1.033   1.945   3.712
 8903SOL    HW227609   0.933   1.893   3.594
 8904SOL     OW27610   0.671   5.373   3.526
 8904SOL    HW127611   0.660   5.287   3.476
 8904SOL    HW227612   0.637   5.363   3.619
 8905SOL     OW27613   2.928   4.158   5.381
 8905SOL    HW127614   2.902   4.064   5.360
 8905SOL    HW227615   2.861   4.198   5.443
 8906SOL     OW27616   1.559   5.197   4.978
 8906SOL    HW127617   1.582   5.104   5.007
 8906SOL    HW227618   1.583   5.208   4.881
 8907SOL     OW27619   3.828   2.804   5.513
 8907SOL    HW127620   3.821   2.898   5.480
 8907SOL    HW227621   3.737   2.767   5.528
 8908SOL     OW27622   0.186   2.799   1.516
 8908SOL    HW127623   0.202   2.897   1.506
 8908SOL    HW227624   0.098   2.775   1.475
 8909SOL     OW27625   3.061   6.794   5.890
 8909SOL    HW127626   3.030   6.745   5.971
 8909SOL    HW227627   3.150   6.835   5.908
 8910SOL     OW27628   3.920   3.912   6.348
 8910SOL    HW127629   3.878   3.850   6.414
 8910SOL    HW227630   3.923   4.004   6.386
 8911SOL     OW27631   3.523   2.112   3.980
 8911SOL    HW127632   3.424   2.113   3.967
 8911SOL    HW227633   3.545   2.074   4.070
 8912SOL     OW27634   5.135   2.560   6.161
 8912SOL    HW127635   5.178   2.478   6.201
 8912SOL    HW227636   5.043   2.571   6.200
 8913SOL     OW27637   4.953   3.849   0.878
 8913SOL    HW127638   5.008   3.771   0.907
 8913SOL    HW227639   4.858   3.836   0.907
 8914SOL     OW27640   4.406   2.107   3.349
 8914SOL    HW127641   4.348   2.186   3.365
 8914SOL    HW227642   4.447   2.112   3.258
 8915SOL     OW27643   1.313   4.944   1.769
 8915SOL    HW127644   1.345   4.858   1.728
 8915SOL    HW227645   1.286   4.928   1.864
 8916SOL     OW27646   6.949   4.011   1.732
 8916SOL    HW127647   6.917   3.931   1.682
 8916SOL    HW227648   6.889   4.088   1.714
 8917SOL     OW27649   6.032   5.714   5.855
 8917SOL    HW127650   6.045   5.797   5.908
 8917SOL    HW227651   5.944   5.717   5.808
 8918SOL     OW27652   4.485   4.468   6.458
 8918SOL    HW127653   4.488   4.370   6.481
 8918SOL    HW227654   4.554   4.488   6.389
 8919SOL     OW27655   2.226   3.925   1.557
 8919SOL    HW127656   2.157   3.919   1.485
 8919SOL    HW227657   2.219   4.014   1.603
 8920SOL     OW27658   6.319   5.963   5.889
 8920SOL    HW127659   6.280   5.956   5.797
 8920SOL    HW227660   6.247   5.988   5.954
 8921SOL     OW27661   1.610   6.384   3.452
 8921SOL    HW127662   1.601   6.478   3.418
 8921SOL    HW227663   1.699   6.372   3.496
 8922SOL     OW27664   6.172   4.183   0.391
 8922SOL    HW127665   6.192   4.278   0.413
 8922SOL    HW227666   6.190   4.166   0.294
 8923SOL     OW27667   1.726   4.222   5.451
 8923SOL    HW127668   1.810   4.177   5.423
 8923SOL    HW227669   1.735   4.321   5.440
 8924SOL     OW27670   2.502   5.912   5.255
 8924SOL    HW127671   2.426   5.878   5.200
 8924SOL    HW227672   2.565   5.963   5.197
 8925SOL     OW27673   5.928   6.467   1.744
 8925SOL    HW127674   6.002   6.532   1.762
 8925SOL    HW227675   5.840   6.510   1.768
 8926SOL     OW27676   5.934   1.334   0.317
 8926SOL    HW127677   6.016   1.309   0.265
 8926SOL    HW227678   5.854   1.288   0.277
 8927SOL     OW27679   2.774   1.795   5.164
 8927SOL    HW127680   2.854   1.761   5.115
 8927SOL    HW227681   2.713   1.841   5.099
 8928SOL     OW27682   0.419   6.801   5.254
 8928SOL    HW127683   0.386   6.791   5.160
 8928SOL    HW227684   0.349   6.768   5.318
 8929SOL     OW27685   5.684   3.310   4.554
 8929SOL    HW127686   5.629   3.351   4.481
 8929SOL    HW227687   5.762   3.370   4.574
 8930SOL     OW27688   0.884   4.654   5.054
 8930SOL    HW127689   0.980   4.633   5.040
 8930SOL    HW227690   0.833   4.636   4.970
 8931SOL     OW27691   5.444   1.025   1.134
 8931SOL    HW127692   5.388   1.046   1.054
 8931SOL    HW227693   5.387   0.978   1.202
 8932SOL     OW27694   6.758   0.579   6.861
 8932SOL    HW127695   6.778   0.503   6.923
 8932SOL    HW227696   6.838   0.639   6.855
 8933SOL     OW27697   1.904   6.825   5.836
 8933SOL    HW127698   1.955   6.911   5.831
 8933SOL    HW227699   1.849   6.815   5.753
 8934SOL     OW27700   4.827   6.769   2.855
 8934SOL    HW127701   4.857   6.780   2.760
 8934SOL    HW227702   4.776   6.850   2.884
 8935SOL     OW27703   5.256   2.837   3.499
 8935SOL    HW127704   5.251   2.890   3.414
 8935SOL    HW227705   5.225   2.743   3.480
 8936SOL     OW27706   2.021   4.600   2.862
 8936SOL    HW127707   2.023   4.503   2.840
 8936SOL    HW227708   1.942   4.620   2.920
 8937SOL     OW27709   5.015   6.927   5.667
 8937SOL    HW127710   5.043   6.997   5.733
 8937SOL    HW227711   5.071   6.845   5.681
 8938SOL     OW27712   5.422   6.605   2.396
 8938SOL    HW127713   5.484   6.606   2.474
 8938SOL    HW227714   5.441   6.683   2.337
 8939SOL     OW27715   0.195   2.891   3.758
 8939SOL    HW127716   0.206   2.975   3.812
 8939SOL    HW227717   0.164   2.817   3.818
 8940SOL     OW27718   6.526   2.788   0.861
 8940SOL    HW127719   6.558   2.699   0.894
 8940SOL    HW227720   6.426   2.788   0.856
 8941SOL     OW27721   4.562   2.532   1.973
 8941SOL    HW127722   4.551   2.580   2.060
 8941SOL    HW227723   4.658   2.509   1.959
 8942SOL     OW27724   5.542   3.759   4.291
 8942SOL    HW127725   5.476   3.832   4.273
 8942SOL    HW227726   5.629   3.781   4.248
 8943SOL     OW27727   4.700   3.836   1.029
 8943SOL    HW127728   4.723   3.884   1.113
 8943SOL    HW227729   4.602   3.842   1.013
 8944SOL     OW27730   5.288   4.876   5.076
 8944SOL    HW127731   5.188   4.875   5.076
 8944SOL    HW227732   5.321   4.954   5.024
 8945SOL     OW27733   5.121   4.019   3.303
 8945SOL    HW127734   5.185   3.992   3.230
 8945SOL    HW227735   5.162   4.001   3.392
 8946SOL     OW27736   4.969   1.120   5.442
 8946SOL    HW127737   4.927   1.114   5.351
 8946SOL    HW227738   4.996   1.215   5.460
 8947SOL     OW27739   2.188   4.913   6.770
 8947SOL    HW127740   2.268   4.869   6.810
 8947SOL    HW227741   2.112   4.847   6.767
 8948SOL     OW27742   4.870   1.113   2.908
 8948SOL    HW127743   4.844   1.167   2.988
 8948SOL    HW227744   4.926   1.036   2.937
 8949SOL     OW27745   4.225   5.917   1.279
 8949SOL    HW127746   4.282   5.953   1.353
 8949SOL    HW227747   4.139   5.968   1.277
 8950SOL     OW27748   4.207   3.656   1.348
 8950SOL    HW127749   4.284   3.625   1.292
 8950SOL    HW227750   4.239   3.724   1.414
 8951SOL     OW27751   1.569   0.518   4.543
 8951SOL    HW127752   1.510   0.438   4.533
 8951SOL    HW227753   1.514   0.595   4.576
 8952SOL     OW27754   1.743   4.701   3.992
 8952SOL    HW127755   1.836   4.673   4.014
 8952SOL    HW227756   1.719   4.783   4.044
 8953SOL     OW27757   1.017   5.103   1.253
 8953SOL    HW127758   0.994   5.180   1.313
 8953SOL    HW227759   0.964   5.109   1.169
 8954SOL     OW27760   2.784   4.216   5.808
 8954SOL    HW127761   2.745   4.286   5.868
 8954SOL    HW227762   2.760   4.236   5.713
 8955SOL     OW27763   5.179   2.505   4.986
 8955SOL    HW127764   5.196   2.556   4.901
 8955SOL    HW227765   5.082   2.508   5.008
 8956SOL     OW27766   0.775   6.273   0.006
 8956SOL    HW127767   0.742   6.276   0.100
 8956SOL    HW227768   0.874   6.259   0.005
 8957SOL     OW27769   0.000   6.204   2.771
 8957SOL    HW127770   0.046   6.288   2.744
 8957SOL    HW227771   6.991   6.213   2.864
 8958SOL     OW27772   1.704   2.914   4.742
 8958SOL    HW127773   1.730   2.850   4.814
 8958SOL    HW227774   1.762   2.996   4.747
 8959SOL     OW27775   6.080   2.367   3.278
 8959SOL    HW127776   6.163   2.415   3.303
 8959SOL    HW227777   6.085   2.339   3.182
 8960SOL     OW27778   5.266   4.574   2.714
 8960SOL    HW127779   5.211   4.644   2.759
 8960SOL    HW227780   5.355   4.612   2.689
 8961SOL     OW27781   2.371   1.385   4.841
 8961SOL    HW127782   2.469   1.376   4.822
 8961SOL    HW227783   2.347   1.482   4.845
 8962SOL     OW27784   6.481   5.849   1.906
 8962SOL    HW127785   6.565   5.900   1.884
 8962SOL    HW227786   6.408   5.914   1.928
 8963SOL     OW27787   4.554   6.586   6.340
 8963SOL    HW127788   4.596   6.650   6.405
 8963SOL    HW227789   4.553   6.494   6.380
 8964SOL     OW27790   2.139   2.550   4.363
 8964SOL    HW127791   2.222   2.606   4.365
 8964SOL    HW227792   2.061   2.605   4.391
 8965SOL     OW27793   3.785   5.900   6.741
 8965SOL    HW127794   3.797   5.803   6.724
 8965SOL    HW227795   3.726   5.940   6.671
 8966SOL     OW27796   4.506   5.776   4.654
 8966SOL    HW127797   4.418   5.813   4.625
 8966SOL    HW227798   4.492   5.716   4.734
 8967SOL     OW27799   3.370   0.096   3.655
 8967SOL    HW127800   3.343   0.133   3.744
 8967SOL    HW227801   3.373   0.169   3.587
 8968SOL     OW27802   3.213   4.831   2.247
 8968SOL    HW127803   3.311   4.830   2.227
 8968SOL    HW227804   3.162   4.803   2.166
 8969SOL     OW27805   0.882   0.952   2.475
 8969SOL    HW127806   0.941   0.909   2.406
 8969SOL    HW227807   0.804   0.893   2.494
 8970SOL     OW27808   1.956   0.594   3.731
 8970SOL    HW127809   2.012   0.648   3.794
 8970SOL    HW227810   1.866   0.637   3.723
 8971SOL     OW27811   3.087   4.297   0.291
 8971SOL    HW127812   3.063   4.379   0.239
 8971SOL    HW227813   3.050   4.304   0.383
 8972SOL     OW27814   5.794   4.110   6.860
 8972SOL    HW127815   5.845   4.179   6.913
 8972SOL    HW227816   5.840   4.022   6.868
 8973SOL     OW27817   1.711   2.765   3.538
 8973SOL    HW127818   1.677   2.674   3.563
 8973SOL    HW227819   1.790   2.755   3.477
 8974SOL     OW27820   2.477   4.545   4.896
 8974SOL    HW127821   2.492   4.520   4.991
 8974SOL    HW227822   2.407   4.486   4.856
 8975SOL     OW27823   0.280   5.004   5.580
 8975SOL    HW127824   0.255   4.937   5.650
 8975SOL    HW227825   0.355   4.968   5.525
 8976SOL     OW27826   5.741   0.307   2.380
 8976SOL    HW127827   5.803   0.365   2.328
 8976SOL    HW227828   5.771   0.304   2.476
 8977SOL     OW27829   6.300   4.334   6.722
 8977SOL    HW127830   6.288   4.253   6.780
 8977SOL    HW227831   6.301   4.306   6.626
 8978SOL     OW27832   6.054   6.156   0.102
 8978SOL    HW127833   6.100   6.242   0.123
 8978SOL    HW227834   6.033   6.151   0.005
 8979SOL     OW27835   1.489   5.069   4.450
 8979SOL    HW127836   1.437   4.985   4.460
 8979SOL    HW227837   1.437   5.146   4.488
 8980SOL     OW27838   3.552   0.678   6.957
 8980SOL    HW127839   3.524   0.582   6.953
 8980SOL    HW227840   3.583   0.700   0.024
 8981SOL     OW27841   4.584   3.559   6.368
 8981SOL    HW127842   4.646   3.493   6.326
 8981SOL    HW227843   4.577   3.639   6.309
 8982SOL     OW27844   0.331   1.862   2.092
 8982SOL    HW127845   0.249   1.824   2.048
 8982SOL    HW227846   0.345   1.956   2.061
 8983SOL     OW27847   2.111   6.518   1.995
 8983SOL    HW127848   2.061   6.462   2.061
 8983SOL    HW227849   2.102   6.615   2.020
 8984SOL     OW27850   6.987   0.983   4.446
 8984SOL    HW127851   6.897   0.973   4.403
 8984SOL    HW227852   6.998   0.914   4.517
 8985SOL     OW27853   4.844   1.848   1.781
 8985SOL    HW127854   4.870   1.782   1.711
 8985SOL    HW227855   4.836   1.802   1.869
 8986SOL     OW27856   6.945   4.941   0.311
 8986SOL    HW127857   6.981   4.848   0.312
 8986SOL    HW227858   7.005   5.000   0.365
 8987SOL     OW27859   2.257   6.183   1.685
 8987SOL    HW127860   2.352   6.194   1.716
 8987SOL    HW227861   2.198   6.246   1.734
 8988SOL     OW27862   2.557   6.900   0.887
 8988SOL    HW127863   2.642   6.851   0.907
 8988SOL    HW227864   2.480   6.852   0.929
 8989SOL     OW27865   5.206   1.400   2.874
 8989SOL    HW127866   5.119   1.444   2.852
 8989SOL    HW227867   5.216   1.316   2.820
 8990SOL     OW27868   2.846   0.505   2.701
 8990SOL    HW127869   2.940   0.475   2.682
 8990SOL    HW227870   2.822   0.579   2.639
 8991SOL     OW27871   1.233   2.014   0.623
 8991SOL    HW127872   1.150   1.975   0.662
 8991SOL    HW227873   1.262   2.094   0.677
 8992SOL     OW27874   0.272   4.123   6.600
 8992SOL    HW127875   0.172   4.118   6.593
 8992SOL    HW227876   0.308   4.031   6.616
 8993SOL     OW27877   5.369   3.567   5.045
 8993SOL    HW127878   5.454   3.603   5.082
 8993SOL    HW227879   5.295   3.632   5.062
 8994SOL     OW27880   1.078   5.758   2.760
 8994SOL    HW127881   1.019   5.677   2.758
 8994SOL    HW227882   1.057   5.813   2.841
 8995SOL     OW27883   2.075   3.744   5.037
 8995SOL    HW127884   2.074   3.841   5.012
 8995SOL    HW227885   2.008   3.695   4.981
 8996SOL     OW27886   1.403   3.848   1.899
 8996SOL    HW127887   1.305   3.839   1.879
 8996SOL    HW227888   1.453   3.867   1.814
 8997SOL     OW27889   4.508   2.047   5.390
 8997SOL    HW127890   4.558   1.999   5.462
 8997SOL    HW227891   4.515   1.997   5.304
 8998SOL     OW27892   1.129   1.403   6.128
 8998SOL    HW127893   1.164   1.495   6.110
 8998SOL    HW227894   1.203   1.336   6.117
 8999SOL     OW27895   4.884   1.408   4.998
 8999SOL    HW127896   4.794   1.450   4.993
 8999SOL    HW227897   4.911   1.377   4.907
 9000SOL     OW27898   2.481   4.443   0.078
 9000SOL    HW127899   2.459   4.453   7.007
 9000SOL    HW227900   2.560   4.382   0.089
 9001SOL     OW27901   2.018   4.460   3.583
 9001SOL    HW127902   2.088   4.527   3.557
 9001SOL    HW227903   1.990   4.408   3.502
 9002SOL     OW27904   5.261   4.306   5.646
 9002SOL    HW127905   5.278   4.220   5.695
 9002SOL    HW227906   5.304   4.302   5.556
 9003SOL     OW27907   6.489   3.216   6.367
 9003SOL    HW127908   6.434   3.223   6.451
 9003SOL    HW227909   6.581   3.250   6.384
 9004SOL     OW27910   4.746   5.611   0.938
 9004SOL    HW127911   4.817   5.555   0.981
 9004SOL    HW227912   4.782   5.702   0.919
 9005SOL     OW27913   4.629   2.360   2.818
 9005SOL    HW127914   4.566   2.295   2.862
 9005SOL    HW227915   4.584   2.401   2.739
 9006SOL     OW27916   2.028   6.879   0.916
 9006SOL    HW127917   2.074   6.808   0.863
 9006SOL    HW227918   1.947   6.911   0.868
 9007SOL     OW27919   2.183   6.498   4.196
 9007SOL    HW127920   2.274   6.458   4.212
 9007SOL    HW227921   2.115   6.425   4.193
 9008SOL     OW27922   6.879   4.459   2.551
 9008SOL    HW127923   6.945   4.526   2.517
 9008SOL    HW227924   6.915   4.417   2.634
 9009SOL     OW27925   4.193   5.791   0.878
 9009SOL    HW127926   4.198   5.707   0.931
 9009SOL    HW227927   4.222   5.868   0.934
 9010SOL     OW27928   0.646   5.688   5.043
 9010SOL    HW127929   0.728   5.673   4.987
 9010SOL    HW227930   0.605   5.600   5.066
 9011SOL     OW27931   4.107   1.983   1.924
 9011SOL    HW127932   4.008   1.998   1.921
 9011SOL    HW227933   4.135   1.929   1.845
 9012SOL     OW27934   5.789   5.315   1.803
 9012SOL    HW127935   5.870   5.336   1.859
 9012SOL    HW227936   5.721   5.388   1.815
 9013SOL     OW27937   4.638   6.149   2.693
 9013SOL    HW127938   4.649   6.140   2.792
 9013SOL    HW227939   4.721   6.117   2.647
 9014SOL     OW27940   2.689   0.607   0.408
 9014SOL    HW127941   2.689   0.690   0.463
 9014SOL    HW227942   2.783   0.574   0.397
 9015SOL     OW27943   6.810   1.389   4.771
 9015SOL    HW127944   6.789   1.376   4.674
 9015SOL    HW227945   6.730   1.364   4.826
 9016SOL     OW27946   6.907   6.033   6.323
 9016SOL    HW127947   7.001   6.004   6.305
 9016SOL    HW227948   6.904   6.082   6.410
 9017SOL     OW27949   0.283   4.367   3.764
 9017SOL    HW127950   0.371   4.324   3.782
 9017SOL    HW227951   0.250   4.340   3.673
 9018SOL     OW27952   3.532   1.705   6.051
 9018SOL    HW127953   3.518   1.620   5.999
 9018SOL    HW227954   3.461   1.712   6.121
 9019SOL     OW27955   1.535   5.797   0.392
 9019SOL    HW127956   1.490   5.716   0.429
 9019SOL    HW227957   1.598   5.833   0.461
 9020SOL     OW27958   0.303   4.774   2.848
 9020SOL    HW127959   0.386   4.812   2.808
 9020SOL    HW227960   0.325   4.729   2.935
 9021SOL     OW27961   6.617   5.940   5.414
 9021SOL    HW127962   6.584   5.901   5.328
 9021SOL    HW227963   6.583   6.033   5.424
 9022SOL     OW27964   3.526   1.503   6.513
 9022SOL    HW127965   3.438   1.463   6.486
 9022SOL    HW227966   3.598   1.471   6.452
 9023SOL     OW27967   3.098   3.012   2.824
 9023SOL    HW127968   3.081   3.049   2.916
 9023SOL    HW227969   3.011   2.993   2.779
 9024SOL     OW27970   1.329   0.771   6.493
 9024SOL    HW127971   1.334   0.740   6.398
 9024SOL    HW227972   1.421   0.797   6.524
 9025SOL     OW27973   0.029   4.105   0.839
 9025SOL    HW127974   6.974   4.083   0.784
 9025SOL    HW227975   0.036   4.040   0.915
 9026SOL     OW27976   2.833   3.078   5.536
 9026SOL    HW127977   2.842   3.159   5.595
 9026SOL    HW227978   2.744   3.036   5.551
 9027SOL     OW27979   2.438   2.572   2.913
 9027SOL    HW127980   2.387   2.642   2.864
 9027SOL    HW227981   2.376   2.523   2.975
 9028SOL     OW27982   2.608   5.118   5.227
 9028SOL    HW127983   2.559   5.089   5.310
 9028SOL    HW227984   2.597   5.048   5.156
 9029SOL     OW27985   4.812   5.297   2.993
 9029SOL    HW127986   4.840   5.319   2.899
 9029SOL    HW227987   4.878   5.337   3.057
 9030SOL     OW27988   3.014   1.898   1.649
 9030SOL    HW127989   3.034   1.858   1.739
 9030SOL    HW227990   2.916   1.893   1.631
 9031SOL     OW27991   1.684   1.267   1.297
 9031SOL    HW127992   1.611   1.313   1.247
 9031SOL    HW227993   1.691   1.306   1.389
 9032SOL     OW27994   1.358   2.349   2.715
 9032SOL    HW127995   1.263   2.358   2.683
 9032SOL    HW227996   1.416   2.321   2.639
 9033SOL     OW27997   1.513   3.694   2.746
 9033SOL    HW127998   1.464   3.663   2.827
 9033SOL    HW227999   1.605   3.725   2.773
 9034SOL     OW28000   1.286   0.179   5.814
 9034SOL    HW128001   1.384   0.184   5.796
 9034SOL    HW228002   1.259   0.255   5.874
 9035SOL     OW28003   6.909   0.511   4.451
 9035SOL    HW128004   6.857   0.521   4.366
 9035SOL    HW228005   6.924   0.601   4.491
 9036SOL     OW28006   1.143   1.547   5.105
 9036SOL    HW128007   1.175   1.627   5.154
 9036SOL    HW228008   1.206   1.470   5.119
 9037SOL     OW28009   2.841   3.789   5.744
 9037SOL    HW128010   2.868   3.857   5.813
 9037SOL    HW228011   2.897   3.801   5.662
 9038SOL     OW28012   5.419   6.600   5.644
 9038SOL    HW128013   5.471   6.527   5.601
 9038SOL    HW228014   5.440   6.602   5.742
 9039SOL     OW28015   2.277   4.999   6.541
 9039SOL    HW128016   2.211   5.052   6.488
 9039SOL    HW228017   2.236   4.970   6.628
 9040SOL     OW28018   2.379   1.808   1.923
 9040SOL    HW128019   2.475   1.822   1.948
 9040SOL    HW228020   2.326   1.889   1.948
 9041SOL     OW28021   1.668   2.965   0.000
 9041SOL    HW128022   1.630   3.009   6.944
 9041SOL    HW228023   1.724   2.887   6.998
 9042SOL     OW28024   2.262   5.459   3.255
 9042SOL    HW128025   2.217   5.441   3.168
 9042SOL    HW228026   2.247   5.554   3.281
 9043SOL     OW28027   6.792   2.479   0.787
 9043SOL    HW128028   6.805   2.518   0.696
 9043SOL    HW228029   6.798   2.379   0.781
 9044SOL     OW28030   6.461   4.776   0.737
 9044SOL    HW128031   6.402   4.730   0.804
 9044SOL    HW228032   6.413   4.784   0.650
 9045SOL     OW28033   3.191   5.673   4.181
 9045SOL    HW128034   3.202   5.765   4.218
 9045SOL    HW228035   3.094   5.655   4.164
 9046SOL     OW28036   3.600   4.392   6.039
 9046SOL    HW128037   3.637   4.462   5.978
 9046SOL    HW228038   3.649   4.393   6.126
 9047SOL     OW28039   1.156   4.595   5.048
 9047SOL    HW128040   1.163   4.681   5.098
 9047SOL    HW228041   1.194   4.521   5.104
 9048SOL     OW28042   1.499   2.035   5.306
 9048SOL    HW128043   1.511   1.960   5.370
 9048SOL    HW228044   1.589   2.068   5.276
 9049SOL     OW28045   5.276   6.199   6.223
 9049SOL    HW128046   5.310   6.141   6.149
 9049SOL    HW228047   5.187   6.165   6.254
 9050SOL     OW28048   0.095   5.789   5.344
 9050SOL    HW128049   7.024   5.770   5.324
 9050SOL    HW228050   0.153   5.744   5.275
 9051SOL     OW28051   5.351   6.614   6.482
 9051SOL    HW128052   5.394   6.547   6.422
 9051SOL    HW228053   5.339   6.575   6.573
 9052SOL     OW28054   2.100   5.327   4.987
 9052SOL    HW128055   2.193   5.301   4.961
 9052SOL    HW228056   2.047   5.244   5.005
 9053SOL     OW28057   2.828   1.521   3.744
 9053SOL    HW128058   2.874   1.458   3.807
 9053SOL    HW228059   2.895   1.558   3.680
 9054SOL     OW28060   4.038   0.065   0.793
 9054SOL    HW128061   4.007   6.996   0.784
 9054SOL    HW228062   3.979   0.125   0.739
 9055SOL     OW28063   0.944   1.367   4.735
 9055SOL    HW128064   0.986   1.278   4.718
 9055SOL    HW228065   0.933   1.381   4.833
 9056SOL     OW28066   5.438   1.679   2.567
 9056SOL    HW128067   5.378   1.738   2.512
 9056SOL    HW228068   5.507   1.735   2.613
 9057SOL     OW28069   4.485   6.598   6.954
 9057SOL    HW128070   4.474   6.522   6.890
 9057SOL    HW228071   4.398   6.615   7.001
 9058SOL     OW28072   2.326   2.218   4.282
 9058SOL    HW128073   2.231   2.241   4.298
 9058SOL    HW228074   2.377   2.300   4.255
 9059SOL     OW28075   6.741   0.495   2.780
 9059SOL    HW128076   6.765   0.592   2.767
 9059SOL    HW228077   6.774   0.464   2.868
 9060SOL     OW28078   0.758   5.744   1.977
 9060SOL    HW128079   0.854   5.772   1.986
 9060SOL    HW228080   0.719   5.783   1.894
 9061SOL     OW28081   6.012   3.865   2.825
 9061SOL    HW128082   5.971   3.829   2.909
 9061SOL    HW228083   5.946   3.856   2.750
 9062SOL     OW28084   0.282   6.132   2.805
 9062SOL    HW128085   0.306   6.054   2.862
 9062SOL    HW228086   0.183   6.133   2.790
 9063SOL     OW28087   4.706   2.126   1.783
 9063SOL    HW128088   4.731   2.031   1.800
 9063SOL    HW228089   4.638   2.130   1.709
 9064SOL     OW28090   0.532   5.621   2.993
 9064SOL    HW128091   0.501   5.530   2.963
 9064SOL    HW228092   0.625   5.615   3.028
 9065SOL     OW28093   3.056   4.195   5.687
 9065SOL    HW128094   3.056   4.273   5.624
 9065SOL    HW228095   2.978   4.203   5.750
 9066SOL     OW28096   4.772   4.597   4.449
 9066SOL    HW128097   4.729   4.680   4.484
 9066SOL    HW228098   4.723   4.565   4.368
 9067SOL     OW28099   0.992   6.008   4.618
 9067SOL    HW128100   0.964   6.040   4.709
 9067SOL    HW228101   1.011   6.087   4.560
 9068SOL     OW28102   4.572   6.993   6.300
 9068SOL    HW128103   4.482   6.977   6.260
 9068SOL    HW228104   4.578   0.062   6.333
 9069SOL     OW28105   5.236   2.243   1.003
 9069SOL    HW128106   5.169   2.302   0.958
 9069SOL    HW228107   5.190   2.188   1.074
 9070SOL     OW28108   2.101   1.454   5.769
 9070SOL    HW128109   2.157   1.468   5.687
 9070SOL    HW228110   2.004   1.457   5.744
 9071SOL     OW28111   5.467   2.716   6.509
 9071SOL    HW128112   5.408   2.655   6.561
 9071SOL    HW228113   5.449   2.704   6.411
 9072SOL     OW28114   4.917   0.834   3.070
 9072SOL    HW128115   5.014   0.826   3.046
 9072SOL    HW228116   4.866   0.761   3.024
 9073SOL     OW28117   4.629   2.234   5.018
 9073SOL    HW128118   4.534   2.247   4.991
 9073SOL    HW228119   4.660   2.313   5.072
 9074SOL     OW28120   1.663   1.058   2.274
 9074SOL    HW128121   1.666   1.112   2.358
 9074SOL    HW228122   1.649   0.961   2.298
 9075SOL     OW28123   6.243   6.140   0.659
 9075SOL    HW128124   6.274   6.222   0.610
 9075SOL    HW228125   6.260   6.060   0.602
 9076SOL     OW28126   6.494   0.208   2.444
 9076SOL    HW128127   6.543   0.257   2.516
 9076SOL    HW228128   6.415   0.162   2.483
 9077SOL     OW28129   6.789   1.404   6.399
 9077SOL    HW128130   6.867   1.437   6.452
 9077SOL    HW228131   6.806   1.309   6.370
 9078SOL     OW28132   5.295   6.595   0.060
 9078SOL    HW128133   5.391   6.573   0.079
 9078SOL    HW228134   5.242   6.588   0.144
 9079SOL     OW28135   1.333   1.663   6.989
 9079SOL    HW128136   1.386   1.745   6.967
 9079SOL    HW228137   1.248   1.663   6.938
 9080SOL     OW28138   6.303   3.480   2.203
 9080SOL    HW128139   6.354   3.553   2.249
 9080SOL    HW228140   6.230   3.520   2.148
 9081SOL     OW28141   5.018   1.061   0.408
 9081SOL    HW128142   5.060   1.151   0.423
 9081SOL    HW228143   4.955   1.041   0.483
 9082SOL     OW28144   3.286   5.931   5.950
 9082SOL    HW128145   3.357   6.001   5.939
 9082SOL    HW228146   3.329   5.842   5.965
 9083SOL     OW28147   3.981   5.397   6.879
 9083SOL    HW128148   3.893   5.376   6.920
 9083SOL    HW228149   4.027   5.467   6.933
 9084SOL     OW28150   6.829   2.705   5.884
 9084SOL    HW128151   6.898   2.721   5.813
 9084SOL    HW228152   6.844   2.769   5.959
 9085SOL     OW28153   2.342   4.857   0.128
 9085SOL    HW128154   2.405   4.934   0.142
 9085SOL    HW228155   2.321   4.815   0.216
 9086SOL     OW28156   0.316   4.827   1.141
 9086SOL    HW128157   0.232   4.772   1.138
 9086SOL    HW228158   0.293   4.923   1.130
 9087SOL     OW28159   5.761   0.899   1.166
 9087SOL    HW128160   5.681   0.957   1.145
 9087SOL    HW228161   5.830   0.912   1.096
 9088SOL     OW28162   6.598   6.451   0.829
 9088SOL    HW128163   6.531   6.494   0.889
 9088SOL    HW228164   6.622   6.361   0.866
 9089SOL     OW28165   5.372   5.305   3.711
 9089SOL    HW128166   5.389   5.255   3.796
 9089SOL    HW228167   5.331   5.244   3.643
 9090SOL     OW28168   5.011   6.290   5.594
 9090SOL    HW128169   5.050   6.278   5.502
 9090SOL    HW228170   4.962   6.377   5.597
 9091SOL     OW28171   2.023   1.564   1.802
 9091SOL    HW128172   1.952   1.580   1.871
 9091SOL    HW228173   2.113   1.562   1.846
 9092SOL     OW28174   2.063   1.242   5.444
 9092SOL    HW128175   2.125   1.223   5.369
 9092SOL    HW228176   1.992   1.171   5.447
 9093SOL     OW28177   1.871   3.821   0.660
 9093SOL    HW128178   1.872   3.735   0.609
 9093SOL    HW228179   1.785   3.869   0.641
 9094SOL     OW28180   6.725   4.453   1.550
 9094SOL    HW128181   6.738   4.369   1.602
 9094SOL    HW228182   6.814   4.496   1.532
 9095SOL     OW28183   3.263   2.583   6.927
 9095SOL    HW128184   3.325   2.585   6.848
 9095SOL    HW228185   3.170   2.604   6.896
 9096SOL     OW28186   5.212   3.088   2.824
 9096SOL    HW128187   5.293   3.134   2.862
 9096SOL    HW228188   5.136   3.095   2.889
 9097SOL     OW28189   0.968   5.326   6.685
 9097SOL    HW128190   0.890   5.387   6.673
 9097SOL    HW228191   0.935   5.233   6.703
 9098SOL     OW28192   4.039   3.860   2.990
 9098SOL    HW128193   3.989   3.938   2.953
 9098SOL    HW228194   3.976   3.800   3.038
 9099SOL     OW28195   2.172   3.561   0.803
 9099SOL    HW128196   2.222   3.480   0.772
 9099SOL    HW228197   2.116   3.537   0.882
 9100SOL     OW28198   0.551   3.226   1.211
 9100SOL    HW128199   0.643   3.241   1.174
 9100SOL    HW228200   0.557   3.213   1.310
 9101SOL     OW28201   2.128   2.631   1.103
 9101SOL    HW128202   2.149   2.677   1.189
 9101SOL    HW228203   2.211   2.593   1.064
 9102SOL     OW28204   3.768   5.426   2.529
 9102SOL    HW128205   3.705   5.503   2.542
 9102SOL    HW228206   3.855   5.447   2.572
 9103SOL     OW28207   0.488   4.014   6.991
 9103SOL    HW128208   0.510   4.037   6.896
 9103SOL    HW228209   0.493   4.097   0.022
 9104SOL     OW28210   4.408   6.457   1.281
 9104SOL    HW128211   4.375   6.381   1.337
 9104SOL    HW228212   4.401   6.542   1.334
 9105SOL     OW28213   1.956   1.948   5.774
 9105SOL    HW128214   1.944   1.986   5.865
 9105SOL    HW228215   2.039   1.893   5.771
 9106SOL     OW28216   6.805   5.156   0.976
 9106SOL    HW128217   6.739   5.182   1.047
 9106SOL    HW228218   6.758   5.104   0.905
 9107SOL     OW28219   4.523   0.510   1.478
 9107SOL    HW128220   4.582   0.430   1.476
 9107SOL    HW228221   4.427   0.481   1.486
 9108SOL     OW28222   4.564   5.313   6.032
 9108SOL    HW128223   4.487   5.364   5.994
 9108SOL    HW228224   4.550   5.215   6.018
 9109SOL     OW28225   2.987   1.877   3.725
 9109SOL    HW128226   2.996   1.976   3.717
 9109SOL    HW228227   2.905   1.855   3.778
 9110SOL     OW28228   1.597   4.087   3.829
 9110SOL    HW128229   1.617   4.183   3.843
 9110SOL    HW228230   1.579   4.043   3.917
 9111SOL     OW28231   3.837   4.074   1.608
 9111SOL    HW128232   3.885   4.145   1.658
 9111SOL    HW228233   3.794   4.010   1.672
 9112SOL     OW28234   0.079   4.671   2.094
 9112SOL    HW128235   0.120   4.730   2.024
 9112SOL    HW228236   0.146   4.650   2.164
 9113SOL     OW28237   4.060   6.807   0.529
 9113SOL    HW128238   3.989   6.877   0.539
 9113SOL    HW228239   4.121   6.809   0.608
 9114SOL     OW28240   2.645   4.473   1.783
 9114SOL    HW128241   2.718   4.520   1.833
 9114SOL    HW228242   2.562   4.529   1.786
 9115SOL     OW28243   1.417   4.702   5.224
 9115SOL    HW128244   1.340   4.746   5.177
 9115SOL    HW228245   1.478   4.771   5.261
 9116SOL     OW28246   0.540   1.179   6.199
 9116SOL    HW128247   0.616   1.141   6.252
 9116SOL    HW228248   0.502   1.258   6.246
 9117SOL     OW28249   6.426   2.286   0.188
 9117SOL    HW128250   6.361   2.246   0.252
 9117SOL    HW228251   6.458   2.216   0.125
 9118SOL     OW28252   6.157   6.648   1.771
 9118SOL    HW128253   6.161   6.693   1.860
 9118SOL    HW228254   6.248   6.615   1.746
 9119SOL     OW28255   6.644   0.452   1.557
 9119SOL    HW128256   6.716   0.517   1.582
 9119SOL    HW228257   6.674   0.397   1.479
 9120SOL     OW28258   5.298   1.216   6.329
 9120SOL    HW128259   5.244   1.292   6.294
 9120SOL    HW228260   5.349   1.245   6.410
 9121SOL     OW28261   0.929   1.196   6.403
 9121SOL    HW128262   0.921   1.259   6.480
 9121SOL    HW228263   1.012   1.141   6.413
 9122SOL     OW28264   1.523   2.946   2.546
 9122SOL    HW128265   1.543   2.984   2.636
 9122SOL    HW228266   1.594   2.881   2.521
 9123SOL     OW28267   2.317   5.561   7.017
 9123SOL    HW128268   2.417   5.567   7.020
 9123SOL    HW228269   2.290   5.469   6.988
 9124SOL     OW28270   6.453   5.574   5.354
 9124SOL    HW128271   6.483   5.487   5.316
 9124SOL    HW228272   6.356   5.568   5.378
 9125SOL     OW28273   5.045   4.218   3.972
 9125SOL    HW128274   4.949   4.227   3.998
 9125SOL    HW228275   5.063   4.272   3.890
 9126SOL     OW28276   5.957   0.843   1.387
 9126SOL    HW128277   5.964   0.743   1.382
 9126SOL    HW228278   5.882   0.874   1.330
 9127SOL     OW28279   5.174   0.797   0.123
 9127SOL    HW128280   5.230   0.798   0.040
 9127SOL    HW228281   5.168   0.889   0.160
 9128SOL     OW28282   4.029   1.964   4.916
 9128SOL    HW128283   3.958   1.913   4.965
 9128SOL    HW228284   4.003   1.971   4.819
 9129SOL     OW28285   2.024   1.761   6.803
 9129SOL    HW128286   2.115   1.757   6.844
 9129SOL    HW228287   1.958   1.793   6.871
 9130SOL     OW28288   5.800   4.477   0.742
 9130SOL    HW128289   5.766   4.386   0.719
 9130SOL    HW228290   5.893   4.470   0.777
 9131SOL     OW28291   1.171   4.096   4.632
 9131SOL    HW128292   1.098   4.154   4.597
 9131SOL    HW228293   1.169   4.007   4.586
 9132SOL     OW28294   0.177   3.395   4.538
 9132SOL    HW128295   0.255   3.374   4.479
 9132SOL    HW228296   0.140   3.311   4.576
 9133SOL     OW28297   2.353   4.124   1.340
 9133SOL    HW128298   2.441   4.089   1.309
 9133SOL    HW228299   2.309   4.056   1.399
 9134SOL     OW28300   2.964   5.973   6.666
 9134SOL    HW128301   2.999   6.009   6.580
 9134SOL    HW228302   2.938   6.048   6.726
 9135SOL     OW28303   6.327   5.834   4.263
 9135SOL    HW128304   6.418   5.829   4.304
 9135SOL    HW228305   6.324   5.911   4.199
 9136SOL     OW28306   4.454   5.015   5.690
 9136SOL    HW128307   4.542   5.006   5.643
 9136SOL    HW228308   4.454   4.958   5.772
 9137SOL     OW28309   4.340   1.437   1.550
 9137SOL    HW128310   4.433   1.406   1.567
 9137SOL    HW228311   4.293   1.371   1.491
 9138SOL     OW28312   4.754   5.235   6.404
 9138SOL    HW128313   4.730   5.309   6.342
 9138SOL    HW228314   4.787   5.156   6.351
 9139SOL     OW28315   3.234   1.110   5.307
 9139SOL    HW128316   3.306   1.119   5.377
 9139SOL    HW228317   3.147   1.139   5.346
 9140SOL     OW28318   6.786   2.341   2.700
 9140SOL    HW128319   6.782   2.440   2.701
 9140SOL    HW228320   6.871   2.310   2.742
 9141SOL     OW28321   5.176   0.049   5.863
 9141SOL    HW128322   5.156   0.135   5.910
 9141SOL    HW228323   5.223   0.068   5.777
 9142SOL     OW28324   0.224   3.153   6.020
 9142SOL    HW128325   0.214   3.094   5.940
 9142SOL    HW228326   0.168   3.117   6.095
 9143SOL     OW28327   4.882   3.147   0.837
 9143SOL    HW128328   4.843   3.204   0.909
 9143SOL    HW228329   4.814   3.079   0.808
 9144SOL     OW28330   2.415   5.662   5.781
 9144SOL    HW128331   2.348   5.613   5.837
 9144SOL    HW228332   2.409   5.630   5.686
 9145SOL     OW28333   0.154   4.682   6.932
 9145SOL    HW128334   0.181   4.624   6.856
 9145SOL    HW228335   0.115   4.626   7.005
 9146SOL     OW28336   6.199   2.777   1.142
 9146SOL    HW128337   6.102   2.770   1.120
 9146SOL    HW228338   6.239   2.686   1.148
 9147SOL     OW28339   4.529   5.514   4.542
 9147SOL    HW128340   4.562   5.580   4.609
 9147SOL    HW228341   4.602   5.490   4.478
 9148SOL     OW28342   5.007   5.381   3.211
 9148SOL    HW128343   5.096   5.398   3.168
 9148SOL    HW228344   5.015   5.306   3.277
 9149SOL     OW28345   5.076   2.846   4.685
 9149SOL    HW128346   4.993   2.836   4.629
 9149SOL    HW228347   5.049   2.869   4.779
 9150SOL     OW28348   4.637   0.300   3.545
 9150SOL    HW128349   4.635   0.400   3.552
 9150SOL    HW228350   4.638   0.274   3.449
 9151SOL     OW28351   1.882   4.009   2.007
 9151SOL    HW128352   1.946   4.086   2.006
 9151SOL    HW228353   1.792   4.041   2.036
 9152SOL     OW28354   2.251   6.043   3.607
 9152SOL    HW128355   2.289   6.090   3.527
 9152SOL    HW228356   2.322   6.035   3.677
 9153SOL     OW28357   2.013   2.799   6.197
 9153SOL    HW128358   2.032   2.713   6.244
 9153SOL    HW228359   1.921   2.830   6.220
 9154SOL     OW28360   2.829   6.022   0.049
 9154SOL    HW128361   2.822   6.104   0.106
 9154SOL    HW228362   2.745   5.968   0.058
 9155SOL     OW28363   1.694   3.975   6.862
 9155SOL    HW128364   1.763   3.904   6.866
 9155SOL    HW228365   1.667   3.990   6.766
 9156SOL     OW28366   4.370   2.484   1.555
 9156SOL    HW128367   4.440   2.483   1.483
 9156SOL    HW228368   4.303   2.411   1.537
 9157SOL     OW28369   5.761   3.787   5.522
 9157SOL    HW128370   5.681   3.840   5.550
 9157SOL    HW228371   5.813   3.759   5.602
 9158SOL     OW28372   0.897   3.343   4.448
 9158SOL    HW128373   0.990   3.354   4.410
 9158SOL    HW228374   0.855   3.433   4.458
 9159SOL     OW28375   6.394   5.598   2.335
 9159SOL    HW128376   6.424   5.553   2.251
 9159SOL    HW228377   6.439   5.555   2.413
 9160SOL     OW28378   0.671   6.913   6.482
 9160SOL    HW128379   0.588   6.859   6.479
 9160SOL    HW228380   0.733   6.884   6.409
 9161SOL     OW28381   4.907   3.499   4.506
 9161SOL    HW128382   4.873   3.488   4.600
 9161SOL    HW228383   4.908   3.596   4.482
 9162SOL     OW28384   4.548   2.496   2.334
 9162SOL    HW128385   4.592   2.567   2.280
 9162SOL    HW228386   4.477   2.452   2.280
 9163SOL     OW28387   3.045   2.147   3.687
 9163SOL    HW128388   2.966   2.196   3.651
 9163SOL    HW228389   3.116   2.142   3.616
 9164SOL     OW28390   2.761   0.666   6.431
 9164SOL    HW128391   2.841   0.713   6.391
 9164SOL    HW228392   2.788   0.576   6.464
 9165SOL     OW28393   5.448   0.684   6.543
 9165SOL    HW128394   5.435   0.721   6.451
 9165SOL    HW228395   5.476   0.757   6.605
 9166SOL     OW28396   3.405   5.106   0.928
 9166SOL    HW128397   3.486   5.150   0.967
 9166SOL    HW228398   3.353   5.172   0.876
 9167SOL     OW28399   1.708   3.894   5.724
 9167SOL    HW128400   1.723   3.910   5.627
 9167SOL    HW228401   1.736   3.802   5.748
 9168SOL     OW28402   2.369   0.200   5.900
 9168SOL    HW128403   2.370   0.132   5.827
 9168SOL    HW228404   2.323   0.163   5.980
 9169SOL     OW28405   0.929   0.937   3.937
 9169SOL    HW128406   0.833   0.954   3.917
 9169SOL    HW228407   0.985   1.006   3.891
 9170SOL     OW28408   6.809   5.367   0.387
 9170SOL    HW128409   6.721   5.381   0.343
 9170SOL    HW228410   6.842   5.454   0.424
 9171SOL     OW28411   2.974   5.793   6.973
 9171SOL    HW128412   2.887   5.818   7.014
 9171SOL    HW228413   3.023   5.877   6.947
 9172SOL     OW28414   3.352   1.342   4.070
 9172SOL    HW128415   3.334   1.434   4.034
 9172SOL    HW228416   3.429   1.301   4.021
 9173SOL     OW28417   6.961   5.129   4.728
 9173SOL    HW128418   6.943   5.186   4.808
 9173SOL    HW228419   7.009   5.046   4.756
 9174SOL     OW28420   0.159   4.909   6.761
 9174SOL    HW128421   0.094   4.980   6.786
 9174SOL    HW228422   0.147   4.831   6.823
 9175SOL     OW28423   2.412   5.599   6.125
 9175SOL    HW128424   2.499   5.557   6.103
 9175SOL    HW228425   2.342   5.568   6.060
 9176SOL     OW28426   1.936   0.700   5.604
 9176SOL    HW128427   1.965   0.605   5.609
 9176SOL    HW228428   2.015   0.759   5.585
 9177SOL     OW28429   1.405   4.357   4.048
 9177SOL    HW128430   1.442   4.429   3.989
 9177SOL    HW228431   1.396   4.391   4.141
 9178SOL     OW28432   2.128   5.314   0.830
 9178SOL    HW128433   2.098   5.409   0.827
 9178SOL    HW228434   2.212   5.304   0.777
 9179SOL     OW28435   3.374   5.019   3.878
 9179SOL    HW128436   3.395   5.108   3.919
 9179SOL    HW228437   3.458   4.964   3.873
 9180SOL     OW28438   5.917   2.351   3.740
 9180SOL    HW128439   5.983   2.402   3.796
 9180SOL    HW228440   5.898   2.263   3.784
 9181SOL     OW28441   4.339   2.291   2.459
 9181SOL    HW128442   4.377   2.337   2.379
 9181SOL    HW228443   4.274   2.221   2.430
 9182SOL     OW28444   1.509   6.379   2.035
 9182SOL    HW128445   1.599   6.339   2.018
 9182SOL    HW228446   1.514   6.441   2.114
 9183SOL     OW28447   4.808   6.300   0.785
 9183SOL    HW128448   4.851   6.288   0.874
 9183SOL    HW228449   4.849   6.237   0.719
 9184SOL     OW28450   4.904   6.949   0.872
 9184SOL    HW128451   4.840   7.012   0.828
 9184SOL    HW228452   4.910   6.970   0.969
 9185SOL     OW28453   3.477   0.564   5.001
 9185SOL    HW128454   3.531   0.524   4.928
 9185SOL    HW228455   3.477   0.664   4.993
 9186SOL     OW28456   6.065   0.856   5.586
 9186SOL    HW128457   6.119   0.866   5.502
 9186SOL    HW228458   6.022   0.943   5.608
 9187SOL     OW28459   2.380   6.074   2.030
 9187SOL    HW128460   2.377   6.148   2.097
 9187SOL    HW228461   2.290   6.029   2.026
 9188SOL     OW28462   3.112   6.922   0.916
 9188SOL    HW128463   3.179   6.870   0.968
 9188SOL    HW228464   3.020   6.888   0.935
 9189SOL     OW28465   5.345   5.686   3.254
 9189SOL    HW128466   5.315   5.748   3.182
 9189SOL    HW228467   5.421   5.728   3.305
 9190SOL     OW28468   1.633   5.566   0.758
 9190SOL    HW128469   1.716   5.568   0.702
 9190SOL    HW228470   1.585   5.479   0.743
 9191SOL     OW28471   6.634   0.403   5.581
 9191SOL    HW128472   6.726   0.378   5.610
 9191SOL    HW228473   6.638   0.444   5.490
 9192SOL     OW28474   0.456   3.975   4.413
 9192SOL    HW128475   0.443   4.037   4.490
 9192SOL    HW228476   0.431   3.882   4.440
 9193SOL     OW28477   3.076   3.220   6.635
 9193SOL    HW128478   3.045   3.141   6.688
 9193SOL    HW228479   3.002   3.288   6.629
 9194SOL     OW28480   2.991   0.658   3.572
 9194SOL    HW128481   2.998   0.711   3.656
 9194SOL    HW228482   2.896   0.659   3.539
 9195SOL     OW28483   2.167   2.023   3.986
 9195SOL    HW128484   2.125   2.074   4.061
 9195SOL    HW228485   2.255   1.987   4.016
 9196SOL     OW28486   4.627   1.536   4.950
 9196SOL    HW128487   4.636   1.632   4.923
 9196SOL    HW228488   4.544   1.498   4.908
 9197SOL     OW28489   2.516   3.743   1.628
 9197SOL    HW128490   2.480   3.788   1.710
 9197SOL    HW228491   2.573   3.808   1.577
 9198SOL     OW28492   6.557   5.701   5.544
 9198SOL    HW128493   6.501   5.650   5.478
 9198SOL    HW228494   6.565   5.796   5.514
 9199SOL     OW28495   0.044   4.306   5.105
 9199SOL    HW128496   0.115   4.237   5.086
 9199SOL    HW228497   0.030   4.312   5.204
 9200SOL     OW28498   3.629   0.727   0.790
 9200SOL    HW128499   3.530   0.735   0.794
 9200SOL    HW228500   3.661   0.667   0.863
 9201SOL     OW28501   1.312   3.943   0.343
 9201SOL    HW128502   1.380   3.956   0.415
 9201SOL    HW228503   1.250   4.021   0.341
 9202SOL     OW28504   1.845   6.669   3.411
 9202SOL    HW128505   1.881   6.684   3.319
 9202SOL    HW228506   1.918   6.682   3.478
 9203SOL     OW28507   6.896   5.345   0.809
 9203SOL    HW128508   6.808   5.387   0.788
 9203SOL    HW228509   6.882   5.264   0.866
 9204SOL     OW28510   4.953   1.110   6.224
 9204SOL    HW128511   4.974   1.014   6.204
 9204SOL    HW228512   4.934   1.159   6.138
 9205SOL     OW28513   6.761   4.027   3.108
 9205SOL    HW128514   6.839   3.976   3.146
 9205SOL    HW228515   6.680   3.969   3.106
 9206SOL     OW28516   4.107   5.838   0.576
 9206SOL    HW128517   4.137   5.899   0.503
 9206SOL    HW228518   4.174   5.839   0.650
 9207SOL     OW28519   4.789   5.549   0.574
 9207SOL    HW128520   4.813   5.529   0.479
 9207SOL    HW228521   4.809   5.469   0.631
 9208SOL     OW28522   0.464   4.111   4.665
 9208SOL    HW128523   0.518   4.180   4.714
 9208SOL    HW228524   0.450   4.032   4.724
 9209SOL     OW28525   2.358   1.191   6.445
 9209SOL    HW128526   2.345   1.093   6.428
 9209SOL    HW228527   2.331   1.243   6.364
 9210SOL     OW28528   6.695   1.468   3.215
 9210SOL    HW128529   6.633   1.412   3.269
 9210SOL    HW228530   6.785   1.426   3.212
 9211SOL     OW28531   0.273   1.832   3.822
 9211SOL    HW128532   0.221   1.818   3.906
 9211SOL    HW228533   0.308   1.744   3.789
 9212SOL     OW28534   3.095   4.942   4.847
 9212SOL    HW128535   3.008   4.905   4.815
 9212SOL    HW228536   3.085   5.040   4.866
 9213SOL     OW28537   6.089   3.598   6.006
 9213SOL    HW128538   6.124   3.677   5.957
 9213SOL    HW228539   6.116   3.514   5.959
 9214SOL     OW28540   0.459   5.839   1.081
 9214SOL    HW128541   0.479   5.782   1.160
 9214SOL    HW228542   0.542   5.890   1.054
 9215SOL     OW28543   1.282   1.018   0.475
 9215SOL    HW128544   1.314   0.939   0.526
 9215SOL    HW228545   1.336   1.028   0.391
 9216SOL     OW28546   2.264   6.573   2.531
 9216SOL    HW128547   2.308   6.657   2.562
 9216SOL    HW228548   2.166   6.577   2.549
 9217SOL     OW28549   0.329   2.161   6.411
 9217SOL    HW128550   0.288   2.070   6.402
 9217SOL    HW228551   0.359   2.176   6.505
 9218SOL     OW28552   3.653   0.393   0.798
 9218SOL    HW128553   3.711   0.323   0.755
 9218SOL    HW228554   3.699   0.429   0.879
 9219SOL     OW28555   1.066   2.553   0.991
 9219SOL    HW128556   1.038   2.616   0.919
 9219SOL    HW228557   1.054   2.596   1.080
 9220SOL     OW28558   3.521   6.733   1.526
 9220SOL    HW128559   3.545   6.639   1.501
 9220SOL    HW228560   3.422   6.745   1.518
 9221SOL     OW28561   2.966   6.085   3.709
 9221SOL    HW128562   2.992   6.159   3.771
 9221SOL    HW228563   3.029   6.008   3.720
 9222SOL     OW28564   2.485   1.496   6.517
 9222SOL    HW128565   2.489   1.507   6.616
 9222SOL    HW228566   2.469   1.400   6.495
 9223SOL     OW28567   2.266   2.741   5.472
 9223SOL    HW128568   2.266   2.782   5.563
 9223SOL    HW228569   2.280   2.813   5.403
 9224SOL     OW28570   1.955   5.584   4.332
 9224SOL    HW128571   1.980   5.648   4.405
 9224SOL    HW228572   1.952   5.491   4.368
 9225SOL     OW28573   3.122   6.015   6.909
 9225SOL    HW128574   3.116   6.078   6.987
 9225SOL    HW228575   3.059   6.044   6.837
 9226SOL     OW28576   5.205   6.209   0.962
 9226SOL    HW128577   5.250   6.141   1.019
 9226SOL    HW228578   5.106   6.205   0.977
 9227SOL     OW28579   1.260   5.308   2.578
 9227SOL    HW128580   1.360   5.309   2.574
 9227SOL    HW228581   1.230   5.320   2.673
 9228SOL     OW28582   1.286   0.981   6.813
 9228SOL    HW128583   1.217   1.044   6.777
 9228SOL    HW228584   1.240   0.906   6.862
 9229SOL     OW28585   1.160   5.944   4.115
 9229SOL    HW128586   1.107   6.028   4.107
 9229SOL    HW228587   1.109   5.867   4.078
 9230SOL     OW28588   5.663   0.623   4.098
 9230SOL    HW128589   5.758   0.646   4.077
 9230SOL    HW228590   5.604   0.655   4.023
 9231SOL     OW28591   1.257   2.407   4.087
 9231SOL    HW128592   1.318   2.487   4.082
 9231SOL    HW228593   1.310   2.327   4.113
 9232SOL     OW28594   3.347   5.570   0.747
 9232SOL    HW128595   3.306   5.557   0.838
 9232SOL    HW228596   3.344   5.666   0.722
 9233SOL     OW28597   5.550   4.915   1.051
 9233SOL    HW128598   5.649   4.900   1.060
 9233SOL    HW228599   5.502   4.854   1.114
 9234SOL     OW28600   2.795   5.330   3.652
 9234SOL    HW128601   2.882   5.281   3.656
 9234SOL    HW228602   2.735   5.285   3.586
 9235SOL     OW28603   0.819   2.005   3.156
 9235SOL    HW128604   0.767   1.924   3.186
 9235SOL    HW228605   0.778   2.087   3.196
 9236SOL     OW28606   2.960   3.455   5.120
 9236SOL    HW128607   3.037   3.393   5.106
 9236SOL    HW228608   2.894   3.413   5.182
 9237SOL     OW28609   1.872   4.340   4.310
 9237SOL    HW128610   1.935   4.262   4.299
 9237SOL    HW228611   1.786   4.320   4.263
 9238SOL     OW28612   4.590   3.013   6.590
 9238SOL    HW128613   4.536   2.976   6.665
 9238SOL    HW228614   4.529   3.051   6.520
 9239SOL     OW28615   0.955   3.947   0.914
 9239SOL    HW128616   0.961   3.859   0.960
 9239SOL    HW228617   1.036   3.961   0.858
 9240SOL     OW28618   4.732   1.658   1.346
 9240SOL    HW128619   4.778   1.723   1.285
 9240SOL    HW228620   4.633   1.670   1.339
 9241SOL     OW28621   0.234   5.502   6.605
 9241SOL    HW128622   0.215   5.411   6.568
 9241SOL    HW228623   0.151   5.558   6.599
 9242SOL     OW28624   6.275   6.066   2.014
 9242SOL    HW128625   6.226   6.117   2.084
 9242SOL    HW228626   6.217   5.993   1.979
 9243SOL     OW28627   6.385   5.913   4.955
 9243SOL    HW128628   6.380   5.832   4.896
 9243SOL    HW228629   6.471   5.913   5.005
 9244SOL     OW28630   3.785   4.954   6.792
 9244SOL    HW128631   3.847   4.876   6.794
 9244SOL    HW228632   3.813   5.017   6.720
 9245SOL     OW28633   0.463   5.946   1.714
 9245SOL    HW128634   0.534   6.010   1.742
 9245SOL    HW228635   0.487   5.854   1.744
 9246SOL     OW28636   6.147   5.378   3.705
 9246SOL    HW128637   6.136   5.310   3.777
 9246SOL    HW228638   6.183   5.462   3.743
 9247SOL     OW28639   1.025   6.656   2.826
 9247SOL    HW128640   1.123   6.672   2.813
 9247SOL    HW228641   1.005   6.560   2.808
 9248SOL     OW28642   2.803   2.330   6.096
 9248SOL    HW128643   2.831   2.290   6.008
 9248SOL    HW228644   2.806   2.430   6.089
 9249SOL     OW28645   4.699   0.925   4.025
 9249SOL    HW128646   4.694   0.960   3.931
 9249SOL    HW228647   4.795   0.911   4.050
 9250SOL     OW28648   4.842   3.823   3.801
 9250SOL    HW128649   4.807   3.839   3.893
 9250SOL    HW228650   4.853   3.911   3.754
 9251SOL     OW28651   3.651   1.376   2.957
 9251SOL    HW128652   3.664   1.472   2.981
 9251SOL    HW228653   3.648   1.366   2.858
 9252SOL     OW28654   0.170   6.920   4.829
 9252SOL    HW128655   0.179   7.018   4.843
 9252SOL    HW228656   0.100   6.903   4.759
 9253SOL     OW28657   2.003   0.043   5.694
 9253SOL    HW128658   2.052   0.053   5.780
 9253SOL    HW228659   1.919   0.097   5.696
 9254SOL     OW28660   5.791   3.624   1.716
 9254SOL    HW128661   5.835   3.712   1.698
 9254SOL    HW228662   5.695   3.628   1.688
 9255SOL     OW28663   5.336   3.737   0.808
 9255SOL    HW128664   5.417   3.787   0.838
 9255SOL    HW228665   5.343   3.641   0.837
 9256SOL     OW28666   4.274   4.655   1.867
 9256SOL    HW128667   4.333   4.631   1.944
 9256SOL    HW228668   4.265   4.576   1.806
 9257SOL     OW28669   1.139   3.895   1.935
 9257SOL    HW128670   1.087   3.833   1.993
 9257SOL    HW228671   1.144   3.985   1.978
 9258SOL     OW28672   3.523   2.861   3.660
 9258SOL    HW128673   3.512   2.815   3.571
 9258SOL    HW228674   3.583   2.940   3.649
 9259SOL     OW28675   0.984   2.062   1.844
 9259SOL    HW128676   0.897   2.058   1.795
 9259SOL    HW228677   1.033   2.146   1.818
 9260SOL     OW28678   5.150   3.495   6.404
 9260SOL    HW128679   5.166   3.402   6.371
 9260SOL    HW228680   5.230   3.551   6.387
 9261SOL     OW28681   4.175   0.506   6.655
 9261SOL    HW128682   4.270   0.478   6.669
 9261SOL    HW228683   4.172   0.604   6.636
 9262SOL     OW28684   5.242   1.072   5.302
 9262SOL    HW128685   5.153   1.036   5.327
 9262SOL    HW228686   5.258   1.058   5.204
 9263SOL     OW28687   5.485   3.770   1.200
 9263SOL    HW128688   5.443   3.684   1.229
 9263SOL    HW228689   5.447   3.845   1.254
 9264SOL     OW28690   6.104   3.963   6.472
 9264SOL    HW128691   6.113   3.870   6.506
 9264SOL    HW228692   6.062   3.962   6.381
 9265SOL     OW28693   2.924   1.683   0.373
 9265SOL    HW128694   2.899   1.753   0.440
 9265SOL    HW228695   3.007   1.713   0.325
 9266SOL     OW28696   2.290   6.350   2.805
 9266SOL    HW128697   2.213   6.288   2.789
 9266SOL    HW228698   2.323   6.385   2.717
 9267SOL     OW28699   0.942   4.338   4.726
 9267SOL    HW128700   1.028   4.383   4.751
 9267SOL    HW228701   0.941   4.323   4.627
 9268SOL     OW28702   0.341   6.696   2.751
 9268SOL    HW128703   0.289   6.648   2.822
 9268SOL    HW228704   0.429   6.649   2.738
 9269SOL     OW28705   3.406   1.940   6.850
 9269SOL    HW128706   3.394   1.990   6.936
 9269SOL    HW228707   3.355   1.854   6.854
 9270SOL     OW28708   6.735   6.560   6.203
 9270SOL    HW128709   6.752   6.659   6.197
 9270SOL    HW228710   6.804   6.511   6.150
 9271SOL     OW28711   1.745   5.961   1.061
 9271SOL    HW128712   1.795   6.033   1.014
 9271SOL    HW228713   1.664   5.937   1.007
 9272SOL     OW28714   2.445   4.340   6.463
 9272SOL    HW128715   2.472   4.248   6.435
 9272SOL    HW228716   2.518   4.405   6.442
 9273SOL     OW28717   4.378   4.924   4.246
 9273SOL    HW128718   4.364   4.838   4.295
 9273SOL    HW228719   4.302   4.986   4.266
 9274SOL     OW28720   5.558   2.240   6.221
 9274SOL    HW128721   5.575   2.312   6.154
 9274SOL    HW228722   5.617   2.253   6.301
 9275SOL     OW28723   1.623   0.552   5.721
 9275SOL    HW128724   1.552   0.482   5.723
 9275SOL    HW228725   1.641   0.585   5.814
 9276SOL     OW28726   3.590   5.935   4.771
 9276SOL    HW128727   3.496   5.967   4.779
 9276SOL    HW228728   3.651   5.999   4.819
 9277SOL     OW28729   3.655   3.165   6.717
 9277SOL    HW128730   3.616   3.126   6.633
 9277SOL    HW228731   3.753   3.146   6.720
 9278SOL     OW28732   1.131   2.071   3.762
 9278SOL    HW128733   1.087   2.157   3.737
 9278SOL    HW228734   1.214   2.060   3.707
 9279SOL     OW28735   2.931   0.599   2.314
 9279SOL    HW128736   3.017   0.557   2.287
 9279SOL    HW228737   2.946   0.656   2.395
 9280SOL     OW28738   1.726   6.891   3.901
 9280SOL    HW128739   1.814   6.880   3.855
 9280SOL    HW228740   1.729   6.845   3.990
 9281SOL     OW28741   2.097   2.374   0.850
 9281SOL    HW128742   2.092   2.451   0.914
 9281SOL    HW228743   2.026   2.307   0.873
 9282SOL     OW28744   4.408   1.416   4.890
 9282SOL    HW128745   4.339   1.397   4.960
 9282SOL    HW228746   4.417   1.337   4.830
 9283SOL     OW28747   5.830   2.390   2.380
 9283SOL    HW128748   5.764   2.458   2.349
 9283SOL    HW228749   5.917   2.435   2.400
 9284SOL     OW28750   3.526   3.609   1.073
 9284SOL    HW128751   3.469   3.662   1.010
 9284SOL    HW228752   3.524   3.651   1.163
 9285SOL     OW28753   6.868   2.543   6.666
 9285SOL    HW128754   6.967   2.549   6.650
 9285SOL    HW228755   6.832   2.634   6.684
 9286SOL     OW28756   5.639   0.129   5.204
 9286SOL    HW128757   5.637   0.105   5.107
 9286SOL    HW228758   5.548   0.118   5.243
 9287SOL     OW28759   2.938   5.900   1.019
 9287SOL    HW128760   2.907   5.857   0.934
 9287SOL    HW228761   2.913   5.842   1.097
 9288SOL     OW28762   4.275   1.787   5.726
 9288SOL    HW128763   4.236   1.833   5.646
 9288SOL    HW228764   4.304   1.856   5.792
 9289SOL     OW28765   4.868   2.161   2.363
 9289SOL    HW128766   4.800   2.191   2.430
 9289SOL    HW228767   4.839   2.189   2.271
 9290SOL     OW28768   4.745   1.620   4.582
 9290SOL    HW128769   4.809   1.650   4.652
 9290SOL    HW228770   4.714   1.698   4.529
 9291SOL     OW28771   1.353   0.561   4.741
 9291SOL    HW128772   1.375   0.466   4.720
 9291SOL    HW228773   1.258   0.567   4.771
 9292SOL     OW28774   0.148   3.410   6.055
 9292SOL    HW128775   0.070   3.394   6.115
 9292SOL    HW228776   0.174   3.324   6.010
 9293SOL     OW28777   5.119   4.335   0.367
 9293SOL    HW128778   5.020   4.342   0.357
 9293SOL    HW228779   5.155   4.270   0.300
 9294SOL     OW28780   5.518   6.031   0.082
 9294SOL    HW128781   5.480   6.033   7.014
 9294SOL    HW228782   5.489   6.112   0.131
 9295SOL     OW28783   4.527   1.647   3.153
 9295SOL    HW128784   4.597   1.718   3.155
 9295SOL    HW228785   4.514   1.614   3.059
 9296SOL     OW28786   6.145   6.289   5.949
 9296SOL    HW128787   6.082   6.364   5.929
 9296SOL    HW228788   6.100   6.201   5.933
 9297SOL     OW28789   0.583   0.662   1.027
 9297SOL    HW128790   0.679   0.640   1.042
 9297SOL    HW228791   0.527   0.580   1.037
 9298SOL     OW28792   1.938   6.229   5.366
 9298SOL    HW128793   1.941   6.329   5.371
 9298SOL    HW228794   1.993   6.198   5.288
 9299SOL     OW28795   1.344   3.694   4.389
 9299SOL    HW128796   1.377   3.774   4.439
 9299SOL    HW228797   1.390   3.612   4.423
 9300SOL     OW28798   5.562   4.247   4.666
 9300SOL    HW128799   5.629   4.271   4.735
 9300SOL    HW228800   5.489   4.315   4.665
 9301SOL     OW28801   5.097   4.166   2.724
 9301SOL    HW128802   5.019   4.229   2.721
 9301SOL    HW228803   5.112   4.127   2.633
 9302SOL     OW28804   2.325   2.149   2.986
 9302SOL    HW128805   2.237   2.128   3.028
 9302SOL    HW228806   2.396   2.152   3.056
 9303SOL     OW28807   3.750   6.175   0.014
 9303SOL    HW128808   3.751   6.142   0.108
 9303SOL    HW228809   3.707   6.265   0.011
 9304SOL     OW28810   3.193   3.448   0.711
 9304SOL    HW128811   3.277   3.492   0.742
 9304SOL    HW228812   3.153   3.501   0.637
 9305SOL     OW28813   6.210   2.575   2.102
 9305SOL    HW128814   6.232   2.478   2.093
 9305SOL    HW228815   6.292   2.629   2.084
 9306SOL     OW28816   6.808   4.659   3.927
 9306SOL    HW128817   6.842   4.742   3.885
 9306SOL    HW228818   6.809   4.668   4.027
 9307SOL     OW28819   1.725   2.051   0.810
 9307SOL    HW128820   1.689   2.062   0.903
 9307SOL    HW228821   1.651   2.030   0.747
 9308SOL     OW28822   0.523   3.178   0.831
 9308SOL    HW128823   0.462   3.239   0.882
 9308SOL    HW228824   0.474   3.139   0.753
 9309SOL     OW28825   4.439   3.987   5.669
 9309SOL    HW128826   4.431   3.930   5.751
 9309SOL    HW228827   4.350   3.993   5.623
 9310SOL     OW28828   4.195   6.161   6.492
 9310SOL    HW128829   4.110   6.114   6.472
 9310SOL    HW228830   4.253   6.163   6.411
 9311SOL     OW28831   5.665   3.875   0.671
 9311SOL    HW128832   5.633   3.844   0.761
 9311SOL    HW228833   5.662   3.799   0.606
 9312SOL     OW28834   1.457   4.488   6.748
 9312SOL    HW128835   1.385   4.524   6.690
 9312SOL    HW228836   1.425   4.404   6.793
 9313SOL     OW28837   0.200   6.831   2.525
 9313SOL    HW128838   0.158   6.921   2.535
 9313SOL    HW228839   0.225   6.795   2.616
 9314SOL     OW28840   4.591   5.678   6.674
 9314SOL    HW128841   4.541   5.594   6.656
 9314SOL    HW228842   4.688   5.658   6.690
 9315SOL     OW28843   6.909   0.382   5.687
 9315SOL    HW128844   6.883   0.378   5.783
 9315SOL    HW228845   6.980   0.313   5.669
 9316SOL     OW28846   3.791   5.914   3.587
 9316SOL    HW128847   3.724   5.887   3.656
 9316SOL    HW228848   3.878   5.937   3.631
 9317SOL     OW28849   6.391   5.181   3.593
 9317SOL    HW128850   6.379   5.108   3.660
 9317SOL    HW228851   6.349   5.265   3.628
 9318SOL     OW28852   6.966   0.751   6.909
 9318SOL    HW128853   0.013   0.723   6.972
 9318SOL    HW228854   6.969   0.851   6.899
 9319SOL     OW28855   0.737   3.439   6.223
 9319SOL    HW128856   0.647   3.447   6.182
 9319SOL    HW228857   0.761   3.526   6.267
 9320SOL     OW28858   4.469   2.393   5.813
 9320SOL    HW128859   4.443   2.323   5.747
 9320SOL    HW228860   4.388   2.445   5.841
 9321SOL     OW28861   6.625   5.953   2.766
 9321SOL    HW128862   6.625   5.857   2.793
 9321SOL    HW228863   6.532   5.981   2.742
 9322SOL     OW28864   0.824   6.430   5.585
 9322SOL    HW128865   0.754   6.431   5.657
 9322SOL    HW228866   0.898   6.491   5.610
 9323SOL     OW28867   0.766   1.667   6.863
 9323SOL    HW128868   0.768   1.567   6.868
 9323SOL    HW228869   0.860   1.702   6.860
 9324SOL     OW28870   1.406   5.359   0.676
 9324SOL    HW128871   1.356   5.408   0.748
 9324SOL    HW228872   1.454   5.281   0.717
 9325SOL     OW28873   5.598   2.001   0.937
 9325SOL    HW128874   5.559   2.093   0.934
 9325SOL    HW228875   5.526   1.934   0.952
 9326SOL     OW28876   1.693   6.965   1.267
 9326SOL    HW128877   1.730   0.000   1.338
 9326SOL    HW228878   1.593   6.963   1.274
 9327SOL     OW28879   4.481   0.177   2.924
 9327SOL    HW128880   4.403   0.240   2.924
 9327SOL    HW228881   4.556   0.217   2.871
 9328SOL     OW28882   3.469   1.718   0.527
 9328SOL    HW128883   3.409   1.722   0.607
 9328SOL    HW228884   3.515   1.806   0.514
 9329SOL     OW28885   0.621   3.781   2.176
 9329SOL    HW128886   0.633   3.692   2.220
 9329SOL    HW228887   0.695   3.842   2.204
 9330SOL     OW28888   6.263   0.338   1.001
 9330SOL    HW128889   6.213   0.389   1.071
 9330SOL    HW228890   6.323   0.400   0.951
 9331SOL     OW28891   0.444   0.652   6.893
 9331SOL    HW128892   0.389   0.582   6.847
 9331SOL    HW228893   0.514   0.686   6.830
 9332SOL     OW28894   2.902   3.423   4.255
 9332SOL    HW128895   2.907   3.416   4.354
 9332SOL    HW228896   2.824   3.371   4.221
 9333SOL     OW28897   6.301   4.594   1.145
 9333SOL    HW128898   6.383   4.651   1.140
 9333SOL    HW228899   6.227   4.646   1.189
 9334SOL     OW28900   2.614   0.341   4.180
 9334SOL    HW128901   2.662   0.362   4.096
 9334SOL    HW228902   2.564   0.255   4.169
 9335SOL     OW28903   1.773   0.855   6.766
 9335SOL    HW128904   1.731   0.789   6.703
 9335SOL    HW228905   1.708   0.927   6.788
 9336SOL     OW28906   2.868   6.716   6.092
 9336SOL    HW128907   2.788   6.734   6.034
 9336SOL    HW228908   2.901   6.802   6.131
 9337SOL     OW28909   4.870   0.595   2.184
 9337SOL    HW128910   4.898   0.669   2.123
 9337SOL    HW228911   4.936   0.586   2.259
 9338SOL     OW28912   3.431   0.164   3.014
 9338SOL    HW128913   3.498   0.211   3.072
 9338SOL    HW228914   3.458   0.174   2.918
 9339SOL     OW28915   4.953   6.416   1.286
 9339SOL    HW128916   4.862   6.385   1.312
 9339SOL    HW228917   5.021   6.352   1.320
 9340SOL     OW28918   6.124   3.667   6.550
 9340SOL    HW128919   6.094   3.621   6.467
 9340SOL    HW228920   6.217   3.639   6.573
 9341SOL     OW28921   0.779   5.523   6.619
 9341SOL    HW128922   0.771   5.529   6.519
 9341SOL    HW228923   0.690   5.542   6.661
 9342SOL     OW28924   1.386   0.091   6.144
 9342SOL    HW128925   1.353   0.015   6.200
 9342SOL    HW228926   1.466   0.062   6.092
 9343SOL     OW28927   6.170   5.419   5.111
 9343SOL    HW128928   6.229   5.396   5.189
 9343SOL    HW228929   6.143   5.336   5.064
 9344SOL     OW28930   5.265   6.521   1.324
 9344SOL    HW128931   5.265   6.482   1.231
 9344SOL    HW228932   5.251   6.620   1.318
 9345SOL     OW28933   7.000   2.950   0.779
 9345SOL    HW128934   6.919   2.973   0.724
 9345SOL    HW228935   6.987   2.986   0.871
 9346SOL     OW28936   5.861   0.280   1.171
 9346SOL    HW128937   5.918   0.244   1.245
 9346SOL    HW228938   5.882   0.376   1.156
 9347SOL     OW28939   1.788   6.625   1.828
 9347SOL    HW128940   1.733   6.604   1.748
 9347SOL    HW228941   1.885   6.627   1.802
 9348SOL     OW28942   3.141   4.708   6.970
 9348SOL    HW128943   3.081   4.784   6.994
 9348SOL    HW228944   3.224   4.743   6.927
 9349SOL     OW28945   1.405   6.533   2.657
 9349SOL    HW128946   1.349   6.508   2.577
 9349SOL    HW228947   1.355   6.509   2.740
 9350SOL     OW28948   0.569   2.695   5.594
 9350SOL    HW128949   0.487   2.705   5.537
 9350SOL    HW228950   0.548   2.635   5.671
 9351SOL     OW28951   3.759   2.167   6.810
 9351SOL    HW128952   3.829   2.177   6.740
 9351SOL    HW228953   3.773   2.236   6.881
 9352SOL     OW28954   2.223   4.486   6.519
 9352SOL    HW128955   2.317   4.466   6.494
 9352SOL    HW228956   2.206   4.456   6.613
 9353SOL     OW28957   6.476   6.906   1.355
 9353SOL    HW128958   6.519   6.996   1.350
 9353SOL    HW228959   6.483   6.870   1.448
 9354SOL     OW28960   6.518   2.348   6.565
 9354SOL    HW128961   6.566   2.429   6.531
 9354SOL    HW228962   6.447   2.375   6.630
 9355SOL     OW28963   0.396   1.774   5.111
 9355SOL    HW128964   0.459   1.802   5.039
 9355SOL    HW228965   0.448   1.740   5.190
 9356SOL     OW28966   4.418   7.000   2.200
 9356SOL    HW128967   4.498   6.950   2.234
 9356SOL    HW228968   4.384   6.955   2.117
 9357SOL     OW28969   0.809   2.059   6.915
 9357SOL    HW128970   0.764   2.032   7.000
 9357SOL    HW228971   0.751   2.037   6.837
 9358SOL     OW28972   1.378   3.247   2.694
 9358SOL    HW128973   1.319   3.220   2.618
 9358SOL    HW228974   1.332   3.316   2.750
 9359SOL     OW28975   1.341   0.436   6.059
 9359SOL    HW128976   1.262   0.476   6.011
 9359SOL    HW228977   1.310   0.369   6.126
 9360SOL     OW28978   0.667   0.777   6.696
 9360SOL    HW128979   0.742   0.721   6.733
 9360SOL    HW228980   0.676   0.783   6.597
 9361SOL     OW28981   2.184   5.851   4.567
 9361SOL    HW128982   2.252   5.858   4.494
 9361SOL    HW228983   2.230   5.852   4.655
 9362SOL     OW28984   1.865   0.279   2.254
 9362SOL    HW128985   1.803   0.265   2.177
 9362SOL    HW228986   1.919   0.195   2.269
 9363SOL     OW28987   3.083   5.189   2.734
 9363SOL    HW128988   3.050   5.222   2.822
 9363SOL    HW228989   3.163   5.130   2.748
 9364SOL     OW28990   0.972   2.313   1.146
 9364SOL    HW128991   0.994   2.353   1.235
 9364SOL    HW228992   0.977   2.385   1.076
 9365SOL     OW28993   3.330   2.148   4.601
 9365SOL    HW128994   3.368   2.238   4.578
 9365SOL    HW228995   3.236   2.142   4.568
 9366SOL     OW28996   3.600   5.855   0.650
 9366SOL    HW128997   3.680   5.816   0.604
 9366SOL    HW228998   3.523   5.859   0.586
 9367SOL     OW28999   6.381   0.753   1.207
 9367SOL    HW129000   6.476   0.737   1.233
 9367SOL    HW229001   6.333   0.799   1.281
 9368SOL     OW29002   3.377   0.784   2.553
 9368SOL    HW129003   3.327   0.831   2.481
 9368SOL    HW229004   3.375   0.686   2.537
 9369SOL     OW29005   2.301   5.305   6.864
 9369SOL    HW129006   2.348   5.218   6.875
 9369SOL    HW229007   2.212   5.291   6.821
 9370SOL     OW29008   4.276   1.701   4.060
 9370SOL    HW129009   4.315   1.612   4.036
 9370SOL    HW229010   4.349   1.767   4.073
 9371SOL     OW29011   4.698   5.460   1.496
 9371SOL    HW129012   4.606   5.478   1.463
 9371SOL    HW229013   4.706   5.364   1.523
 9372SOL     OW29014   4.808   6.536   1.057
 9372SOL    HW129015   4.719   6.500   1.031
 9372SOL    HW229016   4.856   6.469   1.115
 9373SOL     OW29017   6.608   1.727   0.566
 9373SOL    HW129018   6.518   1.696   0.534
 9373SOL    HW229019   6.597   1.791   0.642
 9374SOL     OW29020   0.197   5.364   5.985
 9374SOL    HW129021   0.241   5.300   5.921
 9374SOL    HW229022   0.119   5.319   6.028
 9375SOL     OW29023   0.202   0.745   0.009
 9375SOL    HW129024   0.282   0.722   6.978
 9375SOL    HW229025   0.181   0.842   7.024
 9376SOL     OW29026   2.317   3.872   1.840
 9376SOL    HW129027   2.298   3.909   1.749
 9376SOL    HW229028   2.316   3.946   1.907
 9377SOL     OW29029   2.093   0.332   3.488
 9377SOL    HW129030   2.103   0.243   3.444
 9377SOL    HW229031   2.008   0.333   3.541
 9378SOL     OW29032   3.168   0.467   4.147
 9378SOL    HW129033   3.078   0.424   4.145
 9378SOL    HW229034   3.185   0.514   4.060
 9379SOL     OW29035   4.156   5.960   5.193
 9379SOL    HW129036   4.103   5.957   5.278
 9379SOL    HW229037   4.219   5.882   5.190
 9380SOL     OW29038   5.236   5.991   0.383
 9380SOL    HW129039   5.304   6.005   0.456
 9380SOL    HW229040   5.267   5.918   0.323
 9381SOL     OW29041   5.457   1.732   4.752
 9381SOL    HW129042   5.381   1.668   4.756
 9381SOL    HW229043   5.542   1.685   4.778
 9382SOL     OW29044   3.150   6.789   4.813
 9382SOL    HW129045   3.109   6.865   4.763
 9382SOL    HW229046   3.093   6.707   4.802
 9383SOL     OW29047   5.677   4.195   3.050
 9383SOL    HW129048   5.714   4.283   3.020
 9383SOL    HW229049   5.624   4.208   3.134
 9384SOL     OW29050   2.813   0.369   2.410
 9384SOL    HW129051   2.717   0.379   2.437
 9384SOL    HW229052   2.844   0.454   2.368
 9385SOL     OW29053   4.099   1.624   3.288
 9385SOL    HW129054   4.108   1.723   3.279
 9385SOL    HW229055   4.078   1.584   3.198
 9386SOL     OW29056   4.846   6.312   6.644
 9386SOL    HW129057   4.828   6.218   6.673
 9386SOL    HW229058   4.772   6.344   6.584
 9387SOL     OW29059   2.345   2.330   0.371
 9387SOL    HW129060   2.336   2.415   0.423
 9387SOL    HW229061   2.409   2.344   0.296
 9388SOL     OW29062   2.272   6.590   4.709
 9388SOL    HW129063   2.293   6.536   4.790
 9388SOL    HW229064   2.322   6.553   4.630
 9389SOL     OW29065   2.647   4.725   1.615
 9389SOL    HW129066   2.685   4.761   1.700
 9389SOL    HW229067   2.708   4.746   1.539
 9390SOL     OW29068   4.908   4.909   4.619
 9390SOL    HW129069   4.902   4.990   4.678
 9390SOL    HW229070   4.825   4.854   4.630
 9391SOL     OW29071   1.510   5.468   4.458
 9391SOL    HW129072   1.563   5.402   4.406
 9391SOL    HW229073   1.568   5.508   4.529
 9392SOL     OW29074   5.498   3.597   2.759
 9392SOL    HW129075   5.561   3.663   2.800
 9392SOL    HW229076   5.478   3.624   2.665
 9393SOL     OW29077   2.629   6.807   6.431
 9393SOL    HW129078   2.574   6.806   6.514
 9393SOL    HW229079   2.720   6.844   6.451
 9394SOL     OW29080   3.886   0.433   0.046
 9394SOL    HW129081   3.835   0.458   6.989
 9394SOL    HW229082   3.983   0.430   0.025
 9395SOL     OW29083   2.121   1.666   0.692
 9395SOL    HW129084   2.053   1.739   0.697
 9395SOL    HW229085   2.206   1.696   0.736
 9396SOL     OW29086   0.870   6.576   6.737
 9396SOL    HW129087   0.905   6.636   6.666
 9396SOL    HW229088   0.823   6.498   6.696
 9397SOL     OW29089   3.183   0.654   5.607
 9397SOL    HW129090   3.140   0.588   5.544
 9397SOL    HW229091   3.157   0.632   5.701
 9398SOL     OW29092   0.821   1.558   0.432
 9398SOL    HW129093   0.793   1.544   0.527
 9398SOL    HW229094   0.919   1.582   0.429
 9399SOL     OW29095   1.824   2.536   3.978
 9399SOL    HW129096   1.789   2.616   3.930
 9399SOL    HW229097   1.761   2.459   3.964
 9400SOL     OW29098   5.391   1.123   0.476
 9400SOL    HW129099   5.464   1.115   0.544
 9400SOL    HW229100   5.423   1.179   0.399
 9401SOL     OW29101   0.126   2.591   3.662
 9401SOL    HW129102   0.099   2.661   3.595
 9401SOL    HW229103   0.126   2.501   3.618
 9402SOL     OW29104   1.881   6.683   4.103
 9402SOL    HW129105   1.863   6.597   4.151
 9402SOL    HW229106   1.906   6.664   4.008
 9403SOL     OW29107   6.035   2.595   2.356
 9403SOL    HW129108   6.103   2.621   2.288
 9403SOL    HW229109   5.987   2.677   2.388
 9404SOL     OW29110   2.266   2.685   0.692
 9404SOL    HW129111   2.193   2.752   0.701
 9404SOL    HW229112   2.239   2.614   0.627
 9405SOL     OW29113   0.135   5.443   5.636
 9405SOL    HW129114   0.082   5.520   5.670
 9405SOL    HW229115   0.174   5.392   5.713
 9406SOL     OW29116   0.552   2.788   0.203
 9406SOL    HW129117   0.489   2.845   0.256
 9406SOL    HW229118   0.500   2.717   0.155
 9407SOL     OW29119   1.109   5.375   5.493
 9407SOL    HW129120   1.033   5.404   5.551
 9407SOL    HW229121   1.193   5.376   5.546
 9408SOL     OW29122   0.786   3.613   4.497
 9408SOL    HW129123   0.833   3.692   4.536
 9408SOL    HW229124   0.687   3.624   4.508
 9409SOL     OW29125   6.547   5.159   2.911
 9409SOL    HW129126   6.598   5.087   2.863
 9409SOL    HW229127   6.556   5.245   2.861
 9410SOL     OW29128   3.623   1.083   0.878
 9410SOL    HW129129   3.523   1.077   0.874
 9410SOL    HW229130   3.662   1.057   0.790
 9411SOL     OW29131   3.002   3.326   3.212
 9411SOL    HW129132   2.984   3.304   3.308
 9411SOL    HW229133   2.974   3.420   3.194
 9412SOL     OW29134   6.028   6.407   0.843
 9412SOL    HW129135   6.043   6.451   0.754
 9412SOL    HW229136   6.059   6.311   0.838
 9413SOL     OW29137   5.111   3.868   2.888
 9413SOL    HW129138   5.075   3.784   2.926
 9413SOL    HW229139   5.036   3.932   2.871
 9414SOL     OW29140   1.432   1.846   2.886
 9414SOL    HW129141   1.472   1.768   2.934
 9414SOL    HW229142   1.364   1.890   2.944
 9415SOL     OW29143   3.921   1.324   2.031
 9415SOL    HW129144   3.854   1.265   2.076
 9415SOL    HW229145   3.888   1.348   1.939
 9416SOL     OW29146   5.693   5.100   5.551
 9416SOL    HW129147   5.610   5.117   5.498
 9416SOL    HW229148   5.725   5.185   5.592
 9417SOL     OW29149   3.365   5.190   1.903
 9417SOL    HW129150   3.297   5.146   1.845
 9417SOL    HW229151   3.327   5.274   1.942
 9418SOL     OW29152   3.857   1.844   5.111
 9418SOL    HW129153   3.803   1.823   5.029
 9418SOL    HW229154   3.797   1.882   5.181
 9419SOL     OW29155   1.881   3.060   6.377
 9419SOL    HW129156   1.870   3.139   6.316
 9419SOL    HW229157   1.823   2.985   6.346
 9420SOL     OW29158   6.515   4.367   6.174
 9420SOL    HW129159   6.593   4.369   6.112
 9420SOL    HW229160   6.489   4.272   6.194
 9421SOL     OW29161   4.178   6.418   6.173
 9421SOL    HW129162   4.231   6.493   6.211
 9421SOL    HW229163   4.090   6.412   6.220
 9422SOL     OW29164   2.128   6.139   5.547
 9422SOL    HW129165   2.090   6.046   5.540
 9422SOL    HW229166   2.079   6.199   5.483
 9423SOL     OW29167   5.119   4.648   3.080
 9423SOL    HW129168   5.116   4.548   3.075
 9423SOL    HW229169   5.044   4.681   3.138
 9424SOL     OW29170   6.041   6.914   4.139
 9424SOL    HW129171   6.108   6.941   4.208
 9424SOL    HW229172   6.089   6.871   4.062
 9425SOL     OW29173   6.514   4.751   1.262
 9425SOL    HW129174   6.562   4.800   1.335
 9425SOL    HW229175   6.493   4.658   1.293
 9426SOL     OW29176   0.151   2.055   6.084
 9426SOL    HW129177   0.205   2.002   6.149
 9426SOL    HW229178   0.211   2.092   6.013
 9427SOL     OW29179   4.631   4.532   2.709
 9427SOL    HW129180   4.702   4.464   2.691
 9427SOL    HW229181   4.570   4.538   2.630
 9428SOL     OW29182   0.395   6.269   5.581
 9428SOL    HW129183   0.414   6.342   5.646
 9428SOL    HW229184   0.457   6.192   5.599
 9429SOL     OW29185   2.742   2.322   4.221
 9429SOL    HW129186   2.760   2.363   4.132
 9429SOL    HW229187   2.807   2.247   4.237
 9430SOL     OW29188   1.394   1.707   4.763
 9430SOL    HW129189   1.408   1.773   4.836
 9430SOL    HW229190   1.481   1.685   4.720
 9431SOL     OW29191   0.926   4.639   5.553
 9431SOL    HW129192   0.959   4.626   5.647
 9431SOL    HW229193   1.004   4.660   5.493
 9432SOL     OW29194   6.921   1.299   3.235
 9432SOL    HW129195   6.933   1.277   3.332
 9432SOL    HW229196   6.962   1.227   3.179
 9433SOL     OW29197   4.680   5.510   2.335
 9433SOL    HW129198   4.662   5.607   2.349
 9433SOL    HW229199   4.678   5.489   2.237
 9434SOL     OW29200   4.532   5.536   3.713
 9434SOL    HW129201   4.538   5.457   3.774
 9434SOL    HW229202   4.520   5.619   3.767
 9435SOL     OW29203   0.559   3.619   1.662
 9435SOL    HW129204   0.505   3.694   1.700
 9435SOL    HW229205   0.570   3.632   1.564
 9436SOL     OW29206   1.823   0.599   2.587
 9436SOL    HW129207   1.776   0.546   2.516
 9436SOL    HW229208   1.797   0.565   2.677
 9437SOL     OW29209   5.495   6.714   4.785
 9437SOL    HW129210   5.454   6.779   4.848
 9437SOL    HW229211   5.457   6.726   4.693
 9438SOL     OW29212   4.822   6.868   1.816
 9438SOL    HW129213   4.826   6.881   1.915
 9438SOL    HW229214   4.915   6.877   1.778
 9439SOL     OW29215   1.685   3.343   0.980
 9439SOL    HW129216   1.597   3.390   0.981
 9439SOL    HW229217   1.727   3.347   1.071
 9440SOL     OW29218   2.164   5.278   3.790
 9440SOL    HW129219   2.084   5.338   3.800
 9440SOL    HW229220   2.172   5.248   3.695
 9441SOL     OW29221   0.339   6.909   4.248
 9441SOL    HW129222   0.431   6.881   4.219
 9441SOL    HW229223   0.323   6.878   4.342
 9442SOL     OW29224   5.223   3.114   0.246
 9442SOL    HW129225   5.247   3.017   0.247
 9442SOL    HW229226   5.149   3.129   0.179
 9443SOL     OW29227   2.272   4.381   2.679
 9443SOL    HW129228   2.246   4.345   2.769
 9443SOL    HW229229   2.355   4.436   2.688
 9444SOL     OW29230   1.043   4.079   5.609
 9444SOL    HW129231   1.007   4.028   5.688
 9444SOL    HW229232   0.968   4.100   5.546
 9445SOL     OW29233   1.011   1.207   3.890
 9445SOL    HW129234   1.002   1.263   3.972
 9445SOL    HW229235   0.943   1.235   3.822
 9446SOL     OW29236   6.540   4.402   3.720
 9446SOL    HW129237   6.444   4.427   3.705
 9446SOL    HW229238   6.599   4.477   3.692
 9447SOL     OW29239   4.753   4.158   1.855
 9447SOL    HW129240   4.668   4.208   1.867
 9447SOL    HW229241   4.810   4.203   1.786
 9448SOL     OW29242   6.376   0.968   5.270
 9448SOL    HW129243   6.413   0.971   5.363
 9448SOL    HW229244   6.301   0.903   5.266
 9449SOL     OW29245   5.263   0.467   1.703
 9449SOL    HW129246   5.256   0.421   1.791
 9449SOL    HW229247   5.337   0.424   1.649
 9450SOL     OW29248   0.760   5.919   2.811
 9450SOL    HW129249   0.837   5.939   2.871
 9450SOL    HW229250   0.759   5.822   2.789
 9451SOL     OW29251   3.735   4.748   6.522
 9451SOL    HW129252   3.706   4.723   6.430
 9451SOL    HW229253   3.655   4.782   6.574
 9452SOL     OW29254   5.917   4.286   6.622
 9452SOL    HW129255   5.851   4.305   6.549
 9452SOL    HW229256   5.877   4.222   6.687
 9453SOL     OW29257   5.226   5.354   1.930
 9453SOL    HW129258   5.188   5.283   1.989
 9453SOL    HW229259   5.326   5.346   1.929
 9454SOL     OW29260   5.765   4.262   0.346
 9454SOL    HW129261   5.676   4.245   0.305
 9454SOL    HW229262   5.819   4.321   0.286
 9455SOL     OW29263   3.489   1.337   1.740
 9455SOL    HW129264   3.482   1.436   1.749
 9455SOL    HW229265   3.558   1.303   1.804
 9456SOL     OW29266   0.410   3.388   2.504
 9456SOL    HW129267   0.364   3.410   2.419
 9456SOL    HW229268   0.377   3.300   2.538
 9457SOL     OW29269   6.254   6.722   5.104
 9457SOL    HW129270   6.283   6.630   5.076
 9457SOL    HW229271   6.237   6.777   5.022
 9458SOL     OW29272   6.711   3.913   6.905
 9458SOL    HW129273   6.703   3.964   6.819
 9458SOL    HW229274   6.701   3.816   6.887
 9459SOL     OW29275   4.806   4.691   5.492
 9459SOL    HW129276   4.905   4.707   5.499
 9459SOL    HW229277   4.787   4.594   5.506
 9460SOL     OW29278   1.162   2.895   2.939
 9460SOL    HW129279   1.075   2.847   2.926
 9460SOL    HW229280   1.238   2.834   2.916
 9461SOL     OW29281   1.491   2.058   2.234
 9461SOL    HW129282   1.461   2.006   2.154
 9461SOL    HW229283   1.562   2.123   2.206
 9462SOL     OW29284   0.188   0.989   4.295
 9462SOL    HW129285   0.104   0.980   4.350
 9462SOL    HW229286   0.239   1.070   4.326
 9463SOL     OW29287   5.842   4.499   1.422
 9463SOL    HW129288   5.875   4.501   1.328
 9463SOL    HW229289   5.750   4.458   1.424
 9464SOL     OW29290   1.032   1.210   1.941
 9464SOL    HW129291   1.008   1.192   2.036
 9464SOL    HW229292   1.097   1.285   1.937
 9465SOL     OW29293   6.718   4.818   1.054
 9465SOL    HW129294   6.785   4.797   1.125
 9465SOL    HW229295   6.655   4.741   1.043
 9466SOL     OW29296   3.967   4.421   5.653
 9466SOL    HW129297   3.968   4.518   5.678
 9466SOL    HW229298   4.033   4.372   5.710
 9467SOL     OW29299   2.036   3.803   0.892
 9467SOL    HW129300   2.080   3.714   0.879
 9467SOL    HW229301   1.987   3.828   0.808
 9468SOL     OW29302   6.264   1.607   0.451
 9468SOL    HW129303   6.285   1.542   0.377
 9468SOL    HW229304   6.297   1.570   0.538
 9469SOL     OW29305   0.222   6.673   1.234
 9469SOL    HW129306   0.290   6.714   1.174
 9469SOL    HW229307   0.182   6.744   1.293
 9470SOL     OW29308   3.462   3.526   0.605
 9470SOL    HW129309   3.459   3.428   0.624
 9470SOL    HW229310   3.419   3.545   0.517
 9471SOL     OW29311   6.563   2.595   4.593
 9471SOL    HW129312   6.501   2.648   4.534
 9471SOL    HW229313   6.526   2.593   4.686
 9472SOL     OW29314   1.765   3.283   6.241
 9472SOL    HW129315   1.728   3.319   6.155
 9472SOL    HW229316   1.698   3.293   6.314
 9473SOL     OW29317   2.572   3.994   1.234
 9473SOL    HW129318   2.608   3.901   1.239
 9473SOL    HW229319   2.519   4.005   1.150
 9474SOL     OW29320   6.223   3.565   0.801
 9474SOL    HW129321   6.307   3.615   0.780
 9474SOL    HW229322   6.146   3.628   0.801
 9475SOL     OW29323   5.115   4.427   6.352
 9475SOL    HW129324   5.153   4.498   6.411
 9475SOL    HW229325   5.050   4.371   6.403
 9476SOL     OW29326   4.026   3.764   0.326
 9476SOL    HW129327   4.053   3.710   0.246
 9476SOL    HW229328   4.070   3.727   0.408
 9477SOL     OW29329   1.532   4.324   0.308
 9477SOL    HW129330   1.604   4.308   0.241
 9477SOL    HW229331   1.553   4.275   0.393
 9478SOL     OW29332   5.386   3.400   6.615
 9478SOL    HW129333   5.334   3.315   6.605
 9478SOL    HW229334   5.477   3.379   6.652
 9479SOL     OW29335   3.834   0.451   2.329
 9479SOL    HW129336   3.872   0.392   2.258
 9479SOL    HW229337   3.798   0.534   2.286
 9480SOL     OW29338   6.575   1.030   0.585
 9480SOL    HW129339   6.606   1.123   0.565
 9480SOL    HW229340   6.654   0.974   0.611
 9481SOL     OW29341   4.032   6.812   3.446
 9481SOL    HW129342   4.087   6.760   3.511
 9481SOL    HW229343   4.076   6.810   3.356
 9482SOL     OW29344   6.718   6.236   6.828
 9482SOL    HW129345   6.741   6.184   6.911
 9482SOL    HW229346   6.637   6.196   6.785
 9483SOL     OW29347   6.526   6.905   0.221
 9483SOL    HW129348   6.600   6.922   0.286
 9483SOL    HW229349   6.563   6.863   0.138
 9484SOL     OW29350   3.842   5.767   4.709
 9484SOL    HW129351   3.878   5.783   4.801
 9484SOL    HW229352   3.747   5.797   4.705
 9485SOL     OW29353   0.261   1.122   7.015
 9485SOL    HW129354   0.202   1.124   6.933
 9485SOL    HW229355   0.206   1.096   0.069
 9486SOL     OW29356   5.337   5.816   0.193
 9486SOL    HW129357   5.435   5.827   0.182
 9486SOL    HW229358   5.298   5.777   0.109
 9487SOL     OW29359   3.384   3.249   2.889
 9487SOL    HW129360   3.364   3.282   2.981
 9487SOL    HW229361   3.471   3.287   2.858
 9488SOL     OW29362   1.598   0.348   1.373
 9488SOL    HW129363   1.586   0.343   1.274
 9488SOL    HW229364   1.695   0.350   1.395
 9489SOL     OW29365   5.616   3.033   6.991
 9489SOL    HW129366   5.590   2.936   6.991
 9489SOL    HW229367   5.578   3.077   0.047
 9490SOL     OW29368   5.532   3.081   4.606
 9490SOL    HW129369   5.586   3.165   4.600
 9490SOL    HW229370   5.455   3.095   4.668
 9491SOL     OW29371   5.242   6.128   2.915
 9491SOL    HW129372   5.211   6.054   2.856
 9491SOL    HW229373   5.277   6.203   2.859
 9492SOL     OW29374   5.034   2.772   3.279
 9492SOL    HW129375   4.938   2.742   3.283
 9492SOL    HW229376   5.090   2.709   3.332
 9493SOL     OW29377   4.219   6.288   1.514
 9493SOL    HW129378   4.268   6.201   1.517
 9493SOL    HW229379   4.151   6.286   1.441
 9494SOL     OW29380   5.692   2.236   1.737
 9494SOL    HW129381   5.712   2.278   1.826
 9494SOL    HW229382   5.687   2.308   1.667
 9495SOL     OW29383   0.253   2.181   1.175
 9495SOL    HW129384   0.312   2.172   1.095
 9495SOL    HW229385   0.255   2.276   1.207
 9496SOL     OW29386   5.498   2.074   1.639
 9496SOL    HW129387   5.578   2.122   1.675
 9496SOL    HW229388   5.497   1.980   1.676
 9497SOL     OW29389   4.599   4.344   4.866
 9497SOL    HW129390   4.605   4.393   4.779
 9497SOL    HW229391   4.516   4.373   4.915
 9498SOL     OW29392   0.181   5.665   4.464
 9498SOL    HW129393   0.168   5.572   4.499
 9498SOL    HW229394   0.134   5.676   4.377
 9499SOL     OW29395   6.251   6.072   5.171
 9499SOL    HW129396   6.315   6.036   5.102
 9499SOL    HW229397   6.196   6.144   5.130
 9500SOL     OW29398   3.716   1.769   0.690
 9500SOL    HW129399   3.656   1.777   0.770
 9500SOL    HW229400   3.800   1.720   0.716
 9501SOL     OW29401   2.052   3.139   5.252
 9501SOL    HW129402   1.984   3.212   5.240
 9501SOL    HW229403   2.066   3.092   5.165
 9502SOL     OW29404   5.096   4.621   3.936
 9502SOL    HW129405   5.114   4.718   3.919
 9502SOL    HW229406   5.124   4.598   4.030
 9503SOL     OW29407   7.005   1.827   0.217
 9503SOL    HW129408   0.055   1.876   0.261
 9503SOL    HW229409   6.918   1.855   0.257
 9504SOL     OW29410   5.880   5.234   2.255
 9504SOL    HW129411   5.781   5.225   2.244
 9504SOL    HW229412   5.900   5.260   2.349
 9505SOL     OW29413   4.167   5.428   5.977
 9505SOL    HW129414   4.098   5.473   6.035
 9505SOL    HW229415   4.171   5.331   5.999
 9506SOL     OW29416   3.015   0.933   0.853
 9506SOL    HW129417   3.021   0.881   0.938
 9506SOL    HW229418   3.058   0.881   0.779
 9507SOL     OW29419   5.250   0.332   1.959
 9507SOL    HW129420   5.173   0.271   1.939
 9507SOL    HW229421   5.334   0.290   1.926
 9508SOL     OW29422   4.843   1.788   2.546
 9508SOL    HW129423   4.750   1.825   2.538
 9508SOL    HW229424   4.893   1.839   2.616
 9509SOL     OW29425   5.508   0.555   3.447
 9509SOL    HW129426   5.576   0.611   3.400
 9509SOL    HW229427   5.543   0.530   3.538
 9510SOL     OW29428   1.166   2.976   3.915
 9510SOL    HW129429   1.095   3.018   3.972
 9510SOL    HW229430   1.216   2.909   3.969
 9511SOL     OW29431   0.505   1.722   1.087
 9511SOL    HW129432   0.544   1.646   1.035
 9511SOL    HW229433   0.549   1.728   1.176
 9512SOL     OW29434   6.252   2.153   1.385
 9512SOL    HW129435   6.283   2.134   1.292
 9512SOL    HW229436   6.281   2.080   1.446
 9513SOL     OW29437   4.440   4.519   5.617
 9513SOL    HW129438   4.404   4.439   5.569
 9513SOL    HW229439   4.539   4.510   5.629
 9514SOL     OW29440   3.544   2.803   6.628
 9514SOL    HW129441   3.525   2.897   6.602
 9514SOL    HW229442   3.599   2.801   6.712
 9515SOL     OW29443   0.796   5.676   3.101
 9515SOL    HW129444   0.851   5.595   3.120
 9515SOL    HW229445   0.812   5.706   3.007
 9516SOL     OW29446   0.442   4.645   6.994
 9516SOL    HW129447   0.354   4.676   6.959
 9516SOL    HW229448   0.514   4.667   6.929
 9517SOL     OW29449   0.525   5.697   1.312
 9517SOL    HW129450   0.457   5.707   1.384
 9517SOL    HW229451   0.616   5.696   1.352
 9518SOL     OW29452   1.219   1.405   0.774
 9518SOL    HW129453   1.290   1.363   0.830
 9518SOL    HW229454   1.130   1.366   0.798
 9519SOL     OW29455   1.321   3.270   5.435
 9519SOL    HW129456   1.306   3.298   5.529
 9519SOL    HW229457   1.272   3.332   5.373
 9520SOL     OW29458   4.339   6.836   1.629
 9520SOL    HW129459   4.330   6.779   1.710
 9520SOL    HW229460   4.429   6.880   1.629
 9521SOL     OW29461   5.347   5.136   3.954
 9521SOL    HW129462   5.416   5.063   3.957
 9521SOL    HW229463   5.255   5.095   3.961
 9522SOL     OW29464   3.406   6.213   1.087
 9522SOL    HW129465   3.351   6.145   1.039
 9522SOL    HW229466   3.376   6.220   1.182
 9523SOL     OW29467   2.880   5.806   5.347
 9523SOL    HW129468   2.973   5.783   5.373
 9523SOL    HW229469   2.842   5.733   5.290
 9524SOL     OW29470   4.586   2.590   1.003
 9524SOL    HW129471   4.617   2.495   1.008
 9524SOL    HW229472   4.545   2.616   1.091
 9525SOL     OW29473   3.678   0.344   5.663
 9525SOL    HW129474   3.706   0.388   5.748
 9525SOL    HW229475   3.748   0.279   5.634
 9526SOL     OW29476   5.027   5.552   2.099
 9526SOL    HW129477   5.057   5.509   2.014
 9526SOL    HW229478   4.943   5.507   2.131
 9527SOL     OW29479   5.873   1.930   0.965
 9527SOL    HW129480   5.778   1.947   0.941
 9527SOL    HW229481   5.914   2.014   1.000
 9528SOL     OW29482   6.138   0.570   1.818
 9528SOL    HW129483   6.140   0.503   1.892
 9528SOL    HW229484   6.090   0.653   1.848
 9529SOL     OW29485   0.827   3.290   4.753
 9529SOL    HW129486   0.865   3.366   4.700
 9529SOL    HW229487   0.846   3.204   4.707
 9530SOL     OW29488   1.719   2.221   4.209
 9530SOL    HW129489   1.753   2.227   4.302
 9530SOL    HW229490   1.619   2.231   4.208
 9531SOL     OW29491   2.817   6.363   3.466
 9531SOL    HW129492   2.775   6.303   3.398
 9531SOL    HW229493   2.860   6.308   3.537
 9532SOL     OW29494   3.012   1.200   0.995
 9532SOL    HW129495   2.993   1.124   0.932
 9532SOL    HW229496   2.929   1.223   1.045
 9533SOL     OW29497   1.691   0.322   4.814
 9533SOL    HW129498   1.681   0.245   4.876
 9533SOL    HW229499   1.699   0.407   4.867
 9534SOL     OW29500   4.728   1.663   4.095
 9534SOL    HW129501   4.801   1.730   4.107
 9534SOL    HW229502   4.763   1.583   4.047
 9535SOL     OW29503   2.400   2.076   5.629
 9535SOL    HW129504   2.369   2.045   5.539
 9535SOL    HW229505   2.489   2.036   5.649
 9536SOL     OW29506   3.351   0.108   6.633
 9536SOL    HW129507   3.301   0.191   6.609
 9536SOL    HW229508   3.294   0.028   6.613
 9537SOL     OW29509   2.814   6.724   0.963
 9537SOL    HW129510   2.867   6.708   0.879
 9537SOL    HW229511   2.803   6.638   1.012
 9538SOL     OW29512   5.898   3.044   4.085
 9538SOL    HW129513   5.895   2.946   4.101
 9538SOL    HW229514   5.994   3.074   4.082
 9539SOL     OW29515   7.023   5.255   1.160
 9539SOL    HW129516   6.964   5.220   1.087
 9539SOL    HW229517   0.039   5.178   1.209
 9540SOL     OW29518   5.385   3.687   5.408
 9540SOL    HW129519   5.455   3.659   5.341
 9540SOL    HW229520   5.314   3.616   5.413
 9541SOL     OW29521   0.578   1.917   3.550
 9541SOL    HW129522   0.654   1.852   3.553
 9541SOL    HW229523   0.498   1.872   3.510
 9542SOL     OW29524   4.879   4.025   4.320
 9542SOL    HW129525   4.885   4.053   4.416
 9542SOL    HW229526   4.962   3.975   4.294
 9543SOL     OW29527   5.393   2.111   1.902
 9543SOL    HW129528   5.376   2.118   1.804
 9543SOL    HW229529   5.307   2.117   1.952
 9544SOL     OW29530   3.279   1.811   2.023
 9544SOL    HW129531   3.328   1.807   1.936
 9544SOL    HW229532   3.229   1.898   2.029
 9545SOL     OW29533   0.326   0.083   4.513
 9545SOL    HW129534   0.376   0.014   4.566
 9545SOL    HW229535   0.391   0.146   4.471
 9546SOL     OW29536   2.532   4.211   1.798
 9546SOL    HW129537   2.582   4.295   1.820
 9546SOL    HW229538   2.456   4.233   1.737
 9547SOL     OW29539   6.305   5.711   2.695
 9547SOL    HW129540   6.268   5.754   2.613
 9547SOL    HW229541   6.340   5.620   2.672
 9548SOL     OW29542   4.770   6.484   2.866
 9548SOL    HW129543   4.803   6.578   2.856
 9548SOL    HW229544   4.682   6.474   2.821
 9549SOL     OW29545   2.816   5.557   0.145
 9549SOL    HW129546   2.784   5.651   0.154
 9549SOL    HW229547   2.898   5.554   0.088
 9550SOL     OW29548   1.305   1.787   0.467
 9550SOL    HW129549   1.307   1.810   0.370
 9550SOL    HW229550   1.265   1.863   0.518
 9551SOL     OW29551   1.972   5.913   5.799
 9551SOL    HW129552   2.065   5.906   5.833
 9551SOL    HW229553   1.935   6.003   5.819
 9552SOL     OW29554   0.631   5.691   3.649
 9552SOL    HW129555   0.533   5.686   3.671
 9552SOL    HW229556   0.647   5.644   3.562
 9553SOL     OW29557   5.265   4.733   5.312
 9553SOL    HW129558   5.357   4.713   5.346
 9553SOL    HW229559   5.272   4.777   5.223
 9554SOL     OW29560   1.986   0.963   1.910
 9554SOL    HW129561   1.950   1.025   1.979
 9554SOL    HW229562   1.993   1.012   1.823
 9555SOL     OW29563   6.638   2.278   6.226
 9555SOL    HW129564   6.557   2.329   6.255
 9555SOL    HW229565   6.614   2.182   6.213
 9556SOL     OW29566   6.807   2.210   0.830
 9556SOL    HW129567   6.880   2.158   0.786
 9556SOL    HW229568   6.828   2.220   0.928
 9557SOL     OW29569   5.475   2.623   1.469
 9557SOL    HW129570   5.480   2.639   1.568
 9557SOL    HW229571   5.380   2.606   1.444
 9558SOL     OW29572   6.025   4.667   1.787
 9558SOL    HW129573   5.987   4.695   1.699
 9558SOL    HW229574   6.048   4.749   1.840
 9559SOL     OW29575   6.703   3.030   2.720
 9559SOL    HW129576   6.700   2.940   2.763
 9559SOL    HW229577   6.654   3.029   2.634
 9560SOL     OW29578   3.905   1.599   4.492
 9560SOL    HW129579   3.985   1.659   4.496
 9560SOL    HW229580   3.907   1.535   4.568
 9561SOL     OW29581   3.908   6.562   0.572
 9561SOL    HW129582   3.935   6.466   0.561
 9561SOL    HW229583   3.985   6.621   0.548
 9562SOL     OW29584   5.724   5.161   3.430
 9562SOL    HW129585   5.691   5.151   3.336
 9562SOL    HW229586   5.710   5.255   3.461
 9563SOL     OW29587   0.051   5.629   6.872
 9563SOL    HW129588   0.059   5.605   6.775
 9563SOL    HW229589   0.014   5.721   6.880
 9564SOL     OW29590   1.993   0.165   6.334
 9564SOL    HW129591   2.060   0.194   6.265
 9564SOL    HW229592   2.019   0.076   6.371
 9565SOL     OW29593   3.690   5.846   3.876
 9565SOL    HW129594   3.649   5.755   3.875
 9565SOL    HW229595   3.721   5.867   3.969
 9566SOL     OW29596   3.025   4.910   5.448
 9566SOL    HW129597   2.961   4.951   5.384
 9566SOL    HW229598   3.085   4.847   5.399
 9567SOL     OW29599   6.314   5.912   5.594
 9567SOL    HW129600   6.261   5.830   5.572
 9567SOL    HW229601   6.373   5.935   5.517
 9568SOL     OW29602   5.627   3.842   6.113
 9568SOL    HW129603   5.569   3.883   6.184
 9568SOL    HW229604   5.569   3.806   6.040
 9569SOL     OW29605   5.347   6.627   1.886
 9569SOL    HW129606   5.265   6.682   1.875
 9569SOL    HW229607   5.323   6.530   1.890
 9570SOL     OW29608   0.597   0.409   6.685
 9570SOL    HW129609   0.675   0.467   6.709
 9570SOL    HW229610   0.604   0.383   6.588
 9571SOL     OW29611   2.341   3.012   6.904
 9571SOL    HW129612   2.242   3.001   6.917
 9571SOL    HW229613   2.374   2.944   6.839
 9572SOL     OW29614   0.483   4.404   0.957
 9572SOL    HW129615   0.470   4.318   1.008
 9572SOL    HW229616   0.537   4.467   1.013
 9573SOL     OW29617   6.212   1.843   1.764
 9573SOL    HW129618   6.114   1.845   1.741
 9573SOL    HW229619   6.239   1.749   1.784
 9574SOL     OW29620   2.497   2.098   4.123
 9574SOL    HW129621   2.434   2.150   4.182
 9574SOL    HW229622   2.578   2.073   4.175
 9575SOL     OW29623   4.830   0.944   2.634
 9575SOL    HW129624   4.753   0.985   2.682
 9575SOL    HW229625   4.903   0.924   2.699
 9576SOL     OW29626   4.209   2.110   5.332
 9576SOL    HW129627   4.300   2.072   5.322
 9576SOL    HW229628   4.173   2.087   5.423
 9577SOL     OW29629   0.638   6.318   3.106
 9577SOL    HW129630   0.547   6.311   3.064
 9577SOL    HW229631   0.698   6.371   3.047
 9578SOL     OW29632   6.323   3.976   2.022
 9578SOL    HW129633   6.383   3.976   2.103
 9578SOL    HW229634   6.279   4.065   2.013
 9579SOL     OW29635   1.548   6.203   2.883
 9579SOL    HW129636   1.513   6.160   2.800
 9579SOL    HW229637   1.471   6.227   2.942
 9580SOL     OW29638   4.348   3.539   5.666
 9580SOL    HW129639   4.370   3.442   5.675
 9580SOL    HW229640   4.431   3.594   5.677
 9581SOL     OW29641   1.456   5.121   5.957
 9581SOL    HW129642   1.464   5.032   6.002
 9581SOL    HW229643   1.538   5.137   5.902
 9582SOL     OW29644   4.428   4.789   3.810
 9582SOL    HW129645   4.340   4.808   3.767
 9582SOL    HW229646   4.416   4.720   3.882
 9583SOL     OW29647   2.269   4.548   1.836
 9583SOL    HW129648   2.286   4.486   1.913
 9583SOL    HW229649   2.315   4.635   1.852
 9584SOL     OW29650   5.818   5.504   6.919
 9584SOL    HW129651   5.916   5.524   6.918
 9584SOL    HW229652   5.775   5.549   6.997
 9585SOL     OW29653   0.281   0.007   2.963
 9585SOL    HW129654   0.216   6.958   2.981
 9585SOL    HW229655   0.232   0.095   2.966
 9586SOL     OW29656   5.281   2.741   2.301
 9586SOL    HW129657   5.276   2.643   2.280
 9586SOL    HW229658   5.319   2.754   2.392
 9587SOL     OW29659   4.599   6.742   2.463
 9587SOL    HW129660   4.597   6.689   2.379
 9587SOL    HW229661   4.663   6.700   2.528
 9588SOL     OW29662   0.033   0.020   3.427
 9588SOL    HW129663   0.103   6.980   3.401
 9588SOL    HW229664   0.074   0.095   3.479
 9589SOL     OW29665   2.683   1.495   5.507
 9589SOL    HW129666   2.712   1.589   5.489
 9589SOL    HW229667   2.678   1.480   5.605
 9590SOL     OW29668   0.273   4.787   4.396
 9590SOL    HW129669   0.306   4.862   4.338
 9590SOL    HW229670   0.349   4.748   4.448
 9591SOL     OW29671   1.414   4.669   2.847
 9591SOL    HW129672   1.416   4.689   2.945
 9591SOL    HW229673   1.441   4.751   2.796
 9592SOL     OW29674   4.651   6.069   1.795
 9592SOL    HW129675   4.680   6.076   1.890
 9592SOL    HW229676   4.730   6.083   1.735
 9593SOL     OW29677   1.814   3.183   4.073
 9593SOL    HW129678   1.717   3.206   4.058
 9593SOL    HW229679   1.823   3.125   4.153
 9594SOL     OW29680   6.099   0.003   1.758
 9594SOL    HW129681   6.001   0.006   1.739
 9594SOL    HW229682   6.150   0.012   1.672
 9595SOL     OW29683   1.186   4.506   4.494
 9595SOL    HW129684   1.114   4.571   4.515
 9595SOL    HW229685   1.267   4.525   4.550
 9596SOL     OW29686   4.961   5.378   2.735
 9596SOL    HW129687   5.038   5.383   2.798
 9596SOL    HW229688   4.988   5.327   2.654
 9597SOL     OW29689   1.515   4.348   0.840
 9597SOL    HW129690   1.533   4.400   0.924
 9597SOL    HW229691   1.478   4.258   0.863
 9598SOL     OW29692   1.394   5.911   5.621
 9598SOL    HW129693   1.394   5.982   5.551
 9598SOL    HW229694   1.489   5.886   5.642
 9599SOL     OW29695   4.437   1.446   4.109
 9599SOL    HW129696   4.429   1.382   4.033
 9599SOL    HW229697   4.534   1.465   4.127
 9600SOL     OW29698   1.631   6.043   0.043
 9600SOL    HW129699   1.689   6.040   6.986
 9600SOL    HW229700   1.662   5.973   0.107
 9601SOL     OW29701   0.803   6.840   6.258
 9601SOL    HW129702   0.891   6.829   6.210
 9601SOL    HW229703   0.729   6.810   6.198
 9602SOL     OW29704   0.977   5.678   0.278
 9602SOL    HW129705   0.932   5.764   0.303
 9602SOL    HW229706   0.978   5.668   0.178
 9603SOL     OW29707   1.108   4.897   3.738
 9603SOL    HW129708   1.050   4.822   3.704
 9603SOL    HW229709   1.104   4.900   3.838
 9604SOL     OW29710   6.715   6.982   0.407
 9604SOL    HW129711   6.755   6.982   0.498
 9604SOL    HW229712   6.711   0.051   0.372
 9605SOL     OW29713   2.601   5.839   0.094
 9605SOL    HW129714   2.535   5.845   0.169
 9605SOL    HW229715   2.553   5.817   0.009
 9606SOL     OW29716   6.183   0.561   5.255
 9606SOL    HW129717   6.260   0.502   5.231
 9606SOL    HW229718   6.143   0.599   5.172
 9607SOL     OW29719   0.316   2.593   2.797
 9607SOL    HW129720   0.299   2.582   2.895
 9607SOL    HW229721   0.359   2.509   2.761
 9608SOL     OW29722   6.107   0.291   2.591
 9608SOL    HW129723   6.013   0.294   2.627
 9608SOL    HW229724   6.105   0.308   2.493
 9609SOL     OW29725   1.666   2.500   3.633
 9609SOL    HW129726   1.747   2.464   3.679
 9609SOL    HW229727   1.644   2.442   3.554
 9610SOL     OW29728   3.688   1.412   6.068
 9610SOL    HW129729   3.638   1.340   6.021
 9610SOL    HW229730   3.663   1.501   6.031
 9611SOL     OW29731   6.179   5.560   0.660
 9611SOL    HW129732   6.126   5.541   0.743
 9611SOL    HW229733   6.266   5.603   0.684
 9612SOL     OW29734   4.886   3.467   2.808
 9612SOL    HW129735   4.928   3.433   2.724
 9612SOL    HW229736   4.794   3.501   2.788
 9613SOL     OW29737   5.801   6.682   5.280
 9613SOL    HW129738   5.863   6.683   5.202
 9613SOL    HW229739   5.710   6.711   5.251
 9614SOL     OW29740   3.627   2.779   1.935
 9614SOL    HW129741   3.673   2.691   1.926
 9614SOL    HW229742   3.549   2.783   1.873
 9615SOL     OW29743   0.631   6.221   4.104
 9615SOL    HW129744   0.694   6.160   4.152
 9615SOL    HW229745   0.643   6.210   4.005
 9616SOL     OW29746   2.020   3.211   1.585
 9616SOL    HW129747   1.926   3.237   1.606
 9616SOL    HW229748   2.077   3.219   1.667
 9617SOL     OW29749   0.556   2.922   2.391
 9617SOL    HW129750   0.615   2.950   2.315
 9617SOL    HW229751   0.558   2.992   2.462
 9618SOL     OW29752   4.153   4.301   0.428
 9618SOL    HW129753   4.080   4.311   0.496
 9618SOL    HW229754   4.124   4.236   0.358
 9619SOL     OW29755   1.402   6.961   1.303
 9619SOL    HW129756   1.393   0.026   1.346
 9619SOL    HW229757   1.371   6.967   1.208
 9620SOL     OW29758   3.688   1.891   6.904
 9620SOL    HW129759   3.735   1.973   6.871
 9620SOL    HW229760   3.589   1.905   6.900
 9621SOL     OW29761   0.575   1.656   2.526
 9621SOL    HW129762   0.649   1.598   2.559
 9621SOL    HW229763   0.608   1.711   2.448
 9622SOL     OW29764   0.410   5.759   6.158
 9622SOL    HW129765   0.409   5.841   6.214
 9622SOL    HW229766   0.485   5.764   6.092
 9623SOL     OW29767   4.297   6.665   5.884
 9623SOL    HW129768   4.342   6.692   5.969
 9623SOL    HW229769   4.213   6.614   5.906
 9624SOL     OW29770   4.607   4.947   4.379
 9624SOL    HW129771   4.618   5.046   4.384
 9624SOL    HW229772   4.519   4.925   4.337
 9625SOL     OW29773   5.205   3.846   6.255
 9625SOL    HW129774   5.208   3.932   6.205
 9625SOL    HW229775   5.283   3.842   6.318
 9626SOL     OW29776   2.463   2.527   6.922
 9626SOL    HW129777   2.534   2.467   6.888
 9626SOL    HW229778   2.502   2.591   6.989
 9627SOL     OW29779   0.473   5.183   0.183
 9627SOL    HW129780   0.495   5.185   0.281
 9627SOL    HW229781   0.505   5.096   0.144
 9628SOL     OW29782   6.561   1.513   6.700
 9628SOL    HW129783   6.610   1.599   6.687
 9628SOL    HW229784   6.468   1.521   6.663
 9629SOL     OW29785   0.070   5.930   3.705
 9629SOL    HW129786   0.107   5.930   3.798
 9629SOL    HW229787   0.118   5.863   3.649
 9630SOL     OW29788   6.173   0.805   5.341
 9630SOL    HW129789   6.186   0.707   5.329
 9630SOL    HW229790   6.079   0.829   5.320
 9631SOL     OW29791   4.088   6.461   0.802
 9631SOL    HW129792   4.004   6.454   0.856
 9631SOL    HW229793   4.160   6.503   0.858
 9632SOL     OW29794   2.742   5.364   2.787
 9632SOL    HW129795   2.824   5.360   2.844
 9632SOL    HW229796   2.734   5.279   2.734
 9633SOL     OW29797   3.685   3.482   3.308
 9633SOL    HW129798   3.619   3.552   3.280
 9633SOL    HW229799   3.675   3.402   3.248
 9634SOL     OW29800   5.478   4.943   3.140
 9634SOL    HW129801   5.476   4.940   3.240
 9634SOL    HW229802   5.385   4.952   3.105
 9635SOL     OW29803   0.639   5.262   3.890
 9635SOL    HW129804   0.659   5.360   3.899
 9635SOL    HW229805   0.690   5.212   3.960
 9636SOL     OW29806   5.165   3.773   4.023
 9636SOL    HW129807   5.074   3.736   4.004
 9636SOL    HW229808   5.205   3.808   3.938
 9637SOL     OW29809   1.150   3.426   6.861
 9637SOL    HW129810   1.159   3.408   6.960
 9637SOL    HW229811   1.060   3.396   6.830
 9638SOL     OW29812   5.847   5.899   6.084
 9638SOL    HW129813   5.750   5.875   6.094
 9638SOL    HW229814   5.903   5.826   6.123
 9639SOL     OW29815   4.556   1.965   1.382
 9639SOL    HW129816   4.574   1.954   1.284
 9639SOL    HW229817   4.539   1.876   1.424
 9640SOL     OW29818   4.237   0.503   3.797
 9640SOL    HW129819   4.264   0.598   3.784
 9640SOL    HW229820   4.170   0.477   3.727
 9641SOL     OW29821   6.784   3.215   3.431
 9641SOL    HW129822   6.685   3.220   3.440
 9641SOL    HW229823   6.826   3.287   3.487
 9642SOL     OW29824   0.653   0.641   4.702
 9642SOL    HW129825   0.637   0.554   4.749
 9642SOL    HW229826   0.667   0.713   4.770
 9643SOL     OW29827   4.709   5.173   3.891
 9643SOL    HW129828   4.780   5.197   3.957
 9643SOL    HW229829   4.629   5.232   3.906
 9644SOL     OW29830   0.691   5.428   4.187
 9644SOL    HW129831   0.698   5.446   4.088
 9644SOL    HW229832   0.762   5.480   4.235
 9645SOL     OW29833   1.097   4.906   6.273
 9645SOL    HW129834   1.089   4.920   6.174
 9645SOL    HW229835   1.167   4.967   6.309
 9646SOL     OW29836   4.180   5.313   6.694
 9646SOL    HW129837   4.202   5.220   6.664
 9646SOL    HW229838   4.107   5.310   6.762
 9647SOL     OW29839   5.959   6.709   2.778
 9647SOL    HW129840   5.879   6.766   2.799
 9647SOL    HW229841   6.008   6.749   2.701
 9648SOL     OW29842   3.885   1.964   1.191
 9648SOL    HW129843   3.932   1.885   1.230
 9648SOL    HW229844   3.805   1.934   1.140
 9649SOL     OW29845   0.586   5.714   0.310
 9649SOL    HW129846   0.664   5.777   0.311
 9649SOL    HW229847   0.589   5.655   0.390
 9650SOL     OW29848   6.813   4.805   4.204
 9650SOL    HW129849   6.895   4.855   4.177
 9650SOL    HW229850   6.830   4.759   4.291
 9651SOL     OW29851   4.325   1.852   7.025
 9651SOL    HW129852   4.259   1.779   7.008
 9651SOL    HW229853   4.369   1.877   6.939
 9652SOL     OW29854   0.766   4.268   0.826
 9652SOL    HW129855   0.863   4.275   0.806
 9652SOL    HW229856   0.753   4.256   0.925
 9653SOL     OW29857   4.974   4.193   5.956
 9653SOL    HW129858   4.912   4.160   5.884
 9653SOL    HW229859   5.066   4.203   5.918
 9654SOL     OW29860   3.219   3.594   3.024
 9654SOL    HW129861   3.156   3.529   2.981
 9654SOL    HW229862   3.180   3.686   3.023
 9655SOL     OW29863   4.534   1.544   0.840
 9655SOL    HW129864   4.620   1.533   0.791
 9655SOL    HW229865   4.460   1.505   0.785
 9656SOL     OW29866   5.694   4.181   6.444
 9656SOL    HW129867   5.710   4.277   6.420
 9656SOL    HW229868   5.602   4.171   6.482
 9657SOL     OW29869   5.932   3.920   4.173
 9657SOL    HW129870   5.940   3.822   4.159
 9657SOL    HW229871   6.019   3.956   4.209
 9658SOL     OW29872   4.654   1.516   2.128
 9658SOL    HW129873   4.648   1.612   2.099
 9658SOL    HW229874   4.703   1.464   2.059
 9659SOL     OW29875   2.235   3.162   6.696
 9659SOL    HW129876   2.292   3.097   6.746
 9659SOL    HW229877   2.211   3.238   6.756
 9660SOL     OW29878   1.802   6.233   1.903
 9660SOL    HW129879   1.842   6.146   1.873
 9660SOL    HW229880   1.757   6.277   1.825
 9661SOL     OW29881   4.766   3.974   1.252
 9661SOL    HW129882   4.731   4.066   1.234
 9661SOL    HW229883   4.698   3.922   1.304
 9662SOL     OW29884   5.562   6.290   6.572
 9662SOL    HW129885   5.552   6.224   6.497
 9662SOL    HW229886   5.625   6.362   6.544
 9663SOL     OW29887   0.903   5.440   2.165
 9663SOL    HW129888   0.883   5.433   2.067
 9663SOL    HW229889   0.903   5.348   2.206
 9664SOL     OW29890   4.173   4.971   2.169
 9664SOL    HW129891   4.168   5.036   2.245
 9664SOL    HW229892   4.188   5.021   2.083
 9665SOL     OW29893   0.016   5.578   6.291
 9665SOL    HW129894   6.943   5.569   6.274
 9665SOL    HW229895   0.062   5.610   6.208
 9666SOL     OW29896   5.509   4.089   6.950
 9666SOL    HW129897   5.504   4.186   6.975
 9666SOL    HW229898   5.601   4.067   6.918
 9667SOL     OW29899   5.782   6.233   6.873
 9667SOL    HW129900   5.721   6.163   6.838
 9667SOL    HW229901   5.774   6.239   6.973
 9668SOL     OW29902   1.245   0.936   5.816
 9668SOL    HW129903   1.279   0.845   5.792
 9668SOL    HW229904   1.312   1.005   5.788
 9669SOL     OW29905   3.391   0.398   0.669
 9669SOL    HW129906   3.468   0.401   0.733
 9669SOL    HW229907   3.400   0.472   0.602
 9670SOL     OW29908   0.541   0.081   0.214
 9670SOL    HW129909   0.490   0.080   0.300
 9670SOL    HW229910   0.538   0.173   0.175
 9671SOL     OW29911   0.938   5.218   6.293
 9671SOL    HW129912   0.844   5.209   6.326
 9671SOL    HW229913   0.985   5.288   6.347
 9672SOL     OW29914   0.939   3.636   4.244
 9672SOL    HW129915   0.901   3.611   4.333
 9672SOL    HW229916   0.864   3.651   4.180
 9673SOL     OW29917   1.623   3.534   0.005
 9673SOL    HW129918   1.545   3.574   6.982
 9673SOL    HW229919   1.597   3.515   0.100
 9674SOL     OW29920   2.058   6.225   4.105
 9674SOL    HW129921   2.013   6.194   4.022
 9674SOL    HW229922   2.007   6.194   4.185
 9675SOL     OW29923   6.509   3.815   6.253
 9675SOL    HW129924   6.602   3.808   6.217
 9675SOL    HW229925   6.450   3.859   6.185
 9676SOL     OW29926   0.793   2.624   6.603
 9676SOL    HW129927   0.887   2.614   6.570
 9676SOL    HW229928   0.746   2.694   6.549
 9677SOL     OW29929   6.714   5.345   1.909
 9677SOL    HW129930   6.803   5.352   1.865
 9677SOL    HW229931   6.723   5.366   2.006
 9678SOL     OW29932   3.503   3.576   5.329
 9678SOL    HW129933   3.446   3.649   5.368
 9678SOL    HW229934   3.492   3.493   5.383
 9679SOL     OW29935   1.837   1.537   4.271
 9679SOL    HW129936   1.931   1.555   4.243
 9679SOL    HW229937   1.783   1.513   4.191
 9680SOL     OW29938   4.269   6.839   1.982
 9680SOL    HW129939   4.169   6.835   1.979
 9680SOL    HW229940   4.307   6.751   1.954
 9681SOL     OW29941   1.143   1.876   1.990
 9681SOL    HW129942   1.092   1.934   1.926
 9681SOL    HW229943   1.084   1.803   2.023
 9682SOL     OW29944   5.069   6.198   5.846
 9682SOL    HW129945   5.152   6.142   5.840
 9682SOL    HW229946   5.046   6.233   5.755
 9683SOL     OW29947   3.270   6.209   3.184
 9683SOL    HW129948   3.202   6.281   3.168
 9683SOL    HW229949   3.249   6.130   3.128
 9684SOL     OW29950   7.011   3.687   5.613
 9684SOL    HW129951   0.062   3.683   5.548
 9684SOL    HW229952   6.928   3.653   5.568
 9685SOL     OW29953   3.399   4.268   1.080
 9685SOL    HW129954   3.478   4.207   1.077
 9685SOL    HW229955   3.319   4.220   1.044
 9686SOL     OW29956   6.182   1.159   5.323
 9686SOL    HW129957   6.088   1.135   5.297
 9686SOL    HW229958   6.234   1.076   5.343
 9687SOL     OW29959   5.805   0.918   3.158
 9687SOL    HW129960   5.834   0.955   3.247
 9687SOL    HW229961   5.831   0.982   3.086
 9688SOL     OW29962   0.898   5.287   1.395
 9688SOL    HW129963   0.868   5.360   1.457
 9688SOL    HW229964   0.828   5.215   1.392
 9689SOL     OW29965   2.236   6.349   1.012
 9689SOL    HW129966   2.160   6.287   1.033
 9689SOL    HW229967   2.272   6.327   0.921
 9690SOL     OW29968   6.583   4.627   4.718
 9690SOL    HW129969   6.588   4.568   4.638
 9690SOL    HW229970   6.673   4.633   4.761
 9691SOL     OW29971   3.031   3.619   1.985
 9691SOL    HW129972   3.076   3.563   1.916
 9691SOL    HW229973   3.039   3.716   1.960
 9692SOL     OW29974   5.012   4.358   0.819
 9692SOL    HW129975   5.098   4.355   0.767
 9692SOL    HW229976   4.946   4.416   0.771
 9693SOL     OW29977   4.746   2.991   5.179
 9693SOL    HW129978   4.816   3.061   5.196
 9693SOL    HW229979   4.715   2.954   5.266
 9694SOL     OW29980   2.706   0.206   1.836
 9694SOL    HW129981   2.683   0.202   1.739
 9694SOL    HW229982   2.661   0.131   1.884
 9695SOL     OW29983   1.144   2.943   3.641
 9695SOL    HW129984   1.153   2.959   3.740
 9695SOL    HW229985   1.231   2.908   3.605
 9696SOL     OW29986   5.543   2.902   3.576
 9696SOL    HW129987   5.491   2.842   3.515
 9696SOL    HW229988   5.533   2.870   3.670
 9697SOL     OW29989   0.428   6.605   0.706
 9697SOL    HW129990   0.422   6.517   0.753
 9697SOL    HW229991   0.524   6.630   0.695
 9698SOL     OW29992   6.419   3.496   1.812
 9698SOL    HW129993   6.503   3.546   1.791
 9698SOL    HW229994   6.436   3.434   1.888
 9699SOL     OW29995   1.680   5.838   1.313
 9699SOL    HW129996   1.694   5.896   1.233
 9699SOL    HW229997   1.606   5.773   1.294
 9700SOL     OW29998   5.537   0.057   5.524
 9700SOL    HW129999   5.625   0.103   5.531
 9700SOL    HW230000   5.550   6.983   5.532
 9701SOL     OW30001   4.516   3.956   7.008
 9701SOL    HW130002   4.476   3.950   6.917
 9701SOL    HW230003   4.605   3.910   7.008
 9702SOL     OW30004   3.746   4.013   2.184
 9702SOL    HW130005   3.667   4.032   2.243
 9702SOL    HW230006   3.781   4.099   2.147
 9703SOL     OW30007   5.925   4.367   4.049
 9703SOL    HW130008   5.896   4.294   3.988
 9703SOL    HW230009   5.845   4.419   4.080
 9704SOL     OW30010   1.618   4.476   2.704
 9704SOL    HW130011   1.550   4.547   2.724
 9704SOL    HW230012   1.582   4.415   2.634
 9705SOL     OW30013   0.221   2.711   5.110
 9705SOL    HW130014   0.174   2.641   5.164
 9705SOL    HW230015   0.288   2.668   5.050
 9706SOL     OW30016   0.730   1.503   2.679
 9706SOL    HW130017   0.735   1.403   2.682
 9706SOL    HW230018   0.788   1.541   2.750
 9707SOL     OW30019   1.265   4.714   2.033
 9707SOL    HW130020   1.250   4.673   2.123
 9707SOL    HW230021   1.243   4.648   1.961
 9708SOL     OW30022   2.628   0.782   1.964
 9708SOL    HW130023   2.682   0.825   2.037
 9708SOL    HW230024   2.656   0.687   1.954
 9709SOL     OW30025   5.696   2.445   1.539
 9709SOL    HW130026   5.730   2.389   1.463
 9709SOL    HW230027   5.608   2.486   1.512
 9710SOL     OW30028   5.964   5.557   4.316
 9710SOL    HW130029   6.061   5.574   4.334
 9710SOL    HW230030   5.928   5.496   4.387
 9711SOL     OW30031   3.442   0.638   0.554
 9711SOL    HW130032   3.510   0.657   0.625
 9711SOL    HW230033   3.380   0.716   0.546
 9712SOL     OW30034   5.626   1.443   6.767
 9712SOL    HW130035   5.538   1.480   6.794
 9712SOL    HW230036   5.669   1.397   6.845
 9713SOL     OW30037   1.650   6.434   2.559
 9713SOL    HW130038   1.712   6.497   2.607
 9713SOL    HW230039   1.563   6.429   2.608
 9714SOL     OW30040   2.310   4.340   4.817
 9714SOL    HW130041   2.353   4.273   4.876
 9714SOL    HW230042   2.211   4.327   4.818
 9715SOL     OW30043   6.373   4.033   6.527
 9715SOL    HW130044   6.282   4.022   6.566
 9715SOL    HW230045   6.426   3.949   6.539
 9716SOL     OW30046   2.426   5.519   0.364
 9716SOL    HW130047   2.369   5.517   0.446
 9716SOL    HW230048   2.503   5.456   0.375
 9717SOL     OW30049   4.139   1.973   5.570
 9717SOL    HW130050   4.121   2.037   5.645
 9717SOL    HW230051   4.053   1.929   5.543
 9718SOL     OW30052   4.226   2.242   6.052
 9718SOL    HW130053   4.281   2.323   6.072
 9718SOL    HW230054   4.201   2.198   6.138
 9719SOL     OW30055   5.113   6.407   6.033
 9719SOL    HW130056   5.090   6.335   5.968
 9719SOL    HW230057   5.112   6.369   6.126
 9720SOL     OW30058   2.147   3.336   3.395
 9720SOL    HW130059   2.145   3.336   3.495
 9720SOL    HW230060   2.135   3.430   3.361
 9721SOL     OW30061   0.890   1.290   0.346
 9721SOL    HW130062   0.902   1.287   0.247
 9721SOL    HW230063   0.875   1.384   0.376
 9722SOL     OW30064   3.981   2.288   5.330
 9722SOL    HW130065   3.922   2.368   5.326
 9722SOL    HW230066   3.956   2.224   5.257
 9723SOL     OW30067   6.609   0.279   5.069
 9723SOL    HW130068   6.530   0.315   5.118
 9723SOL    HW230069   6.662   0.220   5.130
 9724SOL     OW30070   1.554   4.813   0.564
 9724SOL    HW130071   1.592   4.831   0.654
 9724SOL    HW230072   1.609   4.744   0.517
 9725SOL     OW30073   4.166   4.852   4.839
 9725SOL    HW130074   4.069   4.872   4.851
 9725SOL    HW230075   4.219   4.899   4.910
 9726SOL     OW30076   0.231   0.859   3.373
 9726SOL    HW130077   0.312   0.848   3.429
 9726SOL    HW230078   0.256   0.898   3.284
 9727SOL     OW30079   6.598   1.691   1.402
 9727SOL    HW130080   6.517   1.722   1.353
 9727SOL    HW230081   6.661   1.767   1.413
 9728SOL     OW30082   4.568   1.772   4.293
 9728SOL    HW130083   4.522   1.850   4.250
 9728SOL    HW230084   4.630   1.729   4.226
 9729SOL     OW30085   0.153   5.012   2.883
 9729SOL    HW130086   0.062   4.996   2.923
 9729SOL    HW230087   0.199   4.924   2.872
 9730SOL     OW30088   1.125   4.641   2.898
 9730SOL    HW130089   1.223   4.620   2.888
 9730SOL    HW230090   1.081   4.635   2.808
 9731SOL     OW30091   5.687   3.207   2.176
 9731SOL    HW130092   5.761   3.237   2.116
 9731SOL    HW230093   5.685   3.264   2.258
 9732SOL     OW30094   1.471   3.576   2.992
 9732SOL    HW130095   1.534   3.499   2.987
 9732SOL    HW230096   1.480   3.620   3.082
 9733SOL     OW30097   5.858   4.661   2.176
 9733SOL    HW130098   5.903   4.572   2.171
 9733SOL    HW230099   5.822   4.675   2.269
 9734SOL     OW30100   5.332   5.712   6.606
 9734SOL    HW130101   5.345   5.647   6.680
 9734SOL    HW230102   5.417   5.760   6.587
 9735SOL     OW30103   0.747   2.186   0.929
 9735SOL    HW130104   0.787   2.105   0.972
 9735SOL    HW230105   0.648   2.181   0.937
 9736SOL     OW30106   4.747   1.939   4.581
 9736SOL    HW130107   4.659   1.979   4.606
 9736SOL    HW230108   4.820   1.992   4.625
 9737SOL     OW30109   6.561   3.426   3.226
 9737SOL    HW130110   6.632   3.451   3.292
 9737SOL    HW230111   6.473   3.462   3.257
 9738SOL     OW30112   2.526   7.005   1.914
 9738SOL    HW130113   2.480   6.916   1.912
 9738SOL    HW230114   2.458   0.052   1.925
 9739SOL     OW30115   5.967   0.075   0.556
 9739SOL    HW130116   6.049   0.018   0.555
 9739SOL    HW230117   5.913   0.057   0.474
 9740SOL     OW30118   6.329   1.403   2.697
 9740SOL    HW130119   6.240   1.375   2.662
 9740SOL    HW230120   6.395   1.329   2.685
 9741SOL     OW30121   2.741   1.935   4.220
 9741SOL    HW130122   2.708   1.895   4.305
 9741SOL    HW230123   2.709   1.880   4.142
 9742SOL     OW30124   3.405   2.124   6.244
 9742SOL    HW130125   3.436   2.218   6.255
 9742SOL    HW230126   3.378   2.086   6.332
 9743SOL     OW30127   5.099   3.891   4.283
 9743SOL    HW130128   5.148   3.844   4.356
 9743SOL    HW230129   5.098   3.835   4.201
 9744SOL     OW30130   1.756   1.747   3.030
 9744SOL    HW130131   1.800   1.836   3.018
 9744SOL    HW230132   1.757   1.696   2.944
 9745SOL     OW30133   6.954   0.609   6.215
 9745SOL    HW130134   7.005   0.694   6.205
 9745SOL    HW230135   6.958   0.578   6.310
 9746SOL     OW30136   4.260   5.182   6.063
 9746SOL    HW130137   4.180   5.123   6.071
 9746SOL    HW230138   4.343   5.129   6.079
 9747SOL     OW30139   2.467   1.401   2.680
 9747SOL    HW130140   2.415   1.347   2.747
 9747SOL    HW230141   2.508   1.480   2.725
 9748SOL     OW30142   1.279   1.064   3.475
 9748SOL    HW130143   1.365   1.039   3.429
 9748SOL    HW230144   1.222   1.117   3.412
 9749SOL     OW30145   7.012   0.477   2.258
 9749SOL    HW130146   6.987   0.480   2.161
 9749SOL    HW230147   6.956   0.542   2.309
 9750SOL     OW30148   5.973   3.105   4.435
 9750SOL    HW130149   5.885   3.073   4.397
 9750SOL    HW230150   5.983   3.070   4.528
 9751SOL     OW30151   3.877   6.967   1.764
 9751SOL    HW130152   3.830   0.025   1.792
 9751SOL    HW230153   3.928   6.930   1.842
 9752SOL     OW30154   3.283   3.394   0.055
 9752SOL    HW130155   3.267   3.296   0.057
 9752SOL    HW230156   3.199   3.442   0.030
 9753SOL     OW30157   6.631   6.437   5.240
 9753SOL    HW130158   6.663   6.457   5.147
 9753SOL    HW230159   6.706   6.395   5.292
 9754SOL     OW30160   2.903   0.847   1.665
 9754SOL    HW130161   2.859   0.761   1.638
 9754SOL    HW230162   2.895   0.914   1.591
 9755SOL     OW30163   2.613   3.428   0.563
 9755SOL    HW130164   2.578   3.463   0.476
 9755SOL    HW230165   2.698   3.476   0.586
 9756SOL     OW30166   5.644   0.364   5.794
 9756SOL    HW130167   5.631   0.295   5.866
 9756SOL    HW230168   5.742   0.371   5.773
 9757SOL     OW30169   5.533   4.100   3.961
 9757SOL    HW130170   5.524   4.187   3.914
 9757SOL    HW230171   5.443   4.062   3.981
 9758SOL     OW30172   1.902   0.669   2.225
 9758SOL    HW130173   1.881   0.577   2.259
 9758SOL    HW230174   1.842   0.736   2.267
 9759SOL     OW30175   6.738   1.298   1.652
 9759SOL    HW130176   6.780   1.298   1.743
 9759SOL    HW230177   6.790   1.236   1.593
 9760SOL     OW30178   4.996   0.880   6.847
 9760SOL    HW130179   4.964   0.797   6.893
 9760SOL    HW230180   5.056   0.854   6.771
 9761SOL     OW30181   1.460   2.331   1.229
 9761SOL    HW130182   1.370   2.292   1.210
 9761SOL    HW230183   1.516   2.264   1.277
 9762SOL     OW30184   2.929   1.373   5.466
 9762SOL    HW130185   2.834   1.401   5.481
 9762SOL    HW230186   2.985   1.454   5.449
 9763SOL     OW30187   6.470   1.511   1.266
 9763SOL    HW130188   6.378   1.541   1.291
 9763SOL    HW230189   6.537   1.562   1.321
 9764SOL     OW30190   7.014   1.859   2.758
 9764SOL    HW130191   6.981   1.856   2.663
 9764SOL    HW230192   6.938   1.879   2.819
 9765SOL     OW30193   6.799   7.010   2.126
 9765SOL    HW130194   6.749   6.996   2.211
 9765SOL    HW230195   6.767   0.069   2.082
 9766SOL     OW30196   1.846   2.043   3.873
 9766SOL    HW130197   1.865   1.950   3.906
 9766SOL    HW230198   1.918   2.071   3.810
 9767SOL     OW30199   2.528   1.543   5.263
 9767SOL    HW130200   2.575   1.531   5.350
 9767SOL    HW230201   2.430   1.530   5.277
 9768SOL     OW30202   5.630   3.143   0.492
 9768SOL    HW130203   5.657   3.155   0.587
 9768SOL    HW230204   5.564   3.214   0.467
 9769SOL     OW30205   3.795   1.621   5.360
 9769SOL    HW130206   3.701   1.651   5.344
 9769SOL    HW230207   3.848   1.632   5.276
 9770SOL     OW30208   2.363   2.645   6.269
 9770SOL    HW130209   2.378   2.719   6.335
 9770SOL    HW230210   2.265   2.636   6.251
 9771SOL     OW30211   3.079   0.055   2.130
 9771SOL    HW130212   3.039   0.087   2.215
 9771SOL    HW230213   3.085   0.131   2.064
 9772SOL     OW30214   1.076   0.833   1.172
 9772SOL    HW130215   0.997   0.784   1.135
 9772SOL    HW230216   1.090   0.917   1.121
 9773SOL     OW30217   5.630   5.129   2.232
 9773SOL    HW130218   5.567   5.105   2.306
 9773SOL    HW230219   5.632   5.056   2.164
 9774SOL     OW30220   1.352   4.403   5.499
 9774SOL    HW130221   1.392   4.420   5.409
 9774SOL    HW230222   1.424   4.382   5.565
 9775SOL     OW30223   2.576   1.397   3.661
 9775SOL    HW130224   2.641   1.395   3.737
 9775SOL    HW230225   2.602   1.469   3.597
 9776SOL     OW30226   2.257   5.192   0.537
 9776SOL    HW130227   2.163   5.158   0.548
 9776SOL    HW230228   2.306   5.133   0.473
 9777SOL     OW30229   4.199   0.833   5.629
 9777SOL    HW130230   4.295   0.851   5.653
 9777SOL    HW230231   4.142   0.846   5.710
 9778SOL     OW30232   0.481   4.196   3.766
 9778SOL    HW130233   0.481   4.099   3.791
 9778SOL    HW230234   0.474   4.204   3.666
 9779SOL     OW30235   2.377   1.037   3.394
 9779SOL    HW130236   2.303   1.017   3.330
 9779SOL    HW230237   2.424   0.952   3.418
 9780SOL     OW30238   1.189   2.572   2.170
 9780SOL    HW130239   1.176   2.571   2.269
 9780SOL    HW230240   1.212   2.665   2.140
 9781SOL     OW30241   1.606   2.009   2.805
 9781SOL    HW130242   1.537   1.948   2.844
 9781SOL    HW230243   1.628   1.979   2.712
 9782SOL     OW30244   0.185   2.450   0.787
 9782SOL    HW130245   0.111   2.432   0.852
 9782SOL    HW230246   0.252   2.511   0.829
 9783SOL     OW30247   3.844   1.055   2.842
 9783SOL    HW130248   3.841   1.089   2.748
 9783SOL    HW230249   3.921   1.095   2.890
 9784SOL     OW30250   1.447   1.370   6.330
 9784SOL    HW130251   1.492   1.444   6.380
 9784SOL    HW230252   1.354   1.358   6.364
 9785SOL     OW30253   6.940   3.832   4.433
 9785SOL    HW130254   7.007   3.782   4.487
 9785SOL    HW230255   6.928   3.924   4.471
 9786SOL     OW30256   2.239   4.055   0.090
 9786SOL    HW130257   2.154   4.010   0.061
 9786SOL    HW230258   2.317   4.002   0.058
 9787SOL     OW30259   3.036   3.803   3.000
 9787SOL    HW130260   3.081   3.887   3.032
 9787SOL    HW230261   3.024   3.808   2.901
 9788SOL     OW30262   4.223   0.218   2.224
 9788SOL    HW130263   4.280   0.157   2.168
 9788SOL    HW230264   4.177   0.284   2.165
 9789SOL     OW30265   3.648   1.638   0.242
 9789SOL    HW130266   3.580   1.711   0.250
 9789SOL    HW230267   3.699   1.649   0.156
 9790SOL     OW30268   6.491   5.348   4.415
 9790SOL    HW130269   6.446   5.262   4.437
 9790SOL    HW230270   6.425   5.423   4.424
 9791SOL     OW30271   0.970   6.797   1.546
 9791SOL    HW130272   1.069   6.786   1.537
 9791SOL    HW230273   0.925   6.710   1.527
 9792SOL     OW30274   3.984   5.424   1.040
 9792SOL    HW130275   3.921   5.388   0.971
 9792SOL    HW230276   4.076   5.389   1.022
 9793SOL     OW30277   5.716   0.945   3.433
 9793SOL    HW130278   5.779   0.984   3.500
 9793SOL    HW230279   5.656   1.017   3.399
 9794SOL     OW30280   4.619   4.519   4.676
 9794SOL    HW130281   4.697   4.526   4.615
 9794SOL    HW230282   4.536   4.545   4.628
 9795SOL     OW30283   1.846   3.493   3.264
 9795SOL    HW130284   1.932   3.545   3.268
 9795SOL    HW230285   1.850   3.419   3.330
 9796SOL     OW30286   3.792   4.087   4.016
 9796SOL    HW130287   3.864   4.021   4.040
 9796SOL    HW230288   3.777   4.085   3.917
 9797SOL     OW30289   2.509   5.071   0.128
 9797SOL    HW130290   2.481   5.164   0.102
 9797SOL    HW230291   2.589   5.044   0.076
 9798SOL     OW30292   0.244   3.943   6.894
 9798SOL    HW130293   0.194   3.918   6.977
 9798SOL    HW230294   0.342   3.949   6.915
 9799SOL     OW30295   2.804   0.371   6.509
 9799SOL    HW130296   2.874   0.349   6.440
 9799SOL    HW230297   2.778   0.287   6.557
 9800SOL     OW30298   6.753   3.331   4.348
 9800SOL    HW130299   6.798   3.362   4.433
 9800SOL    HW230300   6.700   3.407   4.309
 9801SOL     OW30301   6.574   6.461   6.717
 9801SOL    HW130302   6.554   6.533   6.785
 9801SOL    HW230303   6.610   6.381   6.764
 9802SOL     OW30304   4.026   4.384   0.078
 9802SOL    HW130305   4.037   4.290   0.109
 9802SOL    HW230306   3.989   4.439   0.153
 9803SOL     OW30307   0.985   3.769   6.694
 9803SOL    HW130308   1.068   3.714   6.695
 9803SOL    HW230309   1.003   3.856   6.647
 9804SOL     OW30310   0.157   5.725   2.618
 9804SOL    HW130311   0.066   5.721   2.659
 9804SOL    HW230312   0.189   5.819   2.617
 9805SOL     OW30313   0.794   5.998   4.174
 9805SOL    HW130314   0.766   5.932   4.243
 9805SOL    HW230315   0.802   5.953   4.085
 9806SOL     OW30316   4.091   1.728   0.059
 9806SOL    HW130317   3.998   1.706   0.028
 9806SOL    HW230318   4.087   1.769   0.150
 9807SOL     OW30319   3.741   3.084   2.251
 9807SOL    HW130320   3.695   3.154   2.305
 9807SOL    HW230321   3.674   3.019   2.215
 9808SOL     OW30322   4.254   5.647   2.665
 9808SOL    HW130323   4.211   5.722   2.615
 9808SOL    HW230324   4.212   5.640   2.756
 9809SOL     OW30325   6.780   3.407   0.567
 9809SOL    HW130326   6.845   3.345   0.611
 9809SOL    HW230327   6.699   3.357   0.538
 9810SOL     OW30328   2.967   2.244   0.368
 9810SOL    HW130329   3.017   2.243   0.282
 9810SOL    HW230330   3.024   2.285   0.439
 9811SOL     OW30331   5.500   3.468   4.411
 9811SOL    HW130332   5.475   3.530   4.485
 9811SOL    HW230333   5.420   3.414   4.384
 9812SOL     OW30334   3.788   6.297   5.816
 9812SOL    HW130335   3.832   6.208   5.807
 9812SOL    HW230336   3.854   6.369   5.798
 9813SOL     OW30337   5.357   1.246   1.596
 9813SOL    HW130338   5.337   1.325   1.539
 9813SOL    HW230339   5.310   1.166   1.559
 9814SOL     OW30340   5.749   1.191   0.133
 9814SOL    HW130341   5.774   1.262   0.068
 9814SOL    HW230342   5.751   1.102   0.088
 9815SOL     OW30343   4.342   2.410   4.351
 9815SOL    HW130344   4.269   2.345   4.334
 9815SOL    HW230345   4.374   2.448   4.264
 9816SOL     OW30346   2.374   0.253   0.235
 9816SOL    HW130347   2.384   0.154   0.233
 9816SOL    HW230348   2.319   0.283   0.157
 9817SOL     OW30349   6.506   6.795   2.490
 9817SOL    HW130350   6.526   6.760   2.399
 9817SOL    HW230351   6.454   6.727   2.542
 9818SOL     OW30352   6.177   2.685   4.616
 9818SOL    HW130353   6.213   2.778   4.606
 9818SOL    HW230354   6.104   2.670   4.550
 9819SOL     OW30355   3.866   0.731   2.494
 9819SOL    HW130356   3.790   0.795   2.494
 9819SOL    HW230357   3.930   0.754   2.567
 9820SOL     OW30358   4.777   3.198   5.708
 9820SOL    HW130359   4.712   3.272   5.727
 9820SOL    HW230360   4.754   3.118   5.764
 9821SOL     OW30361   6.383   5.120   0.541
 9821SOL    HW130362   6.429   5.144   0.627
 9821SOL    HW230363   6.334   5.200   0.506
 9822SOL     OW30364   0.798   6.937   2.441
 9822SOL    HW130365   0.781   6.844   2.473
 9822SOL    HW230366   0.746   7.002   2.497
 9823SOL     OW30367   3.426   0.967   1.641
 9823SOL    HW130368   3.354   0.996   1.579
 9823SOL    HW230369   3.513   0.963   1.592
 9824SOL     OW30370   1.153   3.753   6.067
 9824SOL    HW130371   1.178   3.838   6.020
 9824SOL    HW230372   1.150   3.769   6.165
 9825SOL     OW30373   4.018   4.868   5.104
 9825SOL    HW130374   3.964   4.950   5.089
 9825SOL    HW230375   3.963   4.801   5.154
 9826SOL     OW30376   4.474   0.498   5.758
 9826SOL    HW130377   4.516   0.588   5.747
 9826SOL    HW230378   4.545   0.431   5.779
 9827SOL     OW30379   1.551   4.081   4.672
 9827SOL    HW130380   1.618   4.006   4.670
 9827SOL    HW230381   1.494   4.072   4.753
 9828SOL     OW30382   3.435   2.638   6.374
 9828SOL    HW130383   3.342   2.671   6.389
 9828SOL    HW230384   3.493   2.667   6.450
 9829SOL     OW30385   3.018   4.838   0.293
 9829SOL    HW130386   3.070   4.767   0.340
 9829SOL    HW230387   2.930   4.802   0.265
 9830SOL     OW30388   5.830   1.038   0.922
 9830SOL    HW130389   5.910   1.082   0.883
 9830SOL    HW230390   5.747   1.088   0.894
 9831SOL     OW30391   6.228   6.294   1.216
 9831SOL    HW130392   6.252   6.206   1.258
 9831SOL    HW230393   6.129   6.307   1.221
 9832SOL     OW30394   4.671   4.866   1.118
 9832SOL    HW130395   4.595   4.816   1.076
 9832SOL    HW230396   4.658   4.965   1.102
 9833SOL     OW30397   3.708   3.710   5.039
 9833SOL    HW130398   3.625   3.766   5.044
 9833SOL    HW230399   3.788   3.767   5.058
 9834SOL     OW30400   0.460   3.386   4.215
 9834SOL    HW130401   0.443   3.485   4.209
 9834SOL    HW230402   0.509   3.356   4.133
 9835SOL     OW30403   4.820   1.988   4.052
 9835SOL    HW130404   4.857   2.016   3.963
 9835SOL    HW230405   4.720   1.994   4.049
 9836SOL     OW30406   5.176   5.332   2.909
 9836SOL    HW130407   5.226   5.395   2.968
 9836SOL    HW230408   5.146   5.253   2.963
 9837SOL     OW30409   2.452   6.114   4.198
 9837SOL    HW130410   2.505   6.030   4.207
 9837SOL    HW230411   2.386   6.120   4.273
 9838SOL     OW30412   1.203   5.559   6.225
 9838SOL    HW130413   1.174   5.639   6.172
 9838SOL    HW230414   1.242   5.491   6.164
 9839SOL     OW30415   6.950   1.914   1.768
 9839SOL    HW130416   6.857   1.878   1.770
 9839SOL    HW230417   6.983   1.927   1.862
 9840SOL     OW30418   6.688   0.739   1.164
 9840SOL    HW130419   6.764   0.674   1.166
 9840SOL    HW230420   6.679   0.777   1.072
 9841SOL     OW30421   1.727   3.481   4.542
 9841SOL    HW130422   1.696   3.553   4.480
 9841SOL    HW230423   1.824   3.462   4.525
 9842SOL     OW30424   3.301   3.099   2.007
 9842SOL    HW130425   3.217   3.122   2.056
 9842SOL    HW230426   3.377   3.091   2.072
 9843SOL     OW30427   6.841   2.628   2.247
 9843SOL    HW130428   6.803   2.563   2.182
 9843SOL    HW230429   6.812   2.721   2.223
 9844SOL     OW30430   5.157   0.220   2.321
 9844SOL    HW130431   5.147   0.303   2.266
 9844SOL    HW230432   5.080   0.211   2.384
 9845SOL     OW30433   1.358   2.065   3.381
 9845SOL    HW130434   1.359   2.054   3.481
 9845SOL    HW230435   1.323   1.982   3.339
 9846SOL     OW30436   3.028   3.392   2.912
 9846SOL    HW130437   2.959   3.388   2.984
 9846SOL    HW230438   2.984   3.387   2.822
 9847SOL     OW30439   2.141   3.771   5.852
 9847SOL    HW130440   2.122   3.863   5.886
 9847SOL    HW230441   2.237   3.765   5.825
 9848SOL     OW30442   4.914   3.112   6.653
 9848SOL    HW130443   4.851   3.190   6.658
 9848SOL    HW230444   4.877   3.043   6.590
 9849SOL     OW30445   0.205   6.677   6.275
 9849SOL    HW130446   0.174   6.593   6.320
 9849SOL    HW230447   0.140   6.750   6.296
 9850SOL     OW30448   3.790   6.057   2.542
 9850SOL    HW130449   3.835   5.975   2.506
 9850SOL    HW230450   3.829   6.138   2.500
 9851SOL     OW30451   5.521   1.449   5.221
 9851SOL    HW130452   5.516   1.424   5.124
 9851SOL    HW230453   5.440   1.415   5.268
 9852SOL     OW30454   5.024   1.775   3.779
 9852SOL    HW130455   5.043   1.732   3.868
 9852SOL    HW230456   4.925   1.783   3.767
 9853SOL     OW30457   6.223   3.972   2.655
 9853SOL    HW130458   6.182   3.986   2.745
 9853SOL    HW230459   6.159   3.999   2.584
 9854SOL     OW30460   5.302   5.280   4.174
 9854SOL    HW130461   5.230   5.239   4.230
 9854SOL    HW230462   5.327   5.216   4.101
 9855SOL     OW30463   1.306   3.418   1.714
 9855SOL    HW130464   1.258   3.504   1.735
 9855SOL    HW230465   1.238   3.346   1.698
 9856SOL     OW30466   4.111   2.838   0.787
 9856SOL    HW130467   4.209   2.853   0.803
 9856SOL    HW230468   4.089   2.861   0.692
 9857SOL     OW30469   5.673   3.573   3.102
 9857SOL    HW130470   5.669   3.637   3.025
 9857SOL    HW230471   5.691   3.481   3.067
 9858SOL     OW30472   5.435   0.934   1.773
 9858SOL    HW130473   5.519   0.973   1.733
 9858SOL    HW230474   5.358   0.952   1.712
 9859SOL     OW30475   6.174   0.361   2.354
 9859SOL    HW130476   6.250   0.424   2.334
 9859SOL    HW230477   6.162   0.299   2.277
 9860SOL     OW30478   0.394   1.154   2.315
 9860SOL    HW130479   0.478   1.141   2.367
 9860SOL    HW230480   0.372   1.252   2.311
 9861SOL     OW30481   3.913   6.020   4.584
 9861SOL    HW130482   3.937   5.933   4.627
 9861SOL    HW230483   3.849   6.069   4.642
 9862SOL     OW30484   1.373   2.328   0.731
 9862SOL    HW130485   1.308   2.402   0.714
 9862SOL    HW230486   1.466   2.363   0.724
 9863SOL     OW30487   3.546   0.135   2.755
 9863SOL    HW130488   3.567   0.094   2.666
 9863SOL    HW230489   3.630   0.148   2.806
 9864SOL     OW30490   5.222   6.375   2.427
 9864SOL    HW130491   5.220   6.321   2.343
 9864SOL    HW230492   5.302   6.435   2.426
 9865SOL     OW30493   0.357   0.416   3.901
 9865SOL    HW130494   0.436   0.475   3.915
 9865SOL    HW230495   0.381   0.340   3.841
 9866SOL     OW30496   4.800   3.960   4.061
 9866SOL    HW130497   4.794   4.037   3.998
 9866SOL    HW230498   4.830   3.992   4.151
 9867SOL     OW30499   4.704   1.205   6.981
 9867SOL    HW130500   4.704   1.295   6.936
 9867SOL    HW230501   4.735   1.136   6.916
 9868SOL     OW30502   0.007   4.551   0.494
 9868SOL    HW130503   6.986   4.470   0.457
 9868SOL    HW230504   0.037   4.609   0.418
 9869SOL     OW30505   1.631   4.401   2.970
 9869SOL    HW130506   1.701   4.330   2.976
 9869SOL    HW230507   1.606   4.416   2.875
 9870SOL     OW30508   4.971   4.950   2.750
 9870SOL    HW130509   4.981   5.036   2.700
 9870SOL    HW230510   4.908   4.890   2.700
 9871SOL     OW30511   2.380   0.691   5.565
 9871SOL    HW130512   2.335   0.702   5.654
 9871SOL    HW230513   2.475   0.722   5.573
 9872SOL     OW30514   2.959   4.792   3.343
 9872SOL    HW130515   2.926   4.785   3.437
 9872SOL    HW230516   3.057   4.811   3.343
 9873SOL     OW30517   1.416   2.685   0.264
 9873SOL    HW130518   1.452   2.675   0.357
 9873SOL    HW230519   1.337   2.747   0.265
 9874SOL     OW30520   0.858   3.264   3.502
 9874SOL    HW130521   0.905   3.285   3.588
 9874SOL    HW230522   0.919   3.211   3.443
 9875SOL     OW30523   0.411   0.663   2.752
 9875SOL    HW130524   0.424   0.725   2.675
 9875SOL    HW230525   0.445   0.572   2.728
 9876SOL     OW30526   6.597   6.663   2.237
 9876SOL    HW130527   6.546   6.682   2.153
 9876SOL    HW230528   6.695   6.673   2.220
 9877SOL     OW30529   3.131   6.567   2.956
 9877SOL    HW130530   3.138   6.666   2.951
 9877SOL    HW230531   3.163   6.526   2.870
 9878SOL     OW30532   1.158   5.757   5.846
 9878SOL    HW130533   1.249   5.732   5.814
 9878SOL    HW230534   1.092   5.747   5.772
 9879SOL     OW30535   4.135   5.550   5.356
 9879SOL    HW130536   4.162   5.461   5.320
 9879SOL    HW230537   4.215   5.609   5.365
 9880SOL     OW30538   1.295   1.978   5.934
 9880SOL    HW130539   1.319   1.890   5.893
 9880SOL    HW230540   1.287   1.967   6.034
 9881SOL     OW30541   0.464   2.466   5.767
 9881SOL    HW130542   0.491   2.393   5.829
 9881SOL    HW230543   0.441   2.427   5.678
 9882SOL     OW30544   1.052   2.279   4.219
 9882SOL    HW130545   1.098   2.346   4.161
 9882SOL    HW230546   1.055   2.190   4.174
 9883SOL     OW30547   1.522   0.795   2.341
 9883SOL    HW130548   1.564   0.740   2.412
 9883SOL    HW230549   1.445   0.745   2.301
 9884SOL     OW30550   3.935   0.530   4.176
 9884SOL    HW130551   3.989   0.594   4.121
 9884SOL    HW230552   3.874   0.582   4.237
 9885SOL     OW30553   5.741   4.767   4.507
 9885SOL    HW130554   5.783   4.685   4.545
 9885SOL    HW230555   5.812   4.826   4.469
 9886SOL     OW30556   0.975   4.946   2.892
 9886SOL    HW130557   1.027   4.875   2.844
 9886SOL    HW230558   0.894   4.906   2.934
 9887SOL     OW30559   3.214   1.253   6.978
 9887SOL    HW130560   3.266   1.257   6.893
 9887SOL    HW230561   3.272   1.280   0.029
 9888SOL     OW30562   6.899   4.358   0.335
 9888SOL    HW130563   6.981   4.319   0.294
 9888SOL    HW230564   6.851   4.287   0.386
 9889SOL     OW30565   6.043   4.617   0.436
 9889SOL    HW130566   5.966   4.571   0.479
 9889SOL    HW230567   6.047   4.712   0.467
 9890SOL     OW30568   1.546   2.902   1.503
 9890SOL    HW130569   1.520   2.910   1.407
 9890SOL    HW230570   1.604   2.821   1.515
 9891SOL     OW30571   5.758   2.515   0.435
 9891SOL    HW130572   5.846   2.477   0.409
 9891SOL    HW230573   5.740   2.597   0.381
 9892SOL     OW30574   6.725   4.779   0.084
 9892SOL    HW130575   6.689   4.817   0.169
 9892SOL    HW230576   6.660   4.794   0.010
 9893SOL     OW30577   2.164   1.159   1.024
 9893SOL    HW130578   2.198   1.247   1.055
 9893SOL    HW230579   2.067   1.165   1.004
 9894SOL     OW30580   0.938   1.870   0.492
 9894SOL    HW130581   0.996   1.809   0.545
 9894SOL    HW230582   0.862   1.902   0.548
 9895SOL     OW30583   5.614   3.388   5.344
 9895SOL    HW130584   5.535   3.327   5.351
 9895SOL    HW230585   5.697   3.338   5.370
 9896SOL     OW30586   6.797   0.149   0.101
 9896SOL    HW130587   6.755   0.183   0.185
 9896SOL    HW230588   6.754   0.062   0.076
 9897SOL     OW30589   5.614   5.185   3.155
 9897SOL    HW130590   5.590   5.269   3.106
 9897SOL    HW230591   5.558   5.109   3.121
 9898SOL     OW30592   3.032   5.869   5.797
 9898SOL    HW130593   3.112   5.851   5.854
 9898SOL    HW230594   3.062   5.890   5.703
 9899SOL     OW30595   0.359   5.416   0.096
 9899SOL    HW130596   0.272   5.377   0.063
 9899SOL    HW230597   0.418   5.341   0.128
 9900SOL     OW30598   1.934   4.181   3.816
 9900SOL    HW130599   1.909   4.086   3.794
 9900SOL    HW230600   1.855   4.228   3.854
 9901SOL     OW30601   2.756   2.400   5.557
 9901SOL    HW130602   2.704   2.463   5.500
 9901SOL    HW230603   2.702   2.374   5.637
 9902SOL     OW30604   1.981   4.747   6.814
 9902SOL    HW130605   1.882   4.763   6.815
 9902SOL    HW230606   1.999   4.650   6.829
 9903SOL     OW30607   5.330   1.679   3.385
 9903SOL    HW130608   5.285   1.604   3.337
 9903SOL    HW230609   5.424   1.652   3.409
 9904SOL     OW30610   6.719   3.430   6.767
 9904SOL    HW130611   6.684   3.339   6.746
 9904SOL    HW230612   6.818   3.425   6.779
 9905SOL     OW30613   4.001   1.467   0.453
 9905SOL    HW130614   3.941   1.545   0.437
 9905SOL    HW230615   4.091   1.484   0.412
 9906SOL     OW30616   3.886   3.093   2.781
 9906SOL    HW130617   3.954   3.087   2.708
 9906SOL    HW230618   3.814   3.025   2.766
 9907SOL     OW30619   6.922   0.748   1.886
 9907SOL    HW130620   6.991   0.814   1.915
 9907SOL    HW230621   6.954   0.655   1.904
 9908SOL     OW30622   4.915   2.435   2.727
 9908SOL    HW130623   4.855   2.383   2.788
 9908SOL    HW230624   4.874   2.439   2.635
 9909SOL     OW30625   2.455   6.400   4.271
 9909SOL    HW130626   2.467   6.317   4.217
 9909SOL    HW230627   2.531   6.463   4.254
 9910SOL     OW30628   0.571   4.847   2.786
 9910SOL    HW130629   0.647   4.809   2.839
 9910SOL    HW230630   0.575   4.947   2.791
 9911SOL     OW30631   3.750   6.693   2.180
 9911SOL    HW130632   3.818   6.761   2.206
 9911SOL    HW230633   3.661   6.718   2.216
 9912SOL     OW30634   4.932   1.773   0.391
 9912SOL    HW130635   4.946   1.679   0.363
 9912SOL    HW230636   5.020   1.818   0.404
 9913SOL     OW30637   6.026   2.764   0.508
 9913SOL    HW130638   5.978   2.814   0.436
 9913SOL    HW230639   6.092   2.824   0.553
 9914SOL     OW30640   0.755   2.634   4.759
 9914SOL    HW130641   0.789   2.608   4.669
 9914SOL    HW230642   0.689   2.709   4.749
 9915SOL     OW30643   5.188   1.122   3.212
 9915SOL    HW130644   5.091   1.122   3.188
 9915SOL    HW230645   5.211   1.034   3.254
 9916SOL     OW30646   2.218   2.755   2.183
 9916SOL    HW130647   2.291   2.737   2.118
 9916SOL    HW230648   2.134   2.775   2.134
 9917SOL     OW30649   6.991   4.312   6.034
 9917SOL    HW130650   0.018   4.273   5.957
 9917SOL    HW230651   6.896   4.325   6.005
 9918SOL     OW30652   4.134   1.269   3.192
 9918SOL    HW130653   4.212   1.283   3.130
 9918SOL    HW230654   4.165   1.278   3.286
 9919SOL     OW30655   5.967   6.399   1.480
 9919SOL    HW130656   5.950   6.405   1.578
 9919SOL    HW230657   6.060   6.430   1.460
 9920SOL     OW30658   4.636   1.584   2.659
 9920SOL    HW130659   4.629   1.547   2.567
 9920SOL    HW230660   4.730   1.574   2.692
 9921SOL     OW30661   4.254   5.539   6.324
 9921SOL    HW130662   4.188   5.468   6.300
 9921SOL    HW230663   4.254   5.553   6.423
 9922SOL     OW30664   0.917   6.157   0.680
 9922SOL    HW130665   0.938   6.180   0.585
 9922SOL    HW230666   0.999   6.118   0.723
 9923SOL     OW30667   4.683   5.235   0.073
 9923SOL    HW130668   4.640   5.171   0.009
 9923SOL    HW230669   4.780   5.213   0.082
 9924SOL     OW30670   0.354   3.228   4.944
 9924SOL    HW130671   0.328   3.189   4.856
 9924SOL    HW230672   0.272   3.253   4.995
 9925SOL     OW30673   5.000   2.669   4.298
 9925SOL    HW130674   4.941   2.667   4.378
 9925SOL    HW230675   4.994   2.758   4.254
 9926SOL     OW30676   2.067   4.122   6.873
 9926SOL    HW130677   2.164   4.100   6.862
 9926SOL    HW230678   2.029   4.070   6.950
 9927SOL     OW30679   5.841   0.281   2.665
 9927SOL    HW130680   5.873   0.222   2.738
 9927SOL    HW230681   5.768   0.340   2.699
 9928SOL     OW30682   5.027   4.917   1.340
 9928SOL    HW130683   5.098   4.908   1.271
 9928SOL    HW230684   5.059   4.877   1.426
 9929SOL     OW30685   2.157   5.532   5.261
 9929SOL    HW130686   2.127   5.446   5.302
 9929SOL    HW230687   2.130   5.534   5.164
 9930SOL     OW30688   6.943   0.110   4.791
 9930SOL    HW130689   6.863   0.119   4.733
 9930SOL    HW230690   7.023   0.149   4.745
 9931SOL     OW30691   1.437   3.882   5.098
 9931SOL    HW130692   1.498   3.951   5.138
 9931SOL    HW230693   1.425   3.807   5.164
 9932SOL     OW30694   1.180   6.491   6.509
 9932SOL    HW130695   1.212   6.464   6.600
 9932SOL    HW230696   1.138   6.582   6.515
 9933SOL     OW30697   1.575   5.436   2.097
 9933SOL    HW130698   1.555   5.530   2.126
 9933SOL    HW230699   1.494   5.379   2.108
 9934SOL     OW30700   6.164   2.052   5.355
 9934SOL    HW130701   6.084   2.112   5.352
 9934SOL    HW230702   6.153   1.977   5.291
 9935SOL     OW30703   2.279   0.944   6.700
 9935SOL    HW130704   2.193   0.978   6.662
 9935SOL    HW230705   2.351   1.012   6.686
 9936SOL     OW30706   0.540   4.726   4.531
 9936SOL    HW130707   0.608   4.750   4.461
 9936SOL    HW230708   0.575   4.751   4.621
 9937SOL     OW30709   6.925   2.047   5.775
 9937SOL    HW130710   6.918   2.119   5.845
 9937SOL    HW230711   6.836   2.034   5.732
 9938SOL     OW30712   6.848   6.052   2.600
 9938SOL    HW130713   6.776   6.016   2.660
 9938SOL    HW230714   6.895   6.127   2.645
 9939SOL     OW30715   3.324   2.890   1.295
 9939SOL    HW130716   3.292   2.983   1.311
 9939SOL    HW230717   3.295   2.860   1.204
 9940SOL     OW30718   6.869   0.962   0.953
 9940SOL    HW130719   6.893   0.870   0.922
 9940SOL    HW230720   6.936   0.993   1.020
 9941SOL     OW30721   3.052   4.439   5.554
 9941SOL    HW130722   3.030   4.534   5.575
 9941SOL    HW230723   3.029   4.419   5.459
 9942SOL     OW30724   2.243   5.589   2.696
 9942SOL    HW130725   2.222   5.592   2.598
 9942SOL    HW230726   2.262   5.495   2.723
 9943SOL     OW30727   0.605   5.802   5.969
 9943SOL    HW130728   0.550   5.759   5.898
 9943SOL    HW230729   0.608   5.901   5.955
 9944SOL     OW30730   1.333   4.248   6.846
 9944SOL    HW130731   1.238   4.218   6.845
 9944SOL    HW230732   1.384   4.199   6.776
 9945SOL     OW30733   6.990   5.277   0.212
 9945SOL    HW130734   6.910   5.280   0.272
 9945SOL    HW230735   7.003   5.367   0.169
 9946SOL     OW30736   4.896   0.625   4.828
 9946SOL    HW130737   4.899   0.611   4.927
 9946SOL    HW230738   4.863   0.717   4.808
 9947SOL     OW30739   6.545   4.933   5.254
 9947SOL    HW130740   6.621   4.964   5.196
 9947SOL    HW230741   6.575   4.929   5.349
 9948SOL     OW30742   4.851   4.257   4.920
 9948SOL    HW130743   4.758   4.290   4.902
 9948SOL    HW230744   4.916   4.313   4.869
 9949SOL     OW30745   5.737   4.857   3.017
 9949SOL    HW130746   5.765   4.786   3.082
 9949SOL    HW230747   5.645   4.889   3.041
 9950SOL     OW30748   4.551   6.157   5.067
 9950SOL    HW130749   4.622   6.160   5.137
 9950SOL    HW230750   4.594   6.148   4.977
 9951SOL     OW30751   5.465   2.746   3.101
 9951SOL    HW130752   5.370   2.732   3.073
 9951SOL    HW230753   5.480   2.702   3.189
 9952SOL     OW30754   6.781   4.164   0.523
 9952SOL    HW130755   6.860   4.104   0.516
 9952SOL    HW230756   6.702   4.112   0.555
 9953SOL     OW30757   6.443   2.019   3.426
 9953SOL    HW130758   6.344   2.033   3.421
 9953SOL    HW230759   6.489   2.106   3.442
 9954SOL     OW30760   6.066   0.213   5.145
 9954SOL    HW130761   5.978   0.258   5.161
 9954SOL    HW230762   6.071   0.131   5.202
 9955SOL     OW30763   6.786   4.190   4.326
 9955SOL    HW130764   6.696   4.147   4.313
 9955SOL    HW230765   6.808   4.245   4.246
 9956SOL     OW30766   2.293   6.301   2.195
 9956SOL    HW130767   2.323   6.396   2.185
 9956SOL    HW230768   2.226   6.295   2.269
 9957SOL     OW30769   6.604   5.207   3.433
 9957SOL    HW130770   6.526   5.207   3.494
 9957SOL    HW230771   6.573   5.201   3.338
 9958SOL     OW30772   2.941   3.810   0.785
 9958SOL    HW130773   2.987   3.801   0.874
 9958SOL    HW230774   2.849   3.847   0.798
 9959SOL     OW30775   4.024   3.365   6.248
 9959SOL    HW130776   4.019   3.462   6.272
 9959SOL    HW230777   4.001   3.309   6.328
 9960SOL     OW30778   6.740   1.313   2.406
 9960SOL    HW130779   6.723   1.270   2.494
 9960SOL    HW230780   6.654   1.349   2.369
 9961SOL     OW30781   1.706   5.616   4.059
 9961SOL    HW130782   1.790   5.662   4.088
 9961SOL    HW230783   1.698   5.623   3.959
 9962SOL     OW30784   4.549   6.057   4.767
 9962SOL    HW130785   4.565   5.960   4.748
 9962SOL    HW230786   4.621   6.112   4.725
 9963SOL     OW30787   3.372   1.506   0.975
 9963SOL    HW130788   3.464   1.485   1.008
 9963SOL    HW230789   3.323   1.421   0.955
 9964SOL     OW30790   4.272   5.735   4.870
 9964SOL    HW130791   4.194   5.788   4.904
 9964SOL    HW230792   4.243   5.642   4.851
 9965SOL     OW30793   4.371   0.307   0.036
 9965SOL    HW130794   4.450   0.366   0.051
 9965SOL    HW230795   4.370   0.234   0.105
 9966SOL     OW30796   0.489   5.814   2.153
 9966SOL    HW130797   0.454   5.849   2.240
 9966SOL    HW230798   0.588   5.825   2.150
 9967SOL     OW30799   1.696   5.603   1.775
 9967SOL    HW130800   1.756   5.647   1.709
 9967SOL    HW230801   1.641   5.533   1.728
 9968SOL     OW30802   3.918   3.786   2.197
 9968SOL    HW130803   3.874   3.874   2.217
 9968SOL    HW230804   3.856   3.712   2.221
 9969SOL     OW30805   1.524   3.663   2.277
 9969SOL    HW130806   1.507   3.606   2.357
 9969SOL    HW230807   1.564   3.607   2.204
 9970SOL     OW30808   5.829   4.390   1.693
 9970SOL    HW130809   5.875   4.346   1.616
 9970SOL    HW230810   5.780   4.321   1.746
 9971SOL     OW30811   2.259   4.216   0.559
 9971SOL    HW130812   2.218   4.288   0.504
 9971SOL    HW230813   2.191   4.145   0.578
 9972SOL     OW30814   7.015   4.705   2.448
 9972SOL    HW130815   7.015   4.781   2.514
 9972SOL    HW230816   0.084   4.689   2.417
 9973SOL     OW30817   6.023   0.985   4.209
 9973SOL    HW130818   5.963   0.912   4.243
 9973SOL    HW230819   6.104   0.991   4.267
 9974SOL     OW30820   1.729   0.733   3.742
 9974SOL    HW130821   1.714   0.819   3.694
 9974SOL    HW230822   1.672   0.729   3.824
 9975SOL     OW30823   0.094   2.750   7.021
 9975SOL    HW130824   0.062   2.799   6.940
 9975SOL    HW230825   0.025   2.757   0.068
 9976SOL     OW30826   1.365   6.781   4.985
 9976SOL    HW130827   1.286   6.841   4.994
 9976SOL    HW230828   1.406   6.767   5.075
 9977SOL     OW30829   6.027   4.265   4.982
 9977SOL    HW130830   6.118   4.280   4.945
 9977SOL    HW230831   6.034   4.225   5.074
 9978SOL     OW30832   0.077   1.959   4.166
 9978SOL    HW130833   0.114   1.870   4.142
 9978SOL    HW230834   0.151   2.027   4.167
 9979SOL     OW30835   6.267   3.401   4.485
 9979SOL    HW130836   6.306   3.334   4.421
 9979SOL    HW230837   6.237   3.482   4.435
 9980SOL     OW30838   3.632   0.735   6.528
 9980SOL    HW130839   3.677   0.823   6.516
 9980SOL    HW230840   3.534   0.745   6.516
 9981SOL     OW30841   3.189   1.685   4.209
 9981SOL    HW130842   3.270   1.662   4.154
 9981SOL    HW230843   3.108   1.645   4.168
 9982SOL     OW30844   6.832   6.148   4.016
 9982SOL    HW130845   6.906   6.120   3.955
 9982SOL    HW230846   6.855   6.235   4.059
 9983SOL     OW30847   6.899   1.552   2.066
 9983SOL    HW130848   6.954   1.570   1.984
 9983SOL    HW230849   6.947   1.587   2.146
 9984SOL     OW30850   3.058   1.972   6.659
 9984SOL    HW130851   2.964   1.984   6.690
 9984SOL    HW230852   3.078   2.040   6.588
 9985SOL     OW30853   1.228   1.112   2.174
 9985SOL    HW130854   1.193   1.028   2.133
 9985SOL    HW230855   1.308   1.144   2.122
 9986SOL     OW30856   5.595   3.705   5.069
 9986SOL    HW130857   5.636   3.749   4.988
 9986SOL    HW230858   5.666   3.659   5.122
 9987SOL     OW30859   6.681   4.065   5.950
 9987SOL    HW130860   6.697   4.157   5.987
 9987SOL    HW230861   6.765   4.033   5.905
 9988SOL     OW30862   6.893   0.293   5.257
 9988SOL    HW130863   6.919   0.291   5.160
 9988SOL    HW230864   6.842   0.210   5.280
 9989SOL     OW30865   0.539   3.151   5.106
 9989SOL    HW130866   0.467   3.183   5.043
 9989SOL    HW230867   0.617   3.213   5.102
 9990SOL     OW30868   1.041   5.121   3.113
 9990SOL    HW130869   0.984   5.087   3.188
 9990SOL    HW230870   0.999   5.097   3.026
 9991SOL     OW30871   3.238   1.853   3.890
 9991SOL    HW130872   3.250   1.924   3.959
 9991SOL    HW230873   3.157   1.872   3.835
 9992SOL     OW30874   6.329   5.710   5.973
 9992SOL    HW130875   6.344   5.807   5.958
 9992SOL    HW230876   6.238   5.695   6.011
 9993SOL     OW30877   0.955   1.675   1.962
 9993SOL    HW130878   1.002   1.597   1.920
 9993SOL    HW230879   0.856   1.659   1.960
 9994SOL     OW30880   6.061   4.878   3.313
 9994SOL    HW130881   6.016   4.821   3.382
 9994SOL    HW230882   6.114   4.950   3.358
 9995SOL     OW30883   5.542   0.753   4.601
 9995SOL    HW130884   5.482   0.751   4.681
 9995SOL    HW230885   5.593   0.667   4.595
 9996SOL     OW30886   3.338   4.187   0.278
 9996SOL    HW130887   3.242   4.214   0.289
 9996SOL    HW230888   3.386   4.255   0.223
 9997SOL     OW30889   2.618   0.067   5.415
 9997SOL    HW130890   2.669   0.134   5.362
 9997SOL    HW230891   2.647   7.000   5.390
 9998SOL     OW30892   5.835   5.660   5.529
 9998SOL    HW130893   5.746   5.630   5.565
 9998SOL    HW230894   5.864   5.742   5.578
 9999SOL     OW30895   6.877   2.061   4.955
 9999SOL    HW130896   6.965   2.105   4.967
 9999SOL    HW230897   6.841   2.081   4.864
10000SOL     OW30898   0.271   2.708   6.211
10000SOL    HW130899   0.364   2.693   6.177
10000SOL    HW230900   0.269   2.792   6.265
10001SOL     OW30901   4.248   0.537   2.679
10001SOL    HW130902   4.214   0.492   2.597
10001SOL    HW230903   4.221   0.634   2.678
10002SOL     OW30904   0.727   0.948   2.046
10002SOL    HW130905   0.795   0.949   1.973
10002SOL    HW230906   0.718   0.855   2.083
10003SOL     OW30907   3.967   2.236   3.516
10003SOL    HW130908   3.893   2.243   3.583
10003SOL    HW230909   3.928   2.233   3.424
10004SOL     OW30910   6.795   1.910   2.897
10004SOL    HW130911   6.778   1.942   2.990
10004SOL    HW230912   6.797   1.810   2.895
10005SOL     OW30913   5.221   6.825   4.151
10005SOL    HW130914   5.185   6.837   4.058
10005SOL    HW230915   5.173   6.886   4.214
10006SOL     OW30916   3.756   6.559   4.542
10006SOL    HW130917   3.745   6.512   4.630
10006SOL    HW230918   3.668   6.562   4.495
10007SOL     OW30919   6.893   3.480   3.682
10007SOL    HW130920   6.845   3.454   3.766
10007SOL    HW230921   6.883   3.578   3.666
10008SOL     OW30922   2.748   6.993   3.966
10008SOL    HW130923   2.829   6.962   4.016
10008SOL    HW230924   2.672   6.930   3.983
10009SOL     OW30925   1.290   4.360   1.905
10009SOL    HW130926   1.223   4.301   1.951
10009SOL    HW230927   1.381   4.318   1.912
10010SOL     OW30928   0.939   1.286   5.918
10010SOL    HW130929   0.999   1.294   5.997
10010SOL    HW230930   0.849   1.255   5.946
10011SOL     OW30931   0.086   6.508   5.362
10011SOL    HW130932   0.145   6.460   5.297
10011SOL    HW230933   0.002   6.455   5.376
10012SOL     OW30934   6.005   1.315   3.692
10012SOL    HW130935   5.937   1.345   3.760
10012SOL    HW230936   5.997   1.372   3.610
10013SOL     OW30937   0.657   0.822   2.469
10013SOL    HW130938   0.692   0.747   2.526
10013SOL    HW230939   0.563   0.842   2.495
10014SOL     OW30940   0.758   4.697   6.445
10014SOL    HW130941   0.788   4.686   6.351
10014SOL    HW230942   0.820   4.649   6.507
10015SOL     OW30943   2.057   4.273   0.364
10015SOL    HW130944   1.976   4.214   0.369
10015SOL    HW230945   2.089   4.278   0.269
10016SOL     OW30946   2.627   0.796   5.626
10016SOL    HW130947   2.703   0.814   5.564
10016SOL    HW230948   2.609   0.877   5.681
10017SOL     OW30949   1.542   2.038   4.619
10017SOL    HW130950   1.518   2.132   4.596
10017SOL    HW230951   1.638   2.033   4.645
10018SOL     OW30952   5.102   0.263   6.192
10018SOL    HW130953   5.159   0.302   6.120
10018SOL    HW230954   5.037   0.198   6.153
10019SOL     OW30955   0.730   1.252   2.816
10019SOL    HW130956   0.743   1.154   2.798
10019SOL    HW230957   0.714   1.266   2.914
10020SOL     OW30958   0.469   2.976   1.092
10020SOL    HW130959   0.524   3.059   1.098
10020SOL    HW230960   0.416   2.965   1.176
10021SOL     OW30961   0.415   3.811   0.651
10021SOL    HW130962   0.456   3.886   0.702
10021SOL    HW230963   0.427   3.827   0.553
10022SOL     OW30964   1.484   1.751   6.200
10022SOL    HW130965   1.567   1.772   6.149
10022SOL    HW230966   1.421   1.829   6.196
10023SOL     OW30967   0.067   3.741   0.795
10023SOL    HW130968   0.138   3.699   0.739
10023SOL    HW230969   0.110   3.795   0.868
10024SOL     OW30970   1.826   4.629   3.702
10024SOL    HW130971   1.903   4.568   3.684
10024SOL    HW230972   1.800   4.622   3.799
10025SOL     OW30973   1.428   1.278   0.881
10025SOL    HW130974   1.399   1.182   0.875
10025SOL    HW230975   1.456   1.309   0.790
10026SOL     OW30976   6.773   0.309   3.479
10026SOL    HW130977   6.772   0.311   3.379
10026SOL    HW230978   6.841   0.374   3.512
10027SOL     OW30979   4.697   2.415   5.230
10027SOL    HW130980   4.770   2.376   5.287
10027SOL    HW230981   4.658   2.495   5.275
10028SOL     OW30982   1.943   0.860   0.629
10028SOL    HW130983   2.002   0.779   0.621
10028SOL    HW230984   1.960   0.922   0.553
10029SOL     OW30985   5.845   1.815   3.575
10029SOL    HW130986   5.868   1.908   3.547
10029SOL    HW230987   5.772   1.780   3.516
10030SOL     OW30988   1.873   0.406   3.234
10030SOL    HW130989   1.906   0.388   3.327
10030SOL    HW230990   1.782   0.366   3.222
10031SOL     OW30991   6.366   4.427   5.094
10031SOL    HW130992   6.440   4.378   5.141
10031SOL    HW230993   6.386   4.430   4.996
10032SOL     OW30994   2.709   1.490   4.804
10032SOL    HW130995   2.761   1.514   4.886
10032SOL    HW230996   2.763   1.428   4.748
10033SOL     OW30997   5.408   2.700   4.453
10033SOL    HW130998   5.359   2.626   4.499
10033SOL    HW230999   5.400   2.690   4.354
10034SOL     OW31000   5.461   0.319   5.577
10034SOL    HW131001   5.461   0.223   5.548
10034SOL    HW231002   5.504   0.326   5.667
10035SOL     OW31003   0.310   6.003   1.919
10035SOL    HW131004   0.338   5.968   1.830
10035SOL    HW231005   0.223   5.961   1.945
10036SOL     OW31006   7.021   0.704   0.529
10036SOL    HW131007   0.060   0.774   0.498
10036SOL    HW231008   0.041   0.615   0.529
10037SOL     OW31009   0.920   6.772   0.359
10037SOL    HW131010   0.984   6.716   0.411
10037SOL    HW231011   0.829   6.764   0.399
10038SOL     OW31012   6.418   0.609   1.446
10038SOL    HW131013   6.485   0.547   1.486
10038SOL    HW231014   6.448   0.703   1.457
10039SOL     OW31015   3.132   0.425   3.591
10039SOL    HW131016   3.075   0.508   3.584
10039SOL    HW231017   3.201   0.426   3.520
10040SOL     OW31018   1.021   2.778   1.140
10040SOL    HW131019   1.080   2.845   1.094
10040SOL    HW231020   0.927   2.791   1.109
10041SOL     OW31021   2.269   5.975   7.001
10041SOL    HW131022   2.293   6.001   6.908
10041SOL    HW231023   2.197   5.905   6.999
10042SOL     OW31024   5.794   3.117   2.772
10042SOL    HW131025   5.811   3.041   2.835
10042SOL    HW231026   5.727   3.090   2.703
10043SOL     OW31027   0.606   1.829   4.941
10043SOL    HW131028   0.681   1.764   4.952
10043SOL    HW231029   0.643   1.920   4.921
10044SOL     OW31030   2.933   1.278   5.762
10044SOL    HW131031   2.934   1.372   5.727
10044SOL    HW231032   2.863   1.225   5.714
10045SOL     OW31033   3.250   1.285   0.887
10045SOL    HW131034   3.288   1.200   0.851
10045SOL    HW231035   3.157   1.268   0.919
10046SOL     OW31036   1.285   5.494   0.871
10046SOL    HW131037   1.268   5.593   0.878
10046SOL    HW231038   1.199   5.445   0.884
10047SOL     OW31039   0.848   3.029   1.246
10047SOL    HW131040   0.837   2.940   1.202
10047SOL    HW231041   0.824   3.022   1.343
10048SOL     OW31042   6.211   5.039   3.458
10048SOL    HW131043   6.124   5.052   3.506
10048SOL    HW231044   6.285   5.080   3.510
10049SOL     OW31045   6.780   0.535   5.384
10049SOL    HW131046   6.825   0.459   5.338
10049SOL    HW231047   6.848   0.601   5.415
10050SOL     OW31048   0.048   3.028   6.791
10050SOL    HW131049   6.974   3.025   6.787
10050SOL    HW231050   0.077   3.111   6.840
10051SOL     OW31051   2.453   2.668   3.727
10051SOL    HW131052   2.444   2.739   3.657
10051SOL    HW231053   2.388   2.685   3.801
10052SOL     OW31054   1.253   6.558   3.508
10052SOL    HW131055   1.319   6.633   3.505
10052SOL    HW231056   1.224   6.543   3.602
10053SOL     OW31057   5.764   5.113   5.079
10053SOL    HW131058   5.681   5.068   5.113
10053SOL    HW231059   5.839   5.046   5.074
10054SOL     OW31060   6.487   3.669   4.866
10054SOL    HW131061   6.451   3.672   4.959
10054SOL    HW231062   6.587   3.666   4.868
10055SOL     OW31063   1.259   2.127   7.021
10055SOL    HW131064   1.172   2.158   0.035
10055SOL    HW231065   1.318   2.206   7.004
10056SOL     OW31066   6.144   2.294   3.546
10056SOL    HW131067   6.107   2.353   3.618
10056SOL    HW231068   6.191   2.350   3.478
10057SOL     OW31069   6.010   5.150   5.341
10057SOL    HW131070   5.969   5.240   5.354
10057SOL    HW231071   5.946   5.090   5.293
10058SOL     OW31072   0.116   3.337   5.085
10058SOL    HW131073   0.122   3.361   5.182
10058SOL    HW231074   0.043   3.270   5.071
10059SOL     OW31075   6.006   0.721   6.866
10059SOL    HW131076   5.986   0.676   6.953
10059SOL    HW231077   6.104   0.744   6.862
10060SOL     OW31078   2.740   1.336   1.573
10060SOL    HW131079   2.678   1.290   1.509
10060SOL    HW231080   2.770   1.271   1.643
10061SOL     OW31081   3.898   6.886   2.814
10061SOL    HW131082   3.849   6.807   2.850
10061SOL    HW231083   3.993   6.861   2.795
10062SOL     OW31084   0.444   0.212   5.018
10062SOL    HW131085   0.487   0.174   5.100
10062SOL    HW231086   0.354   0.170   5.005
10063SOL     OW31087   2.299   2.307   5.248
10063SOL    HW131088   2.398   2.294   5.246
10063SOL    HW231089   2.274   2.382   5.187
10064SOL     OW31090   2.860   6.884   0.618
10064SOL    HW131091   2.909   6.803   0.648
10064SOL    HW231092   2.922   6.963   0.617
10065SOL     OW31093   0.243   2.034   1.685
10065SOL    HW131094   0.211   1.941   1.704
10065SOL    HW231095   0.342   2.033   1.675
10066SOL     OW31096   6.287   4.163   4.255
10066SOL    HW131097   6.296   4.101   4.177
10066SOL    HW231098   6.333   4.249   4.236
10067SOL     OW31099   6.769   3.272   5.042
10067SOL    HW131100   6.848   3.218   5.073
10067SOL    HW231101   6.735   3.328   5.118
10068SOL     OW31102   1.787   3.095   3.183
10068SOL    HW131103   1.726   3.035   3.235
10068SOL    HW231104   1.845   3.040   3.123
10069SOL     OW31105   2.767   4.689   0.196
10069SOL    HW131106   2.686   4.680   0.254
10069SOL    HW231107   2.743   4.667   0.101
10070SOL     OW31108   4.168   6.585   6.411
10070SOL    HW131109   4.214   6.552   6.493
10070SOL    HW231110   4.087   6.529   6.393
10071SOL     OW31111   5.606   0.243   4.478
10071SOL    HW131112   5.521   0.216   4.523
10071SOL    HW231113   5.630   0.336   4.505
10072SOL     OW31114   6.461   3.294   1.076
10072SOL    HW131115   6.443   3.327   1.168
10072SOL    HW231116   6.391   3.228   1.050
10073SOL     OW31117   5.387   4.378   5.131
10073SOL    HW131118   5.388   4.370   5.230
10073SOL    HW231119   5.460   4.322   5.092
10074SOL     OW31120   1.894   5.530   0.619
10074SOL    HW131121   1.964   5.544   0.689
10074SOL    HW231122   1.864   5.434   0.621
10075SOL     OW31123   1.349   3.387   2.254
10075SOL    HW131124   1.369   3.449   2.330
10075SOL    HW231125   1.431   3.377   2.197
10076SOL     OW31126   5.180   4.760   4.579
10076SOL    HW131127   5.270   4.782   4.616
10076SOL    HW231128   5.135   4.844   4.549
10077SOL     OW31129   5.487   3.971   6.320
10077SOL    HW131130   5.429   4.052   6.321
10077SOL    HW231131   5.559   3.981   6.388
10078SOL     OW31132   6.471   5.348   5.231
10078SOL    HW131133   6.513   5.351   5.140
10078SOL    HW231134   6.424   5.261   5.243
10079SOL     OW31135   5.251   3.552   4.150
10079SOL    HW131136   5.260   3.642   4.108
10079SOL    HW231137   5.254   3.561   4.250
10080SOL     OW31138   5.425   1.457   6.188
10080SOL    HW131139   5.481   1.376   6.206
10080SOL    HW231140   5.329   1.431   6.184
10081SOL     OW31141   1.266   4.766   0.720
10081SOL    HW131142   1.286   4.837   0.651
10081SOL    HW231143   1.349   4.744   0.770
10082SOL     OW31144   1.122   4.751   1.549
10082SOL    HW131145   1.221   4.767   1.554
10082SOL    HW231146   1.077   4.798   1.625
10083SOL     OW31147   2.989   5.702   2.576
10083SOL    HW131148   2.991   5.692   2.476
10083SOL    HW231149   3.020   5.794   2.600
10084SOL     OW31150   0.670   1.509   4.362
10084SOL    HW131151   0.655   1.603   4.332
10084SOL    HW231152   0.692   1.507   4.459
10085SOL     OW31153   5.158   0.086   0.788
10085SOL    HW131154   5.084   0.025   0.760
10085SOL    HW231155   5.139   0.179   0.756
10086SOL     OW31156   4.891   6.836   3.564
10086SOL    HW131157   4.898   6.852   3.662
10086SOL    HW231158   4.915   6.741   3.544
10087SOL     OW31159   1.258   6.203   5.211
10087SOL    HW131160   1.222   6.173   5.123
10087SOL    HW231161   1.332   6.269   5.196
10088SOL     OW31162   6.933   2.983   1.977
10088SOL    HW131163   6.952   2.956   1.882
10088SOL    HW231164   7.016   2.971   2.031
10089SOL     OW31165   3.343   0.874   1.122
10089SOL    HW131166   3.394   0.818   1.057
10089SOL    HW231167   3.294   0.814   1.186
10090SOL     OW31168   2.405   6.462   3.462
10090SOL    HW131169   2.396   6.370   3.424
10090SOL    HW231170   2.319   6.489   3.505
10091SOL     OW31171   6.014   4.934   5.041
10091SOL    HW131172   6.094   4.874   5.052
10091SOL    HW231173   5.949   4.916   5.116
10092SOL     OW31174   0.733   2.689   3.924
10092SOL    HW131175   0.781   2.605   3.951
10092SOL    HW231176   0.718   2.688   3.825
10093SOL     OW31177   4.576   4.385   5.984
10093SOL    HW131178   4.593   4.374   6.082
10093SOL    HW231179   4.573   4.295   5.941
10094SOL     OW31180   4.004   2.471   1.341
10094SOL    HW131181   3.950   2.545   1.300
10094SOL    HW231182   4.024   2.493   1.436
10095SOL     OW31183   4.467   3.264   5.437
10095SOL    HW131184   4.452   3.276   5.535
10095SOL    HW231185   4.501   3.171   5.419
10096SOL     OW31186   6.688   3.689   1.850
10096SOL    HW131187   6.701   3.698   1.949
10096SOL    HW231188   6.642   3.771   1.815
10097SOL     OW31189   0.339   1.871   0.921
10097SOL    HW131190   0.243   1.886   0.944
10097SOL    HW231191   0.382   1.815   0.992
10098SOL     OW31192   2.968   5.253   4.608
10098SOL    HW131193   3.007   5.166   4.577
10098SOL    HW231194   2.910   5.291   4.536
10099SOL     OW31195   0.254   4.990   2.555
10099SOL    HW131196   0.309   4.907   2.571
10099SOL    HW231197   0.284   5.034   2.470
10100SOL     OW31198   5.412   4.372   3.880
10100SOL    HW131199   5.395   4.316   3.961
10100SOL    HW231200   5.335   4.362   3.816
10101SOL     OW31201   6.856   2.997   0.466
10101SOL    HW131202   6.829   2.907   0.434
10101SOL    HW231203   6.783   3.035   0.524
10102SOL     OW31204   6.762   5.471   3.559
10102SOL    HW131205   6.685   5.480   3.496
10102SOL    HW231206   6.796   5.562   3.584
10103SOL     OW31207   0.484   5.986   6.841
10103SOL    HW131208   0.574   6.029   6.835
10103SOL    HW231209   0.479   5.930   6.924
10104SOL     OW31210   2.662   0.641   4.425
10104SOL    HW131211   2.701   0.551   4.443
10104SOL    HW231212   2.566   0.633   4.400
10105SOL     OW31213   2.978   1.314   4.893
10105SOL    HW131214   3.008   1.328   4.988
10105SOL    HW231215   3.023   1.381   4.834
10106SOL     OW31216   5.451   4.518   1.349
10106SOL    HW131217   5.527   4.456   1.369
10106SOL    HW231218   5.403   4.539   1.434
10107SOL     OW31219   5.060   5.335   0.515
10107SOL    HW131220   5.018   5.357   0.603
10107SOL    HW231221   5.006   5.264   0.470
10108SOL     OW31222   1.943   2.412   5.649
10108SOL    HW131223   2.038   2.392   5.626
10108SOL    HW231224   1.917   2.362   5.731
10109SOL     OW31225   1.065   2.429   1.398
10109SOL    HW131226   1.155   2.464   1.371
10109SOL    HW231227   1.003   2.505   1.415
10110SOL     OW31228   5.670   5.675   2.550
10110SOL    HW131229   5.684   5.716   2.640
10110SOL    HW231230   5.628   5.742   2.489
10111SOL     OW31231   0.439   2.855   2.152
10111SOL    HW131232   0.431   2.761   2.117
10111SOL    HW231233   0.462   2.852   2.249
10112SOL     OW31234   6.657   2.842   3.294
10112SOL    HW131235   6.583   2.814   3.356
10112SOL    HW231236   6.632   2.927   3.249
10113SOL     OW31237   6.259   0.396   6.511
10113SOL    HW131238   6.306   0.312   6.484
10113SOL    HW231239   6.228   0.387   6.606
10114SOL     OW31240   6.031   2.863   1.823
10114SOL    HW131241   5.990   2.896   1.908
10114SOL    HW231242   5.960   2.834   1.759
10115SOL     OW31243   3.582   2.391   5.978
10115SOL    HW131244   3.547   2.368   6.069
10115SOL    HW231245   3.586   2.490   5.968
10116SOL     OW31246   6.985   0.110   5.677
10116SOL    HW131247   0.020   0.144   5.750
10116SOL    HW231248   6.891   0.104   5.711
10117SOL     OW31249   6.467   4.220   3.164
10117SOL    HW131250   6.485   4.151   3.234
10117SOL    HW231251   6.399   4.185   3.100
10118SOL     OW31252   3.885   5.137   3.452
10118SOL    HW131253   3.802   5.094   3.416
10118SOL    HW231254   3.863   5.190   3.534
10119SOL     OW31255   6.179   6.188   6.636
10119SOL    HW131256   6.233   6.269   6.615
10119SOL    HW231257   6.202   6.114   6.572
10120SOL     OW31258   2.520   2.244   3.190
10120SOL    HW131259   2.618   2.262   3.199
10120SOL    HW231260   2.488   2.194   3.270
10121SOL     OW31261   0.213   5.482   1.115
10121SOL    HW131262   0.188   5.386   1.128
10121SOL    HW231263   0.269   5.492   1.033
10122SOL     OW31264   1.804   0.224   3.446
10122SOL    HW131265   1.710   0.209   3.477
10122SOL    HW231266   1.829   0.154   3.379
10123SOL     OW31267   0.036   5.680   6.571
10123SOL    HW131268   0.015   5.778   6.579
10123SOL    HW231269   0.049   5.657   6.475
10124SOL     OW31270   2.353   5.353   2.738
10124SOL    HW131271   2.440   5.400   2.723
10124SOL    HW231272   2.366   5.254   2.733
10125SOL     OW31273   1.094   0.734   4.693
10125SOL    HW131274   1.034   0.784   4.631
10125SOL    HW231275   1.040   0.690   4.764
10126SOL     OW31276   6.948   6.334   6.125
10126SOL    HW131277   6.951   6.374   6.034
10126SOL    HW231278   6.863   6.284   6.137
10127SOL     OW31279   2.264   6.899   6.467
10127SOL    HW131280   2.317   6.829   6.514
10127SOL    HW231281   2.303   6.916   6.376
10128SOL     OW31282   2.108   2.940   0.217
10128SOL    HW131283   2.093   2.980   0.307
10128SOL    HW231284   2.205   2.917   0.207
10129SOL     OW31285   6.338   2.239   4.871
10129SOL    HW131286   6.390   2.285   4.942
10129SOL    HW231287   6.307   2.306   4.803
10130SOL     OW31288   0.717   1.971   4.387
10130SOL    HW131289   0.721   2.037   4.463
10130SOL    HW231290   0.795   1.909   4.392
10131SOL     OW31291   1.989   6.608   4.655
10131SOL    HW131292   1.981   6.632   4.558
10131SOL    HW231293   2.085   6.590   4.677
10132SOL     OW31294   5.452   6.899   1.857
10132SOL    HW131295   5.426   6.898   1.953
10132SOL    HW231296   5.437   6.808   1.818
10133SOL     OW31297   5.551   6.269   0.747
10133SOL    HW131298   5.537   6.293   0.843
10133SOL    HW231299   5.599   6.181   0.742
10134SOL     OW31300   6.904   0.047   3.214
10134SOL    HW131301   6.959   7.001   3.171
10134SOL    HW231302   6.923   0.050   3.312
10135SOL     OW31303   6.003   0.065   3.265
10135SOL    HW131304   6.051   0.121   3.197
10135SOL    HW231305   6.052   7.004   3.277
10136SOL     OW31306   4.634   1.234   3.379
10136SOL    HW131307   4.648   1.333   3.367
10136SOL    HW231308   4.575   1.219   3.458
10137SOL     OW31309   6.750   5.493   4.915
10137SOL    HW131310   6.651   5.482   4.918
10137SOL    HW231311   6.792   5.406   4.890
10138SOL     OW31312   6.758   2.866   2.167
10138SOL    HW131313   6.670   2.828   2.137
10138SOL    HW231314   6.804   2.910   2.089
10139SOL     OW31315   3.213   2.980   6.481
10139SOL    HW131316   3.118   2.999   6.456
10139SOL    HW231317   3.228   3.006   6.576
10140SOL     OW31318   0.899   5.792   5.406
10140SOL    HW131319   0.946   5.839   5.332
10140SOL    HW231320   0.914   5.693   5.398
10141SOL     OW31321   2.064   2.508   4.097
10141SOL    HW131322   1.978   2.541   4.058
10141SOL    HW231323   2.064   2.523   4.195
10142SOL     OW31324   4.161   6.197   3.036
10142SOL    HW131325   4.095   6.260   3.078
10142SOL    HW231326   4.125   6.104   3.038
10143SOL     OW31327   5.885   2.803   5.712
10143SOL    HW131328   5.786   2.807   5.721
10143SOL    HW231329   5.913   2.712   5.683
10144SOL     OW31330   3.433   0.086   0.798
10144SOL    HW131331   3.496   0.044   0.733
10144SOL    HW231332   3.341   0.087   0.758
10145SOL     OW31333   6.554   6.902   6.214
10145SOL    HW131334   6.651   6.914   6.194
10145SOL    HW231335   6.502   6.905   6.128
10146SOL     OW31336   1.627   3.093   5.188
10146SOL    HW131337   1.550   3.087   5.252
10146SOL    HW231338   1.693   3.020   5.209
10147SOL     OW31339   3.900   5.761   5.732
10147SOL    HW131340   3.998   5.778   5.729
10147SOL    HW231341   3.879   5.697   5.807
10148SOL     OW31342   0.630   4.600   0.162
10148SOL    HW131343   0.613   4.560   0.252
10148SOL    HW231344   0.546   4.596   0.107
10149SOL     OW31345   3.946   3.579   1.472
10149SOL    HW131346   4.039   3.558   1.444
10149SOL    HW231347   3.881   3.546   1.403
10150SOL     OW31348   4.389   4.203   1.229
10150SOL    HW131349   4.425   4.145   1.155
10150SOL    HW231350   4.389   4.298   1.199
10151SOL     OW31351   6.682   1.051   6.184
10151SOL    HW131352   6.767   1.052   6.237
10151SOL    HW231353   6.604   1.036   6.245
10152SOL     OW31354   3.743   6.680   2.851
10152SOL    HW131355   3.697   6.632   2.776
10152SOL    HW231356   3.811   6.620   2.892
10153SOL     OW31357   5.361   4.095   1.769
10153SOL    HW131358   5.353   4.019   1.704
10153SOL    HW231359   5.329   4.066   1.858
10154SOL     OW31360   3.793   5.204   5.581
10154SOL    HW131361   3.874   5.153   5.553
10154SOL    HW231362   3.793   5.294   5.536
10155SOL     OW31363   4.076   1.423   3.915
10155SOL    HW131364   4.093   1.448   4.011
10155SOL    HW231365   4.101   1.499   3.856
10156SOL     OW31366   4.161   1.856   5.989
10156SOL    HW131367   4.065   1.884   6.000
10156SOL    HW231368   4.165   1.760   5.964
10157SOL     OW31369   0.308   4.436   1.207
10157SOL    HW131370   0.361   4.350   1.203
10157SOL    HW231371   0.371   4.513   1.205
10158SOL     OW31372   5.981   5.218   6.966
10158SOL    HW131373   5.930   5.195   6.884
10158SOL    HW231374   5.918   5.234   0.017
10159SOL     OW31375   3.252   3.072   1.760
10159SOL    HW131376   3.308   3.009   1.707
10159SOL    HW231377   3.287   3.078   1.854
10160SOL     OW31378   6.576   4.417   2.526
10160SOL    HW131379   6.606   4.325   2.550
10160SOL    HW231380   6.656   4.476   2.512
10161SOL     OW31381   5.596   3.055   5.633
10161SOL    HW131382   5.636   3.111   5.707
10161SOL    HW231383   5.553   2.974   5.672
10162SOL     OW31384   1.374   2.812   2.168
10162SOL    HW131385   1.449   2.758   2.207
10162SOL    HW231386   1.373   2.902   2.210
10163SOL     OW31387   2.600   5.096   4.771
10163SOL    HW131388   2.520   5.074   4.714
10163SOL    HW231389   2.583   5.065   4.865
10164SOL     OW31390   0.032   1.223   3.770
10164SOL    HW131391   0.130   1.221   3.790
10164SOL    HW231392   7.012   1.288   3.831
10165SOL     OW31393   1.179   3.619   4.110
10165SOL    HW131394   1.157   3.657   4.020
10165SOL    HW231395   1.094   3.596   4.157
10166SOL     OW31396   2.699   6.233   2.560
10166SOL    HW131397   2.761   6.164   2.596
10166SOL    HW231398   2.632   6.257   2.630
10167SOL     OW31399   2.404   2.140   6.744
10167SOL    HW131400   2.399   2.235   6.775
10167SOL    HW231401   2.414   2.138   6.645
10168SOL     OW31402   6.729   0.413   6.572
10168SOL    HW131403   6.671   0.493   6.560
10168SOL    HW231404   6.702   0.364   6.655
10169SOL     OW31405   5.361   4.722   3.330
10169SOL    HW131406   5.313   4.761   3.408
10169SOL    HW231407   5.295   4.706   3.256
10170SOL     OW31408   5.139   6.228   0.296
10170SOL    HW131409   5.160   6.146   0.349
10170SOL    HW231410   5.219   6.253   0.241
10171SOL     OW31411   2.274   4.712   5.182
10171SOL    HW131412   2.216   4.672   5.111
10171SOL    HW231413   2.367   4.679   5.172
10172SOL     OW31414   6.687   0.845   3.013
10172SOL    HW131415   6.767   0.816   2.959
10172SOL    HW231416   6.634   0.764   3.039
10173SOL     OW31417   3.867   3.494   5.052
10173SOL    HW131418   3.811   3.576   5.046
10173SOL    HW231419   3.841   3.430   4.979
10174SOL     OW31420   4.615   5.137   1.107
10174SOL    HW131421   4.518   5.116   1.122
10174SOL    HW231422   4.630   5.157   1.010
10175SOL     OW31423   6.877   6.860   4.475
10175SOL    HW131424   6.808   6.859   4.547
10175SOL    HW231425   6.946   6.929   4.496
10176SOL     OW31426   0.101   0.462   4.858
10176SOL    HW131427   0.076   0.476   4.762
10176SOL    HW231428   0.186   0.510   4.878
10177SOL     OW31429   2.281   0.858   4.316
10177SOL    HW131430   2.252   0.898   4.403
10177SOL    HW231431   2.361   0.799   4.332
10178SOL     OW31432   0.605   1.903   1.319
10178SOL    HW131433   0.525   1.884   1.376
10178SOL    HW231434   0.676   1.836   1.339
10179SOL     OW31435   0.575   5.187   0.421
10179SOL    HW131436   0.635   5.113   0.393
10179SOL    HW231437   0.588   5.206   0.518
10180SOL     OW31438   3.783   0.168   6.544
10180SOL    HW131439   3.763   0.079   6.583
10180SOL    HW231440   3.846   0.218   6.605
10181SOL     OW31441   6.945   3.590   3.238
10181SOL    HW131442   6.951   3.495   3.207
10181SOL    HW231443   6.850   3.614   3.252
10182SOL     OW31444   4.137   1.012   0.936
10182SOL    HW131445   4.040   1.031   0.950
10182SOL    HW231446   4.164   1.044   0.845
10183SOL     OW31447   4.564   6.610   5.817
10183SOL    HW131448   4.466   6.609   5.834
10183SOL    HW231449   4.609   6.673   5.881
10184SOL     OW31450   5.220   1.568   5.707
10184SOL    HW131451   5.250   1.473   5.704
10184SOL    HW231452   5.299   1.628   5.724
10185SOL     OW31453   3.187   5.179   1.296
10185SOL    HW131454   3.174   5.190   1.395
10185SOL    HW231455   3.276   5.137   1.279
10186SOL     OW31456   3.329   3.257   6.546
10186SOL    HW131457   3.384   3.321   6.599
10186SOL    HW231458   3.235   3.256   6.581
10187SOL     OW31459   1.868   4.266   5.717
10187SOL    HW131460   1.797   4.271   5.646
10187SOL    HW231461   1.850   4.187   5.776
10188SOL     OW31462   2.936   6.955   6.219
10188SOL    HW131463   2.898   7.002   6.298
10188SOL    HW231464   2.938   7.017   6.141
10189SOL     OW31465   1.929   1.224   4.728
10189SOL    HW131466   1.837   1.206   4.762
10189SOL    HW231467   1.923   1.262   4.636
10190SOL     OW31468   4.144   4.200   0.824
10190SOL    HW131469   4.069   4.184   0.889
10190SOL    HW231470   4.107   4.212   0.732
10191SOL     OW31471   5.552   0.437   0.058
10191SOL    HW131472   5.628   0.454   0.120
10191SOL    HW231473   5.471   0.411   0.111
10192SOL     OW31474   2.235   1.170   4.756
10192SOL    HW131475   2.281   1.257   4.774
10192SOL    HW231476   2.137   1.185   4.749
10193SOL     OW31477   3.800   3.405   3.642
10193SOL    HW131478   3.849   3.341   3.583
10193SOL    HW231479   3.710   3.423   3.602
10194SOL     OW31480   2.981   0.040   3.257
10194SOL    HW131481   3.032   7.010   3.191
10194SOL    HW231482   3.017   0.134   3.257
10195SOL     OW31483   5.158   0.456   2.186
10195SOL    HW131484   5.225   0.526   2.208
10195SOL    HW231485   5.175   0.422   2.093
10196SOL     OW31486   5.029   3.268   4.517
10196SOL    HW131487   4.989   3.355   4.490
10196SOL    HW231488   5.125   3.265   4.490
10197SOL     OW31489   5.342   1.416   2.501
10197SOL    HW131490   5.340   1.511   2.532
10197SOL    HW231491   5.281   1.405   2.423
10198SOL     OW31492   2.647   0.197   1.575
10198SOL    HW131493   2.715   0.236   1.513
10198SOL    HW231494   2.607   0.115   1.534
10199SOL     OW31495   0.999   2.144   0.740
10199SOL    HW131496   0.928   2.158   0.809
10199SOL    HW231497   0.996   2.219   0.674
10200SOL     OW31498   5.825   5.309   5.629
10200SOL    HW131499   5.875   5.326   5.544
10200SOL    HW231500   5.870   5.357   5.705
10201SOL     OW31501   1.651   4.789   3.164
10201SOL    HW131502   1.553   4.784   3.182
10201SOL    HW231503   1.699   4.817   3.247
10202SOL     OW31504   0.540   2.763   2.767
10202SOL    HW131505   0.630   2.735   2.732
10202SOL    HW231506   0.486   2.681   2.788
10203SOL     OW31507   1.312   3.062   1.879
10203SOL    HW131508   1.243   3.104   1.938
10203SOL    HW231509   1.326   2.967   1.907
10204SOL     OW31510   2.950   4.960   4.295
10204SOL    HW131511   3.022   5.026   4.272
10204SOL    HW231512   2.974   4.911   4.379
10205SOL     OW31513   4.337   0.648   1.845
10205SOL    HW131514   4.240   0.647   1.818
10205SOL    HW231515   4.374   0.555   1.840
10206SOL     OW31516   4.704   0.319   5.672
10206SOL    HW131517   4.718   0.250   5.743
10206SOL    HW231518   4.749   0.404   5.699
10207SOL     OW31519   3.806   0.613   3.128
10207SOL    HW131520   3.868   0.536   3.146
10207SOL    HW231521   3.757   0.596   3.042
10208SOL     OW31522   6.374   4.029   5.193
10208SOL    HW131523   6.422   4.115   5.207
10208SOL    HW231524   6.432   3.966   5.142
10209SOL     OW31525   5.288   6.892   6.619
10209SOL    HW131526   5.282   6.883   6.719
10209SOL    HW231527   5.366   6.840   6.586
10210SOL     OW31528   5.283   5.836   1.083
10210SOL    HW131529   5.344   5.759   1.100
10210SOL    HW231530   5.273   5.891   1.166
10211SOL     OW31531   3.601   5.697   4.995
10211SOL    HW131532   3.672   5.673   5.061
10211SOL    HW231533   3.643   5.742   4.916
10212SOL     OW31534   5.941   6.336   5.243
10212SOL    HW131535   5.873   6.351   5.315
10212SOL    HW231536   6.026   6.384   5.266
10213SOL     OW31537   4.727   0.564   4.238
10213SOL    HW131538   4.811   0.581   4.186
10213SOL    HW231539   4.647   0.583   4.182
10214SOL     OW31540   0.010   1.131   1.127
10214SOL    HW131541   0.042   1.206   1.070
10214SOL    HW231542   6.957   1.161   1.181
10215SOL     OW31543   4.018   2.819   6.486
10215SOL    HW131544   4.009   2.778   6.577
10215SOL    HW231545   4.086   2.892   6.489
10216SOL     OW31546   4.908   0.222   2.406
10216SOL    HW131547   4.866   0.156   2.468
10216SOL    HW231548   4.838   0.283   2.369
10217SOL     OW31549   3.098   2.093   5.412
10217SOL    HW131550   3.187   2.130   5.388
10217SOL    HW231551   3.062   2.040   5.335
10218SOL     OW31552   2.420   2.535   0.544
10218SOL    HW131553   2.439   2.633   0.541
10218SOL    HW231554   2.405   2.507   0.639
10219SOL     OW31555   0.861   4.516   0.466
10219SOL    HW131556   0.864   4.509   0.565
10219SOL    HW231557   0.944   4.562   0.433
10220SOL     OW31558   4.335   2.750   0.405
10220SOL    HW131559   4.304   2.763   0.311
10220SOL    HW231560   4.264   2.701   0.457
10221SOL     OW31561   3.224   0.813   4.930
10221SOL    HW131562   3.186   0.897   4.891
10221SOL    HW231563   3.151   0.762   4.976
10222SOL     OW31564   2.143   4.916   5.637
10222SOL    HW131565   2.167   4.908   5.541
10222SOL    HW231566   2.128   4.825   5.676
10223SOL     OW31567   6.850   4.339   0.768
10223SOL    HW131568   6.878   4.428   0.730
10223SOL    HW231569   6.851   4.271   0.695
10224SOL     OW31570   2.526   0.253   4.874
10224SOL    HW131571   2.459   0.305   4.927
10224SOL    HW231572   2.593   0.317   4.834
10225SOL     OW31573   5.491   5.951   4.338
10225SOL    HW131574   5.548   6.031   4.352
10225SOL    HW231575   5.414   5.975   4.279
10226SOL     OW31576   6.877   2.911   0.023
10226SOL    HW131577   6.891   2.837   0.088
10226SOL    HW231578   6.890   2.999   0.068
10227SOL     OW31579   5.590   5.836   6.098
10227SOL    HW131580   5.504   5.817   6.146
10227SOL    HW231581   5.571   5.881   6.012
10228SOL     OW31582   1.210   4.035   2.938
10228SOL    HW131583   1.241   4.124   2.906
10228SOL    HW231584   1.214   3.969   2.862
10229SOL     OW31585   1.800   1.337   1.962
10229SOL    HW131586   1.766   1.428   1.985
10229SOL    HW231587   1.828   1.335   1.866
10230SOL     OW31588   5.933   6.448   4.919
10230SOL    HW131589   5.866   6.453   4.845
10230SOL    HW231590   5.937   6.536   4.967
10231SOL     OW31591   4.345   6.754   4.386
10231SOL    HW131592   4.336   6.826   4.318
10231SOL    HW231593   4.269   6.759   4.451
10232SOL     OW31594   3.705   2.142   4.219
10232SOL    HW131595   3.650   2.204   4.162
10232SOL    HW231596   3.781   2.106   4.165
10233SOL     OW31597   4.731   1.449   5.387
10233SOL    HW131598   4.736   1.352   5.363
10233SOL    HW231599   4.669   1.496   5.324
10234SOL     OW31600   4.996   6.316   1.766
10234SOL    HW131601   4.908   6.339   1.808
10234SOL    HW231602   5.033   6.397   1.720
10235SOL     OW31603   5.057   1.764   6.277
10235SOL    HW131604   5.020   1.833   6.338
10235SOL    HW231605   4.986   1.734   6.212
10236SOL     OW31606   2.118   5.978   2.027
10236SOL    HW131607   2.150   5.885   2.042
10236SOL    HW231608   2.071   5.984   1.939
10237SOL     OW31609   5.814   2.406   3.336
10237SOL    HW131610   5.763   2.429   3.253
10237SOL    HW231611   5.910   2.392   3.313
10238SOL     OW31612   4.619   5.397   4.246
10238SOL    HW131613   4.712   5.412   4.212
10238SOL    HW231614   4.568   5.483   4.241
10239SOL     OW31615   6.662   4.002   3.981
10239SOL    HW131616   6.655   3.970   3.887
10239SOL    HW231617   6.613   3.940   4.042
10240SOL     OW31618   6.141   3.820   3.852
10240SOL    HW131619   6.111   3.866   3.768
10240SOL    HW231620   6.070   3.755   3.881
10241SOL     OW31621   1.979   1.169   3.418
10241SOL    HW131622   2.040   1.197   3.492
10241SOL    HW231623   1.992   1.072   3.399
10242SOL     OW31624   0.801   6.260   6.025
10242SOL    HW131625   0.883   6.314   6.047
10242SOL    HW231626   0.756   6.233   6.110
10243SOL     OW31627   1.292   5.941   2.353
10243SOL    HW131628   1.223   5.870   2.363
10243SOL    HW231629   1.302   5.963   2.256
10244SOL     OW31630   1.421   5.922   0.166
10244SOL    HW131631   1.443   5.886   0.257
10244SOL    HW231632   1.500   5.973   0.131
10245SOL     OW31633   1.835   2.404   0.151
10245SOL    HW131634   1.929   2.372   0.150
10245SOL    HW231635   1.774   2.329   0.178
10246SOL     OW31636   3.316   4.163   3.888
10246SOL    HW131637   3.265   4.249   3.880
10246SOL    HW231638   3.273   4.106   3.957
10247SOL     OW31639   1.120   5.790   6.109
10247SOL    HW131640   1.032   5.838   6.107
10247SOL    HW231641   1.149   5.771   6.016
10248SOL     OW31642   4.532   0.578   2.699
10248SOL    HW131643   4.435   0.567   2.719
10248SOL    HW231644   4.585   0.522   2.764
10249SOL     OW31645   4.627   1.524   0.203
10249SOL    HW131646   4.574   1.608   0.215
10249SOL    HW231647   4.577   1.460   0.145
10250SOL     OW31648   5.456   0.396   0.349
10250SOL    HW131649   5.435   0.482   0.396
10250SOL    HW231650   5.372   0.359   0.308
10251SOL     OW31651   4.009   4.385   6.551
10251SOL    HW131652   4.090   4.329   6.568
10251SOL    HW231653   3.971   4.417   6.638
10252SOL     OW31654   6.213   5.263   2.227
10252SOL    HW131655   6.149   5.206   2.176
10252SOL    HW231656   6.166   5.305   2.305
10253SOL     OW31657   3.942   4.906   6.395
10253SOL    HW131658   3.889   4.978   6.350
10253SOL    HW231659   3.882   4.854   6.456
10254SOL     OW31660   2.165   1.253   4.136
10254SOL    HW131661   2.193   1.161   4.162
10254SOL    HW231662   2.068   1.253   4.110
10255SOL     OW31663   3.349   5.239   3.109
10255SOL    HW131664   3.335   5.323   3.161
10255SOL    HW231665   3.267   5.182   3.114
10256SOL     OW31666   6.144   6.475   6.817
10256SOL    HW131667   6.211   6.416   6.772
10256SOL    HW231668   6.097   6.530   6.749
10257SOL     OW31669   1.851   6.725   6.628
10257SOL    HW131670   1.946   6.701   6.611
10257SOL    HW231671   1.827   6.806   6.573
10258SOL     OW31672   4.083   0.174   3.695
10258SOL    HW131673   4.013   0.102   3.699
10258SOL    HW231674   4.118   0.190   3.787
10259SOL     OW31675   0.594   3.903   3.859
10259SOL    HW131676   0.669   3.924   3.920
10259SOL    HW231677   0.628   3.890   3.766
10260SOL     OW31678   6.954   6.627   1.271
10260SOL    HW131679   6.901   6.622   1.186
10260SOL    HW231680   0.026   6.632   1.250
10261SOL     OW31681   2.205   6.897   1.476
10261SOL    HW131682   2.122   6.907   1.421
10261SOL    HW231683   2.198   6.955   1.558
10262SOL     OW31684   0.959   5.574   5.048
10262SOL    HW131685   1.039   5.574   4.988
10262SOL    HW231686   0.988   5.561   5.142
10263SOL     OW31687   6.517   2.077   5.388
10263SOL    HW131688   6.604   2.126   5.396
10263SOL    HW231689   6.501   2.051   5.293
10264SOL     OW31690   0.789   6.553   7.002
10264SOL    HW131691   0.793   6.590   6.909
10264SOL    HW231692   0.787   6.453   6.998
10265SOL     OW31693   3.893   2.138   2.181
10265SOL    HW131694   3.963   2.165   2.115
10265SOL    HW231695   3.802   2.150   2.140
10266SOL     OW31696   4.452   4.065   6.118
10266SOL    HW131697   4.546   4.048   6.088
10266SOL    HW231698   4.397   4.097   6.040
10267SOL     OW31699   0.228   1.583   6.003
10267SOL    HW131700   0.142   1.559   6.049
10267SOL    HW231701   0.211   1.599   5.906
10268SOL     OW31702   6.320   4.239   1.736
10268SOL    HW131703   6.238   4.296   1.744
10268SOL    HW231704   6.318   4.168   1.806
10269SOL     OW31705   3.020   2.516   6.219
10269SOL    HW131706   3.089   2.584   6.244
10269SOL    HW231707   2.941   2.563   6.178
10270SOL     OW31708   3.160   6.521   1.173
10270SOL    HW131709   3.168   6.439   1.116
10270SOL    HW231710   3.066   6.532   1.203
10271SOL     OW31711   3.464   5.159   0.616
10271SOL    HW131712   3.368   5.168   0.645
10271SOL    HW231713   3.498   5.069   0.643
10272SOL     OW31714   1.013   1.102   5.744
10272SOL    HW131715   1.039   1.017   5.791
10272SOL    HW231716   1.008   1.176   5.811
10273SOL     OW31717   4.235   6.507   4.121
10273SOL    HW131718   4.226   6.415   4.082
10273SOL    HW231719   4.158   6.526   4.182
10274SOL     OW31720   1.996   6.092   6.536
10274SOL    HW131721   2.053   6.042   6.471
10274SOL    HW231722   1.989   6.039   6.621
10275SOL     OW31723   1.123   6.782   2.284
10275SOL    HW131724   1.044   6.725   2.308
10275SOL    HW231725   1.098   6.842   2.208
10276SOL     OW31726   0.227   6.529   6.698
10276SOL    HW131727   0.206   6.453   6.759
10276SOL    HW231728   0.173   6.609   6.725
10277SOL     OW31729   1.444   5.641   2.675
10277SOL    HW131730   1.439   5.686   2.765
10277SOL    HW231731   1.503   5.561   2.680
10278SOL     OW31732   6.383   0.199   6.387
10278SOL    HW131733   6.338   0.121   6.342
10278SOL    HW231734   6.428   0.255   6.318
10279SOL     OW31735   3.413   6.341   3.379
10279SOL    HW131736   3.384   6.436   3.368
10279SOL    HW231737   3.369   6.285   3.309
10280SOL     OW31738   3.376   2.816   6.174
10280SOL    HW131739   3.377   2.783   6.079
10280SOL    HW231740   3.404   2.742   6.235
10281SOL     OW31741   3.773   6.405   4.264
10281SOL    HW131742   3.759   6.415   4.363
10281SOL    HW231743   3.712   6.467   4.215
10282SOL     OW31744   1.420   2.368   5.083
10282SOL    HW131745   1.490   2.427   5.042
10282SOL    HW231746   1.456   2.275   5.092
10283SOL     OW31747   1.631   3.241   5.782
10283SOL    HW131748   1.719   3.221   5.740
10283SOL    HW231749   1.637   3.328   5.831
10284SOL     OW31750   5.541   3.332   6.253
10284SOL    HW131751   5.445   3.337   6.279
10284SOL    HW231752   5.598   3.339   6.336
10285SOL     OW31753   5.995   0.479   0.790
10285SOL    HW131754   6.074   0.473   0.851
10285SOL    HW231755   5.951   0.568   0.802
10286SOL     OW31756   4.251   0.601   4.053
10286SOL    HW131757   4.183   0.674   4.063
10286SOL    HW231758   4.236   0.553   3.967
10287SOL     OW31759   2.107   5.396   1.274
10287SOL    HW131760   2.171   5.472   1.276
10287SOL    HW231761   2.046   5.405   1.196
10288SOL     OW31762   5.213   6.448   3.986
10288SOL    HW131763   5.249   6.355   3.980
10288SOL    HW231764   5.258   6.496   4.061
10289SOL     OW31765   2.945   1.266   1.402
10289SOL    HW131766   2.881   1.319   1.458
10289SOL    HW231767   3.036   1.306   1.409
10290SOL     OW31768   2.940   3.642   2.251
10290SOL    HW131769   2.944   3.542   2.261
10290SOL    HW231770   2.953   3.667   2.156
10291SOL     OW31771   4.217   0.423   5.773
10291SOL    HW131772   4.312   0.452   5.780
10291SOL    HW231773   4.162   0.498   5.735
10292SOL     OW31774   0.154   0.746   4.848
10292SOL    HW131775   0.090   0.679   4.885
10292SOL    HW231776   0.136   0.835   4.890
10293SOL     OW31777   2.648   5.878   2.901
10293SOL    HW131778   2.721   5.827   2.856
10293SOL    HW231779   2.683   5.921   2.984
10294SOL     OW31780   5.903   1.845   3.069
10294SOL    HW131781   5.997   1.818   3.086
10294SOL    HW231782   5.850   1.767   3.037
10295SOL     OW31783   1.701   4.320   5.102
10295SOL    HW131784   1.780   4.355   5.151
10295SOL    HW231785   1.722   4.230   5.063
10296SOL     OW31786   6.251   2.350   0.629
10296SOL    HW131787   6.169   2.406   0.628
10296SOL    HW231788   6.290   2.348   0.721
10297SOL     OW31789   2.322   5.528   4.878
10297SOL    HW131790   2.401   5.523   4.940
10297SOL    HW231791   2.278   5.617   4.887
10298SOL     OW31792   5.530   3.817   3.173
10298SOL    HW131793   5.475   3.759   3.113
10298SOL    HW231794   5.496   3.809   3.267
10299SOL     OW31795   4.860   4.157   2.144
10299SOL    HW131796   4.895   4.067   2.121
10299SOL    HW231797   4.765   4.165   2.114
10300SOL     OW31798   2.154   5.044   2.302
10300SOL    HW131799   2.219   4.975   2.272
10300SOL    HW231800   2.143   5.112   2.229
10301SOL     OW31801   5.611   1.569   1.354
10301SOL    HW131802   5.691   1.606   1.399
10301SOL    HW231803   5.556   1.643   1.316
10302SOL     OW31804   1.553   5.135   3.229
10302SOL    HW131805   1.484   5.111   3.297
10302SOL    HW231806   1.524   5.102   3.139
10303SOL     OW31807   3.444   3.172   1.197
10303SOL    HW131808   3.473   3.127   1.112
10303SOL    HW231809   3.344   3.181   1.198
10304SOL     OW31810   6.134   6.647   3.672
10304SOL    HW131811   6.201   6.577   3.645
10304SOL    HW231812   6.044   6.604   3.681
10305SOL     OW31813   1.736   5.626   1.095
10305SOL    HW131814   1.803   5.700   1.094
10305SOL    HW231815   1.696   5.618   1.187
10306SOL     OW31816   4.301   4.891   0.529
10306SOL    HW131817   4.264   4.858   0.443
10306SOL    HW231818   4.235   4.873   0.603
10307SOL     OW31819   3.105   0.818   5.331
10307SOL    HW131820   3.167   0.812   5.409
10307SOL    HW231821   3.141   0.885   5.266
10308SOL     OW31822   3.330   5.468   3.752
10308SOL    HW131823   3.394   5.464   3.675
10308SOL    HW231824   3.378   5.441   3.836
10309SOL     OW31825   0.627   6.271   3.363
10309SOL    HW131826   0.543   6.222   3.386
10309SOL    HW231827   0.642   6.265   3.264
10310SOL     OW31828   3.361   3.284   4.725
10310SOL    HW131829   3.304   3.351   4.772
10310SOL    HW231830   3.312   3.249   4.645
10311SOL     OW31831   0.439   6.275   1.326
10311SOL    HW131832   0.436   6.184   1.367
10311SOL    HW231833   0.353   6.323   1.345
10312SOL     OW31834   2.251   4.590   0.563
10312SOL    HW131835   2.270   4.682   0.598
10312SOL    HW231836   2.214   4.596   0.471
10313SOL     OW31837   5.918   6.448   3.713
10313SOL    HW131838   5.988   6.390   3.754
10313SOL    HW231839   5.831   6.432   3.758
10314SOL     OW31840   6.318   5.059   5.842
10314SOL    HW131841   6.302   4.964   5.867
10314SOL    HW231842   6.266   5.119   5.903
10315SOL     OW31843   5.545   6.110   4.791
10315SOL    HW131844   5.505   6.177   4.729
10315SOL    HW231845   5.639   6.136   4.813
10316SOL     OW31846   0.257   4.040   3.134
10316SOL    HW131847   0.305   4.014   3.218
10316SOL    HW231848   0.281   3.978   3.060
10317SOL     OW31849   3.949   4.624   0.851
10317SOL    HW131850   3.942   4.669   0.762
10317SOL    HW231851   4.043   4.595   0.867
10318SOL     OW31852   6.435   5.897   2.200
10318SOL    HW131853   6.493   5.862   2.126
10318SOL    HW231854   6.349   5.846   2.202
10319SOL     OW31855   4.944   6.045   4.515
10319SOL    HW131856   4.898   5.956   4.526
10319SOL    HW231857   5.025   6.033   4.458
10320SOL     OW31858   4.564   6.214   1.216
10320SOL    HW131859   4.562   6.295   1.157
10320SOL    HW231860   4.562   6.132   1.160
10321SOL     OW31861   3.823   6.844   4.356
10321SOL    HW131862   3.889   6.859   4.429
10321SOL    HW231863   3.730   6.851   4.393
10322SOL     OW31864   6.477   2.806   0.397
10322SOL    HW131865   6.415   2.735   0.365
10322SOL    HW231866   6.565   2.766   0.421
10323SOL     OW31867   6.466   1.887   5.060
10323SOL    HW131868   6.526   1.818   5.099
10323SOL    HW231869   6.518   1.971   5.042
10324SOL     OW31870   3.113   3.047   3.641
10324SOL    HW131871   3.182   3.000   3.695
10324SOL    HW231872   3.040   3.080   3.702
10325SOL     OW31873   0.747   3.870   3.615
10325SOL    HW131874   0.672   3.852   3.550
10325SOL    HW231875   0.773   3.785   3.661
10326SOL     OW31876   4.839   1.441   1.037
10326SOL    HW131877   4.839   1.417   0.940
10326SOL    HW231878   4.808   1.535   1.047
10327SOL     OW31879   6.791   0.827   3.450
10327SOL    HW131880   6.797   0.874   3.362
10327SOL    HW231881   6.714   0.763   3.449
10328SOL     OW31882   6.004   3.111   2.337
10328SOL    HW131883   6.078   3.047   2.315
10328SOL    HW231884   5.920   3.060   2.354
10329SOL     OW31885   3.974   6.481   2.837
10329SOL    HW131886   4.070   6.470   2.864
10329SOL    HW231887   3.931   6.392   2.828
10330SOL     OW31888   3.423   4.384   0.809
10330SOL    HW131889   3.460   4.335   0.729
10330SOL    HW231890   3.418   4.321   0.887
10331SOL     OW31891   5.413   0.617   4.253
10331SOL    HW131892   5.380   0.541   4.309
10331SOL    HW231893   5.509   0.602   4.229
10332SOL     OW31894   0.173   1.880   0.439
10332SOL    HW131895   0.264   1.903   0.405
10332SOL    HW231896   0.175   1.788   0.479
10333SOL     OW31897   5.034   4.409   4.782
10333SOL    HW131898   5.108   4.474   4.799
10333SOL    HW231899   5.049   4.365   4.693
10334SOL     OW31900   1.145   4.990   4.849
10334SOL    HW131901   1.046   4.980   4.852
10334SOL    HW231902   1.169   5.087   4.856
10335SOL     OW31903   2.672   5.368   1.445
10335SOL    HW131904   2.627   5.284   1.477
10335SOL    HW231905   2.623   5.404   1.366
10336SOL     OW31906   4.381   6.298   2.937
10336SOL    HW131907   4.297   6.256   2.972
10336SOL    HW231908   4.458   6.236   2.951
10337SOL     OW31909   1.128   4.740   5.397
10337SOL    HW131910   1.125   4.776   5.304
10337SOL    HW231911   1.203   4.784   5.447
10338SOL     OW31912   3.946   4.876   3.141
10338SOL    HW131913   3.918   4.845   3.051
10338SOL    HW231914   4.014   4.813   3.179
10339SOL     OW31915   3.290   5.618   0.186
10339SOL    HW131916   3.216   5.683   0.204
10339SOL    HW231917   3.265   5.528   0.223
10340SOL     OW31918   2.144   6.809   0.192
10340SOL    HW131919   2.165   6.757   0.276
10340SOL    HW231920   2.172   6.904   0.204
10341SOL     OW31921   1.224   2.594   2.458
10341SOL    HW131922   1.200   2.500   2.437
10341SOL    HW231923   1.316   2.597   2.498
10342SOL     OW31924   3.007   6.374   3.798
10342SOL    HW131925   3.074   6.380   3.724
10342SOL    HW231926   2.949   6.456   3.796
10343SOL     OW31927   2.220   2.967   3.784
10343SOL    HW131928   2.219   2.867   3.795
10343SOL    HW231929   2.225   3.010   3.875
10344SOL     OW31930   4.360   3.781   0.712
10344SOL    HW131931   4.398   3.794   0.803
10344SOL    HW231932   4.424   3.729   0.656
10345SOL     OW31933   1.582   1.454   5.829
10345SOL    HW131934   1.572   1.448   5.929
10345SOL    HW231935   1.533   1.377   5.787
10346SOL     OW31936   5.567   4.964   0.355
10346SOL    HW131937   5.507   4.887   0.333
10346SOL    HW231938   5.599   4.955   0.449
10347SOL     OW31939   5.153   1.032   1.703
10347SOL    HW131940   5.072   0.979   1.728
10347SOL    HW231941   5.134   1.129   1.716
10348SOL     OW31942   6.816   4.891   5.883
10348SOL    HW131943   6.726   4.933   5.884
10348SOL    HW231944   6.884   4.958   5.852
10349SOL     OW31945   6.549   1.916   0.997
10349SOL    HW131946   6.487   1.861   0.942
10349SOL    HW231947   6.633   1.865   1.014
10350SOL     OW31948   2.116   4.564   4.990
10350SOL    HW131949   2.155   4.473   5.003
10350SOL    HW231950   2.103   4.580   4.892
10351SOL     OW31951   4.391   4.692   4.846
10351SOL    HW131952   4.380   4.619   4.913
10351SOL    HW231953   4.306   4.744   4.838
10352SOL     OW31954   6.246   1.114   6.784
10352SOL    HW131955   6.216   1.116   6.689
10352SOL    HW231956   6.289   1.201   6.808
10353SOL     OW31957   6.106   2.573   3.769
10353SOL    HW131958   6.122   2.663   3.729
10353SOL    HW231959   6.065   2.583   3.859
10354SOL     OW31960   6.431   3.025   1.460
10354SOL    HW131961   6.431   2.968   1.542
10354SOL    HW231962   6.339   3.060   1.444
10355SOL     OW31963   0.610   1.794   0.812
10355SOL    HW131964   0.536   1.737   0.849
10355SOL    HW231965   0.627   1.870   0.874
10356SOL     OW31966   6.185   3.571   5.278
10356SOL    HW131967   6.160   3.663   5.308
10356SOL    HW231968   6.117   3.537   5.213
10357SOL     OW31969   1.363   0.675   5.765
10357SOL    HW131970   1.421   0.672   5.847
10357SOL    HW231971   1.412   0.722   5.692
10358SOL     OW31972   0.783   3.245   3.106
10358SOL    HW131973   0.779   3.155   3.150
10358SOL    HW231974   0.870   3.253   3.056
10359SOL     OW31975   6.697   2.316   2.274
10359SOL    HW131976   6.690   2.224   2.314
10359SOL    HW231977   6.668   2.312   2.178
10360SOL     OW31978   5.635   4.329   1.471
10360SOL    HW131979   5.650   4.243   1.421
10360SOL    HW231980   5.618   4.309   1.567
10361SOL     OW31981   6.405   2.155   2.184
10361SOL    HW131982   6.402   2.201   2.273
10361SOL    HW231983   6.361   2.065   2.192
10362SOL     OW31984   1.560   6.093   1.993
10362SOL    HW131985   1.543   6.044   1.908
10362SOL    HW231986   1.657   6.118   1.998
10363SOL     OW31987   5.334   4.207   6.351
10363SOL    HW131988   5.277   4.289   6.353
10363SOL    HW231989   5.294   4.136   6.409
10364SOL     OW31990   6.037   4.806   2.022
10364SOL    HW131991   5.975   4.753   2.079
10364SOL    HW231992   6.039   4.901   2.055
10365SOL     OW31993   5.876   4.913   0.765
10365SOL    HW131994   5.939   4.913   0.843
10365SOL    HW231995   5.913   4.968   0.691
10366SOL     OW31996   3.101   6.145   3.389
10366SOL    HW131997   3.129   6.150   3.293
10366SOL    HW231998   3.036   6.070   3.402
10367SOL     OW31999   5.543   6.317   1.747
10367SOL    HW132000   5.592   6.230   1.752
10367SOL    HW232001   5.498   6.325   1.658
10368SOL     OW32002   2.577   6.184   1.275
10368SOL    HW132003   2.592   6.267   1.220
10368SOL    HW232004   2.493   6.194   1.328
10369SOL     OW32005   2.630   0.212   5.907
10369SOL    HW132006   2.530   0.215   5.901
10369SOL    HW232007   2.667   0.162   5.829
10370SOL     OW32008   1.316   1.352   5.204
10370SOL    HW132009   1.319   1.312   5.296
10370SOL    HW232010   1.408   1.358   5.167
10371SOL     OW32011   4.621   5.288   2.668
10371SOL    HW132012   4.522   5.295   2.679
10371SOL    HW232013   4.663   5.378   2.680
10372SOL     OW32014   2.497   6.551   1.601
10372SOL    HW132015   2.499   6.455   1.628
10372SOL    HW232016   2.405   6.576   1.572
10373SOL     OW32017   6.677   1.394   5.922
10373SOL    HW132018   6.744   1.320   5.911
10373SOL    HW232019   6.591   1.357   5.955
10374SOL     OW32020   3.581   5.214   3.494
10374SOL    HW132021   3.612   5.210   3.400
10374SOL    HW232022   3.563   5.122   3.527
10375SOL     OW32023   2.517   5.091   0.418
10375SOL    HW132024   2.543   5.130   0.330
10375SOL    HW232025   2.545   4.996   0.422
10376SOL     OW32026   1.881   5.348   4.471
10376SOL    HW132027   1.873   5.257   4.432
10376SOL    HW232028   1.927   5.344   4.559
10377SOL     OW32029   1.682   0.987   2.731
10377SOL    HW132030   1.682   0.961   2.827
10377SOL    HW232031   1.703   1.084   2.722
10378SOL     OW32032   0.088   5.657   4.222
10378SOL    HW132033   0.118   5.750   4.199
10378SOL    HW232034   0.082   5.602   4.138
10379SOL     OW32035   1.988   0.044   4.221
10379SOL    HW132036   2.037   0.086   4.297
10379SOL    HW232037   1.897   0.083   4.215
10380SOL     OW32038   3.105   2.047   4.447
10380SOL    HW132039   3.059   1.968   4.486
10380SOL    HW232040   3.050   2.085   4.373
10381SOL     OW32041   4.569   6.401   1.637
10381SOL    HW132042   4.592   6.384   1.733
10381SOL    HW232043   4.491   6.464   1.633
10382SOL     OW32044   4.430   5.447   1.505
10382SOL    HW132045   4.374   5.437   1.423
10382SOL    HW232046   4.418   5.539   1.543
10383SOL     OW32047   1.403   5.123   0.320
10383SOL    HW132048   1.371   5.078   0.403
10383SOL    HW232049   1.330   5.180   0.282
10384SOL     OW32050   5.539   5.862   1.526
10384SOL    HW132051   5.511   5.815   1.610
10384SOL    HW232052   5.638   5.854   1.515
10385SOL     OW32053   4.312   4.499   0.352
10385SOL    HW132054   4.242   4.431   0.377
10385SOL    HW232055   4.268   4.586   0.330
10386SOL     OW32056   0.133   0.923   0.772
10386SOL    HW132057   0.164   0.831   0.746
10386SOL    HW232058   0.034   0.928   0.761
10387SOL     OW32059   5.504   3.001   1.892
10387SOL    HW132060   5.465   2.948   1.967
10387SOL    HW232061   5.443   3.077   1.868
10388SOL     OW32062   2.240   6.763   5.364
10388SOL    HW132063   2.229   6.829   5.438
10388SOL    HW232064   2.203   6.801   5.280
10389SOL     OW32065   0.335   4.362   0.329
10389SOL    HW132066   0.414   4.423   0.330
10389SOL    HW232067   0.286   4.371   0.416
10390SOL     OW32068   2.552   2.572   1.684
10390SOL    HW132069   2.596   2.502   1.741
10390SOL    HW232070   2.614   2.597   1.609
10391SOL     OW32071   5.376   6.735   4.530
10391SOL    HW132072   5.355   6.828   4.501
10391SOL    HW232073   5.295   6.678   4.519
10392SOL     OW32074   6.459   3.840   4.107
10392SOL    HW132075   6.411   3.752   4.105
10392SOL    HW232076   6.400   3.911   4.068
10393SOL     OW32077   1.419   3.455   4.243
10393SOL    HW132078   1.477   3.511   4.183
10393SOL    HW232079   1.324   3.462   4.212
10394SOL     OW32080   3.285   0.256   4.283
10394SOL    HW132081   3.219   0.324   4.251
10394SOL    HW232082   3.237   0.177   4.321
10395SOL     OW32083   0.999   0.732   0.707
10395SOL    HW132084   1.041   0.653   0.750
10395SOL    HW232085   1.066   0.780   0.650
10396SOL     OW32086   2.872   2.098   4.632
10396SOL    HW132087   2.818   2.175   4.599
10396SOL    HW232088   2.835   2.013   4.594
10397SOL     OW32089   3.699   1.767   3.346
10397SOL    HW132090   3.644   1.795   3.425
10397SOL    HW232091   3.718   1.848   3.289
10398SOL     OW32092   6.162   2.975   1.406
10398SOL    HW132093   6.100   3.001   1.480
10398SOL    HW232094   6.170   2.876   1.401
10399SOL     OW32095   0.958   4.137   1.665
10399SOL    HW132096   1.022   4.063   1.685
10399SOL    HW232097   0.993   4.191   1.589
10400SOL     OW32098   3.863   6.100   0.630
10400SOL    HW132099   3.882   6.054   0.716
10400SOL    HW232100   3.765   6.122   0.624
10401SOL     OW32101   0.489   1.486   6.030
10401SOL    HW132102   0.507   1.460   6.125
10401SOL    HW232103   0.391   1.496   6.016
10402SOL     OW32104   0.198   2.820   4.797
10402SOL    HW132105   0.136   2.841   4.872
10402SOL    HW232106   0.281   2.778   4.833
10403SOL     OW32107   2.890   0.537   1.821
10403SOL    HW132108   2.888   0.635   1.841
10403SOL    HW232109   2.809   0.493   1.860
10404SOL     OW32110   0.219   6.780   6.013
10404SOL    HW132111   0.219   6.780   6.113
10404SOL    HW232112   0.229   6.874   5.980
10405SOL     OW32113   0.062   2.277   6.672
10405SOL    HW132114   0.100   2.292   6.581
10405SOL    HW232115   0.061   2.364   6.722
10406SOL     OW32116   2.798   4.785   1.367
10406SOL    HW132117   2.849   4.869   1.349
10406SOL    HW232118   2.732   4.768   1.293
10407SOL     OW32119   3.097   6.990   6.611
10407SOL    HW132120   3.119   6.930   6.688
10407SOL    HW232121   3.080   0.057   6.644
10408SOL     OW32122   3.964   1.672   6.822
10408SOL    HW132123   4.063   1.658   6.811
10408SOL    HW232124   3.923   1.691   6.733
10409SOL     OW32125   6.060   4.747   1.268
10409SOL    HW132126   6.010   4.791   1.343
10409SOL    HW232127   6.004   4.673   1.230
10410SOL     OW32128   5.909   0.738   0.867
10410SOL    HW132129   5.848   0.816   0.848
10410SOL    HW232130   6.004   0.768   0.863
10411SOL     OW32131   2.598   5.253   3.463
10411SOL    HW132132   2.603   5.325   3.393
10411SOL    HW232133   2.505   5.251   3.501
10412SOL     OW32134   6.661   0.330   0.768
10412SOL    HW132135   6.579   0.275   0.751
10412SOL    HW232136   6.698   0.361   0.680
10413SOL     OW32137   6.988   2.730   1.379
10413SOL    HW132138   0.016   2.775   1.306
10413SOL    HW232139   6.899   2.774   1.387
10414SOL     OW32140   4.410   2.499   4.086
10414SOL    HW132141   4.467   2.576   4.113
10414SOL    HW232142   4.425   2.478   3.990
10415SOL     OW32143   0.706   6.077   6.250
10415SOL    HW132144   0.794   6.061   6.293
10415SOL    HW232145   0.636   6.023   6.297
10416SOL     OW32146   5.393   2.502   3.914
10416SOL    HW132147   5.351   2.458   3.994
10416SOL    HW232148   5.468   2.445   3.881
10417SOL     OW32149   2.549   4.818   4.185
10417SOL    HW132150   2.610   4.741   4.204
10417SOL    HW232151   2.586   4.871   4.109
10418SOL     OW32152   0.794   4.511   5.920
10418SOL    HW132153   0.844   4.536   5.837
10418SOL    HW232154   0.858   4.505   5.997
10419SOL     OW32155   1.604   0.905   0.928
10419SOL    HW132156   1.518   0.942   0.893
10419SOL    HW232157   1.633   0.957   1.008
10420SOL     OW32158   0.610   3.229   3.425
10420SOL    HW132159   0.602   3.171   3.344
10420SOL    HW232160   0.706   3.253   3.440
10421SOL     OW32161   0.125   0.767   2.729
10421SOL    HW132162   0.204   0.705   2.724
10421SOL    HW232163   0.155   0.856   2.763
10422SOL     OW32164   6.310   2.855   6.226
10422SOL    HW132165   6.398   2.873   6.269
10422SOL    HW232166   6.319   2.865   6.127
10423SOL     OW32167   5.204   4.310   3.342
10423SOL    HW132168   5.171   4.220   3.316
10423SOL    HW232169   5.245   4.305   3.434
10424SOL     OW32170   5.138   2.170   6.732
10424SOL    HW132171   5.164   2.208   6.643
10424SOL    HW232172   5.122   2.072   6.723
10425SOL     OW32173   2.059   6.361   2.385
10425SOL    HW132174   2.000   6.355   2.304
10425SOL    HW232175   2.027   6.436   2.443
10426SOL     OW32176   6.721   4.415   0.132
10426SOL    HW132177   6.762   4.482   0.070
10426SOL    HW232178   6.760   4.426   0.223
10427SOL     OW32179   5.393   2.145   0.083
10427SOL    HW132180   5.426   2.107   7.021
10427SOL    HW232181   5.375   2.071   0.147
10428SOL     OW32182   4.573   0.331   4.298
10428SOL    HW132183   4.646   0.399   4.305
10428SOL    HW232184   4.591   0.272   4.219
10429SOL     OW32185   6.072   5.906   1.896
10429SOL    HW132186   6.015   5.953   1.963
10429SOL    HW232187   6.090   5.812   1.926
10430SOL     OW32188   4.114   6.616   2.203
10430SOL    HW132189   4.115   6.707   2.244
10430SOL    HW232190   4.095   6.548   2.273
10431SOL     OW32191   2.781   0.049   4.573
10431SOL    HW132192   2.694   0.059   4.623
10431SOL    HW232193   2.771   0.088   4.481
10432SOL     OW32194   5.733   0.611   5.541
10432SOL    HW132195   5.650   0.639   5.492
10432SOL    HW232196   5.708   0.579   5.633
10433SOL     OW32197   2.415   6.956   0.659
10433SOL    HW132198   2.447   6.948   0.753
10433SOL    HW232199   2.317   6.979   0.660
10434SOL     OW32200   1.913   1.001   3.706
10434SOL    HW132201   1.958   1.090   3.697
10434SOL    HW232202   1.944   0.956   3.789
10435SOL     OW32203   5.067   6.745   6.691
10435SOL    HW132204   5.138   6.805   6.654
10435SOL    HW232205   4.988   6.747   6.631
10436SOL     OW32206   1.615   5.385   3.339
10436SOL    HW132207   1.600   5.298   3.291
10436SOL    HW232208   1.543   5.397   3.407
10437SOL     OW32209   6.903   5.199   6.409
10437SOL    HW132210   6.855   5.232   6.328
10437SOL    HW232211   6.853   5.227   6.491
10438SOL     OW32212   4.164   6.236   0.152
10438SOL    HW132213   4.136   6.146   0.186
10438SOL    HW232214   4.239   6.225   0.087
10439SOL     OW32215   3.727   0.182   5.907
10439SOL    HW132216   3.817   0.197   5.866
10439SOL    HW232217   3.721   0.232   5.994
10440SOL     OW32218   2.133   6.062   0.831
10440SOL    HW132219   2.086   6.086   0.917
10440SOL    HW232220   2.168   6.146   0.789
10441SOL     OW32221   5.475   2.004   6.447
10441SOL    HW132222   5.417   1.990   6.366
10441SOL    HW232223   5.468   1.924   6.506
10442SOL     OW32224   4.174   4.920   5.839
10442SOL    HW132225   4.153   4.893   5.933
10442SOL    HW232226   4.225   4.846   5.794
10443SOL     OW32227   6.304   2.734   4.898
10443SOL    HW132228   6.288   2.785   4.814
10443SOL    HW232229   6.220   2.736   4.954
10444SOL     OW32230   3.979   4.869   4.076
10444SOL    HW132231   3.909   4.834   4.014
10444SOL    HW232232   3.939   4.878   4.168
10445SOL     OW32233   6.864   5.769   5.223
10445SOL    HW132234   6.765   5.770   5.238
10445SOL    HW232235   6.885   5.816   5.137
10446SOL     OW32236   0.991   5.267   6.004
10446SOL    HW132237   0.968   5.271   6.101
10446SOL    HW232238   1.091   5.271   5.994
10447SOL     OW32239   5.857   2.597   1.685
10447SOL    HW132240   5.929   2.543   1.729
10447SOL    HW232241   5.798   2.537   1.631
10448SOL     OW32242   3.660   3.993   2.559
10448SOL    HW132243   3.740   3.936   2.580
10448SOL    HW232244   3.610   3.953   2.482
10449SOL     OW32245   2.554   5.374   4.304
10449SOL    HW132246   2.550   5.318   4.221
10449SOL    HW232247   2.599   5.460   4.284
10450SOL     OW32248   6.492   2.377   1.166
10450SOL    HW132249   6.554   2.455   1.177
10450SOL    HW232250   6.543   2.292   1.179
10451SOL     OW32251   2.613   4.624   2.941
10451SOL    HW132252   2.673   4.674   3.002
10451SOL    HW232253   2.637   4.527   2.942
10452SOL     OW32254   0.975   2.990   4.404
10452SOL    HW132255   0.947   2.895   4.388
10452SOL    HW232256   1.034   3.021   4.329
10453SOL     OW32257   4.863   0.114   1.539
10453SOL    HW132258   4.772   0.154   1.530
10453SOL    HW232259   4.930   0.188   1.548
10454SOL     OW32260   5.183   3.125   2.094
10454SOL    HW132261   5.088   3.119   2.123
10454SOL    HW232262   5.223   3.210   2.129
10455SOL     OW32263   0.088   5.222   3.465
10455SOL    HW132264   0.068   5.320   3.462
10455SOL    HW232265   0.178   5.205   3.423
10456SOL     OW32266   4.558   5.716   1.110
10456SOL    HW132267   4.639   5.667   1.078
10456SOL    HW232268   4.566   5.813   1.086
10457SOL     OW32269   4.064   3.783   3.809
10457SOL    HW132270   4.132   3.789   3.736
10457SOL    HW232271   4.035   3.687   3.819
10458SOL     OW32272   1.079   6.620   1.178
10458SOL    HW132273   0.982   6.598   1.181
10458SOL    HW232274   1.095   6.691   1.109
10459SOL     OW32275   6.565   5.189   2.492
10459SOL    HW132276   6.505   5.108   2.484
10459SOL    HW232277   6.659   5.159   2.505
10460SOL     OW32278   2.077   5.086   2.556
10460SOL    HW132279   2.122   5.065   2.469
10460SOL    HW232280   2.074   5.186   2.569
10461SOL     OW32281   2.812   2.018   6.763
10461SOL    HW132282   2.757   1.978   6.836
10461SOL    HW232283   2.758   2.088   6.715
10462SOL     OW32284   0.133   6.985   0.978
10462SOL    HW132285   0.226   6.996   0.943
10462SOL    HW232286   0.106   6.889   0.970
10463SOL     OW32287   3.032   4.121   0.754
10463SOL    HW132288   2.982   4.034   0.765
10463SOL    HW232289   3.097   4.113   0.679
10464SOL     OW32290   4.946   0.747   1.437
10464SOL    HW132291   4.850   0.722   1.422
10464SOL    HW232292   4.991   0.758   1.348
10465SOL     OW32293   6.132   5.039   6.235
10465SOL    HW132294   6.131   5.032   6.335
10465SOL    HW232295   6.144   5.134   6.209
10466SOL     OW32296   4.764   5.953   5.835
10466SOL    HW132297   4.728   6.030   5.887
10466SOL    HW232298   4.707   5.872   5.849
10467SOL     OW32299   3.571   0.594   4.425
10467SOL    HW132300   3.631   0.608   4.504
10467SOL    HW232301   3.608   0.643   4.346
10468SOL     OW32302   3.843   6.237   2.814
10468SOL    HW132303   3.935   6.200   2.829
10468SOL    HW232304   3.781   6.198   2.882
10469SOL     OW32305   1.552   4.670   0.870
10469SOL    HW132306   1.604   4.610   0.808
10469SOL    HW232307   1.571   4.644   0.964
10470SOL     OW32308   2.895   1.434   4.413
10470SOL    HW132309   2.860   1.385   4.493
10470SOL    HW232310   2.982   1.477   4.436
10471SOL     OW32311   4.058   3.217   0.686
10471SOL    HW132312   4.129   3.150   0.666
10471SOL    HW232313   4.002   3.232   0.604
10472SOL     OW32314   4.649   0.746   2.483
10472SOL    HW132315   4.581   0.716   2.550
10472SOL    HW232316   4.695   0.829   2.516
10473SOL     OW32317   4.935   5.781   0.650
10473SOL    HW132318   4.882   5.705   0.614
10473SOL    HW232319   4.906   5.800   0.744
10474SOL     OW32320   4.022   0.119   4.873
10474SOL    HW132321   4.035   0.029   4.915
10474SOL    HW232322   4.000   0.186   4.943
10475SOL     OW32323   3.786   6.484   1.654
10475SOL    HW132324   3.847   6.407   1.673
10475SOL    HW232325   3.770   6.536   1.738
10476SOL     OW32326   0.323   4.844   0.755
10476SOL    HW132327   0.323   4.760   0.809
10476SOL    HW232328   0.239   4.851   0.702
10477SOL     OW32329   5.586   4.240   5.026
10477SOL    HW132330   5.660   4.252   4.960
10477SOL    HW232331   5.541   4.152   5.012
10478SOL     OW32332   0.553   6.864   1.486
10478SOL    HW132333   0.552   6.768   1.513
10478SOL    HW232334   0.644   6.902   1.500
10479SOL     OW32335   1.672   4.677   3.478
10479SOL    HW132336   1.591   4.725   3.513
10479SOL    HW232337   1.730   4.648   3.554
10480SOL     OW32338   5.893   6.990   2.126
10480SOL    HW132339   5.884   0.061   2.153
10480SOL    HW232340   5.850   6.976   2.037
10481SOL     OW32341   2.220   0.664   5.098
10481SOL    HW132342   2.215   0.724   5.019
10481SOL    HW232343   2.130   0.625   5.117
10482SOL     OW32344   1.279   5.343   5.999
10482SOL    HW132345   1.342   5.266   6.010
10482SOL    HW232346   1.332   5.427   5.982
10483SOL     OW32347   0.158   5.327   0.797
10483SOL    HW132348   0.062   5.351   0.807
10483SOL    HW232349   0.214   5.408   0.819
10484SOL     OW32350   5.971   1.693   1.768
10484SOL    HW132351   5.894   1.752   1.794
10484SOL    HW232352   6.002   1.641   1.848
10485SOL     OW32353   3.745   3.693   3.741
10485SOL    HW132354   3.794   3.606   3.738
10485SOL    HW232355   3.747   3.729   3.835
10486SOL     OW32356   5.646   6.023   5.603
10486SOL    HW132357   5.727   6.070   5.639
10486SOL    HW232358   5.657   6.008   5.505
10487SOL     OW32359   4.776   2.148   2.063
10487SOL    HW132360   4.730   2.073   2.110
10487SOL    HW232361   4.754   2.145   1.966
10488SOL     OW32362   6.366   2.639   5.308
10488SOL    HW132363   6.323   2.587   5.381
10488SOL    HW232364   6.437   2.698   5.346
10489SOL     OW32365   5.973   4.164   4.461
10489SOL    HW132366   5.931   4.229   4.398
10489SOL    HW232367   6.028   4.098   4.409
10490SOL     OW32368   5.783   6.478   6.754
10490SOL    HW132369   5.687   6.508   6.750
10490SOL    HW232370   5.786   6.384   6.788
10491SOL     OW32371   1.945   2.733   5.619
10491SOL    HW132372   2.000   2.672   5.675
10491SOL    HW232373   1.865   2.764   5.671
10492SOL     OW32374   3.640   0.148   7.020
10492SOL    HW132375   3.608   0.190   6.935
10492SOL    HW232376   3.736   0.169   0.009
10493SOL     OW32377   4.060   5.181   1.378
10493SOL    HW132378   3.979   5.125   1.362
10493SOL    HW232379   4.141   5.123   1.380
10494SOL     OW32380   1.229   4.212   5.055
10494SOL    HW132381   1.133   4.227   5.077
10494SOL    HW232382   1.281   4.196   5.139
10495SOL     OW32383   6.751   6.621   1.080
10495SOL    HW132384   6.792   6.591   0.994
10495SOL    HW232385   6.659   6.583   1.089
10496SOL     OW32386   0.771   3.324   5.924
10496SOL    HW132387   0.725   3.342   6.010
10496SOL    HW232388   0.779   3.410   5.872
10497SOL     OW32389   1.802   0.094   1.440
10497SOL    HW132390   1.767   0.069   1.530
10497SOL    HW232391   1.835   0.189   1.443
10498SOL     OW32392   4.646   4.189   0.157
10498SOL    HW132393   4.591   4.129   0.099
10498SOL    HW232394   4.633   4.165   0.253
10499SOL     OW32395   5.964   4.265   2.465
10499SOL    HW132396   5.999   4.310   2.547
10499SOL    HW232397   5.923   4.332   2.404
10500SOL     OW32398   1.054   3.211   5.165
10500SOL    HW132399   1.059   3.120   5.205
10500SOL    HW232400   1.046   3.279   5.238
10501SOL     OW32401   3.703   4.869   2.629
10501SOL    HW132402   3.619   4.916   2.602
10501SOL    HW232403   3.748   4.833   2.548
10502SOL     OW32404   3.331   3.670   2.215
10502SOL    HW132405   3.235   3.673   2.189
10502SOL    HW232406   3.377   3.754   2.185
10503SOL     OW32407   6.887   2.303   6.133
10503SOL    HW132408   6.943   2.352   6.200
10503SOL    HW232409   6.796   2.285   6.172
10504SOL     OW32410   0.931   2.954   5.895
10504SOL    HW132411   0.941   3.039   5.842
10504SOL    HW232412   0.915   2.878   5.832
10505SOL     OW32413   5.940   6.809   1.000
10505SOL    HW132414   5.888   6.885   0.962
10505SOL    HW232415   5.881   6.753   1.058
10506SOL     OW32416   1.549   2.740   6.561
10506SOL    HW132417   1.592   2.827   6.586
10506SOL    HW232418   1.490   2.710   6.635
10507SOL     OW32419   0.795   5.389   5.863
10507SOL    HW132420   0.773   5.457   5.933
10507SOL    HW232421   0.872   5.333   5.894
10508SOL     OW32422   1.679   4.997   5.104
10508SOL    HW132423   1.684   4.921   5.039
10508SOL    HW232424   1.646   4.963   5.192
10509SOL     OW32425   4.444   2.497   2.647
10509SOL    HW132426   4.505   2.566   2.608
10509SOL    HW232427   4.379   2.468   2.577
10510SOL     OW32428   5.596   6.056   3.877
10510SOL    HW132429   5.642   6.065   3.965
10510SOL    HW232430   5.593   6.145   3.831
10511SOL     OW32431   4.752   2.253   1.447
10511SOL    HW132432   4.783   2.213   1.361
10511SOL    HW232433   4.831   2.273   1.504
10512SOL     OW32434   4.513   0.580   5.192
10512SOL    HW132435   4.477   0.587   5.285
10512SOL    HW232436   4.528   0.672   5.155
10513SOL     OW32437   4.345   2.898   0.983
10513SOL    HW132438   4.443   2.902   0.962
10513SOL    HW232439   4.331   2.855   1.071
10514SOL     OW32440   1.568   3.250   1.808
10514SOL    HW132441   1.530   3.306   1.883
10514SOL    HW232442   1.496   3.230   1.742
10515SOL     OW32443   2.395   2.752   4.884
10515SOL    HW132444   2.370   2.796   4.797
10515SOL    HW232445   2.409   2.821   4.954
10516SOL     OW32446   4.026   2.197   1.541
10516SOL    HW132447   4.079   2.237   1.616
10516SOL    HW232448   4.074   2.118   1.505
10517SOL     OW32449   1.174   2.574   2.856
10517SOL    HW132450   1.100   2.604   2.916
10517SOL    HW232451   1.138   2.514   2.785
10518SOL     OW32452   0.592   5.345   2.893
10518SOL    HW132453   0.682   5.377   2.863
10518SOL    HW232454   0.595   5.246   2.907
10519SOL     OW32455   4.096   6.889   1.074
10519SOL    HW132456   4.057   6.847   1.156
10519SOL    HW232457   4.034   6.874   0.997
10520SOL     OW32458   0.839   2.788   5.712
10520SOL    HW132459   0.756   2.760   5.664
10520SOL    HW232460   0.903   2.828   5.647
10521SOL     OW32461   6.724   3.076   2.327
10521SOL    HW132462   6.737   2.985   2.288
10521SOL    HW232463   6.798   3.096   2.391
10522SOL     OW32464   5.263   2.237   3.774
10522SOL    HW132465   5.197   2.233   3.849
10522SOL    HW232466   5.297   2.144   3.754
10523SOL     OW32467   1.092   4.404   3.134
10523SOL    HW132468   1.084   4.462   3.053
10523SOL    HW232469   1.059   4.312   3.112
10524SOL     OW32470   0.099   6.112   5.079
10524SOL    HW132471   0.001   6.111   5.098
10524SOL    HW232472   0.149   6.079   5.159
10525SOL     OW32473   5.039   1.487   3.551
10525SOL    HW132474   5.001   1.424   3.617
10525SOL    HW232475   5.007   1.463   3.459
10526SOL     OW32476   0.739   4.836   0.084
10526SOL    HW132477   0.830   4.814   0.050
10526SOL    HW232478   0.694   4.753   0.115
10527SOL     OW32479   0.543   0.027   5.211
10527SOL    HW132480   0.559   0.065   5.302
10527SOL    HW232481   0.500   6.962   5.219
10528SOL     OW32482   1.564   3.500   5.491
10528SOL    HW132483   1.519   3.441   5.423
10528SOL    HW232484   1.663   3.486   5.487
10529SOL     OW32485   0.150   6.104   0.813
10529SOL    HW132486   0.151   6.180   0.878
10529SOL    HW232487   0.238   6.056   0.818
10530SOL     OW32488   6.837   6.087   1.320
10530SOL    HW132489   6.814   6.147   1.243
10530SOL    HW232490   6.918   6.033   1.296
10531SOL     OW32491   2.823   3.303   5.306
10531SOL    HW132492   2.735   3.344   5.331
10531SOL    HW232493   2.816   3.203   5.310
10532SOL     OW32494   5.268   6.316   6.983
10532SOL    HW132495   5.208   6.380   6.935
10532SOL    HW232496   5.322   6.366   0.025
10533SOL     OW32497   4.139   6.742   2.777
10533SOL    HW132498   4.095   6.659   2.742
10533SOL    HW232499   4.223   6.717   2.824
10534SOL     OW32500   1.343   5.859   4.315
10534SOL    HW132501   1.387   5.771   4.294
10534SOL    HW232502   1.270   5.876   4.249
10535SOL     OW32503   3.606   1.999   2.414
10535SOL    HW132504   3.567   2.043   2.495
10535SOL    HW232505   3.576   2.049   2.332
10536SOL     OW32506   4.781   2.967   4.599
10536SOL    HW132507   4.785   3.054   4.647
10536SOL    HW232508   4.754   2.895   4.663
10537SOL     OW32509   3.614   6.825   4.090
10537SOL    HW132510   3.617   6.875   4.003
10537SOL    HW232511   3.594   6.889   4.164
10538SOL     OW32512   0.603   3.830   2.804
10538SOL    HW132513   0.576   3.868   2.893
10538SOL    HW232514   0.524   3.787   2.761
10539SOL     OW32515   6.656   6.955   3.241
10539SOL    HW132516   6.730   7.021   3.225
10539SOL    HW232517   6.658   6.925   3.336
10540SOL     OW32518   1.873   4.216   6.266
10540SOL    HW132519   1.958   4.267   6.280
10540SOL    HW232520   1.804   4.277   6.227
10541SOL     OW32521   3.428   3.475   5.059
10541SOL    HW132522   3.458   3.525   5.140
10541SOL    HW232523   3.491   3.494   4.984
10542SOL     OW32524   4.550   0.009   4.124
10542SOL    HW132525   4.649   7.020   4.132
10542SOL    HW232526   4.532   0.077   4.053
10543SOL     OW32527   1.372   3.495   4.836
10543SOL    HW132528   1.405   3.555   4.908
10543SOL    HW232529   1.276   3.518   4.815
10544SOL     OW32530   2.379   1.474   3.373
10544SOL    HW132531   2.319   1.492   3.451
10544SOL    HW232532   2.330   1.488   3.288
10545SOL     OW32533   2.236   2.823   2.521
10545SOL    HW132534   2.292   2.746   2.491
10545SOL    HW232535   2.204   2.874   2.441
10546SOL     OW32536   3.316   6.713   6.516
10546SOL    HW132537   3.332   6.620   6.483
10546SOL    HW232538   3.298   6.710   6.614
10547SOL     OW32539   4.507   6.470   5.334
10547SOL    HW132540   4.411   6.487   5.354
10547SOL    HW232541   4.521   6.471   5.235
10548SOL     OW32542   6.703   5.765   3.003
10548SOL    HW132543   6.726   5.850   2.955
10548SOL    HW232544   6.664   5.787   3.093
10549SOL     OW32545   0.170   0.606   1.550
10549SOL    HW132546   0.183   0.705   1.556
10549SOL    HW232547   0.181   0.577   1.455
10550SOL     OW32548   4.819   5.573   3.252
10550SOL    HW132549   4.896   5.521   3.216
10550SOL    HW232550   4.829   5.585   3.351
10551SOL     OW32551   3.113   1.037   5.725
10551SOL    HW132552   3.085   1.098   5.651
10551SOL    HW232553   3.211   1.017   5.717
10552SOL     OW32554   3.032   0.345   3.856
10552SOL    HW132555   2.963   0.273   3.844
10552SOL    HW232556   3.066   0.374   3.767
10553SOL     OW32557   6.722   5.605   1.393
10553SOL    HW132558   6.746   5.701   1.407
10553SOL    HW232559   6.802   5.556   1.356
10554SOL     OW32560   5.477   6.101   2.394
10554SOL    HW132561   5.434   6.099   2.304
10554SOL    HW232562   5.499   6.196   2.417
10555SOL     OW32563   3.993   3.758   1.193
10555SOL    HW132564   4.071   3.730   1.250
10555SOL    HW232565   3.931   3.681   1.181
10556SOL     OW32566   1.968   1.517   2.719
10556SOL    HW132567   1.948   1.475   2.808
10556SOL    HW232568   1.930   1.460   2.646
10557SOL     OW32569   2.883   4.840   3.605
10557SOL    HW132570   2.975   4.877   3.621
10557SOL    HW232571   2.849   4.798   3.689
10558SOL     OW32572   3.741   5.281   5.275
10558SOL    HW132573   3.644   5.275   5.298
10558SOL    HW232574   3.788   5.339   5.341
10559SOL     OW32575   4.241   6.568   1.019
10559SOL    HW132576   4.155   6.558   1.069
10559SOL    HW232577   4.286   6.653   1.046
10560SOL     OW32578   5.409   6.843   2.247
10560SOL    HW132579   5.498   6.882   2.225
10560SOL    HW232580   5.342   6.916   2.258
10561SOL     OW32581   6.466   4.455   0.260
10561SOL    HW132582   6.518   4.374   0.232
10561SOL    HW232583   6.447   4.512   0.180
10562SOL     OW32584   4.571   5.776   2.368
10562SOL    HW132585   4.598   5.787   2.464
10562SOL    HW232586   4.487   5.829   2.350
10563SOL     OW32587   0.483   6.689   2.122
10563SOL    HW132588   0.392   6.726   2.139
10563SOL    HW232589   0.532   6.746   2.056
10564SOL     OW32590   5.270   4.343   3.631
10564SOL    HW132591   5.321   4.418   3.588
10564SOL    HW232592   5.173   4.367   3.637
10565SOL     OW32593   0.594   0.326   6.400
10565SOL    HW132594   0.602   0.238   6.354
10565SOL    HW232595   0.601   0.400   6.333
10566SOL     OW32596   3.614   3.100   0.053
10566SOL    HW132597   3.706   3.100   0.091
10566SOL    HW232598   3.608   3.167   7.004
10567SOL     OW32599   1.211   2.483   6.542
10567SOL    HW132600   1.290   2.466   6.600
10567SOL    HW232601   1.205   2.412   6.471
10568SOL     OW32602   4.705   2.373   5.989
10568SOL    HW132603   4.675   2.296   6.044
10568SOL    HW232604   4.627   2.410   5.938
10569SOL     OW32605   5.766   7.002   0.277
10569SOL    HW132606   5.716   0.051   0.323
10569SOL    HW232607   5.751   7.008   0.179
10570SOL     OW32608   1.233   4.410   3.385
10570SOL    HW132609   1.204   4.417   3.289
10570SOL    HW232610   1.333   4.413   3.390
10571SOL     OW32611   6.591   4.393   5.755
10571SOL    HW132612   6.665   4.361   5.696
10571SOL    HW232613   6.569   4.488   5.732
10572SOL     OW32614   6.148   4.134   0.935
10572SOL    HW132615   6.087   4.090   0.869
10572SOL    HW232616   6.093   4.178   1.007
10573SOL     OW32617   6.175   1.985   2.914
10573SOL    HW132618   6.088   2.003   2.869
10573SOL    HW232619   6.227   1.919   2.860
10574SOL     OW32620   6.405   3.175   2.756
10574SOL    HW132621   6.483   3.144   2.701
10574SOL    HW232622   6.376   3.265   2.723
10575SOL     OW32623   6.047   6.769   1.534
10575SOL    HW132624   6.053   6.728   1.625
10575SOL    HW232625   5.971   6.834   1.532
10576SOL     OW32626   1.937   4.425   4.578
10576SOL    HW132627   1.913   4.412   4.482
10576SOL    HW232628   1.867   4.385   4.636
10577SOL     OW32629   3.515   4.244   0.597
10577SOL    HW132630   3.480   4.157   0.563
10577SOL    HW232631   3.614   4.250   0.579
10578SOL     OW32632   0.200   3.571   3.957
10578SOL    HW132633   0.115   3.519   3.967
10578SOL    HW232634   0.183   3.652   3.900
10579SOL     OW32635   0.895   3.347   6.783
10579SOL    HW132636   0.872   3.443   6.795
10579SOL    HW232637   0.873   3.297   6.866
10580SOL     OW32638   6.292   0.025   0.624
10580SOL    HW132639   6.326   0.033   0.530
10580SOL    HW232640   6.342   0.089   0.682
10581SOL     OW32641   4.838   6.965   3.308
10581SOL    HW132642   4.811   6.873   3.280
10581SOL    HW232643   4.866   6.965   3.404
10582SOL     OW32644   5.950   4.255   6.166
10582SOL    HW132645   5.900   4.289   6.246
10582SOL    HW232646   5.977   4.160   6.182
10583SOL     OW32647   2.998   1.980   4.841
10583SOL    HW132648   3.087   2.020   4.861
10583SOL    HW232649   2.961   2.019   4.757
10584SOL     OW32650   1.279   6.375   4.028
10584SOL    HW132651   1.289   6.376   4.128
10584SOL    HW232652   1.368   6.356   3.986
10585SOL     OW32653   1.138   0.439   5.310
10585SOL    HW132654   1.206   0.475   5.246
10585SOL    HW232655   1.119   0.508   5.380
10586SOL     OW32656   4.114   4.197   5.286
10586SOL    HW132657   4.175   4.119   5.268
10586SOL    HW232658   4.163   4.282   5.266
10587SOL     OW32659   2.188   5.093   5.864
10587SOL    HW132660   2.105   5.148   5.872
10587SOL    HW232661   2.176   5.026   5.790
10588SOL     OW32662   1.183   4.273   3.843
10588SOL    HW132663   1.245   4.289   3.920
10588SOL    HW232664   1.209   4.190   3.796
10589SOL     OW32665   5.745   6.131   4.096
10589SOL    HW132666   5.838   6.166   4.109
10589SOL    HW232667   5.698   6.127   4.185
10590SOL     OW32668   0.829   5.467   2.449
10590SOL    HW132669   0.763   5.527   2.493
10590SOL    HW232670   0.866   5.512   2.368
10591SOL     OW32671   6.789   2.907   1.681
10591SOL    HW132672   6.849   2.985   1.696
10591SOL    HW232673   6.798   2.875   1.587
10592SOL     OW32674   6.849   1.807   5.055
10592SOL    HW132675   6.863   1.900   5.024
10592SOL    HW232676   6.883   1.743   4.986
10593SOL     OW32677   3.596   5.202   3.218
10593SOL    HW132678   3.515   5.194   3.159
10593SOL    HW232679   3.665   5.258   3.172
10594SOL     OW32680   3.111   5.864   3.691
10594SOL    HW132681   3.037   5.830   3.634
10594SOL    HW232682   3.140   5.793   3.755
10595SOL     OW32683   5.320   7.016   0.363
10595SOL    HW132684   5.223   6.993   0.377
10595SOL    HW232685   5.370   6.933   0.339
10596SOL     OW32686   4.879   3.321   0.312
10596SOL    HW132687   4.897   3.268   0.395
10596SOL    HW232688   4.839   3.409   0.337
10597SOL     OW32689   2.053   6.959   5.219
10597SOL    HW132690   2.129   7.011   5.181
10597SOL    HW232691   1.989   6.935   5.146
10598SOL     OW32692   2.628   1.387   6.226
10598SOL    HW132693   2.528   1.390   6.231
10598SOL    HW232694   2.657   1.297   6.194
10599SOL     OW32695   6.999   2.362   0.204
10599SOL    HW132696   0.061   2.351   0.252
10599SOL    HW232697   6.961   2.452   0.225
10600SOL     OW32698   3.051   2.289   1.452
10600SOL    HW132699   3.016   2.278   1.545
10600SOL    HW232700   3.149   2.308   1.455
10601SOL     OW32701   1.469   0.872   5.550
10601SOL    HW132702   1.500   0.966   5.562
10601SOL    HW232703   1.548   0.812   5.535
10602SOL     OW32704   6.868   6.971   1.165
10602SOL    HW132705   6.936   7.008   1.228
10602SOL    HW232706   6.909   6.897   1.112
10603SOL     OW32707   5.461   0.821   2.848
10603SOL    HW132708   5.452   0.741   2.906
10603SOL    HW232709   5.542   0.811   2.790
10604SOL     OW32710   4.578   6.828   4.566
10604SOL    HW132711   4.538   6.842   4.657
10604SOL    HW232712   4.513   6.777   4.509
10605SOL     OW32713   2.403   1.688   1.687
10605SOL    HW132714   2.397   1.740   1.772
10605SOL    HW232715   2.494   1.645   1.681
10606SOL     OW32716   6.432   0.729   0.507
10606SOL    HW132717   6.418   0.646   0.561
10606SOL    HW232718   6.528   0.755   0.510
10607SOL     OW32719   2.860   4.454   6.852
10607SOL    HW132720   2.876   4.541   6.805
10607SOL    HW232721   2.798   4.397   6.798
10608SOL     OW32722   5.746   3.915   3.625
10608SOL    HW132723   5.798   3.830   3.618
10608SOL    HW232724   5.787   3.984   3.565
10609SOL     OW32725   5.311   1.490   6.700
10609SOL    HW132726   5.329   1.520   6.793
10609SOL    HW232727   5.263   1.402   6.702
10610SOL     OW32728   0.426   1.605   3.717
10610SOL    HW132729   0.426   1.647   3.626
10610SOL    HW232730   0.502   1.541   3.726
10611SOL     OW32731   4.104   5.732   4.585
10611SOL    HW132732   4.189   5.783   4.572
10611SOL    HW232733   4.050   5.775   4.656
10612SOL     OW32734   5.957   2.059   3.507
10612SOL    HW132735   6.004   2.135   3.552
10612SOL    HW232736   5.871   2.092   3.468
10613SOL     OW32737   4.117   6.183   4.513
10613SOL    HW132738   4.115   6.196   4.414
10613SOL    HW232739   4.041   6.123   4.539
10614SOL     OW32740   3.918   1.947   6.032
10614SOL    HW132741   3.864   2.009   6.089
10614SOL    HW232742   3.857   1.896   5.971
10615SOL     OW32743   2.082   1.667   5.492
10615SOL    HW132744   2.101   1.742   5.556
10615SOL    HW232745   2.155   1.598   5.499
10616SOL     OW32746   1.979   6.568   0.186
10616SOL    HW132747   1.923   6.565   0.104
10616SOL    HW232748   1.991   6.662   0.216
10617SOL     OW32749   2.199   3.336   1.386
10617SOL    HW132750   2.106   3.300   1.388
10617SOL    HW232751   2.197   3.434   1.408
10618SOL     OW32752   1.141   5.464   3.792
10618SOL    HW132753   1.062   5.526   3.786
10618SOL    HW232754   1.170   5.457   3.887
10619SOL     OW32755   1.813   2.647   3.121
10619SOL    HW132756   1.843   2.610   3.033
10619SOL    HW232757   1.778   2.573   3.178
10620SOL     OW32758   3.243   1.399   6.578
10620SOL    HW132759   3.184   1.423   6.501
10620SOL    HW232760   3.186   1.369   6.655
10621SOL     OW32761   0.992   4.149   3.062
10621SOL    HW132762   0.948   4.088   3.128
10621SOL    HW232763   1.038   4.095   2.992
10622SOL     OW32764   4.469   1.933   6.785
10622SOL    HW132765   4.432   2.000   6.721
10622SOL    HW232766   4.569   1.929   6.774
10623SOL     OW32767   5.001   0.002   6.105
10623SOL    HW132768   5.088   6.978   6.095
10623SOL    HW232769   4.934   6.967   6.147
10624SOL     OW32770   0.684   2.221   0.357
10624SOL    HW132771   0.653   2.313   0.333
10624SOL    HW232772   0.762   2.196   0.300
10625SOL     OW32773   5.813   5.220   0.176
10625SOL    HW132774   5.730   5.254   0.218
10625SOL    HW232775   5.813   5.120   0.178
10626SOL     OW32776   5.553   3.245   1.006
10626SOL    HW132777   5.520   3.159   1.045
10626SOL    HW232778   5.577   3.308   1.081
10627SOL     OW32779   5.442   5.388   5.546
10627SOL    HW132780   5.447   5.317   5.476
10627SOL    HW232781   5.487   5.356   5.629
10628SOL     OW32782   3.674   6.732   0.550
10628SOL    HW132783   3.620   6.717   0.467
10628SOL    HW232784   3.766   6.695   0.537
10629SOL     OW32785   3.387   5.471   4.647
10629SOL    HW132786   3.305   5.526   4.664
10629SOL    HW232787   3.447   5.520   4.583
10630SOL     OW32788   4.177   1.469   2.041
10630SOL    HW132789   4.080   1.448   2.047
10630SOL    HW232790   4.231   1.386   2.055
10631SOL     OW32791   3.551   5.901   0.925
10631SOL    HW132792   3.559   5.890   0.826
10631SOL    HW232793   3.575   5.995   0.950
10632SOL     OW32794   5.068   6.236   3.410
10632SOL    HW132795   5.139   6.289   3.456
10632SOL    HW232796   5.043   6.157   3.467
10633SOL     OW32797   1.759   3.397   1.233
10633SOL    HW132798   1.709   3.385   1.319
10633SOL    HW232799   1.774   3.495   1.216
10634SOL     OW32800   0.413   3.798   0.322
10634SOL    HW132801   0.481   3.724   0.314
10634SOL    HW232802   0.461   3.886   0.321
10635SOL     OW32803   2.462   4.766   6.594
10635SOL    HW132804   2.549   4.778   6.642
10635SOL    HW232805   2.437   4.851   6.548
10636SOL     OW32806   6.827   2.229   0.013
10636SOL    HW132807   6.886   2.270   0.083
10636SOL    HW232808   6.813   2.294   6.964
10637SOL     OW32809   2.678   0.614   6.797
10637SOL    HW132810   2.588   0.643   6.762
10637SOL    HW232811   2.749   0.669   6.754
10638SOL     OW32812   5.857   5.612   1.555
10638SOL    HW132813   5.905   5.550   1.617
10638SOL    HW232814   5.761   5.619   1.582
10639SOL     OW32815   1.117   5.379   1.674
10639SOL    HW132816   1.046   5.409   1.737
10639SOL    HW232817   1.106   5.282   1.655
10640SOL     OW32818   4.128   6.253   3.350
10640SOL    HW132819   4.197   6.312   3.393
10640SOL    HW232820   4.169   6.201   3.276
10641SOL     OW32821   1.416   1.215   3.657
10641SOL    HW132822   1.348   1.161   3.607
10641SOL    HW232823   1.370   1.268   3.728
10642SOL     OW32824   6.415   2.535   6.254
10642SOL    HW132825   6.463   2.567   6.173
10642SOL    HW232826   6.327   2.496   6.226
10643SOL     OW32827   2.353   5.134   6.312
10643SOL    HW132828   2.342   5.088   6.400
10643SOL    HW232829   2.341   5.068   6.238
10644SOL     OW32830   6.776   3.341   2.682
10644SOL    HW132831   6.698   3.300   2.730
10644SOL    HW232832   6.846   3.367   2.748
10645SOL     OW32833   2.684   2.425   3.468
10645SOL    HW132834   2.694   2.439   3.369
10645SOL    HW232835   2.593   2.455   3.497
10646SOL     OW32836   5.518   0.674   3.881
10646SOL    HW132837   5.510   0.730   3.798
10646SOL    HW232838   5.504   0.578   3.858
10647SOL     OW32839   3.234   5.439   5.016
10647SOL    HW132840   3.175   5.506   5.062
10647SOL    HW232841   3.294   5.396   5.084
10648SOL     OW32842   4.796   4.719   6.065
10648SOL    HW132843   4.755   4.666   6.139
10648SOL    HW232844   4.745   4.703   5.981
10649SOL     OW32845   6.653   3.692   2.609
10649SOL    HW132846   6.622   3.783   2.580
10649SOL    HW232847   6.747   3.699   2.643
10650SOL     OW32848   0.481   0.221   3.777
10650SOL    HW132849   0.443   0.128   3.786
10650SOL    HW232850   0.580   0.217   3.779
10651SOL     OW32851   3.599   6.070   6.239
10651SOL    HW132852   3.652   5.999   6.286
10651SOL    HW232853   3.658   6.120   6.176
10652SOL     OW32854   2.435   0.574   0.333
10652SOL    HW132855   2.533   0.556   0.331
10652SOL    HW232856   2.418   0.664   0.372
10653SOL     OW32857   4.287   5.934   4.558
10653SOL    HW132858   4.339   5.949   4.474
10653SOL    HW232859   4.242   6.019   4.584
10654SOL     OW32860   6.094   1.375   4.345
10654SOL    HW132861   6.108   1.347   4.250
10654SOL    HW232862   6.048   1.464   4.347
10655SOL     OW32863   0.132   4.899   1.751
10655SOL    HW132864   0.047   4.920   1.797
10655SOL    HW232865   0.194   4.852   1.814
10656SOL     OW32866   5.804   3.013   3.656
10656SOL    HW132867   5.724   2.980   3.606
10656SOL    HW232868   5.876   2.943   3.655
10657SOL     OW32869   5.095   6.523   4.396
10657SOL    HW132870   5.015   6.573   4.430
10657SOL    HW232871   5.073   6.482   4.307
10658SOL     OW32872   0.936   3.022   4.672
10658SOL    HW132873   0.948   3.014   4.573
10658SOL    HW232874   1.025   3.012   4.717
10659SOL     OW32875   0.980   5.675   0.728
10659SOL    HW132876   1.033   5.667   0.644
10659SOL    HW232877   1.003   5.599   0.789
10660SOL     OW32878   5.813   2.843   5.287
10660SOL    HW132879   5.822   2.897   5.370
10660SOL    HW232880   5.721   2.804   5.282
10661SOL     OW32881   2.422   4.650   5.711
10661SOL    HW132882   2.476   4.605   5.783
10661SOL    HW232883   2.484   4.686   5.642
10662SOL     OW32884   2.493   1.389   1.969
10662SOL    HW132885   2.490   1.397   2.069
10662SOL    HW232886   2.580   1.426   1.936
10663SOL     OW32887   1.095   1.645   3.507
10663SOL    HW132888   1.143   1.633   3.595
10663SOL    HW232889   1.022   1.713   3.519
10664SOL     OW32890   0.912   5.219   4.724
10664SOL    HW132891   0.886   5.299   4.777
10664SOL    HW232892   0.840   5.198   4.657
10665SOL     OW32893   2.620   2.776   6.712
10665SOL    HW132894   2.529   2.776   6.669
10665SOL    HW232895   2.687   2.811   6.647
10666SOL     OW32896   3.416   3.934   2.100
10666SOL    HW132897   3.476   4.008   2.070
10666SOL    HW232898   3.321   3.967   2.103
10667SOL     OW32899   5.118   2.530   3.855
10667SOL    HW132900   5.075   2.512   3.943
10667SOL    HW232901   5.214   2.502   3.858
10668SOL     OW32902   3.568   2.774   5.597
10668SOL    HW132903   3.557   2.684   5.638
10668SOL    HW232904   3.506   2.784   5.520
10669SOL     OW32905   5.885   1.657   1.384
10669SOL    HW132906   5.968   1.668   1.439
10669SOL    HW232907   5.911   1.636   1.290
10670SOL     OW32908   4.950   3.430   4.236
10670SOL    HW132909   4.964   3.481   4.321
10670SOL    HW232910   4.957   3.493   4.158
10671SOL     OW32911   1.548   2.837   4.549
10671SOL    HW132912   1.584   2.869   4.461
10671SOL    HW232913   1.612   2.861   4.622
10672SOL     OW32914   5.951   3.016   1.545
10672SOL    HW132915   5.905   2.945   1.598
10672SOL    HW232916   5.902   3.030   1.459
10673SOL     OW32917   2.006   1.605   1.050
10673SOL    HW132918   1.914   1.567   1.048
10673SOL    HW232919   2.011   1.683   0.986
10674SOL     OW32920   3.464   4.136   3.335
10674SOL    HW132921   3.488   4.186   3.418
10674SOL    HW232922   3.369   4.106   3.340
10675SOL     OW32923   4.014   6.681   5.542
10675SOL    HW132924   4.000   6.665   5.444
10675SOL    HW232925   4.095   6.738   5.555
10676SOL     OW32926   1.932   6.819   5.496
10676SOL    HW132927   1.980   6.875   5.428
10676SOL    HW232928   2.000   6.768   5.550
10677SOL     OW32929   0.084   1.634   0.855
10677SOL    HW132930   0.004   1.685   0.823
10677SOL    HW232931   0.147   1.619   0.779
10678SOL     OW32932   4.123   5.660   3.641
10678SOL    HW132933   4.078   5.749   3.646
10678SOL    HW232934   4.183   5.658   3.561
10679SOL     OW32935   4.164   3.213   6.659
10679SOL    HW132936   4.192   3.120   6.632
10679SOL    HW232937   4.238   3.256   6.710
10680SOL     OW32938   3.930   0.934   4.324
10680SOL    HW132939   4.027   0.949   4.344
10680SOL    HW232940   3.904   0.985   4.242
10681SOL     OW32941   1.432   3.043   5.349
10681SOL    HW132942   1.401   3.125   5.397
10681SOL    HW232943   1.353   2.985   5.329
10682SOL     OW32944   5.182   3.375   5.930
10682SOL    HW132945   5.228   3.416   6.008
10682SOL    HW232946   5.090   3.415   5.921
10683SOL     OW32947   3.093   0.747   3.321
10683SOL    HW132948   3.155   0.825   3.313
10683SOL    HW232949   3.086   0.721   3.417
10684SOL     OW32950   4.443   4.567   2.066
10684SOL    HW132951   4.466   4.477   2.030
10684SOL    HW232952   4.525   4.624   2.067
10685SOL     OW32953   0.966   6.049   1.493
10685SOL    HW132954   0.966   6.011   1.400
10685SOL    HW232955   0.898   6.122   1.498
10686SOL     OW32956   2.550   2.463   6.548
10686SOL    HW132957   2.592   2.545   6.509
10686SOL    HW232958   2.454   2.459   6.520
10687SOL     OW32959   0.855   4.322   3.542
10687SOL    HW132960   0.794   4.350   3.616
10687SOL    HW232961   0.934   4.274   3.580
10688SOL     OW32962   5.495   1.910   2.317
10688SOL    HW132963   5.482   2.008   2.300
10688SOL    HW232964   5.581   1.896   2.367
10689SOL     OW32965   6.884   0.119   2.492
10689SOL    HW132966   6.843   0.188   2.551
10689SOL    HW232967   6.815   0.086   2.427
10690SOL     OW32968   0.003   0.136   3.735
10690SOL    HW132969   0.013   0.217   3.791
10690SOL    HW232970   6.932   0.120   3.715
10691SOL     OW32971   3.405   0.716   2.813
10691SOL    HW132972   3.402   0.777   2.734
10691SOL    HW232973   3.319   0.666   2.821
10692SOL     OW32974   2.278   0.149   3.892
10692SOL    HW132975   2.204   0.213   3.870
10692SOL    HW232976   2.345   0.148   3.817
10693SOL     OW32977   1.622   6.137   0.372
10693SOL    HW132978   1.685   6.212   0.392
10693SOL    HW232979   1.675   6.054   0.354
10694SOL     OW32980   4.574   6.481   5.043
10694SOL    HW132981   4.487   6.438   5.021
10694SOL    HW232982   4.569   6.579   5.023
10695SOL     OW32983   7.017   4.302   1.661
10695SOL    HW132984   0.039   4.222   1.698
10695SOL    HW232985   0.045   4.340   1.585
10696SOL     OW32986   6.673   5.294   4.683
10696SOL    HW132987   6.757   5.321   4.636
10696SOL    HW232988   6.597   5.291   4.618
10697SOL     OW32989   1.637   4.682   5.877
10697SOL    HW132990   1.726   4.641   5.898
10697SOL    HW232991   1.572   4.610   5.855
10698SOL     OW32992   4.578   3.169   6.920
10698SOL    HW132993   4.540   3.086   6.878
10698SOL    HW232994   4.662   3.146   6.969
10699SOL     OW32995   3.370   3.807   0.340
10699SOL    HW132996   3.414   3.722   0.313
10699SOL    HW232997   3.357   3.866   0.260
10700SOL     OW32998   4.741   0.741   0.840
10700SOL    HW132999   4.690   0.825   0.857
10700SOL    HW233000   4.761   0.695   0.927
10701SOL     OW33001   2.537   0.756   6.275
10701SOL    HW133002   2.499   0.666   6.254
10701SOL    HW233003   2.603   0.747   6.350
10702SOL     OW33004   5.629   2.193   2.055
10702SOL    HW133005   5.569   2.161   1.981
10702SOL    HW233006   5.581   2.185   2.142
10703SOL     OW33007   1.368   2.769   6.360
10703SOL    HW133008   1.354   2.867   6.376
10703SOL    HW233009   1.436   2.735   6.424
10704SOL     OW33010   6.447   0.091   1.758
10704SOL    HW133011   6.380   0.141   1.813
10704SOL    HW233012   6.437   7.018   1.774
10705SOL     OW33013   5.985   4.264   1.167
10705SOL    HW133014   5.912   4.197   1.155
10705SOL    HW233015   6.047   4.233   1.239
10706SOL     OW33016   4.798   0.506   1.904
10706SOL    HW133017   4.831   0.526   1.996
10706SOL    HW233018   4.872   0.519   1.839
10707SOL     OW33019   5.952   0.238   4.038
10707SOL    HW133020   5.926   0.158   3.984
10707SOL    HW233021   5.898   0.241   4.122
10708SOL     OW33022   4.155   2.114   2.318
10708SOL    HW133023   4.213   2.069   2.250
10708SOL    HW233024   4.060   2.114   2.287
10709SOL     OW33025   5.821   5.296   3.803
10709SOL    HW133026   5.777   5.350   3.875
10709SOL    HW233027   5.864   5.358   3.736
10710SOL     OW33028   5.791   1.549   3.051
10710SOL    HW133029   5.877   1.553   3.000
10710SOL    HW233030   5.762   1.454   3.059
10711SOL     OW33031   3.626   6.808   1.771
10711SOL    HW133032   3.625   6.775   1.677
10711SOL    HW233033   3.701   6.872   1.783
10712SOL     OW33034   4.625   6.956   2.882
10712SOL    HW133035   4.599   6.965   2.786
10712SOL    HW233036   4.580   0.001   2.936
10713SOL     OW33037   1.415   4.128   0.969
10713SOL    HW133038   1.327   4.153   1.010
10713SOL    HW233039   1.483   4.114   1.042
10714SOL     OW33040   3.935   3.142   4.076
10714SOL    HW133041   3.843   3.104   4.087
10714SOL    HW233042   3.952   3.161   3.979
10715SOL     OW33043   6.001   0.924   2.160
10715SOL    HW133044   6.072   0.868   2.117
10715SOL    HW233045   5.911   0.887   2.137
10716SOL     OW33046   6.479   2.594   3.162
10716SOL    HW133047   6.567   2.642   3.166
10716SOL    HW233048   6.471   2.547   3.074
10717SOL     OW33049   0.787   2.460   6.860
10717SOL    HW133050   0.881   2.426   6.868
10717SOL    HW233051   0.778   2.513   6.777
10718SOL     OW33052   1.253   4.758   5.815
10718SOL    HW133053   1.245   4.858   5.815
10718SOL    HW233054   1.298   4.728   5.732
10719SOL     OW33055   6.666   5.564   4.365
10719SOL    HW133056   6.624   5.479   4.396
10719SOL    HW233057   6.765   5.559   4.377
10720SOL     OW33058   5.762   5.726   4.321
10720SOL    HW133059   5.791   5.803   4.379
10720SOL    HW233060   5.831   5.654   4.327
10721SOL     OW33061   5.068   3.767   5.110
10721SOL    HW133062   5.060   3.708   5.190
10721SOL    HW233063   5.155   3.816   5.113
10722SOL     OW33064   0.079   3.945   6.162
10722SOL    HW133065   0.051   3.858   6.202
10722SOL    HW233066   0.019   4.018   6.196
10723SOL     OW33067   0.416   0.311   0.112
10723SOL    HW133068   0.367   0.315   0.025
10723SOL    HW233069   0.370   0.248   0.174
10724SOL     OW33070   6.999   6.538   0.314
10724SOL    HW133071   6.990   6.624   0.263
10724SOL    HW233072   6.963   6.462   0.260
10725SOL     OW33073   2.193   5.617   5.541
10725SOL    HW133074   2.132   5.609   5.462
10725SOL    HW233075   2.197   5.529   5.589
10726SOL     OW33076   4.899   0.555   3.674
10726SOL    HW133077   4.943   0.492   3.738
10726SOL    HW233078   4.800   0.556   3.690
10727SOL     OW33079   1.474   5.769   6.093
10727SOL    HW133080   1.441   5.864   6.093
10727SOL    HW233081   1.573   5.768   6.100
10728SOL     OW33082   6.630   5.433   0.750
10728SOL    HW133083   6.576   5.351   0.733
10728SOL    HW233084   6.624   5.493   0.670
10729SOL     OW33085   6.344   2.375   1.573
10729SOL    HW133086   6.354   2.331   1.484
10729SOL    HW233087   6.365   2.472   1.564
10730SOL     OW33088   4.059   0.597   1.709
10730SOL    HW133089   3.999   0.518   1.698
10730SOL    HW233090   4.023   0.675   1.659
10731SOL     OW33091   3.857   0.897   0.787
10731SOL    HW133092   3.857   0.970   0.856
10731SOL    HW233093   3.778   0.838   0.802
10732SOL     OW33094   0.317   5.177   5.033
10732SOL    HW133095   0.294   5.080   5.023
10732SOL    HW233096   0.239   5.226   5.072
10733SOL     OW33097   6.096   2.080   6.574
10733SOL    HW133098   6.105   2.157   6.637
10733SOL    HW233099   6.008   2.035   6.588
10734SOL     OW33100   1.048   1.583   1.612
10734SOL    HW133101   1.145   1.576   1.636
10734SOL    HW233102   0.994   1.530   1.678
10735SOL     OW33103   0.095   3.719   2.148
10735SOL    HW133104   0.118   3.629   2.111
10735SOL    HW233105   0.170   3.751   2.207
10736SOL     OW33106   2.681   6.571   4.183
10736SOL    HW133107   2.632   6.558   4.097
10736SOL    HW233108   2.767   6.619   4.165
10737SOL     OW33109   0.003   2.372   1.864
10737SOL    HW133110   6.945   2.381   1.809
10737SOL    HW233111   0.031   2.462   1.897
10738SOL     OW33112   4.068   6.882   3.149
10738SOL    HW133113   4.116   6.915   3.068
10738SOL    HW233114   4.003   6.952   3.180
10739SOL     OW33115   1.894   2.326   1.573
10739SOL    HW133116   1.865   2.329   1.477
10739SOL    HW233117   1.875   2.414   1.616
10740SOL     OW33118   5.371   4.934   4.683
10740SOL    HW133119   5.367   4.976   4.774
10740SOL    HW233120   5.320   4.990   4.618
10741SOL     OW33121   3.182   0.474   2.266
10741SOL    HW133122   3.171   0.399   2.331
10741SOL    HW233123   3.218   0.439   2.180
10742SOL     OW33124   5.751   5.118   1.362
10742SOL    HW133125   5.716   5.056   1.433
10742SOL    HW233126   5.780   5.064   1.283
10743SOL     OW33127   2.430   2.237   3.645
10743SOL    HW133128   2.420   2.328   3.604
10743SOL    HW233129   2.507   2.238   3.710
10744SOL     OW33130   3.830   2.164   1.353
10744SOL    HW133131   3.857   2.090   1.291
10744SOL    HW233132   3.909   2.191   1.408
10745SOL     OW33133   0.035   6.088   6.034
10745SOL    HW133134   7.021   6.173   6.068
10745SOL    HW233135   6.995   6.044   5.972
10746SOL     OW33136   0.784   3.706   5.348
10746SOL    HW133137   0.714   3.775   5.334
10746SOL    HW233138   0.760   3.623   5.298
10747SOL     OW33139   3.312   0.835   4.254
10747SOL    HW133140   3.329   0.753   4.309
10747SOL    HW233141   3.251   0.812   4.178
10748SOL     OW33142   5.248   1.193   2.657
10748SOL    HW133143   5.305   1.266   2.620
10748SOL    HW233144   5.183   1.163   2.587
10749SOL     OW33145   1.180   6.502   5.121
10749SOL    HW133146   1.222   6.592   5.111
10749SOL    HW233147   1.138   6.495   5.212
10750SOL     OW33148   4.068   0.677   4.986
10750SOL    HW133149   4.136   0.716   5.048
10750SOL    HW233150   4.113   0.648   4.901
10751SOL     OW33151   1.971   5.308   4.150
10751SOL    HW133152   1.961   5.398   4.192
10751SOL    HW233153   2.068   5.286   4.140
10752SOL     OW33154   5.274   4.601   4.819
10752SOL    HW133155   5.232   4.690   4.806
10752SOL    HW233156   5.349   4.608   4.885
10753SOL     OW33157   0.191   3.184   3.967
10753SOL    HW133158   0.162   3.278   3.982
10753SOL    HW233159   0.113   3.123   3.982
10754SOL     OW33160   0.905   6.968   2.839
10754SOL    HW133161   0.974   6.949   2.769
10754SOL    HW233162   0.946   6.955   2.930
10755SOL     OW33163   6.706   0.201   1.977
10755SOL    HW133164   6.764   0.192   1.896
10755SOL    HW233165   6.632   0.266   1.958
10756SOL     OW33166   6.850   6.145   5.129
10756SOL    HW133167   6.819   6.197   5.208
10756SOL    HW233168   6.775   6.138   5.062
10757SOL     OW33169   1.958   2.726   0.466
10757SOL    HW133170   1.905   2.737   0.381
10757SOL    HW233171   2.037   2.668   0.449
10758SOL     OW33172   0.442   6.617   3.601
10758SOL    HW133173   0.448   6.574   3.511
10758SOL    HW233174   0.482   6.557   3.670
10759SOL     OW33175   0.413   3.051   0.606
10759SOL    HW133176   0.332   2.994   0.615
10759SOL    HW233177   0.469   3.018   0.530
10760SOL     OW33178   5.894   1.064   3.618
10760SOL    HW133179   5.871   1.006   3.697
10760SOL    HW233180   5.931   1.151   3.650
10761SOL     OW33181   2.224   5.305   6.113
10761SOL    HW133182   2.141   5.297   6.170
10761SOL    HW233183   2.296   5.248   6.152
10762SOL     OW33184   2.712   0.391   4.726
10762SOL    HW133185   2.811   0.389   4.710
10762SOL    HW233186   2.664   0.367   4.641
10763SOL     OW33187   3.729   0.851   3.683
10763SOL    HW133188   3.705   0.948   3.686
10763SOL    HW233189   3.708   0.814   3.592
10764SOL     OW33190   4.717   1.360   4.471
10764SOL    HW133191   4.618   1.347   4.475
10764SOL    HW233192   4.742   1.443   4.522
10765SOL     OW33193   5.003   3.468   1.180
10765SOL    HW133194   4.986   3.460   1.279
10765SOL    HW233195   5.083   3.413   1.156
10766SOL     OW33196   3.363   3.670   0.835
10766SOL    HW133197   3.374   3.769   0.842
10766SOL    HW233198   3.407   3.638   0.751
10767SOL     OW33199   2.261   0.352   1.290
10767SOL    HW133200   2.272   0.427   1.225
10767SOL    HW233201   2.210   0.278   1.246
10768SOL     OW33202   6.630   4.957   0.851
10768SOL    HW133203   6.674   4.910   0.927
10768SOL    HW233204   6.565   4.895   0.806
10769SOL     OW33205   2.437   3.499   6.032
10769SOL    HW133206   2.459   3.587   6.074
10769SOL    HW233207   2.452   3.505   5.933
10770SOL     OW33208   4.468   5.934   3.168
10770SOL    HW133209   4.481   5.947   3.070
10770SOL    HW233210   4.555   5.905   3.210
10771SOL     OW33211   3.249   6.983   4.049
10771SOL    HW133212   3.223   6.957   3.956
10771SOL    HW233213   3.288   0.050   4.049
10772SOL     OW33214   6.262   5.472   4.621
10772SOL    HW133215   6.184   5.410   4.632
10772SOL    HW233216   6.245   5.534   4.544
10773SOL     OW33217   5.177   4.525   4.191
10773SOL    HW133218   5.218   4.587   4.258
10773SOL    HW233219   5.207   4.431   4.210
10774SOL     OW33220   1.568   1.048   3.858
10774SOL    HW133221   1.510   1.109   3.804
10774SOL    HW233222   1.628   0.996   3.796
10775SOL     OW33223   1.125   4.552   1.831
10775SOL    HW133224   1.178   4.470   1.854
10775SOL    HW233225   1.169   4.601   1.756
10776SOL     OW33226   2.056   0.836   6.307
10776SOL    HW133227   2.043   0.832   6.406
10776SOL    HW233228   1.968   0.843   6.261
10777SOL     OW33229   3.336   5.764   1.563
10777SOL    HW133230   3.332   5.664   1.569
10777SOL    HW233231   3.274   5.804   1.630
10778SOL     OW33232   5.475   6.298   4.046
10778SOL    HW133233   5.469   6.275   4.144
10778SOL    HW233234   5.470   6.398   4.035
10779SOL     OW33235   6.074   2.824   3.611
10779SOL    HW133236   6.166   2.840   3.573
10779SOL    HW233237   6.069   2.866   3.702
10780SOL     OW33238   0.655   1.269   3.107
10780SOL    HW133239   0.687   1.362   3.123
10780SOL    HW233240   0.556   1.264   3.119
10781SOL     OW33241   3.785   0.234   4.407
10781SOL    HW133242   3.692   0.268   4.419
10781SOL    HW233243   3.827   0.220   4.497
10782SOL     OW33244   5.964   6.747   4.363
10782SOL    HW133245   5.934   6.820   4.301
10782SOL    HW233246   6.029   6.688   4.316
10783SOL     OW33247   6.494   2.935   3.064
10783SOL    HW133248   6.397   2.919   3.084
10783SOL    HW233249   6.516   3.031   3.082
10784SOL     OW33250   2.760   1.175   3.937
10784SOL    HW133251   2.754   1.260   3.989
10784SOL    HW233252   2.828   1.114   3.979
10785SOL     OW33253   0.546   4.036   0.341
10785SOL    HW133254   0.638   4.074   0.346
10785SOL    HW233255   0.496   4.081   0.267
10786SOL     OW33256   6.102   5.847   2.796
10786SOL    HW133257   6.188   5.797   2.798
10786SOL    HW233258   6.035   5.803   2.856
10787SOL     OW33259   0.953   0.784   4.932
10787SOL    HW133260   0.854   0.792   4.940
10787SOL    HW233261   0.989   0.738   5.013
10788SOL     OW33262   0.148   4.215   6.861
10788SOL    HW133263   0.212   4.146   6.894
10788SOL    HW233264   0.054   4.181   6.868
10789SOL     OW33265   6.778   2.546   0.197
10789SOL    HW133266   6.726   2.536   0.112
10789SOL    HW233267   6.722   2.515   0.274
10790SOL     OW33268   0.323   6.988   1.836
10790SOL    HW133269   0.239   6.965   1.786
10790SOL    HW233270   0.378   0.026   1.781
10791SOL     OW33271   6.173   5.908   2.503
10791SOL    HW133272   6.164   5.990   2.559
10791SOL    HW233273   6.233   5.927   2.426
10792SOL     OW33274   4.019   3.614   5.336
10792SOL    HW133275   3.923   3.622   5.308
10792SOL    HW233276   4.046   3.698   5.383
10793SOL     OW33277   5.952   3.444   5.141
10793SOL    HW133278   5.953   3.354   5.185
10793SOL    HW233279   5.858   3.480   5.142
10794SOL     OW33280   3.466   3.253   3.776
10794SOL    HW133281   3.449   3.309   3.695
10794SOL    HW233282   3.470   3.312   3.857
10795SOL     OW33283   1.317   4.275   2.860
10795SOL    HW133284   1.363   4.318   2.939
10795SOL    HW233285   1.325   4.335   2.781
10796SOL     OW33286   0.593   6.579   5.177
10796SOL    HW133287   0.642   6.588   5.091
10796SOL    HW233288   0.536   6.661   5.192
10797SOL     OW33289   4.088   3.049   0.318
10797SOL    HW133290   4.173   3.065   0.268
10797SOL    HW233291   4.052   3.137   0.351
10798SOL     OW33292   1.525   1.183   1.837
10798SOL    HW133293   1.443   1.130   1.814
10798SOL    HW233294   1.601   1.153   1.780
10799SOL     OW33295   4.112   1.002   2.371
10799SOL    HW133296   4.058   0.923   2.400
10799SOL    HW233297   4.050   1.078   2.350
10800SOL     OW33298   1.248   6.496   0.212
10800SOL    HW133299   1.276   6.401   0.203
10800SOL    HW233300   1.175   6.516   0.147
10801SOL     OW33301   1.679   0.739   0.574
10801SOL    HW133302   1.685   0.639   0.567
10801SOL    HW233303   1.759   0.774   0.622
10802SOL     OW33304   6.307   6.500   3.298
10802SOL    HW133305   6.294   6.599   3.293
10802SOL    HW233306   6.218   6.455   3.287
10803SOL     OW33307   1.602   5.440   6.593
10803SOL    HW133308   1.664   5.439   6.672
10803SOL    HW233309   1.624   5.363   6.533
10804SOL     OW33310   0.473   3.448   3.908
10804SOL    HW133311   0.381   3.488   3.907
10804SOL    HW233312   0.482   3.383   3.832
10805SOL     OW33313   5.902   0.879   5.300
10805SOL    HW133314   5.876   0.899   5.394
10805SOL    HW233315   5.832   0.823   5.257
10806SOL     OW33316   2.188   4.357   6.773
10806SOL    HW133317   2.193   4.283   6.841
10806SOL    HW233318   2.123   4.426   6.804
10807SOL     OW33319   2.491   5.911   3.780
10807SOL    HW133320   2.491   5.817   3.812
10807SOL    HW233321   2.444   5.969   3.847
10808SOL     OW33322   7.023   2.326   5.874
10808SOL    HW133323   0.044   2.406   5.836
10808SOL    HW233324   6.967   2.353   5.952
10809SOL     OW33325   2.276   5.354   4.647
10809SOL    HW133326   2.302   5.417   4.720
10809SOL    HW233327   2.259   5.405   4.563
10810SOL     OW33328   0.557   0.253   4.504
10810SOL    HW133329   0.574   0.267   4.602
10810SOL    HW233330   0.645   0.243   4.457
10811SOL     OW33331   4.667   5.306   4.735
10811SOL    HW133332   4.760   5.332   4.760
10811SOL    HW233333   4.609   5.387   4.734
10812SOL     OW33334   0.231   2.871   6.671
10812SOL    HW133335   0.152   2.931   6.684
10812SOL    HW233336   0.293   2.880   6.748
10813SOL     OW33337   0.258   3.576   6.286
10813SOL    HW133338   0.232   3.535   6.199
10813SOL    HW233339   0.346   3.622   6.277
10814SOL     OW33340   2.275   0.359   0.003
10814SOL    HW133341   2.370   0.374   7.000
10814SOL    HW233342   2.244   0.436   0.058
10815SOL     OW33343   4.909   0.891   4.351
10815SOL    HW133344   4.811   0.868   4.345
10815SOL    HW233345   4.931   0.957   4.280
10816SOL     OW33346   3.761   3.147   3.461
10816SOL    HW133347   3.704   3.080   3.415
10816SOL    HW233348   3.857   3.130   3.439
10817SOL     OW33349   2.422   6.884   2.929
10817SOL    HW133350   2.458   6.809   2.985
10817SOL    HW233351   2.421   6.856   2.833
10818SOL     OW33352   4.494   4.821   5.904
10818SOL    HW133353   4.411   4.777   5.938
10818SOL    HW233354   4.558   4.752   5.872
10819SOL     OW33355   0.140   5.912   6.354
10819SOL    HW133356   0.165   5.884   6.447
10819SOL    HW233357   0.207   5.875   6.289
10820SOL     OW33358   1.968   4.604   5.634
10820SOL    HW133359   2.029   4.631   5.709
10820SOL    HW233360   2.018   4.610   5.547
10821SOL     OW33361   4.909   5.067   3.128
10821SOL    HW133362   4.879   4.973   3.109
10821SOL    HW233363   4.856   5.131   3.072
10822SOL     OW33364   5.723   2.824   0.590
10822SOL    HW133365   5.776   2.751   0.547
10822SOL    HW233366   5.739   2.910   0.542
10823SOL     OW33367   6.585   6.532   2.966
10823SOL    HW133368   6.486   6.539   2.977
10823SOL    HW233369   6.605   6.460   2.899
10824SOL     OW33370   1.412   1.532   4.427
10824SOL    HW133371   1.320   1.519   4.391
10824SOL    HW233372   1.417   1.619   4.476
10825SOL     OW33373   1.299   1.829   0.899
10825SOL    HW133374   1.306   1.922   0.864
10825SOL    HW233375   1.305   1.830   0.999
10826SOL     OW33376   1.322   2.480   3.064
10826SOL    HW133377   1.353   2.388   3.039
10826SOL    HW233378   1.265   2.517   2.991
10827SOL     OW33379   6.775   3.367   5.313
10827SOL    HW133380   6.857   3.313   5.329
10827SOL    HW233381   6.695   3.319   5.349
10828SOL     OW33382   6.290   4.461   6.283
10828SOL    HW133383   6.385   4.448   6.253
10828SOL    HW233384   6.269   4.395   6.355
10829SOL     OW33385   4.129   3.709   5.733
10829SOL    HW133386   4.181   3.627   5.711
10829SOL    HW233387   4.183   3.768   5.793
10830SOL     OW33388   4.989   0.968   3.754
10830SOL    HW133389   4.960   0.898   3.819
10830SOL    HW233390   5.089   0.969   3.749
10831SOL     OW33391   3.775   1.179   2.568
10831SOL    HW133392   3.700   1.242   2.589
10831SOL    HW233393   3.744   1.109   2.505
10832SOL     OW33394   6.953   3.570   0.160
10832SOL    HW133395   6.969   3.518   0.245
10832SOL    HW233396   6.855   3.587   0.149
10833SOL     OW33397   0.569   0.904   0.775
10833SOL    HW133398   0.470   0.892   0.773
10833SOL    HW233399   0.591   0.995   0.740
10834SOL     OW33400   6.408   6.575   0.637
10834SOL    HW133401   6.497   6.546   0.601
10834SOL    HW233402   6.402   6.551   0.734
10835SOL     OW33403   6.653   2.488   5.338
10835SOL    HW133404   6.632   2.460   5.432
10835SOL    HW233405   6.724   2.429   5.301
10836SOL     OW33406   0.083   2.016   3.630
10836SOL    HW133407   7.016   2.002   3.666
10836SOL    HW233408   0.148   1.960   3.682
10837SOL     OW33409   0.015   4.335   2.761
10837SOL    HW133410   0.107   4.347   2.799
10837SOL    HW233411   6.974   4.330   2.835
10838SOL     OW33412   6.098   6.069   4.041
10838SOL    HW133413   6.050   5.981   4.034
10838SOL    HW233414   6.196   6.054   4.041
10839SOL     OW33415   4.726   3.837   0.640
10839SOL    HW133416   4.637   3.803   0.608
10839SOL    HW233417   4.776   3.763   0.685
10840SOL     OW33418   3.126   0.508   0.755
10840SOL    HW133419   3.210   0.459   0.732
10840SOL    HW233420   3.121   0.519   0.855
10841SOL     OW33421   1.154   4.776   4.655
10841SOL    HW133422   1.170   4.858   4.710
10841SOL    HW233423   1.074   4.791   4.596
10842SOL     OW33424   4.880   4.149   0.944
10842SOL    HW133425   4.926   4.221   0.893
10842SOL    HW233426   4.945   4.077   0.968
10843SOL     OW33427   1.882   2.442   1.274
10843SOL    HW133428   1.910   2.354   1.238
10843SOL    HW233429   1.964   2.497   1.295
10844SOL     OW33430   0.940   5.297   5.148
10844SOL    HW133431   0.900   5.388   5.156
10844SOL    HW233432   0.867   5.229   5.139
10845SOL     OW33433   4.389   6.319   4.842
10845SOL    HW133434   4.383   6.266   4.927
10845SOL    HW233435   4.424   6.261   4.769
10846SOL     OW33436   5.696   0.298   0.652
10846SOL    HW133437   5.765   0.359   0.612
10846SOL    HW233438   5.691   0.213   0.599
10847SOL     OW33439   1.807   1.841   0.524
10847SOL    HW133440   1.748   1.917   0.552
10847SOL    HW233441   1.751   1.769   0.483
10848SOL     OW33442   1.966   4.202   1.248
10848SOL    HW133443   1.930   4.291   1.273
10848SOL    HW233444   1.957   4.189   1.149
10849SOL     OW33445   2.320   6.057   3.969
10849SOL    HW133446   2.349   6.084   4.061
10849SOL    HW233447   2.224   6.080   3.957
10850SOL     OW33448   3.694   6.874   0.148
10850SOL    HW133449   3.728   6.804   0.085
10850SOL    HW233450   3.645   6.945   0.097
10851SOL     OW33451   2.426   5.118   1.382
10851SOL    HW133452   2.355   5.132   1.312
10851SOL    HW233453   2.510   5.088   1.338
10852SOL     OW33454   2.133   1.723   1.285
10852SOL    HW133455   2.087   1.678   1.208
10852SOL    HW233456   2.079   1.711   1.368
10853SOL     OW33457   2.704   2.196   6.569
10853SOL    HW133458   2.717   2.157   6.478
10853SOL    HW233459   2.670   2.289   6.561
10854SOL     OW33460   4.680   6.262   5.505
10854SOL    HW133461   4.659   6.357   5.479
10854SOL    HW233462   4.708   6.259   5.601
10855SOL     OW33463   3.348   1.030   0.812
10855SOL    HW133464   3.355   1.019   0.712
10855SOL    HW233465   3.302   0.951   0.851
10856SOL     OW33466   0.000   0.962   0.037
10856SOL    HW133467   6.985   1.049   0.065
10856SOL    HW233468   6.988   0.888   0.093
10857SOL     OW33469   6.008   1.640   2.643
10857SOL    HW133470   6.056   1.606   2.562
10857SOL    HW233471   5.971   1.731   2.624
10858SOL     OW33472   2.557   5.796   1.335
10858SOL    HW133473   2.461   5.818   1.348
10858SOL    HW233474   2.602   5.789   1.423
10859SOL     OW33475   0.921   5.622   3.731
10859SOL    HW133476   0.844   5.684   3.743
10859SOL    HW233477   0.917   5.581   3.640
10860SOL     OW33478   6.852   3.109   2.959
10860SOL    HW133479   6.806   3.099   2.871
10860SOL    HW233480   6.856   3.020   3.004
10861SOL     OW33481   3.689   3.112   4.283
10861SOL    HW133482   3.615   3.088   4.345
10861SOL    HW233483   3.716   3.032   4.230
10862SOL     OW33484   1.419   0.297   4.738
10862SOL    HW133485   1.519   0.287   4.737
10862SOL    HW233486   1.378   0.224   4.685
10863SOL     OW33487   3.045   5.667   5.078
10863SOL    HW133488   3.013   5.722   5.001
10863SOL    HW233489   2.969   5.617   5.118
10864SOL     OW33490   3.717   6.455   2.684
10864SOL    HW133491   3.790   6.392   2.713
10864SOL    HW233492   3.628   6.414   2.703
10865SOL     OW33493   6.535   1.899   6.327
10865SOL    HW133494   6.635   1.901   6.337
10865SOL    HW233495   6.497   1.985   6.362
10866SOL     OW33496   5.393   4.741   0.338
10866SOL    HW133497   5.467   4.675   0.337
10866SOL    HW233498   5.317   4.706   0.393
10867SOL     OW33499   3.412   2.899   0.353
10867SOL    HW133500   3.437   2.964   0.282
10867SOL    HW233501   3.314   2.905   0.371
10868SOL     OW33502   3.292   1.771   2.925
10868SOL    HW133503   3.380   1.781   2.880
10868SOL    HW233504   3.306   1.734   3.017
10869NA      NA33505   6.307   2.079   5.528
10870NA      NA33506   4.376   4.555   5.299
10871NA      NA33507   2.314   3.663   1.534
10872NA      NA33508   4.852   3.837   5.075
10873NA      NA33509   4.217   2.347   5.320
10874NA      NA33510   3.798   4.705   1.662
10875NA      NA33511   6.722   5.661   5.709
10876NA      NA33512   4.090   3.517   5.119
10877NA      NA33513   4.769   6.648   0.010
10878NA      NA33514   3.513   6.913   5.403
10879NA      NA33515   6.462   4.752   2.069
10880NA      NA33516   2.086   0.516   3.056
10881NA      NA33517   3.133   4.668   0.955
10882NA      NA33518   3.442   3.688   2.898
   7.02515   7.02515   7.02515
