Generated by trjconv : CNT in water t=  95.00000
33518
    1C        C    1   2.845   2.768   4.749
    1C        C    2   2.898   2.717   4.870
    1C        C    3   2.838   2.769   4.985
    1C        C    4   2.853   2.775   4.264
    1C        C    5   2.898   2.722   4.387
    1C        C    6   2.846   2.771   4.509
    1C        C    7   3.012   2.634   4.626
    1C        C    8   2.898   2.718   4.629
    1C        C    9   3.077   2.603   4.747
    1C        C   10   3.009   2.630   4.868
    1C        C   11   3.181   2.493   4.979
    1C        C   12   3.059   2.561   4.980
    1C        C   13   2.854   2.774   3.775
    1C        C   14   2.906   2.723   3.896
    1C        C   15   2.859   2.775   4.018
    1C        C   16   3.020   2.643   4.141
    1C        C   17   2.906   2.726   4.142
    1C        C   18   3.081   2.610   4.264
    1C        C   19   3.015   2.643   4.385
    1C        C   20   3.209   2.551   4.506
    1C        C   21   3.079   2.605   4.505
    1C        C   22   3.278   2.532   4.628
    1C        C   23   3.208   2.548   4.750
    1C        C   24   3.414   2.486   4.869
    1C        C   25   3.272   2.505   4.869
    1C        C   26   3.493   2.477   4.985
    1C        C   27   2.856   2.775   3.285
    1C        C   28   2.910   2.728   3.407
    1C        C   29   2.859   2.775   3.530
    1C        C   30   3.022   2.643   3.650
    1C        C   31   2.908   2.727   3.653
    1C        C   32   3.076   2.602   3.774
    1C        C   33   3.018   2.636   3.898
    1C        C   34   3.211   2.548   4.019
    1C        C   35   3.079   2.599   4.020
    1C        C   36   3.279   2.531   4.142
    1C        C   37   3.212   2.556   4.264
    1C        C   38   3.417   2.499   4.386
    1C        C   39   3.279   2.530   4.385
    1C        C   40   3.489   2.502   4.507
    1C        C   41   3.416   2.501   4.628
    1C        C   42   3.630   2.487   4.746
    1C        C   43   3.488   2.483   4.748
    1C        C   44   3.705   2.488   4.866
    1C        C   45   3.632   2.478   4.985
    1C        C   46   2.841   2.753   2.797
    1C        C   47   2.899   2.715   2.920
    1C        C   48   2.845   2.763   3.041
    1C        C   49   3.017   2.637   3.162
    1C        C   50   2.905   2.722   3.163
    1C        C   51   3.080   2.601   3.283
    1C        C   52   3.019   2.638   3.406
    1C        C   53   3.209   2.544   3.531
    1C        C   54   3.082   2.605   3.528
    1C        C   55   3.276   2.525   3.655
    1C        C   56   3.205   2.545   3.776
    1C        C   57   3.416   2.503   3.895
    1C        C   58   3.277   2.530   3.896
    1C        C   59   3.486   2.495   4.017
    1C        C   60   3.417   2.503   4.140
    1C        C   61   3.627   2.496   4.259
    1C        C   62   3.486   2.490   4.263
    1C        C   63   3.700   2.506   4.380
    1C        C   64   3.631   2.505   4.503
    1C        C   65   3.838   2.543   4.620
    1C        C   66   3.701   2.508   4.626
    1C        C   67   3.904   2.566   4.743
    1C        C   68   3.841   2.525   4.863
    1C        C   69   4.050   2.593   4.979
    1C        C   70   3.926   2.526   4.974
    1C        C   71   2.827   2.738   2.311
    1C        C   72   2.883   2.693   2.433
    1C        C   73   2.828   2.739   2.554
    1C        C   74   3.008   2.624   2.672
    1C        C   75   2.887   2.697   2.676
    1C        C   76   3.074   2.598   2.795
    1C        C   77   3.013   2.632   2.918
    1C        C   78   3.205   2.541   3.039
    1C        C   79   3.076   2.598   3.040
    1C        C   80   3.273   2.525   3.162
    1C        C   81   3.209   2.544   3.286
    1C        C   82   3.415   2.500   3.404
    1C        C   83   3.275   2.522   3.408
    1C        C   84   3.482   2.495   3.528
    1C        C   85   3.415   2.502   3.652
    1C        C   86   3.628   2.501   3.770
    1C        C   87   3.487   2.495   3.773
    1C        C   88   3.695   2.514   3.894
    1C        C   89   3.628   2.503   4.017
    1C        C   90   3.837   2.542   4.137
    1C        C   91   3.699   2.510   4.139
    1C        C   92   3.904   2.571   4.259
    1C        C   93   3.834   2.548   4.380
    1C        C   94   4.032   2.629   4.499
    1C        C   95   3.908   2.561   4.500
    1C        C   96   4.087   2.675   4.621
    1C        C   97   4.031   2.629   4.742
    1C        C   98   4.192   2.768   4.863
    1C        C   99   4.104   2.655   4.862
    1C        C  100   4.218   2.843   4.979
    1C        C  101   2.820   2.729   2.074
    1C        C  102   2.992   2.593   2.192
    1C        C  103   2.879   2.680   2.192
    1C        C  104   3.067   2.577   2.312
    1C        C  105   3.005   2.622   2.430
    1C        C  106   3.202   2.536   2.552
    1C        C  107   3.071   2.589   2.551
    1C        C  108   3.273   2.525   2.673
    1C        C  109   3.205   2.548   2.795
    1C        C  110   3.411   2.495   2.915
    1C        C  111   3.271   2.517   2.916
    1C        C  112   3.481   2.491   3.038
    1C        C  113   3.412   2.502   3.162
    1C        C  114   3.627   2.503   3.282
    1C        C  115   3.486   2.495   3.282
    1C        C  116   3.697   2.513   3.405
    1C        C  117   3.624   2.497   3.525
    1C        C  118   3.833   2.539   3.647
    1C        C  119   3.695   2.509   3.646
    1C        C  120   3.897   2.571   3.769
    1C        C  121   3.831   2.553   3.893
    1C        C  122   4.026   2.637   4.011
    1C        C  123   3.898   2.576   4.015
    1C        C  124   4.085   2.675   4.134
    1C        C  125   4.028   2.637   4.258
    1C        C  126   4.195   2.769   4.376
    1C        C  127   4.093   2.672   4.379
    1C        C  128   4.244   2.821   4.498
    1C        C  129   4.189   2.772   4.619
    1C        C  130   4.323   2.937   4.741
    1C        C  131   4.243   2.819   4.741
    1C        C  132   4.355   3.005   4.861
    1C        C  133   4.287   2.964   4.976
    1C        C  134   3.172   2.467   2.081
    1C        C  135   3.039   2.511   2.085
    1C        C  136   3.260   2.476   2.190
    1C        C  137   3.198   2.521   2.309
    1C        C  138   3.407   2.483   2.427
    1C        C  139   3.269   2.510   2.430
    1C        C  140   3.480   2.481   2.548
    1C        C  141   3.411   2.492   2.671
    1C        C  142   3.622   2.494   2.792
    1C        C  143   3.481   2.488   2.793
    1C        C  144   3.691   2.502   2.915
    1C        C  145   3.622   2.493   3.037
    1C        C  146   3.832   2.536   3.158
    1C        C  147   3.694   2.507   3.158
    1C        C  148   3.901   2.563   3.279
    1C        C  149   3.833   2.548   3.402
    1C        C  150   4.029   2.622   3.525
    1C        C  151   3.901   2.562   3.525
    1C        C  152   4.090   2.664   3.646
    1C        C  153   4.022   2.637   3.767
    1C        C  154   4.192   2.767   3.888
    1C        C  155   4.081   2.678   3.888
    1C        C  156   4.245   2.811   4.011
    1C        C  157   4.196   2.762   4.134
    1C        C  158   4.339   2.925   4.255
    1C        C  159   4.247   2.817   4.254
    1C        C  160   4.377   2.987   4.375
    1C        C  161   4.331   2.932   4.497
    1C        C  162   4.435   3.117   4.618
    1C        C  163   4.367   2.993   4.619
    1C        C  164   4.469   3.184   4.738
    1C        C  165   4.434   3.122   4.860
    1C        C  166   4.506   3.324   4.974
    1C        C  167   4.477   3.188   4.976
    1C        C  168   3.477   2.439   2.073
    1C        C  169   3.400   2.462   2.188
    1C        C  170   3.619   2.465   2.308
    1C        C  171   3.477   2.463   2.306
    1C        C  172   3.693   2.486   2.427
    1C        C  173   3.621   2.487   2.548
    1C        C  174   3.828   2.540   2.669
    1C        C  175   3.692   2.503   2.669
    1C        C  176   3.894   2.561   2.793
    1C        C  177   3.829   2.533   2.915
    1C        C  178   4.023   2.625   3.033
    1C        C  179   3.897   2.561   3.036
    1C        C  180   4.086   2.662   3.154
    1C        C  181   4.027   2.627   3.278
    1C        C  182   4.196   2.749   3.398
    1C        C  183   4.086   2.660   3.402
    1C        C  184   4.246   2.803   3.519
    1C        C  185   4.198   2.755   3.642
    1C        C  186   4.337   2.916   3.762
    1C        C  187   4.244   2.810   3.764
    1C        C  188   4.377   2.974   3.885
    1C        C  189   4.332   2.922   4.009
    1C        C  190   4.442   3.105   4.129
    1C        C  191   4.375   2.981   4.130
    1C        C  192   4.469   3.173   4.250
    1C        C  193   4.445   3.111   4.375
    1C        C  194   4.510   3.315   4.493
    1C        C  195   4.467   3.180   4.496
    1C        C  196   4.522   3.388   4.613
    1C        C  197   4.507   3.320   4.736
    1C        C  198   4.547   3.537   4.852
    1C        C  199   4.524   3.395   4.855
    1C        C  200   4.577   3.622   4.963
    1C        C  201   3.616   2.422   2.074
    1C        C  202   3.829   2.510   2.184
    1C        C  203   3.693   2.464   2.187
    1C        C  204   3.898   2.542   2.304
    1C        C  205   3.830   2.522   2.426
    1C        C  206   4.021   2.620   2.543
    1C        C  207   3.898   2.551   2.546
    1C        C  208   4.083   2.655   2.666
    1C        C  209   4.018   2.627   2.788
    1C        C  210   4.193   2.748   2.909
    1C        C  211   4.080   2.664   2.910
    1C        C  212   4.247   2.796   3.031
    1C        C  213   4.197   2.749   3.154
    1C        C  214   4.335   2.910   3.272
    1C        C  215   4.245   2.801   3.276
    1C        C  216   4.373   2.970   3.394
    1C        C  217   4.336   2.912   3.517
    1C        C  218   4.434   3.102   3.639
    1C        C  219   4.374   2.974   3.638
    1C        C  220   4.465   3.166   3.761
    1C        C  221   4.438   3.101   3.884
    1C        C  222   4.497   3.306   4.005
    1C        C  223   4.467   3.169   4.005
    1C        C  224   4.509   3.378   4.127
    1C        C  225   4.500   3.311   4.250
    1C        C  226   4.523   3.525   4.367
    1C        C  227   4.513   3.385   4.370
    1C        C  228   4.521   3.600   4.487
    1C        C  229   4.527   3.529   4.609
    1C        C  230   4.500   3.744   4.728
    1C        C  231   4.532   3.605   4.728
    1C        C  232   4.492   3.821   4.846
    1C        C  233   4.544   3.758   4.960
    1C        C  234   4.025   2.605   2.065
    1C        C  235   3.899   2.544   2.068
    1C        C  236   4.087   2.649   2.182
    1C        C  237   4.021   2.613   2.301
    1C        C  238   4.200   2.735   2.422
    1C        C  239   4.084   2.653   2.421
    1C        C  240   4.252   2.784   2.545
    1C        C  241   4.197   2.738   2.666
    1C        C  242   4.333   2.905   2.787
    1C        C  243   4.249   2.792   2.786
    1C        C  244   4.377   2.964   2.908
    1C        C  245   4.338   2.904   3.030
    1C        C  246   4.440   3.094   3.149
    1C        C  247   4.376   2.968   3.150
    1C        C  248   4.464   3.159   3.272
    1C        C  249   4.435   3.097   3.396
    1C        C  250   4.499   3.303   3.517
    1C        C  251   4.459   3.167   3.516
    1C        C  252   4.513   3.373   3.638
    1C        C  253   4.502   3.302   3.760
    1C        C  254   4.518   3.515   3.879
    1C        C  255   4.511   3.374   3.882
    1C        C  256   4.516   3.588   4.000
    1C        C  257   4.520   3.519   4.123
    1C        C  258   4.492   3.732   4.243
    1C        C  259   4.519   3.593   4.243
    1C        C  260   4.469   3.803   4.363
    1C        C  261   4.488   3.737   4.487
    1C        C  262   4.422   3.942   4.603
    1C        C  263   4.473   3.810   4.607
    1C        C  264   4.398   4.010   4.724
    1C        C  265   4.439   3.952   4.846
    1C        C  266   4.322   4.136   4.961
    1C        C  267   4.387   4.013   4.961
    1C        C  268   4.261   2.781   2.065
    1C        C  269   4.199   2.735   2.182
    1C        C  270   4.351   2.888   2.303
    1C        C  271   4.256   2.783   2.302
    1C        C  272   4.384   2.953   2.424
    1C        C  273   4.342   2.893   2.545
    1C        C  274   4.443   3.084   2.663
    1C        C  275   4.378   2.959   2.665
    1C        C  276   4.472   3.153   2.782
    1C        C  277   4.446   3.087   2.905
    1C        C  278   4.502   3.293   3.024
    1C        C  279   4.475   3.154   3.026
    1C        C  280   4.512   3.364   3.146
    1C        C  281   4.503   3.295   3.269
    1C        C  282   4.517   3.507   3.390
    1C        C  283   4.509   3.366   3.391
    1C        C  284   4.517   3.581   3.511
    1C        C  285   4.517   3.515   3.636
    1C        C  286   4.487   3.725   3.753
    1C        C  287   4.516   3.587   3.757
    1C        C  288   4.471   3.791   3.877
    1C        C  289   4.492   3.727   4.001
    1C        C  290   4.429   3.934   4.118
    1C        C  291   4.476   3.801   4.120
    1C        C  292   4.398   4.001   4.238
    1C        C  293   4.421   3.935   4.361
    1C        C  294   4.323   4.128   4.481
    1C        C  295   4.395   4.006   4.480
    1C        C  296   4.290   4.195   4.601
    1C        C  297   4.320   4.129   4.722
    1C        C  298   4.200   4.314   4.839
    1C        C  299   4.278   4.195   4.841
    1C        C  300   4.168   4.399   4.950
    1C        C  301   4.349   2.888   2.065
    1C        C  302   4.471   3.069   2.181
    1C        C  303   4.401   2.944   2.182
    1C        C  304   4.490   3.142   2.302
    1C        C  305   4.448   3.079   2.421
    1C        C  306   4.510   3.286   2.537
    1C        C  307   4.471   3.150   2.541
    1C        C  308   4.520   3.357   2.658
    1C        C  309   4.506   3.290   2.782
    1C        C  310   4.526   3.504   2.903
    1C        C  311   4.518   3.363   2.903
    1C        C  312   4.523   3.577   3.024
    1C        C  313   4.522   3.505   3.146
    1C        C  314   4.485   3.715   3.264
    1C        C  315   4.515   3.576   3.267
    1C        C  316   4.470   3.784   3.386
    1C        C  317   4.494   3.720   3.510
    1C        C  318   4.421   3.924   3.628
    1C        C  319   4.472   3.792   3.629
    1C        C  320   4.388   3.984   3.751
    1C        C  321   4.420   3.923   3.874
    1C        C  322   4.324   4.115   3.991
    1C        C  323   4.394   3.993   3.994
    1C        C  324   4.282   4.175   4.112
    1C        C  325   4.324   4.122   4.236
    1C        C  326   4.186   4.285   4.354
    1C        C  327   4.281   4.181   4.357
    1C        C  328   4.135   4.338   4.475
    1C        C  329   4.188   4.293   4.597
    1C        C  330   4.025   4.438   4.715
    1C        C  331   4.138   4.351   4.716
    1C        C  332   3.972   4.498   4.831
    1C        C  333   4.052   4.476   4.944
    1C        C  334   4.562   3.264   2.062
    1C        C  335   4.534   3.127   2.066
    1C        C  336   4.544   3.348   2.172
    1C        C  337   4.520   3.281   2.294
    1C        C  338   4.525   3.496   2.412
    1C        C  339   4.526   3.355   2.414
    1C        C  340   4.520   3.568   2.533
    1C        C  341   4.529   3.498   2.655
    1C        C  342   4.496   3.707   2.772
    1C        C  343   4.522   3.569   2.778
    1C        C  344   4.473   3.777   2.893
    1C        C  345   4.491   3.714   3.018
    1C        C  346   4.425   3.916   3.138
    1C        C  347   4.468   3.782   3.141
    1C        C  348   4.393   3.980   3.260
    1C        C  349   4.419   3.916   3.383
    1C        C  350   4.314   4.103   3.503
    1C        C  351   4.390   3.984   3.504
    1C        C  352   4.270   4.161   3.624
    1C        C  353   4.311   4.103   3.746
    1C        C  354   4.175   4.264   3.868
    1C        C  355   4.275   4.164   3.868
    1C        C  356   4.125   4.318   3.988
    1C        C  357   4.182   4.275   4.110
    1C        C  358   4.012   4.406   4.231
    1C        C  359   4.128   4.325   4.231
    1C        C  360   3.955   4.452   4.352
    1C        C  361   4.020   4.419   4.473
    1C        C  362   3.831   4.521   4.595
    1C        C  363   3.960   4.465   4.593
    1C        C  364   3.764   4.556   4.714
    1C        C  365   3.840   4.549   4.833
    1C        C  366   3.631   4.596   4.952
    1C        C  367   3.768   4.573   4.951
    1C        C  368   4.516   3.562   2.051
    1C        C  369   4.528   3.489   2.170
    1C        C  370   4.499   3.704   2.289
    1C        C  371   4.523   3.565   2.289
    1C        C  372   4.481   3.777   2.409
    1C        C  373   4.499   3.708   2.531
    1C        C  374   4.424   3.909   2.649
    1C        C  375   4.478   3.778   2.652
    1C        C  376   4.393   3.970   2.772
    1C        C  377   4.424   3.910   2.896
    1C        C  378   4.321   4.098   3.013
    1C        C  379   4.401   3.982   3.015
    1C        C  380   4.279   4.157   3.134
    1C        C  381   4.320   4.101   3.257
    1C        C  382   4.177   4.260   3.378
    1C        C  383   4.268   4.152   3.378
    1C        C  384   4.125   4.312   3.499
    1C        C  385   4.173   4.264   3.622
    1C        C  386   4.007   4.392   3.743
    1C        C  387   4.123   4.311   3.745
    1C        C  388   3.949   4.437   3.864
    1C        C  389   4.014   4.405   3.985
    1C        C  390   3.822   4.494   4.110
    1C        C  391   3.949   4.433   4.108
    1C        C  392   3.753   4.517   4.232
    1C        C  393   3.823   4.504   4.354
    1C        C  394   3.618   4.560   4.476
    1C        C  395   3.757   4.534   4.475
    1C        C  396   3.549   4.574   4.598
    1C        C  397   3.624   4.572   4.718
    1C        C  398   3.413   4.553   4.839
    1C        C  399   3.551   4.583   4.838
    1C        C  400   3.341   4.524   4.956
    1C        C  401   4.495   3.700   2.052
    1C        C  402   4.449   3.914   2.166
    1C        C  403   4.487   3.778   2.169
    1C        C  404   4.413   3.979   2.285
    1C        C  405   4.435   3.910   2.406
    1C        C  406   4.326   4.096   2.527
    1C        C  407   4.402   3.976   2.527
    1C        C  408   4.279   4.148   2.649
    1C        C  409   4.320   4.091   2.772
    1C        C  410   4.172   4.249   2.891
    1C        C  411   4.275   4.153   2.891
    1C        C  412   4.119   4.297   3.013
    1C        C  413   4.177   4.255   3.134
    1C        C  414   4.005   4.382   3.255
    1C        C  415   4.122   4.302   3.256
    1C        C  416   3.943   4.417   3.377
    1C        C  417   4.006   4.389   3.500
    1C        C  418   3.813   4.480   3.619
    1C        C  419   3.944   4.427   3.621
    1C        C  420   3.748   4.504   3.743
    1C        C  421   3.817   4.487   3.865
    1C        C  422   3.616   4.543   3.987
    1C        C  423   3.754   4.515   3.988
    1C        C  424   3.546   4.549   4.110
    1C        C  425   3.616   4.551   4.232
    1C        C  426   3.406   4.550   4.358
    1C        C  427   3.547   4.562   4.355
    1C        C  428   3.336   4.546   4.480
    1C        C  429   3.408   4.564   4.600
    1C        C  430   3.198   4.516   4.722
    1C        C  431   3.336   4.551   4.721
    1C        C  432   3.126   4.492   4.842
    1C        C  433   3.205   4.497   4.957
    1C        C  434   4.379   4.122   2.050
    1C        C  435   4.450   4.001   2.057
    1C        C  436   4.297   4.158   2.162
    1C        C  437   4.329   4.095   2.285
    1C        C  438   4.181   4.250   2.404
    1C        C  439   4.281   4.151   2.405
    1C        C  440   4.126   4.296   2.526
    1C        C  441   4.178   4.247   2.648
    1C        C  442   4.003   4.373   2.767
    1C        C  443   4.121   4.296   2.767
    1C        C  444   3.943   4.412   2.889
    1C        C  445   4.002   4.376   3.013
    1C        C  446   3.816   4.481   3.130
    1C        C  447   3.942   4.417   3.134
    1C        C  448   3.748   4.502   3.252
    1C        C  449   3.812   4.472   3.374
    1C        C  450   3.609   4.534   3.495
    1C        C  451   3.746   4.499   3.496
    1C        C  452   3.543   4.550   3.619
    1C        C  453   3.611   4.540   3.742
    1C        C  454   3.403   4.543   3.865
    1C        C  455   3.544   4.550   3.866
    1C        C  456   3.337   4.529   3.989
    1C        C  457   3.405   4.536   4.113
    1C        C  458   3.199   4.500   4.237
    1C        C  459   3.337   4.528   4.236
    1C        C  460   3.130   4.486   4.359
    1C        C  461   3.198   4.514   4.480
    1C        C  462   2.998   4.437   4.605
    1C        C  463   3.130   4.488   4.601
    1C        C  464   2.930   4.409   4.725
    1C        C  465   2.989   4.449   4.847
    1C        C  466   2.802   4.334   4.962
    1C        C  467   2.913   4.420   4.964
    1C        C  468   4.128   4.291   2.040
    1C        C  469   4.184   4.247   2.160
    1C        C  470   4.007   4.369   2.280
    1C        C  471   4.128   4.295   2.281
    1C        C  472   3.942   4.403   2.401
    1C        C  473   4.007   4.373   2.523
    1C        C  474   3.816   4.469   2.645
    1C        C  475   3.943   4.408   2.644
    1C        C  476   3.746   4.496   2.765
    1C        C  477   3.815   4.470   2.887
    1C        C  478   3.610   4.527   3.009
    1C        C  479   3.749   4.501   3.008
    1C        C  480   3.537   4.529   3.130
    1C        C  481   3.609   4.526   3.252
    1C        C  482   3.396   4.536   3.377
    1C        C  483   3.537   4.536   3.373
    1C        C  484   3.329   4.529   3.501
    1C        C  485   3.402   4.543   3.621
    1C        C  486   3.196   4.498   3.743
    1C        C  487   3.332   4.534   3.743
    1C        C  488   3.132   4.475   3.867
    1C        C  489   3.200   4.495   3.990
    1C        C  490   3.008   4.414   4.116
    1C        C  491   3.134   4.477   4.114
    1C        C  492   2.942   4.387   4.238
    1C        C  493   3.002   4.426   4.360
    1C        C  494   2.833   4.302   4.484
    1C        C  495   2.941   4.393   4.483
    1C        C  496   2.776   4.259   4.605
    1C        C  497   2.821   4.318   4.725
    1C        C  498   2.667   4.167   4.846
    1C        C  499   2.752   4.279   4.843
    1C        C  500   2.593   4.122   4.956
    1C        C  501   4.005   4.358   2.041
    1C        C  502   3.817   4.467   2.156
    1C        C  503   3.944   4.405   2.158
    1C        C  504   3.747   4.480   2.278
    1C        C  505   3.811   4.454   2.401
    1C        C  506   3.609   4.513   2.520
    1C        C  507   3.747   4.486   2.523
    1C        C  508   3.537   4.525   2.641
    1C        C  509   3.607   4.520   2.763
    1C        C  510   3.398   4.527   2.887
    1C        C  511   3.539   4.528   2.887
    1C        C  512   3.326   4.518   3.008
    1C        C  513   3.396   4.531   3.130
    1C        C  514   3.191   4.491   3.254
    1C        C  515   3.327   4.529   3.254
    1C        C  516   3.125   4.466   3.377
    1C        C  517   3.192   4.495   3.498
    1C        C  518   3.002   4.408   3.626
    1C        C  519   3.127   4.474   3.622
    1C        C  520   2.947   4.369   3.750
    1C        C  521   3.010   4.405   3.871
    1C        C  522   2.843   4.278   3.999
    1C        C  523   2.951   4.370   3.995
    1C        C  524   2.791   4.232   4.121
    1C        C  525   2.838   4.291   4.241
    1C        C  526   2.696   4.137   4.366
    1C        C  527   2.783   4.248   4.363
    1C        C  528   2.654   4.081   4.489
    1C        C  529   2.691   4.146   4.609
    1C        C  530   2.587   3.960   4.733
    1C        C  531   2.644   4.091   4.730
    1C        C  532   2.539   3.905   4.855
    1C        C  533   2.527   3.999   4.963
    1C        C  534   3.618   4.556   2.042
    1C        C  535   3.750   4.507   2.040
    1C        C  536   3.536   4.539   2.158
    1C        C  537   3.607   4.506   2.277
    1C        C  538   3.395   4.525   2.400
    1C        C  539   3.536   4.520   2.398
    1C        C  540   3.325   4.514   2.522
    1C        C  541   3.396   4.519   2.644
    1C        C  542   3.187   4.486   2.765
    1C        C  543   3.325   4.515   2.766
    1C        C  544   3.120   4.464   2.887
    1C        C  545   3.189   4.485   3.009
    1C        C  546   2.998   4.401   3.135
    1C        C  547   3.123   4.466   3.133
    1C        C  548   2.940   4.363   3.258
    1C        C  549   3.001   4.399   3.381
    1C        C  550   2.832   4.277   3.507
    1C        C  551   2.944   4.363   3.505
    1C        C  552   2.784   4.230   3.631
    1C        C  553   2.837   4.279   3.752
    1C        C  554   2.702   4.121   3.874
    1C        C  555   2.791   4.230   3.876
    1C        C  556   2.663   4.065   3.998
    1C        C  557   2.699   4.125   4.120
    1C        C  558   2.600   3.945   4.246
    1C        C  559   2.665   4.070   4.246
    1C        C  560   2.573   3.883   4.370
    1C        C  561   2.597   3.951   4.491
    1C        C  562   2.537   3.749   4.618
    1C        C  563   2.571   3.886   4.614
    1C        C  564   2.519   3.684   4.741
    1C        C  565   2.517   3.764   4.859
    1C        C  566   2.528   3.550   4.981
    1C        C  567   2.520   3.689   4.977
    1C        C  568   3.328   4.475   2.044
    1C        C  569   3.395   4.517   2.159
    1C        C  570   3.183   4.480   2.278
    1C        C  571   3.321   4.516   2.280
    1C        C  572   3.118   4.458   2.402
    1C        C  573   3.187   4.480   2.523
    1C        C  574   2.993   4.396   2.648
    1C        C  575   3.117   4.463   2.644
    1C        C  576   2.929   4.364   2.770
    1C        C  577   2.997   4.395   2.890
    1C        C  578   2.828   4.272   3.018
    1C        C  579   2.938   4.360   3.014
    1C        C  580   2.779   4.221   3.141
    1C        C  581   2.832   4.272   3.262
    1C        C  582   2.699   4.111   3.385
    1C        C  583   2.781   4.226   3.385
    1C        C  584   2.660   4.056   3.510
    1C        C  585   2.697   4.119   3.631
    1C        C  586   2.596   3.934   3.757
    1C        C  587   2.656   4.062   3.754
    1C        C  588   2.571   3.871   3.881
    1C        C  589   2.598   3.939   4.002
    1C        C  590   2.537   3.740   4.130
    1C        C  591   2.572   3.877   4.126
    1C        C  592   2.520   3.674   4.254
    1C        C  593   2.531   3.748   4.374
    1C        C  594   2.517   3.537   4.500
    1C        C  595   2.524   3.678   4.496
    1C        C  596   2.518   3.467   4.623
    1C        C  597   2.518   3.542   4.743
    1C        C  598   2.541   3.331   4.864
    1C        C  599   2.533   3.471   4.865
    1C        C  600   2.530   3.250   4.978
    1C        C  601   3.197   4.431   2.046
    1C        C  602   2.979   4.397   2.162
    1C        C  603   3.114   4.444   2.159
    1C        C  604   2.927   4.356   2.288
    1C        C  605   2.992   4.396   2.407
    1C        C  606   2.820   4.269   2.531
    1C        C  607   2.932   4.355   2.528
    1C        C  608   2.773   4.215   2.652
    1C        C  609   2.819   4.275   2.772
    1C        C  610   2.690   4.112   2.895
    1C        C  611   2.773   4.226   2.896
    1C        C  612   2.653   4.054   3.018
    1C        C  613   2.689   4.112   3.141
    1C        C  614   2.590   3.926   3.268
    1C        C  615   2.657   4.051   3.264
    1C        C  616   2.562   3.865   3.392
    1C        C  617   2.593   3.932   3.512
    1C        C  618   2.533   3.731   3.641
    1C        C  619   2.568   3.868   3.636
    1C        C  620   2.518   3.665   3.765
    1C        C  621   2.528   3.736   3.886
    1C        C  622   2.506   3.528   4.012
    1C        C  623   2.515   3.669   4.010
    1C        C  624   2.514   3.461   4.136
    1C        C  625   2.511   3.533   4.257
    1C        C  626   2.538   3.324   4.381
    1C        C  627   2.514   3.463   4.380
    1C        C  628   2.566   3.256   4.502
    1C        C  629   2.545   3.328   4.622
    1C        C  630   2.599   3.122   4.744
    1C        C  631   2.561   3.259   4.744
    1C        C  632   2.622   3.051   4.865
    1C        C  633   2.567   3.115   4.981
    1C        C  634   2.782   4.302   2.054
    1C        C  635   2.890   4.391   2.050
    1C        C  636   2.755   4.227   2.170
    1C        C  637   2.810   4.275   2.290
    1C        C  638   2.680   4.107   2.411
    1C        C  639   2.758   4.225   2.411
    1C        C  640   2.642   4.045   2.532
    1C        C  641   2.685   4.104   2.653
    1C        C  642   2.580   3.924   2.781
    1C        C  643   2.641   4.052   2.776
    1C        C  644   2.557   3.859   2.904
    1C        C  645   2.589   3.928   3.023
    1C        C  646   2.527   3.725   3.149
    1C        C  647   2.563   3.862   3.145
    1C        C  648   2.513   3.657   3.273
    1C        C  649   2.528   3.727   3.394
    1C        C  650   2.509   3.520   3.520
    1C        C  651   2.522   3.660   3.519
    1C        C  652   2.516   3.453   3.644
    1C        C  653   2.509   3.524   3.766
    1C        C  654   2.536   3.318   3.892
    1C        C  655   2.506   3.456   3.890
    1C        C  656   2.559   3.253   4.015
    1C        C  657   2.539   3.322   4.137
    1C        C  658   2.609   3.124   4.259
    1C        C  659   2.554   3.254   4.260
    1C        C  660   2.641   3.058   4.380
    1C        C  661   2.612   3.123   4.502
    1C        C  662   2.715   2.939   4.626
    1C        C  663   2.639   3.058   4.624
    1C        C  664   2.752   2.876   4.747
    1C        C  665   2.703   2.933   4.867
    1C        C  666   2.741   2.869   4.985
    1C        C  667   2.679   4.025   2.055
    1C        C  668   2.686   4.104   2.171
    1C        C  669   2.589   3.912   2.292
    1C        C  670   2.641   4.044   2.291
    1C        C  671   2.560   3.846   2.414
    1C        C  672   2.581   3.918   2.534
    1C        C  673   2.517   3.720   2.661
    1C        C  674   2.555   3.856   2.659
    1C        C  675   2.506   3.650   2.783
    1C        C  676   2.524   3.722   2.904
    1C        C  677   2.500   3.514   3.031
    1C        C  678   2.513   3.655   3.028
    1C        C  679   2.507   3.446   3.154
    1C        C  680   2.504   3.516   3.276
    1C        C  681   2.534   3.309   3.401
    1C        C  682   2.502   3.447   3.399
    1C        C  683   2.558   3.244   3.524
    1C        C  684   2.535   3.313   3.646
    1C        C  685   2.613   3.120   3.772
    1C        C  686   2.555   3.249   3.770
    1C        C  687   2.648   3.059   3.895
    1C        C  688   2.609   3.120   4.016
    1C        C  689   2.722   2.941   4.138
    1C        C  690   2.643   3.058   4.138
    1C        C  691   2.763   2.884   4.260
    1C        C  692   2.718   2.940   4.382
    1C        C  693   2.760   2.883   4.504
    1C        C  694   2.630   3.894   2.060
    1C        C  695   2.519   3.706   2.174
    1C        C  696   2.579   3.833   2.175
    1C        C  697   2.505   3.637   2.297
    1C        C  698   2.521   3.711   2.416
    1C        C  699   2.490   3.506   2.541
    1C        C  700   2.505   3.646   2.541
    1C        C  701   2.500   3.435   2.664
    1C        C  702   2.505   3.509   2.784
    1C        C  703   2.529   3.304   2.910
    1C        C  704   2.504   3.443   2.909
    1C        C  705   2.548   3.236   3.033
    1C        C  706   2.533   3.307   3.155
    1C        C  707   2.605   3.110   3.279
    1C        C  708   2.551   3.241   3.279
    1C        C  709   2.638   3.051   3.403
    1C        C  710   2.612   3.114   3.527
    1C        C  711   2.720   2.936   3.650
    1C        C  712   2.640   3.052   3.651
    1C        C  713   2.769   2.886   3.773
    1C        C  714   2.728   2.943   3.896
    1C        C  715   2.769   2.884   4.017
    1C        C  716   2.443   3.499   2.059
    1C        C  717   2.494   3.630   2.059
    1C        C  718   2.465   3.423   2.178
    1C        C  719   2.488   3.496   2.298
    1C        C  720   2.513   3.290   2.425
    1C        C  721   2.490   3.430   2.422
    1C        C  722   2.535   3.223   2.547
    1C        C  723   2.520   3.295   2.667
    1C        C  724   2.602   3.102   2.790
    1C        C  725   2.540   3.229   2.791
    1C        C  726   2.632   3.041   2.913
    1C        C  727   2.601   3.106   3.035
    1C        C  728   2.709   2.924   3.161
    1C        C  729   2.638   3.045   3.158
    1C        C  730   2.755   2.873   3.285
    1C        C  731   2.716   2.934   3.407
    1C        C  732   2.764   2.880   3.528
    1C        C  733   2.487   3.196   2.073
    1C        C  734   2.489   3.282   2.183
    1C        C  735   2.582   3.087   2.307
    1C        C  736   2.523   3.217   2.305
    1C        C  737   2.613   3.022   2.428
    1C        C  738   2.586   3.091   2.548
    1C        C  739   2.698   2.910   2.673
    1C        C  740   2.623   3.030   2.670
    1C        C  741   2.746   2.857   2.795
    1C        C  742   2.707   2.921   2.915
    1C        C  743   2.749   2.867   3.038
    1C        C  744   2.549   3.071   2.074
    1C        C  745   2.690   2.900   2.190
    1C        C  746   2.613   3.018   2.187
    1C        C  747   2.739   2.849   2.312
    1C        C  748   2.687   2.902   2.432
    1C        C  749   2.737   2.847   2.552
    1C        C  750   2.739   2.842   2.072
    1C        C  751   3.647   2.291   2.014
    1C        O  752   3.653   2.184   2.080
    1C        O  753   3.666   2.281   1.875
    1C        C  754   4.618   3.047   1.975
    1C        O  755   4.589   3.051   1.852
    1C        O  756   4.758   3.053   1.978
    1C        C  757   4.444   4.220   1.960
    1C        O  758   4.535   4.300   1.996
    1C        O  759   4.403   4.241   1.828
    1C        C  760   3.598   4.661   1.940
    1C        O  761   3.619   4.783   1.968
    1C        O  762   3.621   4.645   1.803
    1C        C  763   2.855   4.523   1.993
    1C        O  764   2.824   4.536   1.872
    1C        O  765   2.755   4.592   2.063
    1C        C  766   2.315   3.482   1.987
    1C        O  767   2.314   3.457   1.863
    1C        O  768   2.192   3.490   2.052
    1C        C  769   4.691   3.600   5.055
    1C        O  770   4.667   3.591   5.179
    1C        O  771   4.816   3.661   5.038
    1C        C  772   4.277   4.445   5.039
    1C        O  773   4.252   4.476   5.159
    1C        O  774   4.386   4.525   5.004
    1C        C  775   4.131   2.532   5.086
    1C        O  776   4.219   2.444   5.061
    1C        O  777   4.077   2.534   5.215
    1C        C  778   2.907   4.491   5.094
    1C        O  779   2.846   4.600   5.114
    1C        O  780   2.978   4.451   5.207
    1C        C  781   2.479   3.030   5.064
    1C        O  782   2.370   2.992   5.015
    1C        O  783   2.470   3.052   5.201
    1C        C  784   2.414   3.994   5.059
    1C        O  785   2.298   3.969   5.016
    1C        O  786   2.391   4.107   5.139
    1C        C  787   2.943   2.426   2.010
    1C        O  788   2.913   2.454   1.891
    1C        O  789   2.874   2.319   2.066
    1C        C  790   3.191   2.367   5.056
    1C        O  791   3.216   2.259   4.997
    1C        O  792   3.159   2.364   5.192
    1C        H  793   4.292   3.024   5.064
    1C        H  794   4.182   2.816   5.076
    1C        H  795   4.538   3.129   5.042
    1C        H  796   4.503   3.370   5.071
    1C        H  797   4.526   3.802   5.056
    1C        H  798   4.374   3.954   5.050
    1C        H  799   4.366   4.207   5.028
    1C        H  800   4.021   4.526   5.034
    1C        H  801   3.821   4.582   5.043
    1C        H  802   3.588   4.650   5.034
    1C        H  803   3.390   4.545   5.049
    1C        H  804   3.154   4.517   5.050
    1C        H  805   3.917   2.439   5.036
    1C        H  806   3.677   2.436   5.072
    1C        H  807   2.997   2.551   5.067
    1C        H  808   3.444   2.452   5.077
    1C        H  809   2.857   2.721   5.079
    1C        H  810   2.671   2.866   5.066
    1C        H  811   2.463   3.288   5.053
    1C        H  812   2.592   3.513   5.058
    1C        H  813   2.531   3.740   5.070
    1C        H  814   2.561   4.202   5.021
    1C        H  815   2.724   4.364   5.029
    1C        H  816   2.723   2.887   1.976
    1C        H  817   2.869   2.709   1.982
    1C        H  818   3.203   2.418   1.991
    1C        H  819   3.438   2.465   1.977
    1C        H  820   3.869   2.505   1.973
    1C        H  821   4.068   2.632   1.971
    1C        H  822   4.271   2.720   1.977
    1C        H  823   4.373   2.931   1.970
    1C        H  824   4.613   3.297   1.974
    1C        H  825   4.474   3.519   1.963
    1C        H  826   4.486   3.754   1.961
    1C        H  827   3.803   4.515   1.948
    1C        H  828   3.947   4.355   1.952
    1C        H  829   4.192   4.314   1.957
    1C        H  830   4.510   3.977   1.971
    1C        H  831   2.664   3.835   1.977
    1C        H  832   2.681   4.064   1.956
    1C        H  833   2.717   4.295   1.970
    1C        H  834   3.370   4.486   1.946
    1C        H  835   3.163   4.385   1.956
    1C        H  836   2.525   3.007   1.992
    1C        H  837   2.410   3.207   2.000
    1C        H  838   2.456   3.688   1.977
    2V3OU   H29  839   2.813   3.555   1.513
    2V3OU   C27  840   2.788   3.506   1.611
    2V3OU   H27  841   2.725   3.564   1.683
    2V3OU   H28  842   2.731   3.411   1.592
    2V3OU   O11  843   2.913   3.480   1.675
    2V3OU   C15  844   2.921   3.398   1.786
    2V3OU   C13  845   3.052   3.374   1.832
    2V3OU   C14  846   3.076   3.275   1.929
    2V3OU   C16  847   2.970   3.199   1.978
    2V3OU    H6  848   2.990   3.107   2.035
    2V3OU   C12  849   3.215   3.234   1.958
    2V3OU    O2  850   3.239   3.126   2.015
    2V3OU   C10  851   3.328   3.308   1.900
    2V3OU    C8  852   3.460   3.271   1.925
    2V3OU   O10  853   3.488   3.155   1.990
    2V3OU   H26  854   3.401   3.117   2.012
    2V3OU    C6  855   3.567   3.352   1.875
    2V3OU    C5  856   3.539   3.467   1.802
    2V3OU    C4  857   3.704   3.292   1.878
    2V3OU    H4  858   3.723   3.226   1.968
    2V3OU    H5  859   3.711   3.226   1.786
    2V3OU    C2  860   3.817   3.394   1.874
    2V3OU    O6  861   3.810   3.475   1.992
    2V3OU   H21  862   3.772   3.558   1.961
    2V3OU    C3  863   3.784   3.494   1.763
    2V3OU    H2  864   3.866   3.571   1.760
    2V3OU    H3  865   3.783   3.440   1.664
    2V3OU   C25  866   3.953   3.327   1.854
    2V3OU    O7  867   4.005   3.291   1.748
    2V3OU   C26  868   4.030   3.293   1.980
    2V3OU   H22  869   4.069   3.387   2.028
    2V3OU   H23  870   4.117   3.227   1.956
    2V3OU    O8  871   3.960   3.209   2.068
    2V3OU   H24  872   3.916   3.271   2.128
    2V3OU    C1  873   3.650   3.564   1.774
    2V3OU    H1  874   3.629   3.617   1.676
    2V3OU    O3  875   3.660   3.658   1.881
    2V3OU   C19  876   3.619   3.794   1.865
    2V3OU    H9  877   3.522   3.805   1.808
    2V3OU    O4  878   3.710   3.850   1.773
    2V3OU   C20  879   3.842   3.874   1.823
    2V3OU   H10  880   3.896   3.776   1.837
    2V3OU   C24  881   3.608   3.857   2.004
    2V3OU   H16  882   3.547   3.794   2.073
    2V3OU   H17  883   3.565   3.960   1.993
    2V3OU   C23  884   3.751   3.877   2.055
    2V3OU   H15  885   3.798   3.774   2.064
    2V3OU    N1  886   3.739   3.954   2.177
    2V3OU   H19  887   3.807   3.920   2.242
    2V3OU   H20  888   3.651   3.934   2.220
    2V3OU   C21  889   3.846   3.951   1.955
    2V3OU   H11  890   3.948   3.933   2.000
    2V3OU    O5  891   3.822   4.091   1.954
    2V3OU   H18  892   3.786   4.103   2.043
    2V3OU   C22  893   3.913   3.950   1.712
    2V3OU   H12  894   3.863   4.049   1.699
    2V3OU   H13  895   3.908   3.892   1.616
    2V3OU   H14  896   4.022   3.962   1.731
    2V3OU   C11  897   3.159   3.472   1.810
    2V3OU    O1  898   3.131   3.593   1.805
    2V3OU    C9  899   3.299   3.425   1.825
    2V3OU    C7  900   3.403   3.500   1.773
    2V3OU    O9  901   3.385   3.617   1.701
    2V3OU   H25  902   3.294   3.622   1.669
    2V3OU   C17  903   2.815   3.320   1.837
    2V3OU    H7  904   2.713   3.347   1.811
    2V3OU   C18  905   2.842   3.218   1.927
    2V3OU    H8  906   2.758   3.152   1.955
    3SOL     OW  907   1.256   3.496   1.456
    3SOL    HW1  908   1.294   3.526   1.369
    3SOL    HW2  909   1.312   3.422   1.493
    4SOL     OW  910   5.726   0.648   1.836
    4SOL    HW1  911   5.695   0.606   1.922
    4SOL    HW2  912   5.743   0.576   1.768
    5SOL     OW  913   4.178   2.006   0.779
    5SOL    HW1  914   4.239   1.928   0.787
    5SOL    HW2  915   4.083   1.974   0.775
    6SOL     OW  916   2.937   2.041   1.850
    6SOL    HW1  917   3.021   2.047   1.904
    6SOL    HW2  918   2.858   2.063   1.908
    7SOL     OW  919   5.465   1.811   2.202
    7SOL    HW1  920   5.385   1.845   2.151
    7SOL    HW2  921   5.503   1.885   2.257
    8SOL     OW  922   2.515   0.564   4.058
    8SOL    HW1  923   2.529   0.509   4.140
    8SOL    HW2  924   2.508   0.661   4.084
    9SOL     OW  925   1.611   4.441   6.222
    9SOL    HW1  926   1.517   4.464   6.195
    9SOL    HW2  927   1.657   4.394   6.147
   10SOL     OW  928   1.006   4.301   6.317
   10SOL    HW1  929   1.014   4.204   6.296
   10SOL    HW2  930   0.945   4.313   6.395
   11SOL     OW  931   4.325   6.657   0.115
   11SOL    HW1  932   4.346   6.733   0.054
   11SOL    HW2  933   4.341   6.686   0.210
   12SOL     OW  934   5.512   5.998   2.640
   12SOL    HW1  935   5.528   6.063   2.566
   12SOL    HW2  936   5.467   6.044   2.716
   13SOL     OW  937   3.068   6.036   3.536
   13SOL    HW1  938   3.078   6.127   3.497
   13SOL    HW2  939   2.980   6.028   3.583
   14SOL     OW  940   3.709   6.432   0.199
   14SOL    HW1  941   3.696   6.470   0.108
   14SOL    HW2  942   3.789   6.372   0.200
   15SOL     OW  943   1.182   6.636   0.014
   15SOL    HW1  944   1.206   6.544   0.045
   15SOL    HW2  945   1.263   6.694   0.016
   16SOL     OW  946   6.456   2.488   6.215
   16SOL    HW1  947   6.432   2.576   6.172
   16SOL    HW2  948   6.546   2.495   6.258
   17SOL     OW  949   5.122   6.547   4.116
   17SOL    HW1  950   5.068   6.622   4.154
   17SOL    HW2  951   5.096   6.532   4.021
   18SOL     OW  952   1.808   1.876   5.768
   18SOL    HW1  953   1.739   1.912   5.705
   18SOL    HW2  954   1.810   1.932   5.850
   19SOL     OW  955   0.720   0.008   2.570
   19SOL    HW1  956   0.624   7.013   2.591
   19SOL    HW2  957   0.760   6.955   2.522
   20SOL     OW  958   3.649   1.807   4.014
   20SOL    HW1  959   3.564   1.763   4.042
   20SOL    HW2  960   3.652   1.900   4.050
   21SOL     OW  961   3.159   1.577   1.228
   21SOL    HW1  962   3.185   1.588   1.132
   21SOL    HW2  963   3.215   1.506   1.270
   22SOL     OW  964   2.178   6.122   5.951
   22SOL    HW1  965   2.085   6.127   5.989
   22SOL    HW2  966   2.186   6.184   5.873
   23SOL     OW  967   4.023   6.338   4.525
   23SOL    HW1  968   4.001   6.418   4.582
   23SOL    HW2  969   4.020   6.255   4.582
   24SOL     OW  970   5.312   1.518   5.235
   24SOL    HW1  971   5.222   1.480   5.255
   24SOL    HW2  972   5.371   1.447   5.198
   25SOL     OW  973   4.045   5.789   0.623
   25SOL    HW1  974   4.032   5.737   0.539
   25SOL    HW2  975   3.963   5.843   0.642
   26SOL     OW  976   6.569   1.171   2.086
   26SOL    HW1  977   6.533   1.085   2.123
   26SOL    HW2  978   6.500   1.213   2.027
   27SOL     OW  979   6.316   0.512   2.862
   27SOL    HW1  980   6.270   0.437   2.909
   27SOL    HW2  981   6.336   0.586   2.926
   28SOL     OW  982   4.014   0.361   7.007
   28SOL    HW1  983   3.959   0.436   0.018
   28SOL    HW2  984   3.983   0.275   0.023
   29SOL     OW  985   4.604   2.474   1.341
   29SOL    HW1  986   4.676   2.537   1.314
   29SOL    HW2  987   4.552   2.512   1.418
   30SOL     OW  988   3.310   1.268   4.873
   30SOL    HW1  989   3.345   1.353   4.833
   30SOL    HW2  990   3.283   1.205   4.800
   31SOL     OW  991   0.597   1.195   5.020
   31SOL    HW1  992   0.647   1.250   4.953
   31SOL    HW2  993   0.531   1.252   5.068
   32SOL     OW  994   0.754   1.859   1.836
   32SOL    HW1  995   0.673   1.815   1.875
   32SOL    HW2  996   0.835   1.802   1.852
   33SOL     OW  997   1.835   2.779   6.431
   33SOL    HW1  998   1.853   2.758   6.527
   33SOL    HW2  999   1.736   2.791   6.418
   34SOL     OW 1000   2.054   0.353   4.787
   34SOL    HW1 1001   1.968   0.329   4.743
   34SOL    HW2 1002   2.096   0.271   4.825
   35SOL     OW 1003   5.015   1.663   0.250
   35SOL    HW1 1004   5.026   1.757   0.218
   35SOL    HW2 1005   5.029   1.600   0.173
   36SOL     OW 1006   1.707   1.222   5.510
   36SOL    HW1 1007   1.768   1.280   5.564
   36SOL    HW2 1008   1.632   1.191   5.568
   37SOL     OW 1009   3.158   6.615   1.413
   37SOL    HW1 1010   3.232   6.558   1.450
   37SOL    HW2 1011   3.167   6.620   1.313
   38SOL     OW 1012   7.018   6.739   3.273
   38SOL    HW1 1013   0.033   6.824   3.237
   38SOL    HW2 1014   0.006   6.665   3.206
   39SOL     OW 1015   6.824   3.096   5.117
   39SOL    HW1 1016   6.852   3.192   5.110
   39SOL    HW2 1017   6.733   3.090   5.157
   40SOL     OW 1018   6.128   0.871   2.556
   40SOL    HW1 1019   6.072   0.827   2.626
   40SOL    HW2 1020   6.146   0.806   2.482
   41SOL     OW 1021   1.527   6.719   4.912
   41SOL    HW1 1022   1.532   6.733   4.813
   41SOL    HW2 1023   1.459   6.648   4.932
   42SOL     OW 1024   3.649   0.267   6.646
   42SOL    HW1 1025   3.554   0.294   6.634
   42SOL    HW2 1026   3.664   0.235   6.739
   43SOL     OW 1027   5.458   6.494   5.357
   43SOL    HW1 1028   5.465   6.456   5.265
   43SOL    HW2 1029   5.547   6.491   5.402
   44SOL     OW 1030   0.607   2.321   6.276
   44SOL    HW1 1031   0.568   2.383   6.208
   44SOL    HW2 1032   0.587   2.356   6.368
   45SOL     OW 1033   2.616   0.927   1.913
   45SOL    HW1 1034   2.643   0.966   2.001
   45SOL    HW2 1035   2.567   0.996   1.859
   46SOL     OW 1036   1.618   4.059   4.709
   46SOL    HW1 1037   1.602   4.131   4.777
   46SOL    HW2 1038   1.716   4.040   4.703
   47SOL     OW 1039   6.983   4.299   3.578
   47SOL    HW1 1040   6.916   4.247   3.527
   47SOL    HW2 1041   6.962   4.295   3.676
   48SOL     OW 1042   0.392   2.271   5.347
   48SOL    HW1 1043   0.397   2.371   5.345
   48SOL    HW2 1044   0.379   2.236   5.255
   49SOL     OW 1045   4.452   3.091   0.639
   49SOL    HW1 1046   4.519   3.164   0.655
   49SOL    HW2 1047   4.483   3.007   0.683
   50SOL     OW 1048   6.465   3.956   4.436
   50SOL    HW1 1049   6.539   3.946   4.502
   50SOL    HW2 1050   6.479   3.894   4.360
   51SOL     OW 1051   3.444   4.900   3.147
   51SOL    HW1 1052   3.499   4.901   3.231
   51SOL    HW2 1053   3.504   4.883   3.068
   52SOL     OW 1054   2.545   1.595   2.051
   52SOL    HW1 1055   2.551   1.598   2.151
   52SOL    HW2 1056   2.556   1.687   2.014
   53SOL     OW 1057   4.993   6.883   4.527
   53SOL    HW1 1058   5.066   6.913   4.589
   53SOL    HW2 1059   5.005   6.927   4.438
   54SOL     OW 1060   3.625   4.960   5.526
   54SOL    HW1 1061   3.574   4.892   5.579
   54SOL    HW2 1062   3.619   4.936   5.429
   55SOL     OW 1063   3.880   1.930   6.343
   55SOL    HW1 1064   3.934   2.013   6.361
   55SOL    HW2 1065   3.913   1.886   6.260
   56SOL     OW 1066   0.899   0.475   2.387
   56SOL    HW1 1067   0.882   0.427   2.301
   56SOL    HW2 1068   0.879   0.414   2.464
   57SOL     OW 1069   5.167   1.114   0.391
   57SOL    HW1 1070   5.143   1.207   0.364
   57SOL    HW2 1071   5.126   1.093   0.480
   58SOL     OW 1072   0.081   5.992   6.741
   58SOL    HW1 1073   0.067   6.031   6.832
   58SOL    HW2 1074   7.023   5.943   6.713
   59SOL     OW 1075   1.127   0.454   6.212
   59SOL    HW1 1076   1.132   0.545   6.252
   59SOL    HW2 1077   1.220   0.420   6.195
   60SOL     OW 1078   4.550   0.146   5.405
   60SOL    HW1 1079   4.606   0.213   5.355
   60SOL    HW2 1080   4.462   0.136   5.359
   61SOL     OW 1081   5.074   0.197   4.129
   61SOL    HW1 1082   5.161   0.246   4.129
   61SOL    HW2 1083   5.081   0.115   4.072
   62SOL     OW 1084   1.673   0.477   3.996
   62SOL    HW1 1085   1.714   0.389   4.017
   62SOL    HW2 1086   1.679   0.537   4.075
   63SOL     OW 1087   6.602   2.793   3.204
   63SOL    HW1 1088   6.670   2.764   3.271
   63SOL    HW2 1089   6.636   2.873   3.155
   64SOL     OW 1090   6.047   4.004   6.620
   64SOL    HW1 1091   6.009   3.938   6.684
   64SOL    HW2 1092   6.139   3.975   6.592
   65SOL     OW 1093   0.097   4.679   5.066
   65SOL    HW1 1094   0.064   4.772   5.083
   65SOL    HW2 1095   0.121   4.670   4.969
   66SOL     OW 1096   3.111   0.324   0.103
   66SOL    HW1 1097   3.095   0.304   0.200
   66SOL    HW2 1098   3.068   0.253   0.047
   67SOL     OW 1099   5.473   5.759   4.886
   67SOL    HW1 1100   5.455   5.771   4.983
   67SOL    HW2 1101   5.411   5.818   4.833
   68SOL     OW 1102   6.027   2.023   6.074
   68SOL    HW1 1103   6.027   2.033   6.174
   68SOL    HW2 1104   6.121   2.022   6.041
   69SOL     OW 1105   3.028   4.263   6.276
   69SOL    HW1 1106   2.985   4.353   6.279
   69SOL    HW2 1107   3.053   4.235   6.368
   70SOL     OW 1108   0.038   5.630   2.865
   70SOL    HW1 1109   0.005   5.537   2.852
   70SOL    HW2 1110   0.034   5.653   2.962
   71SOL     OW 1111   1.898   2.800   3.381
   71SOL    HW1 1112   1.926   2.725   3.441
   71SOL    HW2 1113   1.961   2.876   3.392
   72SOL     OW 1114   2.986   5.528   3.790
   72SOL    HW1 1115   2.898   5.554   3.829
   72SOL    HW2 1116   2.973   5.449   3.730
   73SOL     OW 1117   3.734   1.921   0.504
   73SOL    HW1 1118   3.747   2.019   0.491
   73SOL    HW2 1119   3.636   1.901   0.510
   74SOL     OW 1120   5.161   6.525   6.532
   74SOL    HW1 1121   5.107   6.444   6.507
   74SOL    HW2 1122   5.244   6.527   6.477
   75SOL     OW 1123   3.754   5.744   5.907
   75SOL    HW1 1124   3.732   5.803   5.830
   75SOL    HW2 1125   3.834   5.781   5.956
   76SOL     OW 1126   2.063   2.465   1.308
   76SOL    HW1 1127   1.984   2.520   1.280
   76SOL    HW2 1128   2.122   2.449   1.230
   77SOL     OW 1129   5.979   5.074   5.254
   77SOL    HW1 1130   6.012   5.150   5.197
   77SOL    HW2 1131   5.895   5.101   5.301
   78SOL     OW 1132   6.576   6.112   5.374
   78SOL    HW1 1133   6.513   6.122   5.451
   78SOL    HW2 1134   6.607   6.202   5.344
   79SOL     OW 1135   3.491   6.683   0.639
   79SOL    HW1 1136   3.430   6.616   0.681
   79SOL    HW2 1137   3.526   6.647   0.552
   80SOL     OW 1138   0.325   1.841   4.482
   80SOL    HW1 1139   0.277   1.874   4.400
   80SOL    HW2 1140   0.306   1.902   4.559
   81SOL     OW 1141   1.634   0.918   2.905
   81SOL    HW1 1142   1.595   0.986   2.967
   81SOL    HW2 1143   1.611   0.826   2.938
   82SOL     OW 1144   6.577   5.035   6.194
   82SOL    HW1 1145   6.559   5.050   6.291
   82SOL    HW2 1146   6.495   4.997   6.150
   83SOL     OW 1147   0.123   6.424   0.354
   83SOL    HW1 1148   0.190   6.414   0.281
   83SOL    HW2 1149   0.032   6.438   0.314
   84SOL     OW 1150   5.388   3.692   1.758
   84SOL    HW1 1151   5.342   3.621   1.812
   84SOL    HW2 1152   5.319   3.754   1.719
   85SOL     OW 1153   1.010   1.807   5.378
   85SOL    HW1 1154   0.944   1.755   5.324
   85SOL    HW2 1155   0.963   1.853   5.453
   86SOL     OW 1156   0.580   0.359   5.662
   86SOL    HW1 1157   0.520   0.439   5.663
   86SOL    HW2 1158   0.637   0.362   5.580
   87SOL     OW 1159   4.635   2.194   0.573
   87SOL    HW1 1160   4.694   2.148   0.507
   87SOL    HW2 1161   4.543   2.154   0.569
   88SOL     OW 1162   5.424   1.152   0.816
   88SOL    HW1 1163   5.454   1.123   0.725
   88SOL    HW2 1164   5.451   1.247   0.831
   89SOL     OW 1165   1.661   3.024   6.684
   89SOL    HW1 1166   1.593   3.092   6.655
   89SOL    HW2 1167   1.748   3.069   6.702
   90SOL     OW 1168   5.796   6.050   3.768
   90SOL    HW1 1169   5.768   6.137   3.809
   90SOL    HW2 1170   5.761   6.045   3.674
   91SOL     OW 1171   4.778   4.772   4.602
   91SOL    HW1 1172   4.781   4.686   4.652
   91SOL    HW2 1173   4.818   4.760   4.511
   92SOL     OW 1174   3.177   4.434   1.189
   92SOL    HW1 1175   3.166   4.386   1.276
   92SOL    HW2 1176   3.241   4.510   1.200
   93SOL     OW 1177   3.703   5.105   5.751
   93SOL    HW1 1178   3.678   5.053   5.669
   93SOL    HW2 1179   3.636   5.086   5.824
   94SOL     OW 1180   2.892   6.036   0.025
   94SOL    HW1 1181   2.826   6.083   6.991
   94SOL    HW2 1182   2.894   5.939   0.002
   95SOL     OW 1183   0.148   0.014   4.042
   95SOL    HW1 1184   0.127   0.111   4.049
   95SOL    HW2 1185   0.228   0.002   3.983
   96SOL     OW 1186   2.326   0.011   5.214
   96SOL    HW1 1187   2.348   0.019   5.311
   96SOL    HW2 1188   2.240   0.057   5.195
   97SOL     OW 1189   6.145   3.549   3.986
   97SOL    HW1 1190   6.049   3.546   4.012
   97SOL    HW2 1191   6.191   3.467   4.020
   98SOL     OW 1192   5.154   2.427   6.207
   98SOL    HW1 1193   5.205   2.342   6.217
   98SOL    HW2 1194   5.172   2.465   6.116
   99SOL     OW 1195   4.005   2.691   0.604
   99SOL    HW1 1196   4.000   2.692   0.704
   99SOL    HW2 1197   4.078   2.628   0.575
  100SOL     OW 1198   0.534   5.926   6.441
  100SOL    HW1 1199   0.535   5.826   6.445
  100SOL    HW2 1200   0.478   5.962   6.516
  101SOL     OW 1201   1.113   6.048   4.273
  101SOL    HW1 1202   1.090   6.063   4.177
  101SOL    HW2 1203   1.058   5.973   4.310
  102SOL     OW 1204   3.521   0.763   3.286
  102SOL    HW1 1205   3.584   0.785   3.211
  102SOL    HW2 1206   3.556   0.683   3.336
  103SOL     OW 1207   4.193   2.216   1.390
  103SOL    HW1 1208   4.101   2.186   1.366
  103SOL    HW2 1209   4.195   2.244   1.486
  104SOL     OW 1210   6.839   5.370   2.352
  104SOL    HW1 1211   6.827   5.420   2.267
  104SOL    HW2 1212   6.871   5.433   2.423
  105SOL     OW 1213   6.097   0.966   6.906
  105SOL    HW1 1214   6.159   1.044   6.898
  105SOL    HW2 1215   6.004   0.995   6.888
  106SOL     OW 1216   2.862   6.362   6.707
  106SOL    HW1 1217   2.782   6.366   6.646
  106SOL    HW2 1218   2.840   6.409   6.792
  107SOL     OW 1219   1.344   2.585   0.697
  107SOL    HW1 1220   1.385   2.621   0.781
  107SOL    HW2 1221   1.415   2.576   0.627
  108SOL     OW 1222   4.830   4.824   6.298
  108SOL    HW1 1223   4.825   4.916   6.259
  108SOL    HW2 1224   4.917   4.781   6.273
  109SOL     OW 1225   0.466   0.439   0.705
  109SOL    HW1 1226   0.496   0.534   0.713
  109SOL    HW2 1227   0.471   0.395   0.795
  110SOL     OW 1228   3.658   5.813   5.632
  110SOL    HW1 1229   3.568   5.769   5.632
  110SOL    HW2 1230   3.650   5.905   5.594
  111SOL     OW 1231   3.892   0.715   3.366
  111SOL    HW1 1232   3.912   0.652   3.290
  111SOL    HW2 1233   3.939   0.682   3.449
  112SOL     OW 1234   6.290   5.951   5.824
  112SOL    HW1 1235   6.228   6.021   5.789
  112SOL    HW2 1236   6.252   5.861   5.806
  113SOL     OW 1237   0.026   4.309   3.851
  113SOL    HW1 1238   6.997   4.226   3.833
  113SOL    HW2 1239   7.024   4.347   3.939
  114SOL     OW 1240   0.559   6.796   0.430
  114SOL    HW1 1241   0.657   6.786   0.412
  114SOL    HW2 1242   0.543   6.878   0.485
  115SOL     OW 1243   4.774   1.547   3.944
  115SOL    HW1 1244   4.687   1.592   3.966
  115SOL    HW2 1245   4.820   1.519   4.028
  116SOL     OW 1246   5.990   4.916   2.021
  116SOL    HW1 1247   6.074   4.918   2.074
  116SOL    HW2 1248   5.913   4.942   2.079
  117SOL     OW 1249   1.184   0.262   6.605
  117SOL    HW1 1250   1.153   0.288   6.514
  117SOL    HW2 1251   1.231   0.174   6.600
  118SOL     OW 1252   0.276   0.764   1.977
  118SOL    HW1 1253   0.256   0.697   2.049
  118SOL    HW2 1254   0.287   0.716   1.890
  119SOL     OW 1255   6.759   2.770   6.235
  119SOL    HW1 1256   6.683   2.795   6.295
  119SOL    HW2 1257   6.752   2.674   6.211
  120SOL     OW 1258   6.500   6.498   1.161
  120SOL    HW1 1259   6.586   6.494   1.212
  120SOL    HW2 1260   6.431   6.445   1.209
  121SOL     OW 1261   2.229   3.625   6.451
  121SOL    HW1 1262   2.141   3.614   6.405
  121SOL    HW2 1263   2.281   3.697   6.407
  122SOL     OW 1264   0.758   3.514   5.074
  122SOL    HW1 1265   0.785   3.609   5.061
  122SOL    HW2 1266   0.836   3.461   5.106
  123SOL     OW 1267   0.003   1.728   1.229
  123SOL    HW1 1268   7.008   1.673   1.148
  123SOL    HW2 1269   0.089   1.777   1.215
  124SOL     OW 1270   5.251   3.340   0.197
  124SOL    HW1 1271   5.266   3.242   0.210
  124SOL    HW2 1272   5.304   3.392   0.264
  125SOL     OW 1273   1.583   2.511   2.142
  125SOL    HW1 1274   1.526   2.475   2.216
  125SOL    HW2 1275   1.554   2.604   2.119
  126SOL     OW 1276   2.804   4.578   0.909
  126SOL    HW1 1277   2.740   4.653   0.893
  126SOL    HW2 1278   2.822   4.571   1.007
  127SOL     OW 1279   0.070   5.192   6.120
  127SOL    HW1 1280   0.038   5.106   6.080
  127SOL    HW2 1281   7.016   5.249   6.143
  128SOL     OW 1282   4.599   2.960   1.456
  128SOL    HW1 1283   4.615   3.054   1.426
  128SOL    HW2 1284   4.567   2.960   1.551
  129SOL     OW 1285   3.404   3.928   6.354
  129SOL    HW1 1286   3.483   3.875   6.324
  129SOL    HW2 1287   3.321   3.890   6.314
  130SOL     OW 1288   0.790   1.120   4.142
  130SOL    HW1 1289   0.883   1.106   4.174
  130SOL    HW2 1290   0.738   1.170   4.211
  131SOL     OW 1291   4.491   1.535   2.510
  131SOL    HW1 1292   4.421   1.509   2.576
  131SOL    HW2 1293   4.449   1.586   2.435
  132SOL     OW 1294   0.701   2.913   1.727
  132SOL    HW1 1295   0.685   2.817   1.749
  132SOL    HW2 1296   0.710   2.965   1.812
  133SOL     OW 1297   6.339   5.998   2.415
  133SOL    HW1 1298   6.309   5.950   2.333
  133SOL    HW2 1299   6.362   6.092   2.392
  134SOL     OW 1300   6.852   3.389   3.067
  134SOL    HW1 1301   6.797   3.333   3.005
  134SOL    HW2 1302   6.798   3.414   3.148
  135SOL     OW 1303   5.253   1.795   3.881
  135SOL    HW1 1304   5.167   1.763   3.842
  135SOL    HW2 1305   5.328   1.738   3.846
  136SOL     OW 1306   5.310   4.127   5.472
  136SOL    HW1 1307   5.392   4.152   5.421
  136SOL    HW2 1308   5.229   4.139   5.414
  137SOL     OW 1309   5.271   0.143   5.857
  137SOL    HW1 1310   5.175   0.130   5.881
  137SOL    HW2 1311   5.304   0.230   5.893
  138SOL     OW 1312   6.891   4.918   4.455
  138SOL    HW1 1313   6.858   4.994   4.511
  138SOL    HW2 1314   6.822   4.895   4.386
  139SOL     OW 1315   3.167   4.640   5.301
  139SOL    HW1 1316   3.138   4.717   5.358
  139SOL    HW2 1317   3.086   4.595   5.262
  140SOL     OW 1318   5.464   5.277   4.093
  140SOL    HW1 1319   5.541   5.215   4.081
  140SOL    HW2 1320   5.380   5.224   4.104
  141SOL     OW 1321   1.026   1.900   4.844
  141SOL    HW1 1322   0.927   1.902   4.858
  141SOL    HW2 1323   1.046   1.876   4.749
  142SOL     OW 1324   1.544   6.262   1.371
  142SOL    HW1 1325   1.621   6.300   1.423
  142SOL    HW2 1326   1.574   6.240   1.279
  143SOL     OW 1327   4.972   4.869   2.466
  143SOL    HW1 1328   4.883   4.885   2.424
  143SOL    HW2 1329   4.966   4.884   2.565
  144SOL     OW 1330   1.678   6.613   6.736
  144SOL    HW1 1331   1.649   6.578   6.825
  144SOL    HW2 1332   1.689   6.537   6.673
  145SOL     OW 1333   0.549   5.243   0.855
  145SOL    HW1 1334   0.521   5.276   0.945
  145SOL    HW2 1335   0.552   5.320   0.791
  146SOL     OW 1336   5.199   6.708   0.722
  146SOL    HW1 1337   5.158   6.628   0.766
  146SOL    HW2 1338   5.256   6.678   0.645
  147SOL     OW 1339   6.677   2.957   0.540
  147SOL    HW1 1340   6.761   2.920   0.579
  147SOL    HW2 1341   6.626   3.006   0.610
  148SOL     OW 1342   0.996   5.176   5.707
  148SOL    HW1 1343   0.931   5.188   5.782
  148SOL    HW2 1344   1.082   5.221   5.729
  149SOL     OW 1345   2.968   1.198   4.636
  149SOL    HW1 1346   2.924   1.228   4.721
  149SOL    HW2 1347   2.916   1.122   4.598
  150SOL     OW 1348   6.762   4.851   6.949
  150SOL    HW1 1349   6.788   4.902   6.867
  150SOL    HW2 1350   6.716   4.912   7.013
  151SOL     OW 1351   4.068   1.511   1.406
  151SOL    HW1 1352   4.065   1.610   1.415
  151SOL    HW2 1353   3.975   1.475   1.395
  152SOL     OW 1354   2.797   0.760   4.698
  152SOL    HW1 1355   2.753   0.670   4.709
  152SOL    HW2 1356   2.792   0.788   4.602
  153SOL     OW 1357   2.159   1.033   2.880
  153SOL    HW1 1358   2.095   1.107   2.860
  153SOL    HW2 1359   2.227   1.065   2.946
  154SOL     OW 1360   6.762   2.171   2.177
  154SOL    HW1 1361   6.676   2.198   2.132
  154SOL    HW2 1362   6.821   2.251   2.187
  155SOL     OW 1363   0.012   0.702   2.897
  155SOL    HW1 1364   0.031   0.675   2.991
  155SOL    HW2 1365   0.096   0.695   2.843
  156SOL     OW 1366   6.274   1.507   1.294
  156SOL    HW1 1367   6.280   1.602   1.325
  156SOL    HW2 1368   6.365   1.472   1.273
  157SOL     OW 1369   5.799   3.380   2.590
  157SOL    HW1 1370   5.745   3.385   2.506
  157SOL    HW2 1371   5.738   3.389   2.669
  158SOL     OW 1372   2.789   0.780   2.913
  158SOL    HW1 1373   2.706   0.829   2.886
  158SOL    HW2 1374   2.826   0.732   2.833
  159SOL     OW 1375   4.674   4.531   1.944
  159SOL    HW1 1376   4.635   4.440   1.933
  159SOL    HW2 1377   4.723   4.556   1.860
  160SOL     OW 1378   6.496   4.130   5.819
  160SOL    HW1 1379   6.503   4.032   5.835
  160SOL    HW2 1380   6.582   4.164   5.782
  161SOL     OW 1381   2.047   4.976   5.209
  161SOL    HW1 1382   2.077   4.902   5.270
  161SOL    HW2 1383   2.127   5.018   5.166
  162SOL     OW 1384   4.711   6.012   1.118
  162SOL    HW1 1385   4.681   5.978   1.029
  162SOL    HW2 1386   4.715   6.112   1.116
  163SOL     OW 1387   4.708   6.660   1.915
  163SOL    HW1 1388   4.753   6.738   1.958
  163SOL    HW2 1389   4.652   6.692   1.839
  164SOL     OW 1390   6.452   3.421   0.916
  164SOL    HW1 1391   6.437   3.516   0.889
  164SOL    HW2 1392   6.504   3.374   0.845
  165SOL     OW 1393   4.932   3.715   6.490
  165SOL    HW1 1394   4.940   3.628   6.443
  165SOL    HW2 1395   4.995   3.782   6.449
  166SOL     OW 1396   0.214   6.349   2.761
  166SOL    HW1 1397   0.277   6.386   2.828
  166SOL    HW2 1398   0.164   6.272   2.801
  167SOL     OW 1399   6.554   2.451   6.806
  167SOL    HW1 1400   6.459   2.438   6.835
  167SOL    HW2 1401   6.583   2.372   6.752
  168SOL     OW 1402   2.190   5.180   1.001
  168SOL    HW1 1403   2.159   5.120   0.928
  168SOL    HW2 1404   2.194   5.129   1.087
  169SOL     OW 1405   2.266   0.224   2.189
  169SOL    HW1 1406   2.363   0.240   2.208
  169SOL    HW2 1407   2.221   0.310   2.165
  170SOL     OW 1408   0.115   1.881   3.454
  170SOL    HW1 1409   0.080   1.974   3.452
  170SOL    HW2 1410   0.046   1.818   3.418
  171SOL     OW 1411   3.928   3.724   0.407
  171SOL    HW1 1412   4.010   3.705   0.461
  171SOL    HW2 1413   3.954   3.760   0.318
  172SOL     OW 1414   6.749   2.243   5.603
  172SOL    HW1 1415   6.705   2.184   5.671
  172SOL    HW2 1416   6.833   2.199   5.571
  173SOL     OW 1417   6.835   6.765   4.733
  173SOL    HW1 1418   6.890   6.814   4.665
  173SOL    HW2 1419   6.871   6.672   4.744
  174SOL     OW 1420   2.653   5.068   3.785
  174SOL    HW1 1421   2.571   5.025   3.823
  174SOL    HW2 1422   2.660   5.047   3.687
  175SOL     OW 1423   2.067   5.874   2.197
  175SOL    HW1 1424   2.161   5.856   2.226
  175SOL    HW2 1425   2.018   5.923   2.270
  176SOL     OW 1426   2.169   4.086   1.250
  176SOL    HW1 1427   2.142   4.119   1.341
  176SOL    HW2 1428   2.233   4.151   1.209
  177SOL     OW 1429   4.957   2.333   2.809
  177SOL    HW1 1430   5.033   2.391   2.838
  177SOL    HW2 1431   4.987   2.275   2.733
  178SOL     OW 1432   4.806   4.776   6.700
  178SOL    HW1 1433   4.776   4.720   6.624
  178SOL    HW2 1434   4.904   4.761   6.716
  179SOL     OW 1435   3.346   0.412   0.584
  179SOL    HW1 1436   3.252   0.441   0.567
  179SOL    HW2 1437   3.409   0.478   0.544
  180SOL     OW 1438   0.900   0.803   6.676
  180SOL    HW1 1439   0.923   0.718   6.628
  180SOL    HW2 1440   0.801   0.813   6.681
  181SOL     OW 1441   3.648   2.305   5.933
  181SOL    HW1 1442   3.719   2.306   6.003
  181SOL    HW2 1443   3.570   2.252   5.966
  182SOL     OW 1444   3.858   2.035   4.509
  182SOL    HW1 1445   3.855   1.962   4.440
  182SOL    HW2 1446   3.917   2.109   4.477
  183SOL     OW 1447   4.436   1.357   1.714
  183SOL    HW1 1448   4.407   1.452   1.699
  183SOL    HW2 1449   4.534   1.355   1.733
  184SOL     OW 1450   1.459   4.821   3.342
  184SOL    HW1 1451   1.407   4.894   3.297
  184SOL    HW2 1452   1.513   4.861   3.417
  185SOL     OW 1453   1.613   3.560   6.883
  185SOL    HW1 1454   1.696   3.512   6.910
  185SOL    HW2 1455   1.631   3.659   6.883
  186SOL     OW 1456   5.943   0.274   3.054
  186SOL    HW1 1457   5.856   0.243   3.091
  186SOL    HW2 1458   6.017   0.215   3.089
  187SOL     OW 1459   5.400   0.828   4.057
  187SOL    HW1 1460   5.368   0.816   4.151
  187SOL    HW2 1461   5.325   0.861   4.000
  188SOL     OW 1462   5.734   2.414   3.176
  188SOL    HW1 1463   5.703   2.508   3.189
  188SOL    HW2 1464   5.726   2.364   3.262
  189SOL     OW 1465   2.190   4.983   2.902
  189SOL    HW1 1466   2.279   4.975   2.947
  189SOL    HW2 1467   2.120   5.005   2.970
  190SOL     OW 1468   4.164   1.123   5.257
  190SOL    HW1 1469   4.256   1.108   5.221
  190SOL    HW2 1470   4.158   1.215   5.295
  191SOL     OW 1471   5.915   5.880   6.560
  191SOL    HW1 1472   5.880   5.903   6.469
  191SOL    HW2 1473   5.999   5.931   6.577
  192SOL     OW 1474   6.784   0.325   1.871
  192SOL    HW1 1475   6.741   0.244   1.833
  192SOL    HW2 1476   6.736   0.407   1.839
  193SOL     OW 1477   5.363   3.506   0.010
  193SOL    HW1 1478   5.292   3.516   6.965
  193SOL    HW2 1479   5.350   3.420   0.059
  194SOL     OW 1480   3.135   0.890   3.485
  194SOL    HW1 1481   3.197   0.816   3.458
  194SOL    HW2 1482   3.046   0.852   3.511
  195SOL     OW 1483   1.913   5.560   3.637
  195SOL    HW1 1484   1.930   5.508   3.721
  195SOL    HW2 1485   1.913   5.658   3.658
  196SOL     OW 1486   1.580   1.829   6.835
  196SOL    HW1 1487   1.631   1.743   6.836
  196SOL    HW2 1488   1.503   1.821   6.772
  197SOL     OW 1489   2.098   0.915   1.150
  197SOL    HW1 1490   2.093   1.014   1.166
  197SOL    HW2 1491   2.149   0.898   1.066
  198SOL     OW 1492   3.653   1.375   3.070
  198SOL    HW1 1493   3.581   1.435   3.036
  198SOL    HW2 1494   3.678   1.402   3.163
  199SOL     OW 1495   1.096   2.262   3.682
  199SOL    HW1 1496   1.053   2.192   3.740
  199SOL    HW2 1497   1.049   2.349   3.695
  200SOL     OW 1498   0.077   2.405   0.353
  200SOL    HW1 1499   0.082   2.489   0.406
  200SOL    HW2 1500   0.038   2.332   0.409
  201SOL     OW 1501   0.674   0.438   6.219
  201SOL    HW1 1502   0.742   0.371   6.248
  201SOL    HW2 1503   0.719   0.526   6.204
  202SOL     OW 1504   4.688   0.272   6.160
  202SOL    HW1 1505   4.661   0.312   6.247
  202SOL    HW2 1506   4.722   0.345   6.100
  203SOL     OW 1507   5.202   3.179   5.566
  203SOL    HW1 1508   5.276   3.223   5.516
  203SOL    HW2 1509   5.117   3.188   5.515
  204SOL     OW 1510   6.657   0.423   6.009
  204SOL    HW1 1511   6.634   0.401   5.914
  204SOL    HW2 1512   6.729   0.494   6.010
  205SOL     OW 1513   0.766   3.013   2.214
  205SOL    HW1 1514   0.739   2.932   2.266
  205SOL    HW2 1515   0.801   3.083   2.277
  206SOL     OW 1516   0.277   3.185   0.721
  206SOL    HW1 1517   0.278   3.277   0.683
  206SOL    HW2 1518   0.279   3.189   0.820
  207SOL     OW 1519   5.161   2.046   3.716
  207SOL    HW1 1520   5.191   1.976   3.781
  207SOL    HW2 1521   5.126   2.125   3.766
  208SOL     OW 1522   1.049   4.275   4.684
  208SOL    HW1 1523   1.110   4.203   4.650
  208SOL    HW2 1524   0.958   4.261   4.645
  209SOL     OW 1525   6.517   4.519   2.410
  209SOL    HW1 1526   6.594   4.455   2.406
  209SOL    HW2 1527   6.513   4.572   2.325
  210SOL     OW 1528   4.737   2.020   0.120
  210SOL    HW1 1529   4.726   1.936   0.067
  210SOL    HW2 1530   4.697   2.097   0.070
  211SOL     OW 1531   0.914   0.566   3.214
  211SOL    HW1 1532   0.967   0.627   3.154
  211SOL    HW2 1533   0.819   0.597   3.216
  212SOL     OW 1534   1.877   4.119   3.395
  212SOL    HW1 1535   1.860   4.033   3.346
  212SOL    HW2 1536   1.859   4.105   3.493
  213SOL     OW 1537   2.203   5.065   1.246
  213SOL    HW1 1538   2.269   4.999   1.281
  213SOL    HW2 1539   2.204   5.148   1.303
  214SOL     OW 1540   4.457   5.802   2.356
  214SOL    HW1 1541   4.467   5.895   2.322
  214SOL    HW2 1542   4.471   5.801   2.455
  215SOL     OW 1543   2.469   4.849   2.169
  215SOL    HW1 1544   2.550   4.882   2.121
  215SOL    HW2 1545   2.474   4.877   2.265
  216SOL     OW 1546   1.301   6.871   2.229
  216SOL    HW1 1547   1.244   6.894   2.307
  216SOL    HW2 1548   1.393   6.906   2.243
  217SOL     OW 1549   1.640   3.838   6.798
  217SOL    HW1 1550   1.563   3.864   6.856
  217SOL    HW2 1551   1.606   3.807   6.709
  218SOL     OW 1552   0.675   2.356   5.560
  218SOL    HW1 1553   0.669   2.410   5.476
  218SOL    HW2 1554   0.766   2.317   5.570
  219SOL     OW 1555   3.795   1.170   0.825
  219SOL    HW1 1556   3.799   1.079   0.868
  219SOL    HW2 1557   3.802   1.240   0.896
  220SOL     OW 1558   3.276   6.807   0.485
  220SOL    HW1 1559   3.359   6.780   0.534
  220SOL    HW2 1560   3.196   6.773   0.533
  221SOL     OW 1561   5.311   5.580   1.208
  221SOL    HW1 1562   5.333   5.483   1.195
  221SOL    HW2 1563   5.296   5.623   1.120
  222SOL     OW 1564   2.186   4.479   6.042
  222SOL    HW1 1565   2.269   4.433   6.009
  222SOL    HW2 1566   2.155   4.435   6.127
  223SOL     OW 1567   6.319   2.229   5.437
  223SOL    HW1 1568   6.394   2.278   5.482
  223SOL    HW2 1569   6.357   2.167   5.368
  224SOL     OW 1570   2.193   1.688   6.125
  224SOL    HW1 1571   2.197   1.741   6.041
  224SOL    HW2 1572   2.273   1.628   6.130
  225SOL     OW 1573   4.427   4.560   6.230
  225SOL    HW1 1574   4.361   4.576   6.157
  225SOL    HW2 1575   4.428   4.638   6.292
  226SOL     OW 1576   1.265   1.898   6.680
  226SOL    HW1 1577   1.342   1.940   6.632
  226SOL    HW2 1578   1.183   1.903   6.622
  227SOL     OW 1579   1.822   3.658   2.113
  227SOL    HW1 1580   1.751   3.698   2.172
  227SOL    HW2 1581   1.890   3.611   2.170
  228SOL     OW 1582   1.827   0.281   2.812
  228SOL    HW1 1583   1.835   0.269   2.713
  228SOL    HW2 1584   1.910   0.248   2.857
  229SOL     OW 1585   4.859   5.031   6.564
  229SOL    HW1 1586   4.810   4.944   6.564
  229SOL    HW2 1587   4.943   5.022   6.510
  230SOL     OW 1588   4.694   6.010   4.737
  230SOL    HW1 1589   4.668   6.083   4.674
  230SOL    HW2 1590   4.613   5.965   4.773
  231SOL     OW 1591   4.924   1.469   0.062
  231SOL    HW1 1592   4.917   1.380   0.016
  231SOL    HW2 1593   4.832   1.501   0.085
  232SOL     OW 1594   1.333   2.469   6.128
  232SOL    HW1 1595   1.365   2.525   6.051
  232SOL    HW2 1596   1.271   2.523   6.185
  233SOL     OW 1597   2.524   1.275   3.388
  233SOL    HW1 1598   2.431   1.301   3.414
  233SOL    HW2 1599   2.562   1.214   3.458
  234SOL     OW 1600   4.884   1.439   6.340
  234SOL    HW1 1601   4.839   1.505   6.400
  234SOL    HW2 1602   4.947   1.487   6.278
  235SOL     OW 1603   4.888   3.139   2.219
  235SOL    HW1 1604   4.820   3.115   2.149
  235SOL    HW2 1605   4.863   3.094   2.305
  236SOL     OW 1606   4.404   3.939   6.068
  236SOL    HW1 1607   4.336   3.871   6.096
  236SOL    HW2 1608   4.416   4.006   6.142
  237SOL     OW 1609   5.665   3.840   2.287
  237SOL    HW1 1610   5.703   3.919   2.239
  237SOL    HW2 1611   5.567   3.833   2.270
  238SOL     OW 1612   6.337   1.544   0.293
  238SOL    HW1 1613   6.326   1.612   0.221
  238SOL    HW2 1614   6.330   1.589   0.382
  239SOL     OW 1615   1.512   3.712   0.499
  239SOL    HW1 1616   1.451   3.778   0.542
  239SOL    HW2 1617   1.591   3.697   0.558
  240SOL     OW 1618   5.801   3.425   3.332
  240SOL    HW1 1619   5.891   3.460   3.356
  240SOL    HW2 1620   5.790   3.333   3.369
  241SOL     OW 1621   2.780   1.062   4.037
  241SOL    HW1 1622   2.858   1.117   4.008
  241SOL    HW2 1623   2.751   1.092   4.128
  242SOL     OW 1624   3.671   4.159   3.730
  242SOL    HW1 1625   3.610   4.085   3.702
  242SOL    HW2 1626   3.692   4.217   3.650
  243SOL     OW 1627   4.880   2.665   6.271
  243SOL    HW1 1628   4.964   2.717   6.290
  243SOL    HW2 1629   4.801   2.722   6.295
  244SOL     OW 1630   6.243   3.521   6.167
  244SOL    HW1 1631   6.279   3.615   6.164
  244SOL    HW2 1632   6.144   3.523   6.152
  245SOL     OW 1633   3.273   1.797   2.723
  245SOL    HW1 1634   3.179   1.763   2.726
  245SOL    HW2 1635   3.291   1.837   2.633
  246SOL     OW 1636   5.944   1.463   3.728
  246SOL    HW1 1637   5.966   1.539   3.667
  246SOL    HW2 1638   6.020   1.449   3.793
  247SOL     OW 1639   2.001   1.500   0.722
  247SOL    HW1 1640   2.018   1.411   0.765
  247SOL    HW2 1641   2.005   1.489   0.622
  248SOL     OW 1642   1.753   1.280   2.205
  248SOL    HW1 1643   1.732   1.251   2.112
  248SOL    HW2 1644   1.847   1.313   2.209
  249SOL     OW 1645   5.471   6.659   4.840
  249SOL    HW1 1646   5.439   6.592   4.772
  249SOL    HW2 1647   5.400   6.727   4.855
  250SOL     OW 1648   3.327   2.905   0.135
  250SOL    HW1 1649   3.236   2.941   0.157
  250SOL    HW2 1650   3.317   2.826   0.075
  251SOL     OW 1651   4.337   3.802   5.481
  251SOL    HW1 1652   4.302   3.891   5.453
  251SOL    HW2 1653   4.431   3.791   5.447
  252SOL     OW 1654   6.097   6.555   5.725
  252SOL    HW1 1655   6.094   6.536   5.823
  252SOL    HW2 1656   6.167   6.498   5.682
  253SOL     OW 1657   4.362   5.347   5.927
  253SOL    HW1 1658   4.323   5.265   5.884
  253SOL    HW2 1659   4.461   5.348   5.913
  254SOL     OW 1660   6.171   2.787   4.588
  254SOL    HW1 1661   6.138   2.693   4.580
  254SOL    HW2 1662   6.212   2.800   4.678
  255SOL     OW 1663   2.012   4.711   6.161
  255SOL    HW1 1664   2.079   4.638   6.151
  255SOL    HW2 1665   1.935   4.694   6.098
  256SOL     OW 1666   4.668   3.189   5.641
  256SOL    HW1 1667   4.741   3.121   5.638
  256SOL    HW2 1668   4.610   3.181   5.560
  257SOL     OW 1669   4.868   6.196   3.096
  257SOL    HW1 1670   4.901   6.280   3.053
  257SOL    HW2 1671   4.768   6.193   3.089
  258SOL     OW 1672   2.614   3.705   6.203
  258SOL    HW1 1673   2.670   3.624   6.218
  258SOL    HW2 1674   2.619   3.732   6.107
  259SOL     OW 1675   4.010   0.052   2.760
  259SOL    HW1 1676   4.039   0.003   2.678
  259SOL    HW2 1677   3.981   0.145   2.734
  260SOL     OW 1678   4.175   5.090   3.707
  260SOL    HW1 1679   4.080   5.062   3.725
  260SOL    HW2 1680   4.186   5.107   3.609
  261SOL     OW 1681   4.615   5.043   0.471
  261SOL    HW1 1682   4.613   5.060   0.569
  261SOL    HW2 1683   4.522   5.028   0.438
  262SOL     OW 1684   2.044   4.175   0.629
  262SOL    HW1 1685   2.004   4.098   0.678
  262SOL    HW2 1686   2.040   4.159   0.531
  263SOL     OW 1687   1.122   6.640   4.049
  263SOL    HW1 1688   1.113   6.654   3.950
  263SOL    HW2 1689   1.152   6.726   4.091
  264SOL     OW 1690   6.996   3.078   6.724
  264SOL    HW1 1691   6.911   3.026   6.724
  264SOL    HW2 1692   7.011   3.117   6.633
  265SOL     OW 1693   5.726   0.079   3.906
  265SOL    HW1 1694   5.765   0.147   3.969
  265SOL    HW2 1695   5.774   7.017   3.918
  266SOL     OW 1696   4.923   2.161   5.557
  266SOL    HW1 1697   4.988   2.097   5.600
  266SOL    HW2 1698   4.940   2.163   5.458
  267SOL     OW 1699   1.452   0.590   5.223
  267SOL    HW1 1700   1.414   0.500   5.201
  267SOL    HW2 1701   1.479   0.636   5.139
  268SOL     OW 1702   3.805   1.431   1.335
  268SOL    HW1 1703   3.706   1.443   1.341
  268SOL    HW2 1704   3.827   1.374   1.256
  269SOL     OW 1705   3.478   2.319   0.142
  269SOL    HW1 1706   3.406   2.253   0.122
  269SOL    HW2 1707   3.537   2.331   0.062
  270SOL     OW 1708   7.012   6.758   0.249
  270SOL    HW1 1709   6.934   6.708   0.210
  270SOL    HW2 1710   0.062   6.758   0.184
  271SOL     OW 1711   0.083   2.215   6.293
  271SOL    HW1 1712   0.060   2.123   6.263
  271SOL    HW2 1713   0.179   2.234   6.273
  272SOL     OW 1714   3.245   6.423   3.653
  272SOL    HW1 1715   3.284   6.439   3.744
  272SOL    HW2 1716   3.240   6.324   3.636
  273SOL     OW 1717   2.044   5.240   5.324
  273SOL    HW1 1718   2.020   5.145   5.304
  273SOL    HW2 1719   2.140   5.244   5.353
  274SOL     OW 1720   4.122   0.931   4.271
  274SOL    HW1 1721   4.102   0.919   4.368
  274SOL    HW2 1722   4.043   0.971   4.225
  275SOL     OW 1723   0.095   6.630   2.939
  275SOL    HW1 1724   0.118   6.631   2.842
  275SOL    HW2 1725   0.142   6.706   2.985
  276SOL     OW 1726   0.013   0.249   4.257
  276SOL    HW1 1727   0.049   0.171   4.307
  276SOL    HW2 1728   0.049   0.334   4.296
  277SOL     OW 1729   1.892   2.852   0.679
  277SOL    HW1 1730   1.965   2.870   0.744
  277SOL    HW2 1731   1.912   2.767   0.629
  278SOL     OW 1732   0.164   2.719   2.416
  278SOL    HW1 1733   0.124   2.782   2.482
  278SOL    HW2 1734   0.151   2.625   2.446
  279SOL     OW 1735   5.617   2.856   4.137
  279SOL    HW1 1736   5.668   2.864   4.052
  279SOL    HW2 1737   5.656   2.784   4.194
  280SOL     OW 1738   2.039   4.855   2.240
  280SOL    HW1 1739   2.093   4.870   2.157
  280SOL    HW2 1740   2.011   4.759   2.245
  281SOL     OW 1741   2.298   3.706   0.875
  281SOL    HW1 1742   2.200   3.714   0.855
  281SOL    HW2 1743   2.337   3.798   0.887
  282SOL     OW 1744   3.142   1.706   6.112
  282SOL    HW1 1745   3.101   1.724   6.202
  282SOL    HW2 1746   3.177   1.612   6.110
  283SOL     OW 1747   5.319   2.917   6.573
  283SOL    HW1 1748   5.414   2.886   6.572
  283SOL    HW2 1749   5.287   2.927   6.478
  284SOL     OW 1750   0.611   3.238   3.955
  284SOL    HW1 1751   0.680   3.173   3.986
  284SOL    HW2 1752   0.568   3.203   3.871
  285SOL     OW 1753   5.740   4.615   3.710
  285SOL    HW1 1754   5.720   4.587   3.617
  285SOL    HW2 1755   5.835   4.596   3.732
  286SOL     OW 1756   3.732   3.713   6.878
  286SOL    HW1 1757   3.764   3.664   6.797
  286SOL    HW2 1758   3.636   3.689   6.896
  287SOL     OW 1759   2.033   3.717   0.895
  287SOL    HW1 1760   2.009   3.700   0.991
  287SOL    HW2 1761   1.966   3.672   0.836
  288SOL     OW 1762   4.771   1.780   7.020
  288SOL    HW1 1763   4.840   1.760   6.951
  288SOL    HW2 1764   4.753   1.698   0.049
  289SOL     OW 1765   2.485   4.682   6.210
  289SOL    HW1 1766   2.471   4.681   6.111
  289SOL    HW2 1767   2.460   4.592   6.247
  290SOL     OW 1768   0.070   2.071   5.920
  290SOL    HW1 1769   0.112   2.038   5.836
  290SOL    HW2 1770   0.084   2.170   5.928
  291SOL     OW 1771   6.659   2.070   2.422
  291SOL    HW1 1772   6.724   2.067   2.498
  291SOL    HW2 1773   6.705   2.104   2.340
  292SOL     OW 1774   1.863   0.641   3.431
  292SOL    HW1 1775   1.830   0.674   3.520
  292SOL    HW2 1776   1.963   0.631   3.434
  293SOL     OW 1777   4.127   5.093   4.400
  293SOL    HW1 1778   4.194   5.019   4.390
  293SOL    HW2 1779   4.166   5.167   4.454
  294SOL     OW 1780   5.109   6.470   6.778
  294SOL    HW1 1781   5.131   6.488   6.682
  294SOL    HW2 1782   5.106   6.557   6.828
  295SOL     OW 1783   4.733   0.926   4.049
  295SOL    HW1 1784   4.745   0.926   4.148
  295SOL    HW2 1785   4.753   1.017   4.012
  296SOL     OW 1786   2.933   2.273   3.589
  296SOL    HW1 1787   2.926   2.366   3.552
  296SOL    HW2 1788   2.882   2.210   3.531
  297SOL     OW 1789   1.251   4.101   3.198
  297SOL    HW1 1790   1.293   4.181   3.242
  297SOL    HW2 1791   1.224   4.035   3.267
  298SOL     OW 1792   6.470   4.615   1.060
  298SOL    HW1 1793   6.403   4.686   1.040
  298SOL    HW2 1794   6.528   4.644   1.137
  299SOL     OW 1795   6.593   2.503   4.825
  299SOL    HW1 1796   6.607   2.450   4.909
  299SOL    HW2 1797   6.679   2.546   4.798
  300SOL     OW 1798   6.347   0.396   3.318
  300SOL    HW1 1799   6.293   0.473   3.352
  300SOL    HW2 1800   6.323   0.378   3.223
  301SOL     OW 1801   5.726   3.898   6.203
  301SOL    HW1 1802   5.647   3.928   6.149
  301SOL    HW2 1803   5.810   3.932   6.160
  302SOL     OW 1804   0.716   6.912   3.644
  302SOL    HW1 1805   0.745   6.886   3.736
  302SOL    HW2 1806   0.647   6.847   3.611
  303SOL     OW 1807   5.023   0.810   3.768
  303SOL    HW1 1808   4.942   0.870   3.766
  303SOL    HW2 1809   5.102   0.864   3.796
  304SOL     OW 1810   2.564   0.082   3.641
  304SOL    HW1 1811   2.482   0.035   3.608
  304SOL    HW2 1812   2.541   0.136   3.722
  305SOL     OW 1813   1.547   3.236   0.832
  305SOL    HW1 1814   1.576   3.147   0.868
  305SOL    HW2 1815   1.460   3.262   0.874
  306SOL     OW 1816   1.896   1.058   3.854
  306SOL    HW1 1817   1.805   1.093   3.874
  306SOL    HW2 1818   1.954   1.132   3.821
  307SOL     OW 1819   3.807   0.106   1.307
  307SOL    HW1 1820   3.863   0.031   1.272
  307SOL    HW2 1821   3.776   0.163   1.230
  308SOL     OW 1822   0.840   5.918   3.954
  308SOL    HW1 1823   0.754   5.968   3.962
  308SOL    HW2 1824   0.835   5.853   3.878
  309SOL     OW 1825   3.430   5.331   4.874
  309SOL    HW1 1826   3.391   5.400   4.812
  309SOL    HW2 1827   3.449   5.248   4.823
  310SOL     OW 1828   0.414   6.569   5.785
  310SOL    HW1 1829   0.389   6.515   5.865
  310SOL    HW2 1830   0.486   6.634   5.810
  311SOL     OW 1831   0.324   6.557   0.977
  311SOL    HW1 1832   0.406   6.519   0.934
  311SOL    HW2 1833   0.280   6.621   0.914
  312SOL     OW 1834   4.792   2.079   4.983
  312SOL    HW1 1835   4.737   2.159   5.005
  312SOL    HW2 1836   4.810   2.077   4.884
  313SOL     OW 1837   1.378   4.150   1.579
  313SOL    HW1 1838   1.350   4.108   1.665
  313SOL    HW2 1839   1.368   4.250   1.586
  314SOL     OW 1840   3.859   6.418   0.660
  314SOL    HW1 1841   3.810   6.338   0.695
  314SOL    HW2 1842   3.850   6.493   0.724
  315SOL     OW 1843   0.726   2.137   3.199
  315SOL    HW1 1844   0.714   2.055   3.256
  315SOL    HW2 1845   0.815   2.178   3.219
  316SOL     OW 1846   2.696   2.391   4.009
  316SOL    HW1 1847   2.699   2.380   4.108
  316SOL    HW2 1848   2.769   2.338   3.967
  317SOL     OW 1849   0.103   1.493   6.738
  317SOL    HW1 1850   0.121   1.456   6.647
  317SOL    HW2 1851   0.185   1.538   6.773
  318SOL     OW 1852   2.449   4.714   0.538
  318SOL    HW1 1853   2.488   4.735   0.628
  318SOL    HW2 1854   2.491   4.631   0.502
  319SOL     OW 1855   1.603   6.158   0.609
  319SOL    HW1 1856   1.672   6.175   0.539
  319SOL    HW2 1857   1.519   6.206   0.586
  320SOL     OW 1858   5.947   3.440   0.623
  320SOL    HW1 1859   5.849   3.441   0.644
  320SOL    HW2 1860   5.960   3.462   0.526
  321SOL     OW 1861   1.843   2.692   1.399
  321SOL    HW1 1862   1.890   2.767   1.352
  321SOL    HW2 1863   1.889   2.674   1.486
  322SOL     OW 1864   3.569   2.919   5.167
  322SOL    HW1 1865   3.567   2.875   5.078
  322SOL    HW2 1866   3.656   2.967   5.179
  323SOL     OW 1867   0.382   4.437   1.908
  323SOL    HW1 1868   0.436   4.452   1.825
  323SOL    HW2 1869   0.442   4.444   1.988
  324SOL     OW 1870   0.717   2.587   4.873
  324SOL    HW1 1871   0.711   2.556   4.778
  324SOL    HW2 1872   0.789   2.536   4.920
  325SOL     OW 1873   2.308   2.520   2.240
  325SOL    HW1 1874   2.284   2.601   2.187
  325SOL    HW2 1875   2.357   2.455   2.181
  326SOL     OW 1876   1.577   5.147   6.348
  326SOL    HW1 1877   1.545   5.055   6.369
  326SOL    HW2 1878   1.562   5.207   6.426
  327SOL     OW 1879   6.383   5.373   5.173
  327SOL    HW1 1880   6.369   5.360   5.271
  327SOL    HW2 1881   6.412   5.287   5.132
  328SOL     OW 1882   3.911   5.691   2.489
  328SOL    HW1 1883   3.874   5.723   2.402
  328SOL    HW2 1884   3.837   5.651   2.543
  329SOL     OW 1885   3.352   3.849   2.999
  329SOL    HW1 1886   3.449   3.825   2.992
  329SOL    HW2 1887   3.318   3.825   3.090
  330SOL     OW 1888   3.544   0.385   1.874
  330SOL    HW1 1889   3.584   0.448   1.808
  330SOL    HW2 1890   3.466   0.338   1.833
  331SOL     OW 1891   4.956   5.433   6.040
  331SOL    HW1 1892   4.905   5.506   5.995
  331SOL    HW2 1893   5.054   5.453   6.036
  332SOL     OW 1894   3.517   1.823   2.528
  332SOL    HW1 1895   3.612   1.852   2.535
  332SOL    HW2 1896   3.507   1.762   2.449
  333SOL     OW 1897   3.979   6.173   6.436
  333SOL    HW1 1898   3.974   6.157   6.337
  333SOL    HW2 1899   4.045   6.246   6.454
  334SOL     OW 1900   4.363   6.987   2.674
  334SOL    HW1 1901   4.403   6.980   2.766
  334SOL    HW2 1902   4.434   6.972   2.606
  335SOL     OW 1903   2.886   6.889   3.409
  335SOL    HW1 1904   2.929   6.967   3.363
  335SOL    HW2 1905   2.857   6.822   3.340
  336SOL     OW 1906   2.782   0.802   4.011
  336SOL    HW1 1907   2.814   0.895   3.994
  336SOL    HW2 1908   2.711   0.803   4.081
  337SOL     OW 1909   6.768   3.719   1.265
  337SOL    HW1 1910   6.802   3.798   1.215
  337SOL    HW2 1911   6.753   3.643   1.202
  338SOL     OW 1912   3.321   2.951   1.324
  338SOL    HW1 1913   3.313   3.007   1.242
  338SOL    HW2 1914   3.233   2.949   1.372
  339SOL     OW 1915   4.296   6.573   3.194
  339SOL    HW1 1916   4.335   6.622   3.272
  339SOL    HW2 1917   4.358   6.580   3.116
  340SOL     OW 1918   4.898   3.723   4.401
  340SOL    HW1 1919   4.865   3.675   4.320
  340SOL    HW2 1920   4.948   3.805   4.374
  341SOL     OW 1921   5.395   5.465   4.668
  341SOL    HW1 1922   5.381   5.368   4.647
  341SOL    HW2 1923   5.491   5.489   4.651
  342SOL     OW 1924   6.492   4.078   0.820
  342SOL    HW1 1925   6.448   4.041   0.902
  342SOL    HW2 1926   6.590   4.088   0.838
  343SOL     OW 1927   2.804   0.328   2.608
  343SOL    HW1 1928   2.894   0.371   2.599
  343SOL    HW2 1929   2.741   0.368   2.542
  344SOL     OW 1930   3.070   5.223   0.856
  344SOL    HW1 1931   3.070   5.128   0.887
  344SOL    HW2 1932   2.976   5.254   0.843
  345SOL     OW 1933   0.699   6.793   5.242
  345SOL    HW1 1934   0.742   6.873   5.201
  345SOL    HW2 1935   0.617   6.769   5.190
  346SOL     OW 1936   1.156   0.262   3.096
  346SOL    HW1 1937   1.239   0.219   3.133
  346SOL    HW2 1938   1.148   0.355   3.133
  347SOL     OW 1939   5.131   6.798   6.554
  347SOL    HW1 1940   5.142   6.705   6.518
  347SOL    HW2 1941   5.054   6.800   6.617
  348SOL     OW 1942   3.821   5.423   1.619
  348SOL    HW1 1943   3.818   5.404   1.521
  348SOL    HW2 1944   3.733   5.400   1.660
  349SOL     OW 1945   1.496   4.596   2.059
  349SOL    HW1 1946   1.478   4.694   2.043
  349SOL    HW2 1947   1.593   4.577   2.043
  350SOL     OW 1948   4.644   3.376   1.059
  350SOL    HW1 1949   4.552   3.374   1.020
  350SOL    HW2 1950   4.641   3.343   1.153
  351SOL     OW 1951   3.438   2.018   0.438
  351SOL    HW1 1952   3.339   2.021   0.450
  351SOL    HW2 1953   3.474   2.112   0.430
  352SOL     OW 1954   3.015   0.697   6.963
  352SOL    HW1 1955   3.026   0.610   6.915
  352SOL    HW2 1956   2.935   0.746   6.926
  353SOL     OW 1957   2.473   6.259   1.590
  353SOL    HW1 1958   2.377   6.286   1.597
  353SOL    HW2 1959   2.524   6.300   1.666
  354SOL     OW 1960   4.883   1.649   1.373
  354SOL    HW1 1961   4.870   1.704   1.291
  354SOL    HW2 1962   4.795   1.631   1.416
  355SOL     OW 1963   0.458   2.463   2.377
  355SOL    HW1 1964   0.549   2.431   2.352
  355SOL    HW2 1965   0.462   2.559   2.402
  356SOL     OW 1966   4.521   5.428   3.622
  356SOL    HW1 1967   4.462   5.402   3.699
  356SOL    HW2 1968   4.564   5.346   3.583
  357SOL     OW 1969   0.537   5.262   5.359
  357SOL    HW1 1970   0.507   5.349   5.399
  357SOL    HW2 1971   0.457   5.211   5.328
  358SOL     OW 1972   5.557   0.849   1.727
  358SOL    HW1 1973   5.599   0.759   1.733
  358SOL    HW2 1974   5.586   0.894   1.642
  359SOL     OW 1975   1.184   1.484   1.983
  359SOL    HW1 1976   1.231   1.555   2.036
  359SOL    HW2 1977   1.122   1.432   2.043
  360SOL     OW 1978   4.176   6.689   0.405
  360SOL    HW1 1979   4.131   6.600   0.395
  360SOL    HW2 1980   4.275   6.676   0.402
  361SOL     OW 1981   4.350   0.263   2.750
  361SOL    HW1 1982   4.345   0.176   2.799
  361SOL    HW2 1983   4.372   0.245   2.654
  362SOL     OW 1984   2.922   3.237   0.757
  362SOL    HW1 1985   2.915   3.290   0.842
  362SOL    HW2 1986   2.830   3.221   0.721
  363SOL     OW 1987   4.363   4.764   4.129
  363SOL    HW1 1988   4.277   4.759   4.181
  363SOL    HW2 1989   4.440   4.758   4.192
  364SOL     OW 1990   1.453   5.461   5.765
  364SOL    HW1 1991   1.437   5.489   5.670
  364SOL    HW2 1992   1.396   5.515   5.826
  365SOL     OW 1993   4.923   6.417   2.048
  365SOL    HW1 1994   4.877   6.457   1.968
  365SOL    HW2 1995   4.998   6.358   2.017
  366SOL     OW 1996   5.880   0.384   0.094
  366SOL    HW1 1997   5.938   0.355   0.169
  366SOL    HW2 1998   5.790   0.342   0.103
  367SOL     OW 1999   5.165   2.942   0.926
  367SOL    HW1 2000   5.193   2.879   0.853
  367SOL    HW2 2001   5.241   2.956   0.989
  368SOL     OW 2002   1.094   4.794   5.309
  368SOL    HW1 2003   1.080   4.884   5.267
  368SOL    HW2 2004   1.187   4.762   5.289
  369SOL     OW 2005   0.888   4.007   2.228
  369SOL    HW1 2006   0.956   4.071   2.263
  369SOL    HW2 2007   0.820   4.056   2.173
  370SOL     OW 2008   3.688   1.516   6.056
  370SOL    HW1 2009   3.757   1.588   6.059
  370SOL    HW2 2010   3.719   1.438   6.111
  371SOL     OW 2011   4.157   2.843   6.474
  371SOL    HW1 2012   4.256   2.841   6.482
  371SOL    HW2 2013   4.131   2.808   6.384
  372SOL     OW 2014   1.176   6.059   6.118
  372SOL    HW1 2015   1.114   6.136   6.104
  372SOL    HW2 2016   1.123   5.974   6.119
  373SOL     OW 2017   0.037   6.775   0.531
  373SOL    HW1 2018   0.016   6.782   0.433
  373SOL    HW2 2019   0.117   6.717   0.544
  374SOL     OW 2020   3.371   0.889   1.443
  374SOL    HW1 2021   3.315   0.971   1.443
  374SOL    HW2 2022   3.468   0.915   1.439
  375SOL     OW 2023   6.992   4.573   2.935
  375SOL    HW1 2024   7.019   4.644   3.000
  375SOL    HW2 2025   0.015   4.488   2.957
  376SOL     OW 2026   2.277   2.728   3.734
  376SOL    HW1 2027   2.216   2.652   3.760
  376SOL    HW2 2028   2.299   2.782   3.815
  377SOL     OW 2029   4.988   1.710   3.822
  377SOL    HW1 2030   4.952   1.631   3.772
  377SOL    HW2 2031   4.915   1.753   3.875
  378SOL     OW 2032   4.978   3.008   4.990
  378SOL    HW1 2033   4.997   2.945   5.066
  378SOL    HW2 2034   5.063   3.030   4.943
  379SOL     OW 2035   6.443   3.332   1.174
  379SOL    HW1 2036   6.354   3.285   1.173
  379SOL    HW2 2037   6.458   3.377   1.086
  380SOL     OW 2038   0.750   2.210   0.694
  380SOL    HW1 2039   0.781   2.207   0.789
  380SOL    HW2 2040   0.808   2.150   0.639
  381SOL     OW 2041   3.459   3.417   0.843
  381SOL    HW1 2042   3.387   3.350   0.859
  381SOL    HW2 2043   3.543   3.387   0.889
  382SOL     OW 2044   2.702   5.926   0.427
  382SOL    HW1 2045   2.749   6.005   0.388
  382SOL    HW2 2046   2.767   5.872   0.481
  383SOL     OW 2047   6.378   2.665   6.774
  383SOL    HW1 2048   6.448   2.608   6.731
  383SOL    HW2 2049   6.385   2.657   6.874
  384SOL     OW 2050   1.638   5.504   5.519
  384SOL    HW1 2051   1.699   5.457   5.455
  384SOL    HW2 2052   1.559   5.539   5.469
  385SOL     OW 2053   4.690   5.334   0.758
  385SOL    HW1 2054   4.649   5.245   0.737
  385SOL    HW2 2055   4.639   5.378   0.831
  386SOL     OW 2056   3.331   6.514   5.497
  386SOL    HW1 2057   3.406   6.554   5.444
  386SOL    HW2 2058   3.365   6.488   5.588
  387SOL     OW 2059   0.375   0.362   5.326
  387SOL    HW1 2060   0.449   0.410   5.280
  387SOL    HW2 2061   0.407   0.271   5.355
  388SOL     OW 2062   6.812   2.230   4.768
  388SOL    HW1 2063   6.906   2.202   4.749
  388SOL    HW2 2064   6.783   2.193   4.856
  389SOL     OW 2065   3.957   4.501   1.554
  389SOL    HW1 2066   4.035   4.473   1.611
  389SOL    HW2 2067   3.872   4.490   1.606
  390SOL     OW 2068   3.620   2.244   0.353
  390SOL    HW1 2069   3.560   2.282   0.282
  390SOL    HW2 2070   3.696   2.196   0.310
  391SOL     OW 2071   3.403   4.193   5.117
  391SOL    HW1 2072   3.304   4.195   5.108
  391SOL    HW2 2073   3.430   4.241   5.201
  392SOL     OW 2074   1.406   3.795   1.869
  392SOL    HW1 2075   1.369   3.875   1.822
  392SOL    HW2 2076   1.371   3.711   1.826
  393SOL     OW 2077   1.155   4.422   1.368
  393SOL    HW1 2078   1.246   4.419   1.409
  393SOL    HW2 2079   1.087   4.442   1.439
  394SOL     OW 2080   6.802   0.904   6.560
  394SOL    HW1 2081   6.705   0.882   6.566
  394SOL    HW2 2082   6.856   0.826   6.591
  395SOL     OW 2083   5.476   4.785   0.841
  395SOL    HW1 2084   5.437   4.729   0.768
  395SOL    HW2 2085   5.563   4.746   0.870
  396SOL     OW 2086   2.098   0.865   1.703
  396SOL    HW1 2087   2.012   0.819   1.682
  396SOL    HW2 2088   2.170   0.827   1.644
  397SOL     OW 2089   4.317   1.951   5.393
  397SOL    HW1 2090   4.304   1.916   5.300
  397SOL    HW2 2091   4.365   2.038   5.389
  398SOL     OW 2092   1.308   1.203   4.127
  398SOL    HW1 2093   1.369   1.270   4.169
  398SOL    HW2 2094   1.231   1.250   4.083
  399SOL     OW 2095   5.750   6.377   3.827
  399SOL    HW1 2096   5.837   6.340   3.793
  399SOL    HW2 2097   5.756   6.477   3.828
  400SOL     OW 2098   5.837   0.307   4.247
  400SOL    HW1 2099   5.862   0.214   4.218
  400SOL    HW2 2100   5.905   0.340   4.313
  401SOL     OW 2101   0.398   5.044   5.988
  401SOL    HW1 2102   0.348   4.962   6.016
  401SOL    HW2 2103   0.349   5.089   5.913
  402SOL     OW 2104   5.884   1.500   3.265
  402SOL    HW1 2105   5.936   1.570   3.216
  402SOL    HW2 2106   5.944   1.421   3.283
  403SOL     OW 2107   3.182   1.091   5.261
  403SOL    HW1 2108   3.166   1.004   5.214
  403SOL    HW2 2109   3.098   1.122   5.304
  404SOL     OW 2110   3.509   5.314   3.952
  404SOL    HW1 2111   3.453   5.277   3.879
  404SOL    HW2 2112   3.547   5.239   4.007
  405SOL     OW 2113   2.020   4.895   4.233
  405SOL    HW1 2114   2.104   4.849   4.261
  405SOL    HW2 2115   2.035   4.941   4.145
  406SOL     OW 2116   0.239   6.089   5.695
  406SOL    HW1 2117   0.300   6.105   5.618
  406SOL    HW2 2118   0.222   6.175   5.744
  407SOL     OW 2119   1.889   2.934   4.039
  407SOL    HW1 2120   1.944   2.979   4.110
  407SOL    HW2 2121   1.801   2.980   4.031
  408SOL     OW 2122   2.251   1.669   3.644
  408SOL    HW1 2123   2.308   1.623   3.575
  408SOL    HW2 2124   2.238   1.765   3.618
  409SOL     OW 2125   0.280   3.758   2.567
  409SOL    HW1 2126   0.259   3.842   2.516
  409SOL    HW2 2127   0.209   3.742   2.635
  410SOL     OW 2128   1.494   1.442   1.116
  410SOL    HW1 2129   1.505   1.363   1.176
  410SOL    HW2 2130   1.510   1.413   1.021
  411SOL     OW 2131   7.017   2.742   1.535
  411SOL    HW1 2132   0.092   2.740   1.542
  411SOL    HW2 2133   6.986   2.663   1.482
  412SOL     OW 2134   1.361   4.988   2.526
  412SOL    HW1 2135   1.430   5.028   2.465
  412SOL    HW2 2136   1.287   5.054   2.540
  413SOL     OW 2137   6.001   6.046   2.337
  413SOL    HW1 2138   5.976   5.953   2.364
  413SOL    HW2 2139   6.030   6.098   2.418
  414SOL     OW 2140   1.718   6.577   2.801
  414SOL    HW1 2141   1.671   6.654   2.846
  414SOL    HW2 2142   1.656   6.536   2.734
  415SOL     OW 2143   6.301   1.024   0.384
  415SOL    HW1 2144   6.365   1.096   0.410
  415SOL    HW2 2145   6.264   1.043   0.293
  416SOL     OW 2146   5.354   3.655   5.169
  416SOL    HW1 2147   5.255   3.644   5.163
  416SOL    HW2 2148   5.377   3.710   5.250
  417SOL     OW 2149   2.061   1.887   6.572
  417SOL    HW1 2150   2.022   1.845   6.654
  417SOL    HW2 2151   2.050   1.825   6.495
  418SOL     OW 2152   4.013   6.920   4.636
  418SOL    HW1 2153   3.972   6.949   4.549
  418SOL    HW2 2154   3.987   6.985   4.707
  419SOL     OW 2155   0.175   0.051   0.691
  419SOL    HW1 2156   0.077   0.038   0.706
  419SOL    HW2 2157   0.193   0.060   0.593
  420SOL     OW 2158   3.944   0.674   6.614
  420SOL    HW1 2159   3.959   0.661   6.712
  420SOL    HW2 2160   3.913   0.768   6.598
  421SOL     OW 2161   4.687   4.263   2.244
  421SOL    HW1 2162   4.724   4.172   2.225
  421SOL    HW2 2163   4.635   4.295   2.166
  422SOL     OW 2164   5.200   2.686   1.632
  422SOL    HW1 2165   5.258   2.651   1.705
  422SOL    HW2 2166   5.105   2.687   1.662
  423SOL     OW 2167   3.457   1.027   6.457
  423SOL    HW1 2168   3.431   0.981   6.372
  423SOL    HW2 2169   3.550   1.061   6.449
  424SOL     OW 2170   1.063   3.908   4.221
  424SOL    HW1 2171   1.042   3.916   4.319
  424SOL    HW2 2172   0.978   3.898   4.170
  425SOL     OW 2173   3.017   0.859   6.595
  425SOL    HW1 2174   3.074   0.776   6.592
  425SOL    HW2 2175   2.950   0.850   6.669
  426SOL     OW 2176   2.539   2.103   4.159
  426SOL    HW1 2177   2.474   2.027   4.162
  426SOL    HW2 2178   2.629   2.070   4.189
  427SOL     OW 2179   4.286   2.333   2.990
  427SOL    HW1 2180   4.349   2.260   2.966
  427SOL    HW2 2181   4.193   2.296   2.993
  428SOL     OW 2182   2.428   2.233   5.825
  428SOL    HW1 2183   2.498   2.303   5.839
  428SOL    HW2 2184   2.467   2.143   5.848
  429SOL     OW 2185   6.875   5.340   4.227
  429SOL    HW1 2186   6.814   5.260   4.229
  429SOL    HW2 2187   6.821   5.424   4.232
  430SOL     OW 2188   1.429   0.178   3.666
  430SOL    HW1 2189   1.498   0.222   3.608
  430SOL    HW2 2190   1.455   0.083   3.682
  431SOL     OW 2191   2.402   1.807   1.687
  431SOL    HW1 2192   2.479   1.869   1.700
  431SOL    HW2 2193   2.355   1.829   1.602
  432SOL     OW 2194   4.999   2.050   1.444
  432SOL    HW1 2195   4.902   2.053   1.419
  432SOL    HW2 2196   5.010   1.997   1.528
  433SOL     OW 2197   1.508   5.012   0.949
  433SOL    HW1 2198   1.452   5.081   0.995
  433SOL    HW2 2199   1.534   4.942   1.015
  434SOL     OW 2200   4.904   5.480   3.590
  434SOL    HW1 2201   4.889   5.408   3.658
  434SOL    HW2 2202   4.848   5.559   3.613
  435SOL     OW 2203   3.622   2.106   5.647
  435SOL    HW1 2204   3.649   2.201   5.661
  435SOL    HW2 2205   3.691   2.045   5.688
  436SOL     OW 2206   4.816   6.959   3.067
  436SOL    HW1 2207   4.739   6.967   3.129
  436SOL    HW2 2208   4.807   0.002   2.994
  437SOL     OW 2209   6.410   0.977   4.950
  437SOL    HW1 2210   6.443   0.883   4.944
  437SOL    HW2 2211   6.396   1.002   5.046
  438SOL     OW 2212   0.313   4.653   2.410
  438SOL    HW1 2213   0.321   4.603   2.496
  438SOL    HW2 2214   0.266   4.595   2.343
  439SOL     OW 2215   0.048   0.721   4.770
  439SOL    HW1 2216   0.035   0.780   4.690
  439SOL    HW2 2217   0.138   0.678   4.764
  440SOL     OW 2218   4.239   1.465   0.530
  440SOL    HW1 2219   4.175   1.514   0.588
  440SOL    HW2 2220   4.309   1.528   0.496
  441SOL     OW 2221   0.390   4.476   2.632
  441SOL    HW1 2222   0.424   4.541   2.700
  441SOL    HW2 2223   0.464   4.450   2.571
  442SOL     OW 2224   5.534   2.711   5.564
  442SOL    HW1 2225   5.613   2.713   5.502
  442SOL    HW2 2226   5.461   2.768   5.526
  443SOL     OW 2227   5.160   3.002   1.878
  443SOL    HW1 2228   5.179   2.983   1.975
  443SOL    HW2 2229   5.227   2.954   1.821
  444SOL     OW 2230   4.411   1.630   1.635
  444SOL    HW1 2231   4.399   1.708   1.574
  444SOL    HW2 2232   4.333   1.623   1.697
  445SOL     OW 2233   1.615   5.045   2.643
  445SOL    HW1 2234   1.599   5.045   2.544
  445SOL    HW2 2235   1.554   4.978   2.686
  446SOL     OW 2236   5.823   0.098   1.426
  446SOL    HW1 2237   5.777   0.142   1.503
  446SOL    HW2 2238   5.755   0.061   1.363
  447SOL     OW 2239   6.108   4.632   0.725
  447SOL    HW1 2240   6.198   4.659   0.691
  447SOL    HW2 2241   6.056   4.713   0.751
  448SOL     OW 2242   3.173   6.939   3.293
  448SOL    HW1 2243   3.149   6.848   3.326
  448SOL    HW2 2244   3.219   6.990   3.366
  449SOL     OW 2245   1.450   3.556   5.068
  449SOL    HW1 2246   1.539   3.575   5.109
  449SOL    HW2 2247   1.383   3.541   5.140
  450SOL     OW 2248   0.100   4.972   3.415
  450SOL    HW1 2249   0.049   4.893   3.382
  450SOL    HW2 2250   0.167   4.943   3.483
  451SOL     OW 2251   1.027   2.025   1.209
  451SOL    HW1 2252   0.928   2.034   1.202
  451SOL    HW2 2253   1.069   2.071   1.130
  452SOL     OW 2254   4.927   5.624   2.384
  452SOL    HW1 2255   5.005   5.562   2.380
  452SOL    HW2 2256   4.891   5.639   2.292
  453SOL     OW 2257   3.227   1.014   6.632
  453SOL    HW1 2258   3.154   0.950   6.606
  453SOL    HW2 2259   3.312   0.985   6.588
  454SOL     OW 2260   6.552   3.373   6.270
  454SOL    HW1 2261   6.452   3.381   6.270
  454SOL    HW2 2262   6.590   3.442   6.331
  455SOL     OW 2263   5.301   5.023   5.627
  455SOL    HW1 2264   5.299   5.050   5.531
  455SOL    HW2 2265   5.240   4.944   5.641
  456SOL     OW 2266   2.609   1.148   2.794
  456SOL    HW1 2267   2.619   1.061   2.843
  456SOL    HW2 2268   2.597   1.131   2.697
  457SOL     OW 2269   2.281   6.627   0.436
  457SOL    HW1 2270   2.191   6.665   0.461
  457SOL    HW2 2271   2.347   6.648   0.508
  458SOL     OW 2272   3.163   1.562   3.186
  458SOL    HW1 2273   3.208   1.501   3.121
  458SOL    HW2 2274   3.070   1.530   3.203
  459SOL     OW 2275   3.653   0.303   3.229
  459SOL    HW1 2276   3.671   0.220   3.177
  459SOL    HW2 2277   3.689   0.383   3.180
  460SOL     OW 2278   0.824   1.576   6.151
  460SOL    HW1 2279   0.789   1.629   6.073
  460SOL    HW2 2280   0.804   1.626   6.235
  461SOL     OW 2281   1.250   5.005   5.581
  461SOL    HW1 2282   1.254   5.052   5.668
  461SOL    HW2 2283   1.163   4.955   5.574
  462SOL     OW 2284   3.876   4.037   4.747
  462SOL    HW1 2285   3.836   3.996   4.829
  462SOL    HW2 2286   3.807   4.094   4.702
  463SOL     OW 2287   5.266   6.209   3.614
  463SOL    HW1 2288   5.366   6.216   3.615
  463SOL    HW2 2289   5.240   6.112   3.616
  464SOL     OW 2290   3.830   5.123   6.569
  464SOL    HW1 2291   3.805   5.156   6.478
  464SOL    HW2 2292   3.929   5.134   6.583
  465SOL     OW 2293   0.828   3.909   1.138
  465SOL    HW1 2294   0.849   4.003   1.166
  465SOL    HW2 2295   0.853   3.847   1.213
  466SOL     OW 2296   3.910   5.205   4.783
  466SOL    HW1 2297   3.872   5.112   4.790
  466SOL    HW2 2298   3.836   5.269   4.759
  467SOL     OW 2299   6.194   0.173   2.007
  467SOL    HW1 2300   6.144   0.134   2.083
  467SOL    HW2 2301   6.158   0.264   1.985
  468SOL     OW 2302   3.147   6.537   6.270
  468SOL    HW1 2303   3.228   6.490   6.233
  468SOL    HW2 2304   3.119   6.492   6.355
  469SOL     OW 2305   3.085   5.054   4.593
  469SOL    HW1 2306   2.993   5.023   4.619
  469SOL    HW2 2307   3.099   5.147   4.625
  470SOL     OW 2308   2.321   4.432   2.780
  470SOL    HW1 2309   2.337   4.381   2.696
  470SOL    HW2 2310   2.322   4.369   2.858
  471SOL     OW 2311   1.571   2.535   4.127
  471SOL    HW1 2312   1.537   2.616   4.079
  471SOL    HW2 2313   1.656   2.505   4.084
  472SOL     OW 2314   5.382   3.856   6.456
  472SOL    HW1 2315   5.359   3.768   6.413
  472SOL    HW2 2316   5.305   3.886   6.512
  473SOL     OW 2317   6.184   2.655   1.882
  473SOL    HW1 2318   6.111   2.703   1.930
  473SOL    HW2 2319   6.167   2.556   1.885
  474SOL     OW 2320   4.912   6.065   4.415
  474SOL    HW1 2321   4.975   6.143   4.413
  474SOL    HW2 2322   4.936   6.004   4.491
  475SOL     OW 2323   5.909   1.515   0.376
  475SOL    HW1 2324   5.917   1.428   0.424
  475SOL    HW2 2325   5.834   1.511   0.310
  476SOL     OW 2326   1.250   3.937   0.494
  476SOL    HW1 2327   1.316   3.989   0.440
  476SOL    HW2 2328   1.158   3.950   0.456
  477SOL     OW 2329   1.725   4.760   3.982
  477SOL    HW1 2330   1.765   4.851   3.997
  477SOL    HW2 2331   1.672   4.734   4.062
  478SOL     OW 2332   4.911   6.095   2.356
  478SOL    HW1 2333   4.996   6.083   2.407
  478SOL    HW2 2334   4.931   6.126   2.263
  479SOL     OW 2335   3.224   4.078   3.247
  479SOL    HW1 2336   3.246   3.982   3.235
  479SOL    HW2 2337   3.270   4.113   3.329
  480SOL     OW 2338   0.839   0.835   2.658
  480SOL    HW1 2339   0.892   0.764   2.613
  480SOL    HW2 2340   0.849   0.921   2.607
  481SOL     OW 2341   0.349   0.004   0.906
  481SOL    HW1 2342   0.382   0.079   0.963
  481SOL    HW2 2343   0.290   0.040   0.834
  482SOL     OW 2344   4.051   4.878   2.190
  482SOL    HW1 2345   3.977   4.881   2.123
  482SOL    HW2 2346   4.117   4.807   2.164
  483SOL     OW 2347   5.901   2.325   4.075
  483SOL    HW1 2348   5.816   2.377   4.078
  483SOL    HW2 2349   5.887   2.241   4.022
  484SOL     OW 2350   2.470   4.913   3.922
  484SOL    HW1 2351   2.458   4.824   3.879
  484SOL    HW2 2352   2.384   4.942   3.965
  485SOL     OW 2353   5.650   2.881   1.111
  485SOL    HW1 2354   5.664   2.893   1.209
  485SOL    HW2 2355   5.739   2.871   1.066
  486SOL     OW 2356   5.867   6.311   6.219
  486SOL    HW1 2357   5.851   6.353   6.129
  486SOL    HW2 2358   5.823   6.221   6.221
  487SOL     OW 2359   0.144   6.901   5.707
  487SOL    HW1 2360   0.123   6.812   5.747
  487SOL    HW2 2361   0.234   6.932   5.740
  488SOL     OW 2362   2.103   5.464   3.468
  488SOL    HW1 2363   2.024   5.498   3.519
  488SOL    HW2 2364   2.089   5.367   3.445
  489SOL     OW 2365   2.210   5.630   6.024
  489SOL    HW1 2366   2.148   5.552   6.028
  489SOL    HW2 2367   2.213   5.675   6.113
  490SOL     OW 2368   0.717   4.013   4.671
  490SOL    HW1 2369   0.618   4.009   4.684
  490SOL    HW2 2370   0.760   3.933   4.713
  491SOL     OW 2371   0.128   2.679   0.430
  491SOL    HW1 2372   0.225   2.658   0.415
  491SOL    HW2 2373   0.120   2.757   0.493
  492SOL     OW 2374   1.360   2.670   5.905
  492SOL    HW1 2375   1.310   2.729   5.969
  492SOL    HW2 2376   1.312   2.668   5.817
  493SOL     OW 2377   2.027   5.288   4.983
  493SOL    HW1 2378   1.997   5.219   4.917
  493SOL    HW2 2379   2.026   5.249   5.075
  494SOL     OW 2380   2.800   6.790   4.375
  494SOL    HW1 2381   2.855   6.822   4.452
  494SOL    HW2 2382   2.850   6.807   4.290
  495SOL     OW 2383   3.715   3.874   6.526
  495SOL    HW1 2384   3.786   3.944   6.526
  495SOL    HW2 2385   3.655   3.887   6.605
  496SOL     OW 2386   4.715   1.726   3.221
  496SOL    HW1 2387   4.796   1.682   3.260
  496SOL    HW2 2388   4.743   1.799   3.159
  497SOL     OW 2389   4.936   1.521   0.514
  497SOL    HW1 2390   4.960   1.585   0.441
  497SOL    HW2 2391   4.916   1.431   0.475
  498SOL     OW 2392   0.037   6.910   1.343
  498SOL    HW1 2393   0.080   6.936   1.256
  498SOL    HW2 2394   0.105   6.916   1.416
  499SOL     OW 2395   2.831   6.122   0.293
  499SOL    HW1 2396   2.909   6.182   0.311
  499SOL    HW2 2397   2.830   6.096   0.196
  500SOL     OW 2398   5.585   1.954   6.891
  500SOL    HW1 2399   5.495   1.995   6.878
  500SOL    HW2 2400   5.656   2.016   6.857
  501SOL     OW 2401   0.913   1.377   4.537
  501SOL    HW1 2402   0.992   1.321   4.511
  501SOL    HW2 2403   0.867   1.336   4.616
  502SOL     OW 2404   2.700   4.136   7.024
  502SOL    HW1 2405   2.698   4.109   6.927
  502SOL    HW2 2406   2.710   4.235   0.006
  503SOL     OW 2407   3.948   5.362   0.591
  503SOL    HW1 2408   3.856   5.399   0.577
  503SOL    HW2 2409   3.948   5.305   0.674
  504SOL     OW 2410   6.831   5.808   1.626
  504SOL    HW1 2411   6.902   5.738   1.638
  504SOL    HW2 2412   6.779   5.817   1.711
  505SOL     OW 2413   4.859   5.725   5.295
  505SOL    HW1 2414   4.790   5.768   5.353
  505SOL    HW2 2415   4.830   5.631   5.274
  506SOL     OW 2416   4.099   5.132   2.598
  506SOL    HW1 2417   4.179   5.073   2.590
  506SOL    HW2 2418   4.016   5.076   2.607
  507SOL     OW 2419   3.304   0.753   1.676
  507SOL    HW1 2420   3.370   0.791   1.741
  507SOL    HW2 2421   3.329   0.782   1.583
  508SOL     OW 2422   0.443   4.288   2.937
  508SOL    HW1 2423   0.487   4.357   2.878
  508SOL    HW2 2424   0.368   4.331   2.988
  509SOL     OW 2425   4.375   0.377   6.005
  509SOL    HW1 2426   4.421   0.439   6.069
  509SOL    HW2 2427   4.336   0.429   5.929
  510SOL     OW 2428   6.543   3.871   0.028
  510SOL    HW1 2429   6.520   3.776   0.009
  510SOL    HW2 2430   6.460   3.922   0.051
  511SOL     OW 2431   0.469   1.772   0.535
  511SOL    HW1 2432   0.371   1.793   0.537
  511SOL    HW2 2433   0.511   1.799   0.621
  512SOL     OW 2434   0.734   2.498   3.911
  512SOL    HW1 2435   0.832   2.500   3.894
  512SOL    HW2 2436   0.704   2.588   3.943
  513SOL     OW 2437   5.048   0.883   3.309
  513SOL    HW1 2438   5.132   0.833   3.287
  513SOL    HW2 2439   4.979   0.819   3.344
  514SOL     OW 2440   5.484   0.933   4.883
  514SOL    HW1 2441   5.583   0.922   4.895
  514SOL    HW2 2442   5.464   0.957   4.788
  515SOL     OW 2443   4.136   0.044   6.048
  515SOL    HW1 2444   4.201   0.054   5.972
  515SOL    HW2 2445   4.162   6.991   6.104
  516SOL     OW 2446   2.025   5.998   2.450
  516SOL    HW1 2447   2.075   5.936   2.511
  516SOL    HW2 2448   2.073   6.085   2.444
  517SOL     OW 2449   3.022   5.734   1.643
  517SOL    HW1 2450   2.986   5.644   1.617
  517SOL    HW2 2451   2.954   5.781   1.699
  518SOL     OW 2452   1.891   3.986   4.398
  518SOL    HW1 2453   1.897   4.010   4.495
  518SOL    HW2 2454   1.929   4.060   4.343
  519SOL     OW 2455   7.004   0.501   2.041
  519SOL    HW1 2456   6.973   0.581   2.093
  519SOL    HW2 2457   6.964   0.503   1.950
  520SOL     OW 2458   1.930   3.951   0.757
  520SOL    HW1 2459   1.839   3.911   0.761
  520SOL    HW2 2460   1.986   3.914   0.832
  521SOL     OW 2461   6.602   6.359   4.622
  521SOL    HW1 2462   6.677   6.306   4.661
  521SOL    HW2 2463   6.622   6.380   4.526
  522SOL     OW 2464   3.711   4.420   1.156
  522SOL    HW1 2465   3.717   4.365   1.239
  522SOL    HW2 2466   3.746   4.367   1.079
  523SOL     OW 2467   0.783   7.020   0.664
  523SOL    HW1 2468   0.806   0.011   0.760
  523SOL    HW2 2469   0.700   6.965   0.658
  524SOL     OW 2470   6.507   1.913   1.490
  524SOL    HW1 2471   6.415   1.940   1.517
  524SOL    HW2 2472   6.553   1.991   1.447
  525SOL     OW 2473   0.619   3.363   4.592
  525SOL    HW1 2474   0.520   3.377   4.594
  525SOL    HW2 2475   0.638   3.265   4.602
  526SOL     OW 2476   3.804   0.327   3.911
  526SOL    HW1 2477   3.800   0.293   3.817
  526SOL    HW2 2478   3.838   0.421   3.911
  527SOL     OW 2479   0.233   1.304   0.695
  527SOL    HW1 2480   0.194   1.387   0.655
  527SOL    HW2 2481   0.332   1.303   0.680
  528SOL     OW 2482   6.799   2.953   4.657
  528SOL    HW1 2483   6.792   3.012   4.577
  528SOL    HW2 2484   6.749   2.868   4.640
  529SOL     OW 2485   1.819   6.920   6.897
  529SOL    HW1 2486   1.811   6.998   6.836
  529SOL    HW2 2487   1.781   6.942   6.986
  530SOL     OW 2488   3.583   4.670   1.095
  530SOL    HW1 2489   3.491   4.661   1.134
  530SOL    HW2 2490   3.638   4.591   1.119
  531SOL     OW 2491   1.879   0.205   0.672
  531SOL    HW1 2492   1.922   0.182   0.585
  531SOL    HW2 2493   1.784   0.173   0.672
  532SOL     OW 2494   1.574   2.485   6.268
  532SOL    HW1 2495   1.645   2.490   6.198
  532SOL    HW2 2496   1.484   2.484   6.225
  533SOL     OW 2497   4.121   0.456   3.910
  533SOL    HW1 2498   4.116   0.552   3.934
  533SOL    HW2 2499   4.146   0.402   3.991
  534SOL     OW 2500   2.004   4.091   2.202
  534SOL    HW1 2501   1.930   4.049   2.149
  534SOL    HW2 2502   2.092   4.062   2.166
  535SOL     OW 2503   4.934   3.426   3.889
  535SOL    HW1 2504   4.871   3.399   3.961
  535SOL    HW2 2505   5.028   3.407   3.917
  536SOL     OW 2506   6.514   6.935   1.997
  536SOL    HW1 2507   6.556   6.954   2.085
  536SOL    HW2 2508   6.492   7.021   1.951
  537SOL     OW 2509   2.899   1.752   3.658
  537SOL    HW1 2510   2.973   1.819   3.662
  537SOL    HW2 2511   2.918   1.685   3.586
  538SOL     OW 2512   3.467   4.946   5.194
  538SOL    HW1 2513   3.461   4.935   5.095
  538SOL    HW2 2514   3.388   4.997   5.227
  539SOL     OW 2515   0.737   6.936   0.097
  539SOL    HW1 2516   0.815   6.960   0.039
  539SOL    HW2 2517   0.769   6.890   0.179
  540SOL     OW 2518   1.104   0.559   4.485
  540SOL    HW1 2519   1.071   0.465   4.489
  540SOL    HW2 2520   1.186   0.568   4.542
  541SOL     OW 2521   4.786   5.737   3.909
  541SOL    HW1 2522   4.883   5.745   3.930
  541SOL    HW2 2523   4.773   5.671   3.834
  542SOL     OW 2524   3.385   0.412   5.049
  542SOL    HW1 2525   3.445   0.438   4.974
  542SOL    HW2 2526   3.432   0.347   5.109
  543SOL     OW 2527   6.408   1.976   3.925
  543SOL    HW1 2528   6.459   1.911   3.982
  543SOL    HW2 2529   6.359   2.040   3.984
  544SOL     OW 2530   1.707   3.509   1.453
  544SOL    HW1 2531   1.641   3.557   1.511
  544SOL    HW2 2532   1.689   3.530   1.357
  545SOL     OW 2533   6.051   6.797   1.653
  545SOL    HW1 2534   5.995   6.735   1.709
  545SOL    HW2 2535   6.062   6.758   1.561
  546SOL     OW 2536   0.153   4.337   2.594
  546SOL    HW1 2537   0.182   4.326   2.499
  546SOL    HW2 2538   0.219   4.394   2.643
  547SOL     OW 2539   5.070   0.922   6.195
  547SOL    HW1 2540   5.079   0.941   6.293
  547SOL    HW2 2541   5.160   0.929   6.151
  548SOL     OW 2542   4.217   1.943   0.206
  548SOL    HW1 2543   4.133   1.889   0.206
  548SOL    HW2 2544   4.194   2.040   0.208
  549SOL     OW 2545   5.668   1.144   1.509
  549SOL    HW1 2546   5.595   1.203   1.474
  549SOL    HW2 2547   5.742   1.201   1.546
  550SOL     OW 2548   0.181   6.081   3.327
  550SOL    HW1 2549   0.133   6.158   3.285
  550SOL    HW2 2550   0.279   6.092   3.315
  551SOL     OW 2551   6.256   0.454   0.378
  551SOL    HW1 2552   6.329   0.391   0.352
  551SOL    HW2 2553   6.229   0.438   0.473
  552SOL     OW 2554   0.416   6.144   5.471
  552SOL    HW1 2555   0.463   6.215   5.523
  552SOL    HW2 2556   0.474   6.063   5.466
  553SOL     OW 2557   3.297   1.405   0.038
  553SOL    HW1 2558   3.248   1.347   6.998
  553SOL    HW2 2559   3.245   1.488   0.056
  554SOL     OW 2560   5.460   6.435   1.187
  554SOL    HW1 2561   5.495   6.374   1.116
  554SOL    HW2 2562   5.412   6.512   1.144
  555SOL     OW 2563   1.521   3.846   5.841
  555SOL    HW1 2564   1.562   3.759   5.866
  555SOL    HW2 2565   1.422   3.840   5.850
  556SOL     OW 2566   5.902   0.588   4.018
  556SOL    HW1 2567   5.978   0.534   4.054
  556SOL    HW2 2568   5.823   0.529   4.004
  557SOL     OW 2569   6.618   4.095   6.510
  557SOL    HW1 2570   6.547   4.092   6.439
  557SOL    HW2 2571   6.578   4.068   6.597
  558SOL     OW 2572   3.027   3.881   2.349
  558SOL    HW1 2573   2.963   3.803   2.350
  558SOL    HW2 2574   3.033   3.920   2.441
  559SOL     OW 2575   6.338   6.401   5.734
  559SOL    HW1 2576   6.400   6.395   5.812
  559SOL    HW2 2577   6.369   6.474   5.672
  560SOL     OW 2578   6.901   3.093   3.844
  560SOL    HW1 2579   6.971   3.157   3.876
  560SOL    HW2 2580   6.821   3.145   3.812
  561SOL     OW 2581   0.693   2.803   0.477
  561SOL    HW1 2582   0.670   2.763   0.566
  561SOL    HW2 2583   0.739   2.891   0.491
  562SOL     OW 2584   4.077   0.204   4.915
  562SOL    HW1 2585   4.145   0.188   4.987
  562SOL    HW2 2586   4.122   0.206   4.826
  563SOL     OW 2587   1.280   0.630   4.077
  563SOL    HW1 2588   1.355   0.610   4.014
  563SOL    HW2 2589   1.315   0.681   4.156
  564SOL     OW 2590   6.544   1.447   6.515
  564SOL    HW1 2591   6.577   1.501   6.592
  564SOL    HW2 2592   6.618   1.387   6.483
  565SOL     OW 2593   3.300   3.358   3.603
  565SOL    HW1 2594   3.206   3.327   3.590
  565SOL    HW2 2595   3.342   3.375   3.514
  566SOL     OW 2596   3.073   0.691   3.852
  566SOL    HW1 2597   3.143   0.727   3.790
  566SOL    HW2 2598   2.984   0.728   3.827
  567SOL     OW 2599   2.395   2.636   5.506
  567SOL    HW1 2600   2.445   2.600   5.427
  567SOL    HW2 2601   2.439   2.720   5.538
  568SOL     OW 2602   0.555   6.502   6.893
  568SOL    HW1 2603   0.642   6.474   6.854
  568SOL    HW2 2604   0.567   6.587   6.944
  569SOL     OW 2605   6.143   2.663   0.013
  569SOL    HW1 2606   6.160   2.578   0.064
  569SOL    HW2 2607   6.227   2.717   0.009
  570SOL     OW 2608   2.412   0.348   6.201
  570SOL    HW1 2609   2.386   0.375   6.108
  570SOL    HW2 2610   2.406   0.427   6.262
  571SOL     OW 2611   2.382   4.943   1.450
  571SOL    HW1 2612   2.331   5.020   1.487
  571SOL    HW2 2613   2.414   4.885   1.525
  572SOL     OW 2614   2.878   0.382   4.349
  572SOL    HW1 2615   2.957   0.354   4.295
  572SOL    HW2 2616   2.909   0.418   4.437
  573SOL     OW 2617   0.347   0.692   5.273
  573SOL    HW1 2618   0.408   0.622   5.310
  573SOL    HW2 2619   0.383   0.725   5.186
  574SOL     OW 2620   2.174   1.802   5.424
  574SOL    HW1 2621   2.113   1.834   5.352
  574SOL    HW2 2622   2.152   1.707   5.446
  575SOL     OW 2623   4.221   2.989   0.317
  575SOL    HW1 2624   4.195   3.075   0.275
  575SOL    HW2 2625   4.148   2.922   0.305
  576SOL     OW 2626   2.254   2.719   2.647
  576SOL    HW1 2627   2.292   2.747   2.736
  576SOL    HW2 2628   2.242   2.620   2.646
  577SOL     OW 2629   0.839   1.073   1.590
  577SOL    HW1 2630   0.827   1.052   1.687
  577SOL    HW2 2631   0.753   1.057   1.541
  578SOL     OW 2632   3.084   6.795   6.449
  578SOL    HW1 2633   3.164   6.738   6.469
  578SOL    HW2 2634   3.001   6.741   6.460
  579SOL     OW 2635   2.084   3.765   2.010
  579SOL    HW1 2636   1.984   3.771   2.005
  579SOL    HW2 2637   2.111   3.669   2.016
  580SOL     OW 2638   4.666   5.581   4.659
  580SOL    HW1 2639   4.622   5.633   4.586
  580SOL    HW2 2640   4.734   5.638   4.705
  581SOL     OW 2641   1.466   2.783   4.530
  581SOL    HW1 2642   1.395   2.739   4.476
  581SOL    HW2 2643   1.524   2.714   4.573
  582SOL     OW 2644   4.985   5.195   4.012
  582SOL    HW1 2645   5.008   5.292   3.998
  582SOL    HW2 2646   4.963   5.154   3.924
  583SOL     OW 2647   4.533   6.066   5.897
  583SOL    HW1 2648   4.497   6.044   5.988
  583SOL    HW2 2649   4.551   6.164   5.891
  584SOL     OW 2650   4.938   0.794   4.882
  584SOL    HW1 2651   4.924   0.760   4.975
  584SOL    HW2 2652   5.030   0.833   4.875
  585SOL     OW 2653   3.043   0.449   1.949
  585SOL    HW1 2654   3.086   0.533   1.917
  585SOL    HW2 2655   3.111   0.391   1.993
  586SOL     OW 2656   3.883   0.761   0.862
  586SOL    HW1 2657   3.896   0.678   0.807
  586SOL    HW2 2658   3.816   0.743   0.934
  587SOL     OW 2659   4.833   1.773   1.643
  587SOL    HW1 2660   4.933   1.768   1.649
  587SOL    HW2 2661   4.799   1.842   1.707
  588SOL     OW 2662   2.114   5.404   3.153
  588SOL    HW1 2663   2.041   5.349   3.114
  588SOL    HW2 2664   2.103   5.409   3.252
  589SOL     OW 2665   3.018   5.648   1.055
  589SOL    HW1 2666   2.969   5.573   1.101
  589SOL    HW2 2667   2.999   5.734   1.102
  590SOL     OW 2668   4.358   2.153   0.601
  590SOL    HW1 2669   4.321   2.128   0.690
  590SOL    HW2 2670   4.288   2.201   0.547
  591SOL     OW 2671   3.186   6.144   4.272
  591SOL    HW1 2672   3.232   6.124   4.185
  591SOL    HW2 2673   3.177   6.243   4.283
  592SOL     OW 2674   3.626   1.976   4.304
  592SOL    HW1 2675   3.636   2.024   4.391
  592SOL    HW2 2676   3.573   2.033   4.241
  593SOL     OW 2677   2.871   2.074   6.621
  593SOL    HW1 2678   2.969   2.068   6.602
  593SOL    HW2 2679   2.825   1.994   6.582
  594SOL     OW 2680   4.693   1.172   1.890
  594SOL    HW1 2681   4.729   1.251   1.840
  594SOL    HW2 2682   4.769   1.122   1.931
  595SOL     OW 2683   5.965   5.775   2.370
  595SOL    HW1 2684   5.889   5.732   2.321
  595SOL    HW2 2685   5.949   5.767   2.469
  596SOL     OW 2686   5.896   4.971   4.236
  596SOL    HW1 2687   5.866   4.875   4.232
  596SOL    HW2 2688   5.848   5.018   4.310
  597SOL     OW 2689   2.386   0.531   6.406
  597SOL    HW1 2690   2.477   0.561   6.436
  597SOL    HW2 2691   2.355   0.456   6.465
  598SOL     OW 2692   3.065   3.878   4.251
  598SOL    HW1 2693   3.053   3.799   4.190
  598SOL    HW2 2694   3.031   3.855   4.342
  599SOL     OW 2695   1.180   4.790   1.698
  599SOL    HW1 2696   1.149   4.729   1.625
  599SOL    HW2 2697   1.279   4.798   1.696
  600SOL     OW 2698   6.452   3.813   5.033
  600SOL    HW1 2699   6.404   3.875   4.971
  600SOL    HW2 2700   6.551   3.821   5.017
  601SOL     OW 2701   1.618   6.388   5.592
  601SOL    HW1 2702   1.661   6.322   5.653
  601SOL    HW2 2703   1.544   6.343   5.541
  602SOL     OW 2704   1.911   7.021   3.830
  602SOL    HW1 2705   1.918   6.934   3.880
  602SOL    HW2 2706   1.970   0.064   3.874
  603SOL     OW 2707   1.255   1.478   5.066
  603SOL    HW1 2708   1.186   1.414   5.099
  603SOL    HW2 2709   1.213   1.568   5.051
  604SOL     OW 2710   6.267   2.284   2.111
  604SOL    HW1 2711   6.196   2.214   2.120
  604SOL    HW2 2712   6.244   2.362   2.169
  605SOL     OW 2713   6.817   6.544   1.534
  605SOL    HW1 2714   6.903   6.520   1.581
  605SOL    HW2 2715   6.785   6.633   1.568
  606SOL     OW 2716   3.913   6.983   4.391
  606SOL    HW1 2717   3.908   0.058   4.395
  606SOL    HW2 2718   3.822   6.946   4.370
  607SOL     OW 2719   1.687   3.983   6.214
  607SOL    HW1 2720   1.591   3.958   6.203
  607SOL    HW2 2721   1.695   4.049   6.290
  608SOL     OW 2722   2.901   1.185   5.581
  608SOL    HW1 2723   2.826   1.121   5.564
  608SOL    HW2 2724   2.928   1.179   5.677
  609SOL     OW 2725   3.387   2.840   2.003
  609SOL    HW1 2726   3.382   2.834   1.903
  609SOL    HW2 2727   3.384   2.748   2.042
  610SOL     OW 2728   4.762   3.618   1.777
  610SOL    HW1 2729   4.795   3.565   1.699
  610SOL    HW2 2730   4.777   3.566   1.861
  611SOL     OW 2731   3.055   0.498   2.618
  611SOL    HW1 2732   3.066   0.493   2.718
  611SOL    HW2 2733   3.140   0.530   2.576
  612SOL     OW 2734   4.114   4.904   4.849
  612SOL    HW1 2735   4.187   4.913   4.781
  612SOL    HW2 2736   4.029   4.878   4.804
  613SOL     OW 2737   4.454   4.944   5.560
  613SOL    HW1 2738   4.387   5.018   5.568
  613SOL    HW2 2739   4.526   4.957   5.627
  614SOL     OW 2740   3.496   5.660   5.983
  614SOL    HW1 2741   3.441   5.723   5.929
  614SOL    HW2 2742   3.592   5.691   5.983
  615SOL     OW 2743   0.993   5.110   2.242
  615SOL    HW1 2744   1.076   5.078   2.196
  615SOL    HW2 2745   0.964   5.042   2.309
  616SOL     OW 2746   6.052   3.533   3.446
  616SOL    HW1 2747   6.011   3.528   3.537
  616SOL    HW2 2748   6.136   3.479   3.444
  617SOL     OW 2749   3.351   6.359   6.206
  617SOL    HW1 2750   3.432   6.418   6.214
  617SOL    HW2 2751   3.380   6.264   6.207
  618SOL     OW 2752   1.303   1.079   2.818
  618SOL    HW1 2753   1.278   1.170   2.786
  618SOL    HW2 2754   1.381   1.045   2.766
  619SOL     OW 2755   0.456   1.094   0.027
  619SOL    HW1 2756   0.483   1.178   7.005
  619SOL    HW2 2757   0.398   1.116   0.105
  620SOL     OW 2758   4.574   3.676   1.436
  620SOL    HW1 2759   4.667   3.688   1.400
  620SOL    HW2 2760   4.514   3.745   1.397
  621SOL     OW 2761   0.593   4.820   1.256
  621SOL    HW1 2762   0.542   4.801   1.340
  621SOL    HW2 2763   0.672   4.878   1.278
  622SOL     OW 2764   1.264   0.517   6.866
  622SOL    HW1 2765   1.196   0.522   6.792
  622SOL    HW2 2766   1.226   0.558   6.949
  623SOL     OW 2767   0.380   4.599   6.410
  623SOL    HW1 2768   0.428   4.582   6.496
  623SOL    HW2 2769   0.326   4.683   6.418
  624SOL     OW 2770   1.107   2.361   1.785
  624SOL    HW1 2771   1.109   2.451   1.830
  624SOL    HW2 2772   1.148   2.368   1.694
  625SOL     OW 2773   1.868   1.280   1.583
  625SOL    HW1 2774   1.968   1.283   1.594
  625SOL    HW2 2775   1.826   1.340   1.651
  626SOL     OW 2776   3.442   6.685   4.461
  626SOL    HW1 2777   3.418   6.595   4.423
  626SOL    HW2 2778   3.381   6.754   4.424
  627SOL     OW 2779   4.621   0.749   6.981
  627SOL    HW1 2780   4.623   0.682   0.031
  627SOL    HW2 2781   4.563   0.714   6.907
  628SOL     OW 2782   5.186   4.077   3.831
  628SOL    HW1 2783   5.262   4.049   3.890
  628SOL    HW2 2784   5.193   4.028   3.744
  629SOL     OW 2785   1.760   6.240   0.382
  629SOL    HW1 2786   1.715   6.329   0.389
  629SOL    HW2 2787   1.852   6.252   0.346
  630SOL     OW 2788   3.681   1.970   1.191
  630SOL    HW1 2789   3.670   1.875   1.217
  630SOL    HW2 2790   3.695   2.026   1.272
  631SOL     OW 2791   2.384   6.688   4.813
  631SOL    HW1 2792   2.291   6.653   4.816
  631SOL    HW2 2793   2.388   6.769   4.754
  632SOL     OW 2794   1.998   1.268   0.896
  632SOL    HW1 2795   1.901   1.289   0.903
  632SOL    HW2 2796   2.009   1.182   0.846
  633SOL     OW 2797   2.432   0.152   5.964
  633SOL    HW1 2798   2.491   0.231   5.949
  633SOL    HW2 2799   2.341   0.170   5.926
  634SOL     OW 2800   3.377   6.064   0.490
  634SOL    HW1 2801   3.441   6.108   0.427
  634SOL    HW2 2802   3.372   5.966   0.470
  635SOL     OW 2803   2.852   0.465   3.166
  635SOL    HW1 2804   2.894   0.425   3.085
  635SOL    HW2 2805   2.753   0.473   3.152
  636SOL     OW 2806   5.391   5.452   0.130
  636SOL    HW1 2807   5.341   5.367   0.143
  636SOL    HW2 2808   5.485   5.432   0.104
  637SOL     OW 2809   5.325   4.647   0.654
  637SOL    HW1 2810   5.269   4.564   0.662
  637SOL    HW2 2811   5.353   4.658   0.558
  638SOL     OW 2812   5.369   1.589   2.664
  638SOL    HW1 2813   5.315   1.544   2.593
  638SOL    HW2 2814   5.372   1.530   2.745
  639SOL     OW 2815   4.201   4.655   2.209
  639SOL    HW1 2816   4.290   4.621   2.179
  639SOL    HW2 2817   4.135   4.579   2.208
  640SOL     OW 2818   3.056   4.409   5.825
  640SOL    HW1 2819   3.122   4.467   5.777
  640SOL    HW2 2820   2.974   4.463   5.845
  641SOL     OW 2821   6.924   5.847   4.971
  641SOL    HW1 2822   6.867   5.841   4.889
  641SOL    HW2 2823   6.968   5.759   4.988
  642SOL     OW 2824   1.664   4.735   5.827
  642SOL    HW1 2825   1.590   4.796   5.800
  642SOL    HW2 2826   1.723   4.781   5.894
  643SOL     OW 2827   5.594   6.125   4.695
  643SOL    HW1 2828   5.519   6.154   4.755
  643SOL    HW2 2829   5.557   6.068   4.621
  644SOL     OW 2830   1.945   6.249   2.022
  644SOL    HW1 2831   1.931   6.198   1.938
  644SOL    HW2 2832   2.038   6.235   2.055
  645SOL     OW 2833   5.970   3.503   3.711
  645SOL    HW1 2834   5.907   3.426   3.704
  645SOL    HW2 2835   6.032   3.488   3.789
  646SOL     OW 2836   1.286   1.617   4.437
  646SOL    HW1 2837   1.199   1.665   4.424
  646SOL    HW2 2838   1.348   1.674   4.491
  647SOL     OW 2839   5.466   3.299   0.418
  647SOL    HW1 2840   5.422   3.287   0.507
  647SOL    HW2 2841   5.454   3.216   0.364
  648SOL     OW 2842   5.665   2.162   2.835
  648SOL    HW1 2843   5.753   2.209   2.834
  648SOL    HW2 2844   5.606   2.204   2.904
  649SOL     OW 2845   4.173   4.608   1.831
  649SOL    HW1 2846   4.141   4.523   1.788
  649SOL    HW2 2847   4.270   4.598   1.855
  650SOL     OW 2848   3.900   3.814   0.987
  650SOL    HW1 2849   3.839   3.873   1.040
  650SOL    HW2 2850   3.904   3.848   0.893
  651SOL     OW 2851   1.054   5.595   6.185
  651SOL    HW1 2852   1.096   5.591   6.276
  651SOL    HW2 2853   0.971   5.651   6.188
  652SOL     OW 2854   4.042   1.281   2.415
  652SOL    HW1 2855   3.999   1.320   2.334
  652SOL    HW2 2856   4.141   1.293   2.410
  653SOL     OW 2857   3.990   5.106   3.362
  653SOL    HW1 2858   4.084   5.076   3.381
  653SOL    HW2 2859   3.982   5.204   3.378
  654SOL     OW 2860   6.443   5.148   0.465
  654SOL    HW1 2861   6.501   5.072   0.438
  654SOL    HW2 2862   6.457   5.168   0.562
  655SOL     OW 2863   0.360   0.555   0.057
  655SOL    HW1 2864   0.338   0.484   7.016
  655SOL    HW2 2865   0.441   0.527   0.110
  656SOL     OW 2866   2.649   6.369   2.184
  656SOL    HW1 2867   2.698   6.315   2.252
  656SOL    HW2 2868   2.589   6.435   2.229
  657SOL     OW 2869   3.844   1.499   6.898
  657SOL    HW1 2870   3.751   1.465   6.879
  657SOL    HW2 2871   3.853   1.592   6.864
  658SOL     OW 2872   3.764   5.209   6.308
  658SOL    HW1 2873   3.713   5.280   6.261
  658SOL    HW2 2874   3.729   5.119   6.282
  659SOL     OW 2875   2.585   0.217   6.507
  659SOL    HW1 2876   2.570   0.118   6.505
  659SOL    HW2 2877   2.672   0.238   6.461
  660SOL     OW 2878   4.009   5.448   3.365
  660SOL    HW1 2879   4.066   5.499   3.301
  660SOL    HW2 2880   4.054   5.447   3.455
  661SOL     OW 2881   5.706   5.591   2.831
  661SOL    HW1 2882   5.749   5.564   2.918
  661SOL    HW2 2883   5.731   5.685   2.810
  662SOL     OW 2884   3.804   1.120   0.454
  662SOL    HW1 2885   3.890   1.159   0.419
  662SOL    HW2 2886   3.825   1.052   0.525
  663SOL     OW 2887   2.433   4.848   4.934
  663SOL    HW1 2888   2.403   4.941   4.954
  663SOL    HW2 2889   2.493   4.816   5.008
  664SOL     OW 2890   6.150   1.016   0.152
  664SOL    HW1 2891   6.098   1.013   0.066
  664SOL    HW2 2892   6.098   0.970   0.224
  665SOL     OW 2893   2.268   5.016   2.464
  665SOL    HW1 2894   2.245   5.047   2.557
  665SOL    HW2 2895   2.185   5.003   2.411
  666SOL     OW 2896   4.159   0.790   1.816
  666SOL    HW1 2897   4.118   0.862   1.760
  666SOL    HW2 2898   4.157   0.703   1.766
  667SOL     OW 2899   0.967   6.529   2.454
  667SOL    HW1 2900   0.991   6.432   2.462
  667SOL    HW2 2901   1.027   6.572   2.386
  668SOL     OW 2902   5.454   3.730   0.408
  668SOL    HW1 2903   5.477   3.707   0.313
  668SOL    HW2 2904   5.524   3.694   0.469
  669SOL     OW 2905   4.790   1.515   2.471
  669SOL    HW1 2906   4.813   1.552   2.381
  669SOL    HW2 2907   4.692   1.528   2.488
  670SOL     OW 2908   2.855   1.758   3.103
  670SOL    HW1 2909   2.916   1.723   3.175
  670SOL    HW2 2910   2.798   1.683   3.068
  671SOL     OW 2911   3.535   6.763   0.997
  671SOL    HW1 2912   3.461   6.749   0.932
  671SOL    HW2 2913   3.581   6.850   0.978
  672SOL     OW 2914   1.141   6.631   2.279
  672SOL    HW1 2915   1.188   6.711   2.242
  672SOL    HW2 2916   1.156   6.552   2.219
  673SOL     OW 2917   5.817   6.531   0.611
  673SOL    HW1 2918   5.896   6.481   0.576
  673SOL    HW2 2919   5.733   6.482   0.587
  674SOL     OW 2920   6.430   1.148   4.286
  674SOL    HW1 2921   6.387   1.089   4.353
  674SOL    HW2 2922   6.524   1.167   4.314
  675SOL     OW 2923   0.106   2.865   2.621
  675SOL    HW1 2924   0.019   2.911   2.639
  675SOL    HW2 2925   0.141   2.826   2.706
  676SOL     OW 2926   2.714   5.877   5.774
  676SOL    HW1 2927   2.706   5.890   5.873
  676SOL    HW2 2928   2.800   5.918   5.742
  677SOL     OW 2929   5.063   1.367   1.183
  677SOL    HW1 2930   5.099   1.437   1.245
  677SOL    HW2 2931   5.137   1.336   1.122
  678SOL     OW 2932   1.871   5.073   4.857
  678SOL    HW1 2933   1.880   4.984   4.903
  678SOL    HW2 2934   1.782   5.112   4.877
  679SOL     OW 2935   5.274   1.985   5.004
  679SOL    HW1 2936   5.176   1.964   5.005
  679SOL    HW2 2937   5.314   1.967   5.094
  680SOL     OW 2938   5.342   0.085   4.262
  680SOL    HW1 2939   5.361   0.092   4.360
  680SOL    HW2 2940   5.355   0.174   4.219
  681SOL     OW 2941   4.324   4.974   2.590
  681SOL    HW1 2942   4.390   5.041   2.557
  681SOL    HW2 2943   4.358   4.932   2.674
  682SOL     OW 2944   0.432   0.878   3.211
  682SOL    HW1 2945   0.358   0.909   3.151
  682SOL    HW2 2946   0.506   0.840   3.156
  683SOL     OW 2947   4.230   3.599   1.546
  683SOL    HW1 2948   4.249   3.674   1.608
  683SOL    HW2 2949   4.295   3.525   1.561
  684SOL     OW 2950   6.552   0.818   6.408
  684SOL    HW1 2951   6.535   0.901   6.355
  684SOL    HW2 2952   6.500   0.821   6.493
  685SOL     OW 2953   3.269   0.496   2.883
  685SOL    HW1 2954   3.340   0.562   2.906
  685SOL    HW2 2955   3.310   0.407   2.866
  686SOL     OW 2956   4.652   0.676   4.772
  686SOL    HW1 2957   4.650   0.660   4.673
  686SOL    HW2 2958   4.687   0.768   4.790
  687SOL     OW 2959   0.751   1.895   3.906
  687SOL    HW1 2960   0.831   1.844   3.875
  687SOL    HW2 2961   0.693   1.835   3.962
  688SOL     OW 2962   6.526   0.976   6.896
  688SOL    HW1 2963   6.558   0.884   6.920
  688SOL    HW2 2964   6.595   1.021   6.839
  689SOL     OW 2965   1.743   5.614   5.752
  689SOL    HW1 2966   1.701   5.576   5.669
  689SOL    HW2 2967   1.715   5.709   5.763
  690SOL     OW 2968   5.452   3.458   2.383
  690SOL    HW1 2969   5.465   3.438   2.480
  690SOL    HW2 2970   5.471   3.555   2.367
  691SOL     OW 2971   5.486   1.747   0.984
  691SOL    HW1 2972   5.503   1.832   0.934
  691SOL    HW2 2973   5.404   1.758   1.040
  692SOL     OW 2974   2.242   0.525   4.848
  692SOL    HW1 2975   2.319   0.497   4.790
  692SOL    HW2 2976   2.162   0.468   4.827
  693SOL     OW 2977   5.524   6.281   3.710
  693SOL    HW1 2978   5.614   6.289   3.752
  693SOL    HW2 2979   5.516   6.345   3.634
  694SOL     OW 2980   4.701   6.630   5.289
  694SOL    HW1 2981   4.621   6.666   5.242
  694SOL    HW2 2982   4.779   6.690   5.274
  695SOL     OW 2983   3.648   0.212   4.135
  695SOL    HW1 2984   3.672   0.116   4.116
  695SOL    HW2 2985   3.688   0.271   4.065
  696SOL     OW 2986   5.471   4.367   3.248
  696SOL    HW1 2987   5.444   4.416   3.331
  696SOL    HW2 2988   5.464   4.268   3.264
  697SOL     OW 2989   1.197   6.018   2.132
  697SOL    HW1 2990   1.130   6.091   2.120
  697SOL    HW2 2991   1.287   6.049   2.102
  698SOL     OW 2992   5.977   6.374   0.431
  698SOL    HW1 2993   5.928   6.455   0.401
  698SOL    HW2 2994   5.984   6.309   0.355
  699SOL     OW 2995   2.521   2.746   1.030
  699SOL    HW1 2996   2.593   2.693   0.985
  699SOL    HW2 2997   2.537   2.744   1.129
  700SOL     OW 2998   3.328   0.529   3.958
  700SOL    HW1 2999   3.322   0.480   4.045
  700SOL    HW2 3000   3.265   0.488   3.893
  701SOL     OW 3001   5.158   5.117   1.353
  701SOL    HW1 3002   5.131   5.021   1.347
  701SOL    HW2 3003   5.077   5.175   1.345
  702SOL     OW 3004   3.251   1.044   4.413
  702SOL    HW1 3005   3.322   1.019   4.347
  702SOL    HW2 3006   3.163   1.052   4.366
  703SOL     OW 3007   2.907   1.848   6.093
  703SOL    HW1 3008   2.976   1.780   6.070
  703SOL    HW2 3009   2.941   1.906   6.167
  704SOL     OW 3010   1.671   2.722   5.516
  704SOL    HW1 3011   1.663   2.731   5.615
  704SOL    HW2 3012   1.649   2.810   5.473
  705SOL     OW 3013   0.179   6.669   5.238
  705SOL    HW1 3014   0.103   6.672   5.303
  705SOL    HW2 3015   0.150   6.620   5.156
  706SOL     OW 3016   4.574   1.263   5.077
  706SOL    HW1 3017   4.489   1.315   5.077
  706SOL    HW2 3018   4.581   1.208   4.993
  707SOL     OW 3019   3.283   5.415   4.167
  707SOL    HW1 3020   3.341   5.482   4.213
  707SOL    HW2 3021   3.255   5.450   4.078
  708SOL     OW 3022   4.303   6.407   4.100
  708SOL    HW1 3023   4.224   6.386   4.157
  708SOL    HW2 3024   4.340   6.322   4.062
  709SOL     OW 3025   2.963   6.863   1.361
  709SOL    HW1 3026   2.908   6.888   1.441
  709SOL    HW2 3027   3.053   6.905   1.368
  710SOL     OW 3028   4.572   2.826   1.717
  710SOL    HW1 3029   4.569   2.909   1.773
  710SOL    HW2 3030   4.658   2.778   1.732
  711SOL     OW 3031   0.101   2.081   6.701
  711SOL    HW1 3032   0.069   1.991   6.671
  711SOL    HW2 3033   0.043   2.114   6.775
  712SOL     OW 3034   5.144   4.386   0.709
  712SOL    HW1 3035   5.073   4.405   0.641
  712SOL    HW2 3036   5.103   4.345   0.790
  713SOL     OW 3037   3.908   2.699   5.310
  713SOL    HW1 3038   3.911   2.788   5.266
  713SOL    HW2 3039   3.973   2.637   5.267
  714SOL     OW 3040   5.608   5.639   3.127
  714SOL    HW1 3041   5.515   5.654   3.161
  714SOL    HW2 3042   5.631   5.542   3.136
  715SOL     OW 3043   6.274   5.314   5.450
  715SOL    HW1 3044   6.220   5.281   5.528
  715SOL    HW2 3045   6.362   5.350   5.483
  716SOL     OW 3046   1.691   2.148   3.096
  716SOL    HW1 3047   1.667   2.178   3.004
  716SOL    HW2 3048   1.751   2.068   3.090
  717SOL     OW 3049   4.956   4.129   4.195
  717SOL    HW1 3050   4.967   4.062   4.121
  717SOL    HW2 3051   5.008   4.211   4.174
  718SOL     OW 3052   5.810   1.569   5.372
  718SOL    HW1 3053   5.819   1.638   5.444
  718SOL    HW2 3054   5.795   1.614   5.284
  719SOL     OW 3055   5.321   0.474   3.153
  719SOL    HW1 3056   5.225   0.465   3.180
  719SOL    HW2 3057   5.335   0.427   3.066
  720SOL     OW 3058   3.058   1.472   0.510
  720SOL    HW1 3059   3.008   1.407   0.453
  720SOL    HW2 3060   3.106   1.422   0.583
  721SOL     OW 3061   7.024   1.760   2.997
  721SOL    HW1 3062   6.950   1.693   3.010
  721SOL    HW2 3063   0.084   1.722   3.032
  722SOL     OW 3064   4.744   6.715   0.641
  722SOL    HW1 3065   4.774   6.628   0.679
  722SOL    HW2 3066   4.816   6.752   0.582
  723SOL     OW 3067   2.716   5.601   3.825
  723SOL    HW1 3068   2.670   5.651   3.899
  723SOL    HW2 3069   2.655   5.531   3.789
  724SOL     OW 3070   0.785   1.393   4.325
  724SOL    HW1 3071   0.834   1.387   4.238
  724SOL    HW2 3072   0.850   1.389   4.400
  725SOL     OW 3073   1.620   4.125   2.891
  725SOL    HW1 3074   1.553   4.084   2.829
  725SOL    HW2 3075   1.599   4.097   2.985
  726SOL     OW 3076   1.654   4.166   0.821
  726SOL    HW1 3077   1.580   4.176   0.887
  726SOL    HW2 3078   1.669   4.069   0.802
  727SOL     OW 3079   4.306   5.941   5.498
  727SOL    HW1 3080   4.382   6.004   5.490
  727SOL    HW2 3081   4.268   5.923   5.407
  728SOL     OW 3082   6.707   3.600   3.566
  728SOL    HW1 3083   6.611   3.592   3.594
  728SOL    HW2 3084   6.756   3.517   3.592
  729SOL     OW 3085   0.465   4.293   1.318
  729SOL    HW1 3086   0.385   4.342   1.284
  729SOL    HW2 3087   0.435   4.210   1.367
  730SOL     OW 3088   4.451   0.669   3.302
  730SOL    HW1 3089   4.506   0.745   3.269
  730SOL    HW2 3090   4.418   0.615   3.224
  731SOL     OW 3091   4.576   5.012   5.830
  731SOL    HW1 3092   4.609   5.097   5.871
  731SOL    HW2 3093   4.482   4.996   5.858
  732SOL     OW 3094   4.793   1.738   4.668
  732SOL    HW1 3095   4.761   1.655   4.714
  732SOL    HW2 3096   4.877   1.769   4.712
  733SOL     OW 3097   6.074   6.022   3.119
  733SOL    HW1 3098   6.000   5.992   3.180
  733SOL    HW2 3099   6.035   6.067   3.039
  734SOL     OW 3100   6.149   6.392   2.201
  734SOL    HW1 3101   6.233   6.363   2.246
  734SOL    HW2 3102   6.085   6.315   2.199
  735SOL     OW 3103   4.502   0.716   2.387
  735SOL    HW1 3104   4.420   0.699   2.442
  735SOL    HW2 3105   4.582   0.677   2.432
  736SOL     OW 3106   1.491   1.507   3.885
  736SOL    HW1 3107   1.395   1.523   3.863
  736SOL    HW2 3108   1.541   1.593   3.880
  737SOL     OW 3109   4.407   1.057   6.018
  737SOL    HW1 3110   4.324   1.027   5.971
  737SOL    HW2 3111   4.437   1.145   5.980
  738SOL     OW 3112   1.760   4.668   0.723
  738SOL    HW1 3113   1.802   4.577   0.719
  738SOL    HW2 3114   1.678   4.664   0.781
  739SOL     OW 3115   2.998   0.032   4.281
  739SOL    HW1 3116   2.979   6.973   4.230
  739SOL    HW2 3117   2.913   0.069   4.317
  740SOL     OW 3118   5.215   3.804   2.565
  740SOL    HW1 3119   5.228   3.791   2.467
  740SOL    HW2 3120   5.292   3.764   2.615
  741SOL     OW 3121   2.381   1.130   3.091
  741SOL    HW1 3122   2.366   1.118   3.189
  741SOL    HW2 3123   2.427   1.217   3.074
  742SOL     OW 3124   2.093   6.685   1.572
  742SOL    HW1 3125   2.133   6.703   1.482
  742SOL    HW2 3126   2.012   6.742   1.584
  743SOL     OW 3127   0.971   6.097   3.476
  743SOL    HW1 3128   0.992   6.153   3.556
  743SOL    HW2 3129   1.052   6.043   3.451
  744SOL     OW 3130   5.045   1.938   0.169
  744SOL    HW1 3131   5.092   2.025   0.188
  744SOL    HW2 3132   4.969   1.955   0.107
  745SOL     OW 3133   2.704   6.846   5.106
  745SOL    HW1 3134   2.759   6.777   5.060
  745SOL    HW2 3135   2.765   6.913   5.148
  746SOL     OW 3136   6.821   4.701   5.764
  746SOL    HW1 3137   6.799   4.629   5.698
  746SOL    HW2 3138   6.751   4.703   5.836
  747SOL     OW 3139   5.087   6.034   3.160
  747SOL    HW1 3140   5.031   6.103   3.113
  747SOL    HW2 3141   5.115   5.964   3.094
  748SOL     OW 3142   5.354   5.438   2.046
  748SOL    HW1 3143   5.392   5.441   2.138
  748SOL    HW2 3144   5.345   5.531   2.010
  749SOL     OW 3145   5.071   3.765   3.939
  749SOL    HW1 3146   5.080   3.686   4.000
  749SOL    HW2 3147   5.161   3.802   3.919
  750SOL     OW 3148   2.335   1.879   1.941
  750SOL    HW1 3149   2.411   1.887   2.005
  750SOL    HW2 3150   2.371   1.864   1.848
  751SOL     OW 3151   3.926   0.539   0.744
  751SOL    HW1 3152   3.920   0.488   0.659
  751SOL    HW2 3153   3.954   0.477   0.818
  752SOL     OW 3154   3.501   2.248   5.376
  752SOL    HW1 3155   3.479   2.217   5.283
  752SOL    HW2 3156   3.417   2.253   5.430
  753SOL     OW 3157   3.756   3.777   4.546
  753SOL    HW1 3158   3.723   3.779   4.451
  753SOL    HW2 3159   3.848   3.738   4.549
  754SOL     OW 3160   6.030   0.281   0.287
  754SOL    HW1 3161   6.086   0.361   0.307
  754SOL    HW2 3162   6.040   0.214   0.360
  755SOL     OW 3163   4.077   4.483   5.365
  755SOL    HW1 3164   4.124   4.489   5.277
  755SOL    HW2 3165   4.022   4.565   5.378
  756SOL     OW 3166   1.903   5.318   6.170
  756SOL    HW1 3167   1.844   5.282   6.098
  756SOL    HW2 3168   1.925   5.245   6.235
  757SOL     OW 3169   2.511   6.214   2.780
  757SOL    HW1 3170   2.456   6.227   2.863
  757SOL    HW2 3171   2.473   6.139   2.726
  758SOL     OW 3172   3.681   1.135   4.225
  758SOL    HW1 3173   3.620   1.057   4.238
  758SOL    HW2 3174   3.653   1.210   4.286
  759SOL     OW 3175   0.444   2.916   3.981
  759SOL    HW1 3176   0.354   2.875   3.992
  759SOL    HW2 3177   0.438   2.997   3.923
  760SOL     OW 3178   6.252   5.603   2.944
  760SOL    HW1 3179   6.162   5.635   2.975
  760SOL    HW2 3180   6.313   5.597   3.022
  761SOL     OW 3181   4.011   3.553   6.295
  761SOL    HW1 3182   4.033   3.462   6.259
  761SOL    HW2 3183   4.047   3.562   6.388
  762SOL     OW 3184   3.403   5.859   4.158
  762SOL    HW1 3185   3.309   5.840   4.130
  762SOL    HW2 3186   3.451   5.905   4.084
  763SOL     OW 3187   5.623   0.590   0.223
  763SOL    HW1 3188   5.619   0.491   0.214
  763SOL    HW2 3189   5.626   0.615   0.320
  764SOL     OW 3190   5.965   0.412   5.671
  764SOL    HW1 3191   6.034   0.396   5.600
  764SOL    HW2 3192   5.874   0.410   5.630
  765SOL     OW 3193   6.830   6.355   0.725
  765SOL    HW1 3194   6.774   6.298   0.785
  765SOL    HW2 3195   6.778   6.379   0.643
  766SOL     OW 3196   2.206   2.386   4.876
  766SOL    HW1 3197   2.188   2.399   4.778
  766SOL    HW2 3198   2.172   2.464   4.927
  767SOL     OW 3199   6.210   5.867   4.386
  767SOL    HW1 3200   6.137   5.906   4.442
  767SOL    HW2 3201   6.188   5.878   4.289
  768SOL     OW 3202   2.496   4.877   2.461
  768SOL    HW1 3203   2.514   4.853   2.557
  768SOL    HW2 3204   2.425   4.948   2.458
  769SOL     OW 3205   2.768   2.256   4.576
  769SOL    HW1 3206   2.680   2.271   4.621
  769SOL    HW2 3207   2.753   2.251   4.477
  770SOL     OW 3208   1.595   4.475   5.484
  770SOL    HW1 3209   1.691   4.463   5.508
  770SOL    HW2 3210   1.560   4.559   5.525
  771SOL     OW 3211   1.402   5.568   2.904
  771SOL    HW1 3212   1.451   5.631   2.843
  771SOL    HW2 3213   1.366   5.491   2.850
  772SOL     OW 3214   5.663   4.385   0.415
  772SOL    HW1 3215   5.592   4.331   0.459
  772SOL    HW2 3216   5.735   4.406   0.481
  773SOL     OW 3217   0.885   3.675   3.449
  773SOL    HW1 3218   0.890   3.728   3.364
  773SOL    HW2 3219   0.954   3.708   3.513
  774SOL     OW 3220   2.324   0.299   3.459
  774SOL    HW1 3221   2.302   0.205   3.433
  774SOL    HW2 3222   2.363   0.347   3.380
  775SOL     OW 3223   1.783   4.420   2.570
  775SOL    HW1 3224   1.868   4.473   2.581
  775SOL    HW2 3225   1.777   4.386   2.476
  776SOL     OW 3226   2.950   5.125   6.691
  776SOL    HW1 3227   3.018   5.074   6.638
  776SOL    HW2 3228   2.950   5.221   6.662
  777SOL     OW 3229   2.324   4.157   0.279
  777SOL    HW1 3230   2.317   4.058   0.275
  777SOL    HW2 3231   2.420   4.184   0.281
  778SOL     OW 3232   2.853   6.386   0.602
  778SOL    HW1 3233   2.824   6.429   0.688
  778SOL    HW2 3234   2.920   6.445   0.557
  779SOL     OW 3235   6.860   2.194   3.204
  779SOL    HW1 3236   6.877   2.280   3.155
  779SOL    HW2 3237   6.892   2.117   3.148
  780SOL     OW 3238   0.549   2.065   3.869
  780SOL    HW1 3239   0.493   2.011   3.931
  780SOL    HW2 3240   0.631   2.013   3.844
  781SOL     OW 3241   0.737   4.465   0.246
  781SOL    HW1 3242   0.642   4.480   0.218
  781SOL    HW2 3243   0.759   4.368   0.240
  782SOL     OW 3244   1.720   3.392   4.612
  782SOL    HW1 3245   1.815   3.362   4.608
  782SOL    HW2 3246   1.715   3.491   4.598
  783SOL     OW 3247   6.055   4.723   6.503
  783SOL    HW1 3248   6.098   4.714   6.592
  783SOL    HW2 3249   6.031   4.819   6.487
  784SOL     OW 3250   2.472   5.763   0.630
  784SOL    HW1 3251   2.523   5.685   0.595
  784SOL    HW2 3252   2.495   5.845   0.578
  785SOL     OW 3253   1.404   0.070   4.868
  785SOL    HW1 3254   1.357   0.088   4.781
  785SOL    HW2 3255   1.344   0.094   4.944
  786SOL     OW 3256   6.443   1.017   3.805
  786SOL    HW1 3257   6.515   0.951   3.785
  786SOL    HW2 3258   6.408   1.001   3.898
  787SOL     OW 3259   2.267   0.108   0.692
  787SOL    HW1 3260   2.336   0.180   0.692
  787SOL    HW2 3261   2.186   0.139   0.742
  788SOL     OW 3262   2.304   2.212   1.593
  788SOL    HW1 3263   2.399   2.226   1.564
  788SOL    HW2 3264   2.244   2.273   1.542
  789SOL     OW 3265   4.404   5.048   2.275
  789SOL    HW1 3266   4.436   4.968   2.325
  789SOL    HW2 3267   4.463   5.126   2.297
  790SOL     OW 3268   0.966   2.246   2.453
  790SOL    HW1 3269   1.060   2.220   2.431
  790SOL    HW2 3270   0.964   2.292   2.542
  791SOL     OW 3271   3.044   5.728   4.381
  791SOL    HW1 3272   2.968   5.691   4.434
  791SOL    HW2 3273   3.065   5.820   4.413
  792SOL     OW 3274   1.622   0.808   0.611
  792SOL    HW1 3275   1.553   0.749   0.568
  792SOL    HW2 3276   1.578   0.864   0.682
  793SOL     OW 3277   2.941   6.120   4.163
  793SOL    HW1 3278   2.910   6.031   4.130
  793SOL    HW2 3279   3.027   6.110   4.211
  794SOL     OW 3280   3.389   3.230   2.828
  794SOL    HW1 3281   3.435   3.257   2.913
  794SOL    HW2 3282   3.308   3.289   2.815
  795SOL     OW 3283   3.758   0.443   6.152
  795SOL    HW1 3284   3.661   0.437   6.128
  795SOL    HW2 3285   3.767   0.445   6.251
  796SOL     OW 3286   0.918   3.012   0.531
  796SOL    HW1 3287   0.892   3.103   0.500
  796SOL    HW2 3288   1.005   3.017   0.580
  797SOL     OW 3289   4.511   6.971   0.614
  797SOL    HW1 3290   4.464   0.032   0.590
  797SOL    HW2 3291   4.610   6.986   0.614
  798SOL     OW 3292   4.337   6.601   0.761
  798SOL    HW1 3293   4.263   6.669   0.762
  798SOL    HW2 3294   4.385   6.605   0.674
  799SOL     OW 3295   2.149   2.345   5.791
  799SOL    HW1 3296   2.239   2.310   5.814
  799SOL    HW2 3297   2.108   2.288   5.719
  800SOL     OW 3298   5.962   3.595   2.597
  800SOL    HW1 3299   5.906   3.512   2.601
  800SOL    HW2 3300   6.058   3.571   2.613
  801SOL     OW 3301   2.362   5.731   5.650
  801SOL    HW1 3302   2.350   5.644   5.699
  801SOL    HW2 3303   2.326   5.806   5.705
  802SOL     OW 3304   5.151   2.409   6.583
  802SOL    HW1 3305   5.066   2.365   6.556
  802SOL    HW2 3306   5.182   2.469   6.509
  803SOL     OW 3307   2.586   1.288   4.951
  803SOL    HW1 3308   2.655   1.248   5.010
  803SOL    HW2 3309   2.495   1.273   4.990
  804SOL     OW 3310   5.588   0.712   2.876
  804SOL    HW1 3311   5.658   0.685   2.943
  804SOL    HW2 3312   5.632   0.756   2.798
  805SOL     OW 3313   3.812   0.964   3.511
  805SOL    HW1 3314   3.846   0.880   3.470
  805SOL    HW2 3315   3.731   0.995   3.462
  806SOL     OW 3316   2.431   6.178   5.652
  806SOL    HW1 3317   2.437   6.165   5.751
  806SOL    HW2 3318   2.393   6.096   5.609
  807SOL     OW 3319   0.961   6.080   5.851
  807SOL    HW1 3320   0.967   6.143   5.928
  807SOL    HW2 3321   1.048   6.078   5.802
  808SOL     OW 3322   5.577   2.835   6.464
  808SOL    HW1 3323   5.613   2.867   6.552
  808SOL    HW2 3324   5.521   2.754   6.478
  809SOL     OW 3325   2.390   4.641   0.022
  809SOL    HW1 3326   2.438   4.604   6.968
  809SOL    HW2 3327   2.361   4.566   0.082
  810SOL     OW 3328   3.551   3.045   6.969
  810SOL    HW1 3329   3.515   3.104   6.896
  810SOL    HW2 3330   3.525   2.950   6.950
  811SOL     OW 3331   6.111   4.944   4.784
  811SOL    HW1 3332   6.176   4.869   4.793
  811SOL    HW2 3333   6.161   5.030   4.771
  812SOL     OW 3334   0.380   3.041   1.818
  812SOL    HW1 3335   0.471   3.005   1.840
  812SOL    HW2 3336   0.376   3.063   1.720
  813SOL     OW 3337   1.112   1.871   4.596
  813SOL    HW1 3338   1.170   1.899   4.520
  813SOL    HW2 3339   1.063   1.787   4.571
  814SOL     OW 3340   0.647   5.415   2.809
  814SOL    HW1 3341   0.574   5.460   2.861
  814SOL    HW2 3342   0.694   5.483   2.753
  815SOL     OW 3343   4.964   2.290   4.510
  815SOL    HW1 3344   5.022   2.274   4.430
  815SOL    HW2 3345   5.011   2.353   4.572
  816SOL     OW 3346   5.602   5.105   6.441
  816SOL    HW1 3347   5.588   5.161   6.360
  816SOL    HW2 3348   5.564   5.152   6.521
  817SOL     OW 3349   0.903   4.193   6.905
  817SOL    HW1 3350   0.868   4.278   6.865
  817SOL    HW2 3351   0.997   4.208   6.937
  818SOL     OW 3352   6.514   2.312   5.023
  818SOL    HW1 3353   6.434   2.282   4.970
  818SOL    HW2 3354   6.579   2.236   5.031
  819SOL     OW 3355   4.870   2.785   1.411
  819SOL    HW1 3356   4.777   2.815   1.434
  819SOL    HW2 3357   4.868   2.732   1.326
  820SOL     OW 3358   2.388   2.139   5.115
  820SOL    HW1 3359   2.306   2.170   5.162
  820SOL    HW2 3360   2.390   2.178   5.022
  821SOL     OW 3361   4.874   3.753   6.008
  821SOL    HW1 3362   4.838   3.840   5.974
  821SOL    HW2 3363   4.799   3.689   6.022
  822SOL     OW 3364   1.015   4.786   3.194
  822SOL    HW1 3365   1.084   4.715   3.184
  822SOL    HW2 3366   1.002   4.806   3.292
  823SOL     OW 3367   1.164   3.045   5.351
  823SOL    HW1 3368   1.099   3.116   5.323
  823SOL    HW2 3369   1.254   3.086   5.365
  824SOL     OW 3370   5.377   1.225   6.304
  824SOL    HW1 3371   5.401   1.144   6.357
  824SOL    HW2 3372   5.460   1.276   6.280
  825SOL     OW 3373   5.635   5.447   1.050
  825SOL    HW1 3374   5.661   5.414   0.960
  825SOL    HW2 3375   5.690   5.527   1.073
  826SOL     OW 3376   4.142   2.090   6.805
  826SOL    HW1 3377   4.169   2.182   6.776
  826SOL    HW2 3378   4.148   2.028   6.727
  827SOL     OW 3379   3.915   4.102   5.027
  827SOL    HW1 3380   3.844   4.168   5.051
  827SOL    HW2 3381   3.973   4.141   4.956
  828SOL     OW 3382   6.559   5.964   6.186
  828SOL    HW1 3383   6.649   5.926   6.206
  828SOL    HW2 3384   6.558   5.998   6.091
  829SOL     OW 3385   3.290   3.629   2.561
  829SOL    HW1 3386   3.287   3.719   2.605
  829SOL    HW2 3387   3.363   3.575   2.602
  830SOL     OW 3388   6.254   4.567   0.179
  830SOL    HW1 3389   6.257   4.652   0.232
  830SOL    HW2 3390   6.314   4.499   0.222
  831SOL     OW 3391   4.383   0.087   1.780
  831SOL    HW1 3392   4.435   0.151   1.836
  831SOL    HW2 3393   4.299   0.131   1.749
  832SOL     OW 3394   2.670   1.688   4.625
  832SOL    HW1 3395   2.767   1.683   4.650
  832SOL    HW2 3396   2.655   1.766   4.563
  833SOL     OW 3397   2.964   2.132   0.091
  833SOL    HW1 3398   2.865   2.135   0.079
  833SOL    HW2 3399   2.987   2.066   0.162
  834SOL     OW 3400   5.312   2.807   0.096
  834SOL    HW1 3401   5.219   2.818   0.061
  834SOL    HW2 3402   5.375   2.801   0.019
  835SOL     OW 3403   0.459   6.925   3.923
  835SOL    HW1 3404   0.431   6.840   3.969
  835SOL    HW2 3405   0.539   6.963   3.970
  836SOL     OW 3406   4.378   1.119   4.200
  836SOL    HW1 3407   4.362   1.048   4.132
  836SOL    HW2 3408   4.456   1.175   4.172
  837SOL     OW 3409   1.729   0.671   1.060
  837SOL    HW1 3410   1.747   0.683   1.158
  837SOL    HW2 3411   1.784   0.595   1.025
  838SOL     OW 3412   1.691   5.349   3.814
  838SOL    HW1 3413   1.610   5.311   3.858
  838SOL    HW2 3414   1.725   5.428   3.866
  839SOL     OW 3415   1.536   1.832   0.570
  839SOL    HW1 3416   1.531   1.734   0.587
  839SOL    HW2 3417   1.487   1.853   0.485
  840SOL     OW 3418   5.405   5.227   6.864
  840SOL    HW1 3419   5.337   5.164   6.828
  840SOL    HW2 3420   5.485   5.227   6.804
  841SOL     OW 3421   3.523   4.993   6.981
  841SOL    HW1 3422   3.529   5.048   6.897
  841SOL    HW2 3423   3.481   4.905   6.959
  842SOL     OW 3424   4.179   6.053   0.197
  842SOL    HW1 3425   4.206   6.039   0.292
  842SOL    HW2 3426   4.107   5.988   0.172
  843SOL     OW 3427   1.193   1.274   2.253
  843SOL    HW1 3428   1.283   1.304   2.221
  843SOL    HW2 3429   1.201   1.183   2.296
  844SOL     OW 3430   6.888   1.032   1.532
  844SOL    HW1 3431   6.831   1.096   1.583
  844SOL    HW2 3432   6.875   0.940   1.569
  845SOL     OW 3433   3.401   0.947   2.373
  845SOL    HW1 3434   3.368   0.912   2.460
  845SOL    HW2 3435   3.500   0.935   2.368
  846SOL     OW 3436   2.727   1.447   0.575
  846SOL    HW1 3437   2.812   1.396   0.559
  846SOL    HW2 3438   2.746   1.523   0.638
  847SOL     OW 3439   2.825   4.119   1.713
  847SOL    HW1 3440   2.815   4.020   1.704
  847SOL    HW2 3441   2.884   4.140   1.790
  848SOL     OW 3442   6.999   5.749   0.396
  848SOL    HW1 3443   6.929   5.697   0.346
  848SOL    HW2 3444   0.004   5.697   0.475
  849SOL     OW 3445   6.066   3.668   6.517
  849SOL    HW1 3446   5.983   3.642   6.566
  849SOL    HW2 3447   6.043   3.698   6.424
  850SOL     OW 3448   1.008   0.602   4.993
  850SOL    HW1 3449   1.015   0.596   5.093
  850SOL    HW2 3450   1.080   0.547   4.951
  851SOL     OW 3451   5.962   3.433   6.061
  851SOL    HW1 3452   5.905   3.388   5.993
  851SOL    HW2 3453   5.905   3.490   6.120
  852SOL     OW 3454   0.211   3.982   2.442
  852SOL    HW1 3455   0.177   3.998   2.535
  852SOL    HW2 3456   0.226   4.070   2.397
  853SOL     OW 3457   2.821   2.715   6.994
  853SOL    HW1 3458   2.894   2.689   0.033
  853SOL    HW2 3459   2.773   2.795   0.005
  854SOL     OW 3460   5.630   6.590   6.414
  854SOL    HW1 3461   5.716   6.641   6.408
  854SOL    HW2 3462   5.572   6.630   6.486
  855SOL     OW 3463   5.597   1.384   0.537
  855SOL    HW1 3464   5.624   1.477   0.513
  855SOL    HW2 3465   5.619   1.322   0.462
  856SOL     OW 3466   2.237   5.628   1.188
  856SOL    HW1 3467   2.186   5.701   1.143
  856SOL    HW2 3468   2.334   5.633   1.162
  857SOL     OW 3469   6.499   5.423   5.558
  857SOL    HW1 3470   6.496   5.331   5.597
  857SOL    HW2 3471   6.588   5.464   5.578
  858SOL     OW 3472   4.778   3.353   0.367
  858SOL    HW1 3473   4.860   3.393   0.408
  858SOL    HW2 3474   4.805   3.284   0.299
  859SOL     OW 3475   4.931   6.777   5.259
  859SOL    HW1 3476   5.030   6.762   5.262
  859SOL    HW2 3477   4.912   6.868   5.222
  860SOL     OW 3478   4.926   3.659   5.697
  860SOL    HW1 3479   4.932   3.738   5.759
  860SOL    HW2 3480   4.830   3.633   5.685
  861SOL     OW 3481   1.908   5.729   2.006
  861SOL    HW1 3482   1.975   5.672   1.959
  861SOL    HW2 3483   1.950   5.771   2.086
  862SOL     OW 3484   0.544   4.119   3.351
  862SOL    HW1 3485   0.626   4.177   3.355
  862SOL    HW2 3486   0.548   4.062   3.269
  863SOL     OW 3487   6.519   0.356   0.638
  863SOL    HW1 3488   6.614   0.387   0.637
  863SOL    HW2 3489   6.458   0.433   0.621
  864SOL     OW 3490   5.557   6.986   4.769
  864SOL    HW1 3491   5.566   6.928   4.851
  864SOL    HW2 3492   5.607   0.047   4.784
  865SOL     OW 3493   1.605   6.188   4.999
  865SOL    HW1 3494   1.536   6.140   4.945
  865SOL    HW2 3495   1.617   6.142   5.087
  866SOL     OW 3496   3.204   6.666   2.050
  866SOL    HW1 3497   3.212   6.762   2.078
  866SOL    HW2 3498   3.255   6.652   1.964
  867SOL     OW 3499   6.112   2.649   6.764
  867SOL    HW1 3500   6.104   2.656   6.864
  867SOL    HW2 3501   6.207   2.630   6.740
  868SOL     OW 3502   6.852   2.042   2.602
  868SOL    HW1 3503   6.875   2.113   2.668
  868SOL    HW2 3504   6.915   1.965   2.613
  869SOL     OW 3505   6.844   3.856   3.608
  869SOL    HW1 3506   6.775   3.785   3.594
  869SOL    HW2 3507   6.864   3.900   3.521
  870SOL     OW 3508   3.741   5.292   2.179
  870SOL    HW1 3509   3.777   5.218   2.123
  870SOL    HW2 3510   3.643   5.277   2.195
  871SOL     OW 3511   4.405   1.618   2.931
  871SOL    HW1 3512   4.423   1.623   3.029
  871SOL    HW2 3513   4.481   1.572   2.885
  872SOL     OW 3514   0.071   2.818   5.070
  872SOL    HW1 3515   0.057   2.817   5.169
  872SOL    HW2 3516   7.018   2.863   5.026
  873SOL     OW 3517   4.998   6.762   6.147
  873SOL    HW1 3518   5.085   6.789   6.107
  873SOL    HW2 3519   4.925   6.819   6.109
  874SOL     OW 3520   4.471   4.184   0.815
  874SOL    HW1 3521   4.481   4.096   0.768
  874SOL    HW2 3522   4.434   4.169   0.907
  875SOL     OW 3523   5.200   5.440   0.799
  875SOL    HW1 3524   5.238   5.397   0.717
  875SOL    HW2 3525   5.106   5.468   0.780
  876SOL     OW 3526   6.996   6.692   1.192
  876SOL    HW1 3527   7.009   6.761   1.263
  876SOL    HW2 3528   6.911   6.643   1.207
  877SOL     OW 3529   2.293   3.057   6.432
  877SOL    HW1 3530   2.378   3.104   6.455
  877SOL    HW2 3531   2.274   3.069   6.334
  878SOL     OW 3532   4.229   6.700   4.056
  878SOL    HW1 3533   4.273   6.707   4.146
  878SOL    HW2 3534   4.186   6.610   4.048
  879SOL     OW 3535   5.814   0.460   0.583
  879SOL    HW1 3536   5.896   0.511   0.557
  879SOL    HW2 3537   5.838   0.363   0.594
  880SOL     OW 3538   2.955   3.488   3.070
  880SOL    HW1 3539   3.032   3.431   3.043
  880SOL    HW2 3540   2.935   3.554   2.998
  881SOL     OW 3541   4.122   1.496   6.899
  881SOL    HW1 3542   4.023   1.509   6.893
  881SOL    HW2 3543   4.166   1.586   6.904
  882SOL     OW 3544   0.998   3.863   4.492
  882SOL    HW1 3545   0.948   3.794   4.545
  882SOL    HW2 3546   1.052   3.919   4.554
  883SOL     OW 3547   2.743   0.105   2.801
  883SOL    HW1 3548   2.767   0.181   2.740
  883SOL    HW2 3549   2.759   0.018   2.755
  884SOL     OW 3550   4.541   3.193   5.380
  884SOL    HW1 3551   4.551   3.257   5.303
  884SOL    HW2 3552   4.455   3.143   5.371
  885SOL     OW 3553   3.615   2.724   6.022
  885SOL    HW1 3554   3.676   2.786   6.072
  885SOL    HW2 3555   3.539   2.698   6.081
  886SOL     OW 3556   3.574   6.962   6.769
  886SOL    HW1 3557   3.525   0.003   6.712
  886SOL    HW2 3558   3.562   6.985   6.865
  887SOL     OW 3559   4.513   2.146   4.219
  887SOL    HW1 3560   4.489   2.075   4.286
  887SOL    HW2 3561   4.473   2.123   4.130
  888SOL     OW 3562   0.016   7.004   3.168
  888SOL    HW1 3563   7.005   0.045   3.102
  888SOL    HW2 3564   0.076   0.025   3.233
  889SOL     OW 3565   0.728   3.465   6.936
  889SOL    HW1 3566   0.790   3.390   6.913
  889SOL    HW2 3567   0.651   3.430   6.989
  890SOL     OW 3568   2.763   5.390   4.065
  890SOL    HW1 3569   2.722   5.444   3.992
  890SOL    HW2 3570   2.781   5.298   4.032
  891SOL     OW 3571   5.570   5.770   0.981
  891SOL    HW1 3572   5.618   5.729   1.058
  891SOL    HW2 3573   5.487   5.717   0.962
  892SOL     OW 3574   3.136   4.838   6.858
  892SOL    HW1 3575   3.091   4.761   6.815
  892SOL    HW2 3576   3.072   4.885   6.919
  893SOL     OW 3577   2.432   6.555   2.812
  893SOL    HW1 3578   2.452   6.645   2.852
  893SOL    HW2 3579   2.507   6.528   2.752
  894SOL     OW 3580   1.536   3.731   1.536
  894SOL    HW1 3581   1.476   3.804   1.568
  894SOL    HW2 3582   1.499   3.691   1.453
  895SOL     OW 3583   0.644   6.120   3.987
  895SOL    HW1 3584   0.576   6.165   3.929
  895SOL    HW2 3585   0.729   6.174   3.986
  896SOL     OW 3586   6.411   6.395   5.252
  896SOL    HW1 3587   6.501   6.387   5.294
  896SOL    HW2 3588   6.340   6.374   5.320
  897SOL     OW 3589   5.285   0.918   6.685
  897SOL    HW1 3590   5.244   0.923   6.594
  897SOL    HW2 3591   5.284   0.823   6.716
  898SOL     OW 3592   4.213   5.898   3.325
  898SOL    HW1 3593   4.115   5.912   3.343
  898SOL    HW2 3594   4.231   5.920   3.229
  899SOL     OW 3595   6.627   4.617   6.923
  899SOL    HW1 3596   6.677   4.703   6.935
  899SOL    HW2 3597   6.642   4.582   6.831
  900SOL     OW 3598   4.991   5.912   0.566
  900SOL    HW1 3599   4.976   5.893   0.663
  900SOL    HW2 3600   5.059   5.848   0.530
  901SOL     OW 3601   1.561   0.996   2.227
  901SOL    HW1 3602   1.511   1.053   2.161
  901SOL    HW2 3603   1.593   1.054   2.302
  902SOL     OW 3604   6.182   4.080   2.093
  902SOL    HW1 3605   6.186   4.177   2.114
  902SOL    HW2 3606   6.228   4.063   2.006
  903SOL     OW 3607   0.050   2.923   0.167
  903SOL    HW1 3608   7.020   2.868   0.105
  903SOL    HW2 3609   7.020   2.948   0.247
  904SOL     OW 3610   3.016   1.450   2.408
  904SOL    HW1 3611   2.934   1.503   2.429
  904SOL    HW2 3612   3.090   1.513   2.385
  905SOL     OW 3613   6.026   2.476   6.570
  905SOL    HW1 3614   6.053   2.546   6.635
  905SOL    HW2 3615   6.107   2.440   6.523
  906SOL     OW 3616   6.234   3.243   6.450
  906SOL    HW1 3617   6.158   3.234   6.514
  906SOL    HW2 3618   6.244   3.340   6.424
  907SOL     OW 3619   4.956   3.710   6.772
  907SOL    HW1 3620   4.981   3.715   6.675
  907SOL    HW2 3621   5.010   3.776   6.824
  908SOL     OW 3622   2.208   4.770   2.752
  908SOL    HW1 3623   2.199   4.860   2.795
  908SOL    HW2 3624   2.216   4.700   2.823
  909SOL     OW 3625   5.254   5.258   6.414
  909SOL    HW1 3626   5.282   5.235   6.321
  909SOL    HW2 3627   5.202   5.343   6.413
  910SOL     OW 3628   2.538   3.435   1.466
  910SOL    HW1 3629   2.489   3.504   1.518
  910SOL    HW2 3630   2.482   3.405   1.389
  911SOL     OW 3631   1.000   5.296   6.541
  911SOL    HW1 3632   1.042   5.344   6.464
  911SOL    HW2 3633   0.933   5.356   6.585
  912SOL     OW 3634   4.623   2.066   2.671
  912SOL    HW1 3635   4.575   1.978   2.663
  912SOL    HW2 3636   4.717   2.050   2.698
  913SOL     OW 3637   4.882   0.110   3.761
  913SOL    HW1 3638   4.800   0.148   3.719
  913SOL    HW2 3639   4.893   0.015   3.732
  914SOL     OW 3640   2.726   6.735   0.209
  914SOL    HW1 3641   2.660   6.714   0.136
  914SOL    HW2 3642   2.681   6.723   0.298
  915SOL     OW 3643   6.275   5.556   0.538
  915SOL    HW1 3644   6.258   5.621   0.612
  915SOL    HW2 3645   6.342   5.594   0.474
  916SOL     OW 3646   0.922   2.483   2.198
  916SOL    HW1 3647   0.997   2.548   2.211
  916SOL    HW2 3648   0.934   2.406   2.262
  917SOL     OW 3649   6.704   6.624   0.923
  917SOL    HW1 3650   6.678   6.715   0.955
  917SOL    HW2 3651   6.804   6.618   0.919
  918SOL     OW 3652   1.815   5.570   0.209
  918SOL    HW1 3653   1.770   5.564   0.120
  918SOL    HW2 3654   1.761   5.628   0.270
  919SOL     OW 3655   5.745   2.132   4.891
  919SOL    HW1 3656   5.840   2.136   4.862
  919SOL    HW2 3657   5.685   2.127   4.811
  920SOL     OW 3658   2.921   4.768   2.250
  920SOL    HW1 3659   2.875   4.719   2.176
  920SOL    HW2 3660   2.852   4.813   2.307
  921SOL     OW 3661   4.867   5.319   4.780
  921SOL    HW1 3662   4.913   5.358   4.700
  921SOL    HW2 3663   4.864   5.388   4.853
  922SOL     OW 3664   4.105   3.270   3.925
  922SOL    HW1 3665   4.124   3.284   3.828
  922SOL    HW2 3666   4.108   3.358   3.972
  923SOL     OW 3667   2.287   3.384   5.485
  923SOL    HW1 3668   2.192   3.413   5.486
  923SOL    HW2 3669   2.342   3.448   5.431
  924SOL     OW 3670   0.414   3.787   3.017
  924SOL    HW1 3671   0.347   3.786   2.942
  924SOL    HW2 3672   0.458   3.697   3.022
  925SOL     OW 3673   6.434   2.043   0.399
  925SOL    HW1 3674   6.470   2.027   0.491
  925SOL    HW2 3675   6.334   2.038   0.400
  926SOL     OW 3676   0.867   1.724   2.118
  926SOL    HW1 3677   0.903   1.686   2.033
  926SOL    HW2 3678   0.906   1.815   2.133
  927SOL     OW 3679   5.758   3.937   3.292
  927SOL    HW1 3680   5.846   3.914   3.251
  927SOL    HW2 3681   5.688   3.874   3.259
  928SOL     OW 3682   2.867   4.803   6.703
  928SOL    HW1 3683   2.875   4.812   6.802
  928SOL    HW2 3684   2.811   4.878   6.667
  929SOL     OW 3685   6.746   1.405   5.446
  929SOL    HW1 3686   6.707   1.472   5.383
  929SOL    HW2 3687   6.793   1.333   5.395
  930SOL     OW 3688   5.538   5.398   5.572
  930SOL    HW1 3689   5.514   5.357   5.484
  930SOL    HW2 3690   5.614   5.348   5.612
  931SOL     OW 3691   6.211   2.412   3.123
  931SOL    HW1 3692   6.258   2.357   3.054
  931SOL    HW2 3693   6.120   2.436   3.091
  932SOL     OW 3694   3.575   0.264   3.728
  932SOL    HW1 3695   3.584   0.354   3.685
  932SOL    HW2 3696   3.543   0.275   3.822
  933SOL     OW 3697   1.446   4.857   1.731
  933SOL    HW1 3698   1.470   4.908   1.814
  933SOL    HW2 3699   1.487   4.766   1.734
  934SOL     OW 3700   1.808   4.070   0.046
  934SOL    HW1 3701   1.905   4.062   0.069
  934SOL    HW2 3702   1.762   4.125   0.117
  935SOL     OW 3703   5.995   3.107   3.953
  935SOL    HW1 3704   5.917   3.162   3.983
  935SOL    HW2 3705   6.080   3.157   3.970
  936SOL     OW 3706   1.601   0.083   6.016
  936SOL    HW1 3707   1.547   0.132   5.948
  936SOL    HW2 3708   1.654   0.149   6.071
  937SOL     OW 3709   4.441   1.620   5.585
  937SOL    HW1 3710   4.447   1.520   5.596
  937SOL    HW2 3711   4.373   1.656   5.649
  938SOL     OW 3712   5.472   5.651   4.117
  938SOL    HW1 3713   5.565   5.615   4.114
  938SOL    HW2 3714   5.472   5.745   4.082
  939SOL     OW 3715   0.194   6.543   5.560
  939SOL    HW1 3716   0.205   6.518   5.464
  939SOL    HW2 3717   0.276   6.590   5.592
  940SOL     OW 3718   2.022   5.262   0.130
  940SOL    HW1 3719   2.058   5.288   0.040
  940SOL    HW2 3720   2.020   5.342   0.189
  941SOL     OW 3721   3.390   0.339   6.649
  941SOL    HW1 3722   3.381   0.338   6.749
  941SOL    HW2 3723   3.299   0.327   6.608
  942SOL     OW 3724   0.503   5.079   0.476
  942SOL    HW1 3725   0.471   4.991   0.442
  942SOL    HW2 3726   0.516   5.141   0.398
  943SOL     OW 3727   3.240   5.517   2.717
  943SOL    HW1 3728   3.246   5.611   2.750
  943SOL    HW2 3729   3.211   5.457   2.791
  944SOL     OW 3730   6.774   6.329   4.324
  944SOL    HW1 3731   6.739   6.257   4.262
  944SOL    HW2 3732   6.780   6.415   4.274
  945SOL     OW 3733   0.798   5.285   7.020
  945SOL    HW1 3734   0.710   5.322   0.026
  945SOL    HW2 3735   0.793   5.185   7.017
  946SOL     OW 3736   4.873   3.109   3.870
  946SOL    HW1 3737   4.891   3.200   3.834
  946SOL    HW2 3738   4.821   3.056   3.802
  947SOL     OW 3739   3.646   4.136   4.323
  947SOL    HW1 3740   3.648   4.169   4.229
  947SOL    HW2 3741   3.579   4.061   4.330
  948SOL     OW 3742   3.870   0.588   2.642
  948SOL    HW1 3743   3.917   0.574   2.729
  948SOL    HW2 3744   3.797   0.656   2.654
  949SOL     OW 3745   2.606   6.812   6.249
  949SOL    HW1 3746   2.584   6.887   6.311
  949SOL    HW2 3747   2.530   6.796   6.187
  950SOL     OW 3748   0.103   0.214   1.840
  950SOL    HW1 3749   0.157   0.180   1.917
  950SOL    HW2 3750   0.011   0.237   1.870
  951SOL     OW 3751   1.974   6.496   3.463
  951SOL    HW1 3752   2.023   6.419   3.506
  951SOL    HW2 3753   2.004   6.505   3.368
  952SOL     OW 3754   3.408   1.015   2.065
  952SOL    HW1 3755   3.501   1.050   2.059
  952SOL    HW2 3756   3.387   0.992   2.160
  953SOL     OW 3757   6.010   4.630   5.949
  953SOL    HW1 3758   6.028   4.564   5.877
  953SOL    HW2 3759   5.939   4.694   5.919
  954SOL     OW 3760   4.532   5.754   2.641
  954SOL    HW1 3761   4.468   5.688   2.603
  954SOL    HW2 3762   4.626   5.723   2.627
  955SOL     OW 3763   1.436   5.056   6.777
  955SOL    HW1 3764   1.376   5.123   6.733
  955SOL    HW2 3765   1.473   5.095   6.861
  956SOL     OW 3766   5.604   0.351   1.418
  956SOL    HW1 3767   5.585   0.297   1.336
  956SOL    HW2 3768   5.519   0.385   1.457
  957SOL     OW 3769   5.737   1.125   3.303
  957SOL    HW1 3770   5.753   1.208   3.249
  957SOL    HW2 3771   5.640   1.104   3.304
  958SOL     OW 3772   5.093   6.992   1.982
  958SOL    HW1 3773   5.089   0.050   1.926
  958SOL    HW2 3774   5.059   7.013   2.074
  959SOL     OW 3775   3.863   6.657   4.635
  959SOL    HW1 3776   3.920   6.602   4.696
  959SOL    HW2 3777   3.883   6.754   4.649
  960SOL     OW 3778   0.973   0.112   6.753
  960SOL    HW1 3779   1.055   0.144   6.706
  960SOL    HW2 3780   0.892   0.154   6.712
  961SOL     OW 3781   3.168   0.137   3.057
  961SOL    HW1 3782   3.174   0.067   3.128
  961SOL    HW2 3783   3.239   0.205   3.071
  962SOL     OW 3784   6.188   0.698   5.020
  962SOL    HW1 3785   6.216   0.645   4.940
  962SOL    HW2 3786   6.149   0.785   4.991
  963SOL     OW 3787   5.605   3.107   0.627
  963SOL    HW1 3788   5.671   3.130   0.556
  963SOL    HW2 3789   5.591   3.008   0.629
  964SOL     OW 3790   4.836   4.569   5.353
  964SOL    HW1 3791   4.913   4.632   5.359
  964SOL    HW2 3792   4.811   4.537   5.444
  965SOL     OW 3793   6.069   3.017   3.691
  965SOL    HW1 3794   6.034   3.059   3.776
  965SOL    HW2 3795   6.039   2.922   3.686
  966SOL     OW 3796   4.824   2.165   4.727
  966SOL    HW1 3797   4.891   2.165   4.652
  966SOL    HW2 3798   4.803   2.259   4.753
  967SOL     OW 3799   5.092   4.003   5.902
  967SOL    HW1 3800   5.121   4.072   5.968
  967SOL    HW2 3801   4.992   3.996   5.903
  968SOL     OW 3802   4.004   0.261   1.709
  968SOL    HW1 3803   3.927   0.246   1.771
  968SOL    HW2 3804   3.973   0.254   1.615
  969SOL     OW 3805   3.522   4.180   6.400
  969SOL    HW1 3806   3.480   4.089   6.391
  969SOL    HW2 3807   3.510   4.231   6.315
  970SOL     OW 3808   6.244   0.091   6.210
  970SOL    HW1 3809   6.156   0.068   6.251
  970SOL    HW2 3810   6.314   0.097   6.281
  971SOL     OW 3811   5.680   4.425   3.092
  971SOL    HW1 3812   5.595   4.420   3.145
  971SOL    HW2 3813   5.722   4.334   3.089
  972SOL     OW 3814   0.169   2.985   0.557
  972SOL    HW1 3815   0.167   3.035   0.471
  972SOL    HW2 3816   0.229   3.033   0.622
  973SOL     OW 3817   7.021   3.478   6.260
  973SOL    HW1 3818   0.055   3.420   6.206
  973SOL    HW2 3819   0.004   3.573   6.229
  974SOL     OW 3820   6.830   4.950   3.606
  974SOL    HW1 3821   6.915   4.923   3.650
  974SOL    HW2 3822   6.813   5.047   3.625
  975SOL     OW 3823   2.590   0.402   2.033
  975SOL    HW1 3824   2.564   0.331   1.967
  975SOL    HW2 3825   2.532   0.394   2.114
  976SOL     OW 3826   6.387   3.018   2.865
  976SOL    HW1 3827   6.333   2.974   2.793
  976SOL    HW2 3828   6.329   3.035   2.944
  977SOL     OW 3829   0.153   0.729   2.397
  977SOL    HW1 3830   0.158   0.801   2.467
  977SOL    HW2 3831   0.218   0.749   2.324
  978SOL     OW 3832   5.380   3.243   1.787
  978SOL    HW1 3833   5.336   3.316   1.735
  978SOL    HW2 3834   5.363   3.155   1.742
  979SOL     OW 3835   0.618   4.090   6.853
  979SOL    HW1 3836   0.706   4.114   6.892
  979SOL    HW2 3837   0.603   3.992   6.861
  980SOL     OW 3838   3.124   1.529   4.274
  980SOL    HW1 3839   3.193   1.457   4.286
  980SOL    HW2 3840   3.153   1.592   4.202
  981SOL     OW 3841   6.685   6.603   5.176
  981SOL    HW1 3842   6.606   6.646   5.220
  981SOL    HW2 3843   6.713   6.659   5.097
  982SOL     OW 3844   6.129   0.975   5.496
  982SOL    HW1 3845   6.145   1.059   5.547
  982SOL    HW2 3846   6.132   0.897   5.559
  983SOL     OW 3847   0.163   4.646   4.802
  983SOL    HW1 3848   0.092   4.665   4.734
  983SOL    HW2 3849   0.246   4.695   4.777
  984SOL     OW 3850   0.398   2.757   3.438
  984SOL    HW1 3851   0.425   2.848   3.470
  984SOL    HW2 3852   0.403   2.755   3.338
  985SOL     OW 3853   6.371   4.708   5.391
  985SOL    HW1 3854   6.434   4.688   5.316
  985SOL    HW2 3855   6.424   4.720   5.476
  986SOL     OW 3856   5.464   4.920   1.092
  986SOL    HW1 3857   5.447   4.871   1.007
  986SOL    HW2 3858   5.475   5.018   1.073
  987SOL     OW 3859   4.809   4.692   4.153
  987SOL    HW1 3860   4.862   4.773   4.128
  987SOL    HW2 3861   4.727   4.719   4.203
  988SOL     OW 3862   2.568   4.250   1.603
  988SOL    HW1 3863   2.598   4.326   1.662
  988SOL    HW2 3864   2.626   4.171   1.619
  989SOL     OW 3865   0.728   1.681   1.194
  989SOL    HW1 3866   0.786   1.734   1.255
  989SOL    HW2 3867   0.702   1.595   1.239
  990SOL     OW 3868   3.644   7.006   3.912
  990SOL    HW1 3869   3.724   0.000   3.968
  990SOL    HW2 3870   3.583   6.943   3.960
  991SOL     OW 3871   0.108   5.229   3.359
  991SOL    HW1 3872   0.097   5.132   3.381
  991SOL    HW2 3873   0.144   5.278   3.438
  992SOL     OW 3874   0.362   2.442   0.873
  992SOL    HW1 3875   0.296   2.502   0.918
  992SOL    HW2 3876   0.322   2.351   0.860
  993SOL     OW 3877   1.212   4.984   0.131
  993SOL    HW1 3878   1.185   4.984   0.035
  993SOL    HW2 3879   1.306   4.952   0.140
  994SOL     OW 3880   3.100   6.381   0.067
  994SOL    HW1 3881   3.118   6.297   0.118
  994SOL    HW2 3882   3.050   6.446   0.125
  995SOL     OW 3883   5.982   3.710   5.676
  995SOL    HW1 3884   5.882   3.704   5.678
  995SOL    HW2 3885   6.015   3.690   5.584
  996SOL     OW 3886   3.538   6.344   5.639
  996SOL    HW1 3887   3.631   6.381   5.629
  996SOL    HW2 3888   3.541   6.263   5.698
  997SOL     OW 3889   1.744   6.334   3.401
  997SOL    HW1 3890   1.791   6.246   3.400
  997SOL    HW2 3891   1.805   6.403   3.439
  998SOL     OW 3892   6.175   0.540   6.349
  998SOL    HW1 3893   6.241   0.558   6.276
  998SOL    HW2 3894   6.128   0.625   6.374
  999SOL     OW 3895   4.729   4.531   2.596
  999SOL    HW1 3896   4.650   4.507   2.651
  999SOL    HW2 3897   4.771   4.448   2.560
 1000SOL     OW 3898   4.854   2.282   1.151
 1000SOL    HW1 3899   4.781   2.335   1.108
 1000SOL    HW2 3900   4.818   2.193   1.179
 1001SOL     OW 3901   3.183   6.388   2.763
 1001SOL    HW1 3902   3.148   6.326   2.834
 1001SOL    HW2 3903   3.198   6.478   2.802
 1002SOL     OW 3904   5.300   2.552   0.938
 1002SOL    HW1 3905   5.361   2.544   1.016
 1002SOL    HW2 3906   5.308   2.471   0.880
 1003SOL     OW 3907   0.590   0.174   3.110
 1003SOL    HW1 3908   0.681   0.198   3.078
 1003SOL    HW2 3909   0.596   0.106   3.183
 1004SOL     OW 3910   5.553   1.536   3.731
 1004SOL    HW1 3911   5.624   1.527   3.801
 1004SOL    HW2 3912   5.590   1.506   3.643
 1005SOL     OW 3913   1.346   4.597   2.841
 1005SOL    HW1 3914   1.369   4.600   2.744
 1005SOL    HW2 3915   1.262   4.650   2.858
 1006SOL     OW 3916   2.664   3.590   1.074
 1006SOL    HW1 3917   2.633   3.679   1.041
 1006SOL    HW2 3918   2.630   3.519   1.013
 1007SOL     OW 3919   4.954   0.815   6.736
 1007SOL    HW1 3920   4.978   0.868   6.817
 1007SOL    HW2 3921   4.855   0.800   6.734
 1008SOL     OW 3922   0.209   4.599   5.590
 1008SOL    HW1 3923   0.154   4.535   5.643
 1008SOL    HW2 3924   0.230   4.679   5.647
 1009SOL     OW 3925   6.850   5.166   6.484
 1009SOL    HW1 3926   6.863   5.185   6.386
 1009SOL    HW2 3927   6.816   5.072   6.495
 1010SOL     OW 3928   2.522   3.018   0.991
 1010SOL    HW1 3929   2.562   3.076   1.062
 1010SOL    HW2 3930   2.515   2.924   1.024
 1011SOL     OW 3931   6.651   5.172   2.275
 1011SOL    HW1 3932   6.700   5.093   2.310
 1011SOL    HW2 3933   6.693   5.256   2.309
 1012SOL     OW 3934   4.532   0.089   3.490
 1012SOL    HW1 3935   4.588   0.159   3.534
 1012SOL    HW2 3936   4.452   0.132   3.448
 1013SOL     OW 3937   0.259   6.148   6.568
 1013SOL    HW1 3938   0.313   6.208   6.627
 1013SOL    HW2 3939   0.195   6.094   6.623
 1014SOL     OW 3940   0.962   4.757   5.551
 1014SOL    HW1 3941   0.896   4.832   5.562
 1014SOL    HW2 3942   1.017   4.773   5.469
 1015SOL     OW 3943   2.820   6.447   6.957
 1015SOL    HW1 3944   2.776   6.375   7.011
 1015SOL    HW2 3945   2.919   6.436   6.961
 1016SOL     OW 3946   5.945   4.259   1.667
 1016SOL    HW1 3947   5.956   4.293   1.761
 1016SOL    HW2 3948   6.001   4.178   1.654
 1017SOL     OW 3949   2.315   1.537   1.771
 1017SOL    HW1 3950   2.223   1.560   1.803
 1017SOL    HW2 3951   2.347   1.607   1.707
 1018SOL     OW 3952   6.911   5.894   3.520
 1018SOL    HW1 3953   6.857   5.811   3.508
 1018SOL    HW2 3954   6.985   5.895   3.453
 1019SOL     OW 3955   6.400   4.362   0.852
 1019SOL    HW1 3956   6.450   4.276   0.852
 1019SOL    HW2 3957   6.464   4.438   0.854
 1020SOL     OW 3958   6.045   0.969   0.925
 1020SOL    HW1 3959   6.079   1.062   0.918
 1020SOL    HW2 3960   5.947   0.970   0.944
 1021SOL     OW 3961   0.065   6.106   1.026
 1021SOL    HW1 3962   0.014   6.185   0.992
 1021SOL    HW2 3963   0.163   6.122   1.014
 1022SOL     OW 3964   2.658   5.614   6.826
 1022SOL    HW1 3965   2.665   5.625   6.727
 1022SOL    HW2 3966   2.670   5.703   6.870
 1023SOL     OW 3967   0.534   1.307   3.352
 1023SOL    HW1 3968   0.547   1.404   3.371
 1023SOL    HW2 3969   0.577   1.254   3.425
 1024SOL     OW 3970   1.579   1.572   4.730
 1024SOL    HW1 3971   1.666   1.578   4.777
 1024SOL    HW2 3972   1.546   1.664   4.708
 1025SOL     OW 3973   4.663   3.751   0.248
 1025SOL    HW1 3974   4.696   3.765   0.155
 1025SOL    HW2 3975   4.629   3.657   0.258
 1026SOL     OW 3976   2.863   2.556   0.975
 1026SOL    HW1 3977   2.963   2.563   0.968
 1026SOL    HW2 3978   2.821   2.611   0.903
 1027SOL     OW 3979   0.862   6.764   0.875
 1027SOL    HW1 3980   0.864   6.862   0.894
 1027SOL    HW2 3981   0.778   6.724   0.913
 1028SOL     OW 3982   1.601   5.885   2.458
 1028SOL    HW1 3983   1.663   5.835   2.519
 1028SOL    HW2 3984   1.545   5.821   2.407
 1029SOL     OW 3985   0.735   0.884   5.843
 1029SOL    HW1 3986   0.699   0.937   5.767
 1029SOL    HW2 3987   0.779   0.946   5.908
 1030SOL     OW 3988   3.626   3.213   1.419
 1030SOL    HW1 3989   3.718   3.235   1.449
 1030SOL    HW2 3990   3.561   3.279   1.458
 1031SOL     OW 3991   3.661   3.344   1.024
 1031SOL    HW1 3992   3.758   3.347   1.001
 1031SOL    HW2 3993   3.637   3.255   1.062
 1032SOL     OW 3994   2.495   2.063   6.860
 1032SOL    HW1 3995   2.459   2.033   6.948
 1032SOL    HW2 3996   2.424   2.051   6.790
 1033SOL     OW 3997   0.986   6.200   2.083
 1033SOL    HW1 3998   1.038   6.284   2.094
 1033SOL    HW2 3999   0.951   6.194   1.989
 1034SOL     OW 4000   3.289   0.521   4.530
 1034SOL    HW1 4001   3.307   0.581   4.608
 1034SOL    HW2 4002   3.193   0.527   4.505
 1035SOL     OW 4003   1.090   1.967   5.819
 1035SOL    HW1 4004   1.112   2.058   5.852
 1035SOL    HW2 4005   1.078   1.905   5.898
 1036SOL     OW 4006   5.395   2.016   1.251
 1036SOL    HW1 4007   5.354   1.925   1.249
 1036SOL    HW2 4008   5.440   2.030   1.339
 1037SOL     OW 4009   1.144   2.722   2.214
 1037SOL    HW1 4010   1.202   2.785   2.164
 1037SOL    HW2 4011   1.085   2.773   2.277
 1038SOL     OW 4012   2.653   6.287   0.073
 1038SOL    HW1 4013   2.681   6.320   0.163
 1038SOL    HW2 4014   2.556   6.261   0.076
 1039SOL     OW 4015   3.709   2.925   3.515
 1039SOL    HW1 4016   3.647   2.911   3.438
 1039SOL    HW2 4017   3.803   2.935   3.480
 1040SOL     OW 4018   3.588   1.107   3.068
 1040SOL    HW1 4019   3.489   1.108   3.080
 1040SOL    HW2 4020   3.623   1.200   3.079
 1041SOL     OW 4021   0.162   5.526   5.991
 1041SOL    HW1 4022   0.146   5.608   6.047
 1041SOL    HW2 4023   0.182   5.448   6.050
 1042SOL     OW 4024   5.795   5.023   2.757
 1042SOL    HW1 4025   5.772   5.114   2.794
 1042SOL    HW2 4026   5.734   5.002   2.682
 1043SOL     OW 4027   3.184   2.161   3.613
 1043SOL    HW1 4028   3.192   2.100   3.691
 1043SOL    HW2 4029   3.097   2.210   3.618
 1044SOL     OW 4030   5.294   4.754   1.824
 1044SOL    HW1 4031   5.288   4.820   1.749
 1044SOL    HW2 4032   5.329   4.667   1.790
 1045SOL     OW 4033   1.950   0.574   2.815
 1045SOL    HW1 4034   1.973   0.669   2.836
 1045SOL    HW2 4035   2.031   0.516   2.830
 1046SOL     OW 4036   3.185   1.030   0.847
 1046SOL    HW1 4037   3.169   0.956   0.913
 1046SOL    HW2 4038   3.166   1.118   0.891
 1047SOL     OW 4039   3.914   6.245   3.950
 1047SOL    HW1 4040   3.912   6.269   3.852
 1047SOL    HW2 4041   4.003   6.205   3.972
 1048SOL     OW 4042   1.440   6.176   2.448
 1048SOL    HW1 4043   1.484   6.134   2.369
 1048SOL    HW2 4044   1.477   6.136   2.532
 1049SOL     OW 4045   4.309   6.367   5.164
 1049SOL    HW1 4046   4.220   6.335   5.198
 1049SOL    HW2 4047   4.364   6.400   5.240
 1050SOL     OW 4048   3.529   5.607   3.195
 1050SOL    HW1 4049   3.480   5.523   3.173
 1050SOL    HW2 4050   3.602   5.587   3.262
 1051SOL     OW 4051   0.822   6.968   6.417
 1051SOL    HW1 4052   0.835   7.002   6.324
 1051SOL    HW2 4053   0.806   6.869   6.414
 1052SOL     OW 4054   3.349   1.001   7.004
 1052SOL    HW1 4055   3.363   1.094   6.969
 1052SOL    HW2 4056   3.432   0.947   6.991
 1053SOL     OW 4057   5.690   2.615   3.554
 1053SOL    HW1 4058   5.658   2.591   3.462
 1053SOL    HW2 4059   5.651   2.551   3.621
 1054SOL     OW 4060   3.008   4.924   6.157
 1054SOL    HW1 4061   3.005   4.825   6.169
 1054SOL    HW2 4062   3.100   4.952   6.130
 1055SOL     OW 4063   5.145   6.239   6.477
 1055SOL    HW1 4064   5.213   6.207   6.543
 1055SOL    HW2 4065   5.063   6.183   6.484
 1056SOL     OW 4066   3.380   3.806   6.663
 1056SOL    HW1 4067   3.373   3.854   6.575
 1056SOL    HW2 4068   3.337   3.860   6.735
 1057SOL     OW 4069   2.763   1.977   0.959
 1057SOL    HW1 4070   2.712   1.907   1.009
 1057SOL    HW2 4071   2.703   2.052   0.935
 1058SOL     OW 4072   2.591   2.375   2.376
 1058SOL    HW1 4073   2.513   2.433   2.399
 1058SOL    HW2 4074   2.621   2.394   2.282
 1059SOL     OW 4075   2.793   6.892   1.832
 1059SOL    HW1 4076   2.751   6.821   1.889
 1059SOL    HW2 4077   2.847   6.849   1.759
 1060SOL     OW 4078   5.747   6.399   5.216
 1060SOL    HW1 4079   5.780   6.304   5.211
 1060SOL    HW2 4080   5.682   6.415   5.142
 1061SOL     OW 4081   0.074   3.792   0.082
 1061SOL    HW1 4082   0.084   3.746   0.170
 1061SOL    HW2 4083   0.047   3.887   0.096
 1062SOL     OW 4084   3.556   6.736   4.893
 1062SOL    HW1 4085   3.541   6.689   4.981
 1062SOL    HW2 4086   3.598   6.672   4.829
 1063SOL     OW 4087   2.958   6.936   5.908
 1063SOL    HW1 4088   2.901   6.864   5.949
 1063SOL    HW2 4089   2.926   0.001   5.939
 1064SOL     OW 4090   1.867   3.641   0.409
 1064SOL    HW1 4091   1.837   3.672   0.318
 1064SOL    HW2 4092   1.859   3.542   0.414
 1065SOL     OW 4093   4.311   1.241   4.459
 1065SOL    HW1 4094   4.300   1.340   4.445
 1065SOL    HW2 4095   4.329   1.197   4.371
 1066SOL     OW 4096   5.307   6.747   1.840
 1066SOL    HW1 4097   5.318   6.753   1.741
 1066SOL    HW2 4098   5.278   6.655   1.865
 1067SOL     OW 4099   2.691   1.975   0.123
 1067SOL    HW1 4100   2.713   1.955   0.028
 1067SOL    HW2 4101   2.719   1.898   0.181
 1068SOL     OW 4102   6.611   3.405   1.551
 1068SOL    HW1 4103   6.708   3.411   1.527
 1068SOL    HW2 4104   6.570   3.326   1.505
 1069SOL     OW 4105   6.237   3.699   1.816
 1069SOL    HW1 4106   6.149   3.744   1.831
 1069SOL    HW2 4107   6.240   3.614   1.868
 1070SOL     OW 4108   0.965   7.000   1.756
 1070SOL    HW1 4109   0.948   0.069   1.724
 1070SOL    HW2 4110   1.055   6.996   1.800
 1071SOL     OW 4111   6.911   3.084   5.594
 1071SOL    HW1 4112   6.828   3.051   5.639
 1071SOL    HW2 4113   6.988   3.079   5.658
 1072SOL     OW 4114   2.028   1.317   2.189
 1072SOL    HW1 4115   2.057   1.224   2.209
 1072SOL    HW2 4116   2.092   1.358   2.123
 1073SOL     OW 4117   4.835   1.927   3.636
 1073SOL    HW1 4118   4.915   1.958   3.586
 1073SOL    HW2 4119   4.789   2.005   3.678
 1074SOL     OW 4120   2.547   4.503   1.757
 1074SOL    HW1 4121   2.645   4.519   1.753
 1074SOL    HW2 4122   2.514   4.520   1.850
 1075SOL     OW 4123   5.767   3.884   5.414
 1075SOL    HW1 4124   5.752   3.912   5.319
 1075SOL    HW2 4125   5.720   3.797   5.431
 1076SOL     OW 4126   2.281   4.183   4.825
 1076SOL    HW1 4127   2.299   4.261   4.885
 1076SOL    HW2 4128   2.295   4.098   4.875
 1077SOL     OW 4129   0.290   6.833   0.078
 1077SOL    HW1 4130   0.293   6.784   0.165
 1077SOL    HW2 4131   0.309   6.769   0.004
 1078SOL     OW 4132   6.536   6.720   4.143
 1078SOL    HW1 4133   6.552   6.816   4.121
 1078SOL    HW2 4134   6.612   6.664   4.110
 1079SOL     OW 4135   0.997   6.977   2.305
 1079SOL    HW1 4136   0.912   6.932   2.329
 1079SOL    HW2 4137   1.054   6.988   2.387
 1080SOL     OW 4138   2.815   5.713   6.273
 1080SOL    HW1 4139   2.875   5.767   6.332
 1080SOL    HW2 4140   2.822   5.616   6.300
 1081SOL     OW 4141   6.827   5.775   4.177
 1081SOL    HW1 4142   6.804   5.783   4.080
 1081SOL    HW2 4143   6.854   5.864   4.213
 1082SOL     OW 4144   4.868   6.650   6.381
 1082SOL    HW1 4145   4.933   6.680   6.311
 1082SOL    HW2 4146   4.844   6.727   6.440
 1083SOL     OW 4147   5.040   4.275   0.940
 1083SOL    HW1 4148   4.946   4.308   0.927
 1083SOL    HW2 4149   5.046   4.225   1.026
 1084SOL     OW 4150   6.730   0.323   5.490
 1084SOL    HW1 4151   6.750   0.242   5.434
 1084SOL    HW2 4152   6.743   0.405   5.435
 1085SOL     OW 4153   1.213   4.031   4.613
 1085SOL    HW1 4154   1.248   3.968   4.682
 1085SOL    HW2 4155   1.261   4.015   4.526
 1086SOL     OW 4156   5.622   5.275   0.637
 1086SOL    HW1 4157   5.676   5.342   0.689
 1086SOL    HW2 4158   5.577   5.212   0.700
 1087SOL     OW 4159   3.439   0.391   5.434
 1087SOL    HW1 4160   3.422   0.485   5.405
 1087SOL    HW2 4161   3.353   0.338   5.429
 1088SOL     OW 4162   0.120   4.804   3.115
 1088SOL    HW1 4163   0.086   4.896   3.096
 1088SOL    HW2 4164   0.178   4.773   3.039
 1089SOL     OW 4165   6.605   4.142   4.094
 1089SOL    HW1 4166   6.562   4.183   4.013
 1089SOL    HW2 4167   6.678   4.081   4.065
 1090SOL     OW 4168   5.616   1.735   5.195
 1090SOL    HW1 4169   5.562   1.816   5.215
 1090SOL    HW2 4170   5.563   1.675   5.134
 1091SOL     OW 4171   2.334   2.761   2.917
 1091SOL    HW1 4172   2.248   2.710   2.922
 1091SOL    HW2 4173   2.379   2.758   3.006
 1092SOL     OW 4174   0.487   5.629   1.134
 1092SOL    HW1 4175   0.562   5.610   1.199
 1092SOL    HW2 4176   0.459   5.544   1.090
 1093SOL     OW 4177   1.830   6.890   2.778
 1093SOL    HW1 4178   1.912   6.837   2.798
 1093SOL    HW2 4179   1.809   6.884   2.680
 1094SOL     OW 4180   0.857   0.222   2.877
 1094SOL    HW1 4181   0.826   0.241   2.784
 1094SOL    HW2 4182   0.951   0.254   2.888
 1095SOL     OW 4183   5.930   3.327   0.107
 1095SOL    HW1 4184   5.985   3.252   0.142
 1095SOL    HW2 4185   5.856   3.290   0.051
 1096SOL     OW 4186   2.725   5.641   1.701
 1096SOL    HW1 4187   2.760   5.591   1.780
 1096SOL    HW2 4188   2.763   5.733   1.699
 1097SOL     OW 4189   3.471   5.366   4.503
 1097SOL    HW1 4190   3.398   5.412   4.453
 1097SOL    HW2 4191   3.499   5.423   4.581
 1098SOL     OW 4192   6.504   4.930   0.814
 1098SOL    HW1 4193   6.439   4.909   0.887
 1098SOL    HW2 4194   6.500   5.027   0.793
 1099SOL     OW 4195   4.971   0.521   5.670
 1099SOL    HW1 4196   5.058   0.473   5.678
 1099SOL    HW2 4197   4.987   0.620   5.670
 1100SOL     OW 4198   3.385   1.702   4.071
 1100SOL    HW1 4199   3.321   1.695   3.995
 1100SOL    HW2 4200   3.347   1.760   4.143
 1101SOL     OW 4201   6.047   3.216   6.226
 1101SOL    HW1 4202   6.007   3.287   6.169
 1101SOL    HW2 4203   6.136   3.246   6.260
 1102SOL     OW 4204   2.654   1.317   3.774
 1102SOL    HW1 4205   2.739   1.367   3.786
 1102SOL    HW2 4206   2.599   1.325   3.857
 1103SOL     OW 4207   2.073   0.179   6.943
 1103SOL    HW1 4208   1.980   0.200   6.975
 1103SOL    HW2 4209   2.073   0.173   6.843
 1104SOL     OW 4210   0.851   3.239   4.167
 1104SOL    HW1 4211   0.937   3.225   4.118
 1104SOL    HW2 4212   0.853   3.328   4.213
 1105SOL     OW 4213   5.396   1.144   5.870
 1105SOL    HW1 4214   5.346   1.150   5.956
 1105SOL    HW2 4215   5.458   1.222   5.861
 1106SOL     OW 4216   0.298   2.181   0.876
 1106SOL    HW1 4217   0.252   2.097   0.847
 1106SOL    HW2 4218   0.385   2.190   0.829
 1107SOL     OW 4219   0.716   1.274   0.202
 1107SOL    HW1 4220   0.760   1.187   0.226
 1107SOL    HW2 4221   0.675   1.315   0.283
 1108SOL     OW 4222   2.924   6.521   3.864
 1108SOL    HW1 4223   2.965   6.437   3.899
 1108SOL    HW2 4224   2.855   6.554   3.929
 1109SOL     OW 4225   4.805   2.153   4.125
 1109SOL    HW1 4226   4.885   2.176   4.181
 1109SOL    HW2 4227   4.722   2.180   4.174
 1110SOL     OW 4228   2.950   0.702   2.337
 1110SOL    HW1 4229   2.991   0.741   2.420
 1110SOL    HW2 4230   2.931   0.605   2.351
 1111SOL     OW 4231   5.421   4.267   6.411
 1111SOL    HW1 4232   5.520   4.266   6.393
 1111SOL    HW2 4233   5.404   4.225   6.500
 1112SOL     OW 4234   4.987   0.040   2.240
 1112SOL    HW1 4235   4.992   0.128   2.192
 1112SOL    HW2 4236   5.005   0.055   2.338
 1113SOL     OW 4237   5.548   4.785   2.304
 1113SOL    HW1 4238   5.505   4.767   2.393
 1113SOL    HW2 4239   5.489   4.845   2.250
 1114SOL     OW 4240   3.823   3.541   5.082
 1114SOL    HW1 4241   3.753   3.488   5.131
 1114SOL    HW2 4242   3.792   3.559   4.989
 1115SOL     OW 4243   2.854   4.563   5.764
 1115SOL    HW1 4244   2.766   4.590   5.726
 1115SOL    HW2 4245   2.923   4.564   5.691
 1116SOL     OW 4246   4.788   0.024   6.125
 1116SOL    HW1 4247   4.763   0.010   6.030
 1116SOL    HW2 4248   4.754   0.112   6.156
 1117SOL     OW 4249   1.188   3.066   1.576
 1117SOL    HW1 4250   1.235   2.989   1.619
 1117SOL    HW2 4251   1.186   3.052   1.476
 1118SOL     OW 4252   3.587   5.112   0.215
 1118SOL    HW1 4253   3.545   5.099   0.125
 1118SOL    HW2 4254   3.518   5.145   0.279
 1119SOL     OW 4255   3.097   5.119   4.314
 1119SOL    HW1 4256   3.070   5.209   4.282
 1119SOL    HW2 4257   3.087   5.115   4.414
 1120SOL     OW 4258   6.704   4.267   0.551
 1120SOL    HW1 4259   6.760   4.208   0.609
 1120SOL    HW2 4260   6.732   4.259   0.456
 1121SOL     OW 4261   6.675   4.670   4.455
 1121SOL    HW1 4262   6.631   4.705   4.373
 1121SOL    HW2 4263   6.640   4.719   4.535
 1122SOL     OW 4264   5.563   2.685   1.721
 1122SOL    HW1 4265   5.524   2.632   1.646
 1122SOL    HW2 4266   5.533   2.647   1.808
 1123SOL     OW 4267   3.669   1.351   2.611
 1123SOL    HW1 4268   3.587   1.389   2.653
 1123SOL    HW2 4269   3.733   1.322   2.683
 1124SOL     OW 4270   2.186   3.034   4.458
 1124SOL    HW1 4271   2.232   2.955   4.419
 1124SOL    HW2 4272   2.164   3.015   4.554
 1125SOL     OW 4273   1.493   3.881   3.802
 1125SOL    HW1 4274   1.409   3.898   3.853
 1125SOL    HW2 4275   1.487   3.925   3.712
 1126SOL     OW 4276   3.344   5.529   4.711
 1126SOL    HW1 4277   3.356   5.628   4.699
 1126SOL    HW2 4278   3.301   5.491   4.629
 1127SOL     OW 4279   5.934   6.784   2.843
 1127SOL    HW1 4280   5.857   6.808   2.902
 1127SOL    HW2 4281   5.945   6.685   2.841
 1128SOL     OW 4282   5.457   1.341   3.568
 1128SOL    HW1 4283   5.485   1.410   3.502
 1128SOL    HW2 4284   5.472   1.374   3.661
 1129SOL     OW 4285   1.713   0.560   0.659
 1129SOL    HW1 4286   1.711   0.656   0.632
 1129SOL    HW2 4287   1.808   0.529   0.667
 1130SOL     OW 4288   2.230   4.793   2.031
 1130SOL    HW1 4289   2.312   4.831   2.075
 1130SOL    HW2 4290   2.254   4.756   1.942
 1131SOL     OW 4291   1.476   5.441   4.720
 1131SOL    HW1 4292   1.450   5.511   4.653
 1131SOL    HW2 4293   1.399   5.380   4.736
 1132SOL     OW 4294   2.620   0.990   2.230
 1132SOL    HW1 4295   2.700   1.043   2.256
 1132SOL    HW2 4296   2.649   0.901   2.194
 1133SOL     OW 4297   0.666   6.878   4.865
 1133SOL    HW1 4298   0.668   6.820   4.784
 1133SOL    HW2 4299   0.758   6.885   4.904
 1134SOL     OW 4300   3.566   6.843   1.571
 1134SOL    HW1 4301   3.616   6.778   1.627
 1134SOL    HW2 4302   3.596   6.936   1.594
 1135SOL     OW 4303   2.054   5.727   3.872
 1135SOL    HW1 4304   2.133   5.771   3.829
 1135SOL    HW2 4305   2.020   5.784   3.946
 1136SOL     OW 4306   2.107   5.628   1.814
 1136SOL    HW1 4307   2.155   5.543   1.791
 1136SOL    HW2 4308   2.153   5.705   1.771
 1137SOL     OW 4309   0.895   5.361   5.539
 1137SOL    HW1 4310   0.858   5.442   5.584
 1137SOL    HW2 4311   0.930   5.298   5.609
 1138SOL     OW 4312   2.047   2.753   4.508
 1138SOL    HW1 4313   2.034   2.818   4.583
 1138SOL    HW2 4314   1.979   2.770   4.437
 1139SOL     OW 4315   2.823   5.610   4.510
 1139SOL    HW1 4316   2.769   5.692   4.491
 1139SOL    HW2 4317   2.761   5.534   4.533
 1140SOL     OW 4318   1.459   1.337   0.853
 1140SOL    HW1 4319   1.422   1.264   0.795
 1140SOL    HW2 4320   1.534   1.383   0.804
 1141SOL     OW 4321   6.065   4.980   6.343
 1141SOL    HW1 4322   6.042   4.892   6.300
 1141SOL    HW2 4323   5.981   5.028   6.367
 1142SOL     OW 4324   2.411   6.200   3.042
 1142SOL    HW1 4325   2.339   6.239   3.100
 1142SOL    HW2 4326   2.380   6.114   3.003
 1143SOL     OW 4327   1.328   4.110   1.844
 1143SOL    HW1 4328   1.243   4.159   1.862
 1143SOL    HW2 4329   1.375   4.091   1.931
 1144SOL     OW 4330   5.647   4.230   1.424
 1144SOL    HW1 4331   5.639   4.135   1.454
 1144SOL    HW2 4332   5.724   4.239   1.361
 1145SOL     OW 4333   6.797   0.854   0.994
 1145SOL    HW1 4334   6.796   0.906   1.079
 1145SOL    HW2 4335   6.891   0.848   0.960
 1146SOL     OW 4336   0.895   1.344   1.490
 1146SOL    HW1 4337   0.893   1.251   1.526
 1146SOL    HW2 4338   0.989   1.370   1.468
 1147SOL     OW 4339   3.408   6.220   1.506
 1147SOL    HW1 4340   3.319   6.181   1.530
 1147SOL    HW2 4341   3.424   6.207   1.408
 1148SOL     OW 4342   4.709   5.211   3.532
 1148SOL    HW1 4343   4.801   5.204   3.494
 1148SOL    HW2 4344   4.659   5.126   3.513
 1149SOL     OW 4345   4.567   3.016   0.927
 1149SOL    HW1 4346   4.545   3.025   1.024
 1149SOL    HW2 4347   4.545   3.101   0.879
 1150SOL     OW 4348   2.059   4.116   0.357
 1150SOL    HW1 4349   2.153   4.149   0.348
 1150SOL    HW2 4350   2.060   4.022   0.390
 1151SOL     OW 4351   6.408   5.814   4.011
 1151SOL    HW1 4352   6.328   5.843   4.063
 1151SOL    HW2 4353   6.441   5.890   3.955
 1152SOL     OW 4354   3.982   6.654   6.661
 1152SOL    HW1 4355   4.017   6.614   6.745
 1152SOL    HW2 4356   3.942   6.744   6.681
 1153SOL     OW 4357   6.310   0.303   1.175
 1153SOL    HW1 4358   6.403   0.340   1.169
 1153SOL    HW2 4359   6.309   0.223   1.234
 1154SOL     OW 4360   1.557   2.700   1.509
 1154SOL    HW1 4361   1.513   2.634   1.449
 1154SOL    HW2 4362   1.644   2.730   1.468
 1155SOL     OW 4363   2.909   6.395   4.971
 1155SOL    HW1 4364   2.929   6.386   5.069
 1155SOL    HW2 4365   2.979   6.348   4.918
 1156SOL     OW 4366   2.941   1.973   3.885
 1156SOL    HW1 4367   3.033   2.011   3.895
 1156SOL    HW2 4368   2.928   1.899   3.951
 1157SOL     OW 4369   3.792   1.287   6.188
 1157SOL    HW1 4370   3.857   1.214   6.165
 1157SOL    HW2 4371   3.831   1.345   6.259
 1158SOL     OW 4372   6.176   5.962   2.665
 1158SOL    HW1 4373   6.199   5.988   2.571
 1158SOL    HW2 4374   6.166   5.862   2.670
 1159SOL     OW 4375   6.357   6.040   1.587
 1159SOL    HW1 4376   6.423   5.980   1.631
 1159SOL    HW2 4377   6.405   6.106   1.529
 1160SOL     OW 4378   5.826   1.419   0.668
 1160SOL    HW1 4379   5.742   1.393   0.619
 1160SOL    HW2 4380   5.902   1.363   0.636
 1161SOL     OW 4381   0.733   5.068   0.620
 1161SOL    HW1 4382   0.694   5.093   0.708
 1161SOL    HW2 4383   0.662   5.071   0.550
 1162SOL     OW 4384   2.624   2.451   4.827
 1162SOL    HW1 4385   2.595   2.509   4.903
 1162SOL    HW2 4386   2.724   2.445   4.826
 1163SOL     OW 4387   5.879   3.355   1.823
 1163SOL    HW1 4388   5.862   3.313   1.912
 1163SOL    HW2 4389   5.968   3.323   1.788
 1164SOL     OW 4390   4.677   2.307   5.063
 1164SOL    HW1 4391   4.704   2.402   5.047
 1164SOL    HW2 4392   4.584   2.305   5.099
 1165SOL     OW 4393   4.179   6.344   3.291
 1165SOL    HW1 4394   4.218   6.431   3.261
 1165SOL    HW2 4395   4.087   6.360   3.328
 1166SOL     OW 4396   2.686   5.061   6.761
 1166SOL    HW1 4397   2.775   5.089   6.723
 1166SOL    HW2 4398   2.630   5.023   6.688
 1167SOL     OW 4399   5.785   4.972   2.204
 1167SOL    HW1 4400   5.747   4.896   2.256
 1167SOL    HW2 4401   5.722   4.996   2.130
 1168SOL     OW 4402   6.335   1.467   3.553
 1168SOL    HW1 4403   6.353   1.548   3.608
 1168SOL    HW2 4404   6.338   1.386   3.611
 1169SOL     OW 4405   5.669   0.842   5.286
 1169SOL    HW1 4406   5.619   0.929   5.284
 1169SOL    HW2 4407   5.713   0.832   5.375
 1170SOL     OW 4408   5.024   6.462   3.864
 1170SOL    HW1 4409   4.939   6.437   3.911
 1170SOL    HW2 4410   5.016   6.444   3.767
 1171SOL     OW 4411   0.928   0.266   0.864
 1171SOL    HW1 4412   1.028   0.277   0.871
 1171SOL    HW2 4413   0.899   0.290   0.771
 1172SOL     OW 4414   6.962   3.361   6.507
 1172SOL    HW1 4415   6.969   3.435   6.440
 1172SOL    HW2 4416   7.003   3.278   6.468
 1173SOL     OW 4417   3.550   1.558   0.490
 1173SOL    HW1 4418   3.487   1.566   0.413
 1173SOL    HW2 4419   3.628   1.502   0.465
 1174SOL     OW 4420   3.365   2.998   0.571
 1174SOL    HW1 4421   3.288   3.051   0.608
 1174SOL    HW2 4422   3.340   2.901   0.569
 1175SOL     OW 4423   3.001   3.327   3.943
 1175SOL    HW1 4424   3.022   3.230   3.954
 1175SOL    HW2 4425   2.947   3.340   3.859
 1176SOL     OW 4426   5.650   3.935   6.505
 1176SOL    HW1 4427   5.689   3.938   6.413
 1176SOL    HW2 4428   5.555   3.903   6.500
 1177SOL     OW 4429   6.823   2.036   5.233
 1177SOL    HW1 4430   6.792   2.124   5.269
 1177SOL    HW2 4431   6.923   2.032   5.236
 1178SOL     OW 4432   3.392   5.094   0.557
 1178SOL    HW1 4433   3.478   5.102   0.608
 1178SOL    HW2 4434   3.369   4.998   0.546
 1179SOL     OW 4435   2.476   5.691   0.178
 1179SOL    HW1 4436   2.446   5.760   0.244
 1179SOL    HW2 4437   2.441   5.715   0.087
 1180SOL     OW 4438   4.016   6.198   0.899
 1180SOL    HW1 4439   3.962   6.185   0.817
 1180SOL    HW2 4440   4.041   6.109   0.937
 1181SOL     OW 4441   0.567   5.520   0.717
 1181SOL    HW1 4442   0.475   5.561   0.720
 1181SOL    HW2 4443   0.582   5.478   0.627
 1182SOL     OW 4444   4.551   4.945   2.861
 1182SOL    HW1 4445   4.509   5.036   2.861
 1182SOL    HW2 4446   4.590   4.927   2.952
 1183SOL     OW 4447   2.041   3.603   6.232
 1183SOL    HW1 4448   2.119   3.596   6.169
 1183SOL    HW2 4449   1.993   3.690   6.216
 1184SOL     OW 4450   1.534   6.543   5.380
 1184SOL    HW1 4451   1.584   6.524   5.296
 1184SOL    HW2 4452   1.571   6.487   5.454
 1185SOL     OW 4453   6.765   1.311   6.428
 1185SOL    HW1 4454   6.846   1.294   6.483
 1185SOL    HW2 4455   6.742   1.229   6.375
 1186SOL     OW 4456   5.235   6.259   5.072
 1186SOL    HW1 4457   5.206   6.354   5.075
 1186SOL    HW2 4458   5.169   6.202   5.122
 1187SOL     OW 4459   6.022   0.646   5.938
 1187SOL    HW1 4460   6.031   0.641   5.839
 1187SOL    HW2 4461   5.933   0.611   5.966
 1188SOL     OW 4462   2.287   6.670   5.702
 1188SOL    HW1 4463   2.353   6.611   5.749
 1188SOL    HW2 4464   2.245   6.619   5.626
 1189SOL     OW 4465   5.671   3.532   3.124
 1189SOL    HW1 4466   5.589   3.480   3.101
 1189SOL    HW2 4467   5.717   3.490   3.202
 1190SOL     OW 4468   1.780   6.108   2.523
 1190SOL    HW1 4469   1.872   6.091   2.490
 1190SOL    HW2 4470   1.722   6.029   2.503
 1191SOL     OW 4471   4.771   5.655   2.631
 1191SOL    HW1 4472   4.728   5.573   2.669
 1191SOL    HW2 4473   4.831   5.628   2.556
 1192SOL     OW 4474   4.732   6.308   3.713
 1192SOL    HW1 4475   4.722   6.347   3.805
 1192SOL    HW2 4476   4.745   6.209   3.721
 1193SOL     OW 4477   6.727   5.623   3.676
 1193SOL    HW1 4478   6.656   5.608   3.745
 1193SOL    HW2 4479   6.693   5.592   3.587
 1194SOL     OW 4480   3.950   0.704   1.476
 1194SOL    HW1 4481   3.859   0.726   1.512
 1194SOL    HW2 4482   3.990   0.630   1.530
 1195SOL     OW 4483   5.806   1.908   2.734
 1195SOL    HW1 4484   5.736   1.971   2.769
 1195SOL    HW2 4485   5.780   1.877   2.643
 1196SOL     OW 4486   6.387   6.804   4.660
 1196SOL    HW1 4487   6.425   6.723   4.706
 1196SOL    HW2 4488   6.310   6.839   4.713
 1197SOL     OW 4489   2.932   6.303   0.924
 1197SOL    HW1 4490   2.887   6.214   0.932
 1197SOL    HW2 4491   2.867   6.371   0.890
 1198SOL     OW 4492   1.030   1.930   0.706
 1198SOL    HW1 4493   1.114   1.982   0.688
 1198SOL    HW2 4494   1.024   1.852   0.644
 1199SOL     OW 4495   5.168   4.682   2.354
 1199SOL    HW1 4496   5.096   4.744   2.386
 1199SOL    HW2 4497   5.171   4.681   2.254
 1200SOL     OW 4498   2.889   3.624   2.389
 1200SOL    HW1 4499   2.987   3.612   2.380
 1200SOL    HW2 4500   2.841   3.565   2.324
 1201SOL     OW 4501   1.497   1.797   4.566
 1201SOL    HW1 4502   1.498   1.807   4.466
 1201SOL    HW2 4503   1.538   1.878   4.608
 1202SOL     OW 4504   6.927   5.242   6.727
 1202SOL    HW1 4505   7.013   5.201   6.759
 1202SOL    HW2 4506   6.909   5.211   6.633
 1203SOL     OW 4507   4.683   5.775   5.499
 1203SOL    HW1 4508   4.676   5.838   5.576
 1203SOL    HW2 4509   4.593   5.738   5.477
 1204SOL     OW 4510   1.739   0.341   2.202
 1204SOL    HW1 4511   1.700   0.412   2.261
 1204SOL    HW2 4512   1.794   0.384   2.130
 1205SOL     OW 4513   5.160   3.852   1.654
 1205SOL    HW1 4514   5.212   3.930   1.621
 1205SOL    HW2 4515   5.108   3.879   1.735
 1206SOL     OW 4516   3.110   3.029   5.268
 1206SOL    HW1 4517   3.206   3.056   5.265
 1206SOL    HW2 4518   3.080   3.022   5.364
 1207SOL     OW 4519   1.871   6.761   2.059
 1207SOL    HW1 4520   1.900   6.747   2.153
 1207SOL    HW2 4521   1.897   6.681   2.004
 1208SOL     OW 4522   3.197   3.833   6.222
 1208SOL    HW1 4523   3.105   3.818   6.256
 1208SOL    HW2 4524   3.201   3.810   6.124
 1209SOL     OW 4525   4.135   0.095   5.289
 1209SOL    HW1 4526   4.177   0.079   5.379
 1209SOL    HW2 4527   4.194   0.057   5.218
 1210SOL     OW 4528   3.326   1.351   3.020
 1210SOL    HW1 4529   3.309   1.342   2.921
 1210SOL    HW2 4530   3.330   1.260   3.061
 1211SOL     OW 4531   1.229   3.634   0.923
 1211SOL    HW1 4532   1.246   3.724   0.964
 1211SOL    HW2 4533   1.143   3.636   0.873
 1212SOL     OW 4534   0.838   6.720   6.763
 1212SOL    HW1 4535   0.829   6.644   6.828
 1212SOL    HW2 4536   0.934   6.748   6.757
 1213SOL     OW 4537   5.697   2.660   0.736
 1213SOL    HW1 4538   5.676   2.634   0.831
 1213SOL    HW2 4539   5.622   2.714   0.699
 1214SOL     OW 4540   0.371   2.188   1.703
 1214SOL    HW1 4541   0.286   2.168   1.655
 1214SOL    HW2 4542   0.433   2.237   1.642
 1215SOL     OW 4543   1.041   5.477   4.004
 1215SOL    HW1 4544   1.041   5.401   4.069
 1215SOL    HW2 4545   1.128   5.479   3.955
 1216SOL     OW 4546   4.576   6.952   6.553
 1216SOL    HW1 4547   4.509   6.880   6.538
 1216SOL    HW2 4548   4.531   0.006   6.596
 1217SOL     OW 4549   2.647   4.559   0.195
 1217SOL    HW1 4550   2.615   4.523   0.282
 1217SOL    HW2 4551   2.700   4.643   0.211
 1218SOL     OW 4552   1.741   4.021   3.846
 1218SOL    HW1 4553   1.664   3.960   3.825
 1218SOL    HW2 4554   1.755   4.024   3.945
 1219SOL     OW 4555   4.172   6.052   2.590
 1219SOL    HW1 4556   4.261   6.068   2.631
 1219SOL    HW2 4557   4.123   6.138   2.581
 1220SOL     OW 4558   1.424   4.867   2.760
 1220SOL    HW1 4559   1.384   4.886   2.670
 1220SOL    HW2 4560   1.371   4.914   2.831
 1221SOL     OW 4561   5.965   3.725   6.272
 1221SOL    HW1 4562   5.995   3.798   6.210
 1221SOL    HW2 4563   5.868   3.708   6.258
 1222SOL     OW 4564   0.149   6.043   7.013
 1222SOL    HW1 4565   0.199   5.962   6.982
 1222SOL    HW2 4566   0.195   6.083   0.067
 1223SOL     OW 4567   3.831   6.098   0.712
 1223SOL    HW1 4568   3.832   6.142   0.622
 1223SOL    HW2 4569   3.771   6.018   0.709
 1224SOL     OW 4570   2.933   6.661   1.729
 1224SOL    HW1 4571   2.952   6.573   1.686
 1224SOL    HW2 4572   2.918   6.647   1.827
 1225SOL     OW 4573   3.034   4.191   6.537
 1225SOL    HW1 4574   3.089   4.228   6.611
 1225SOL    HW2 4575   3.014   4.095   6.555
 1226SOL     OW 4576   2.048   4.685   0.998
 1226SOL    HW1 4577   2.041   4.769   1.051
 1226SOL    HW2 4578   1.957   4.654   0.972
 1227SOL     OW 4579   0.364   3.773   6.515
 1227SOL    HW1 4580   0.292   3.706   6.531
 1227SOL    HW2 4581   0.324   3.860   6.488
 1228SOL     OW 4582   4.059   1.919   6.151
 1228SOL    HW1 4583   4.086   1.995   6.210
 1228SOL    HW2 4584   4.139   1.882   6.105
 1229SOL     OW 4585   3.519   4.679   6.227
 1229SOL    HW1 4586   3.424   4.650   6.235
 1229SOL    HW2 4587   3.534   4.720   6.137
 1230SOL     OW 4588   4.429   6.634   3.425
 1230SOL    HW1 4589   4.437   6.552   3.482
 1230SOL    HW2 4590   4.446   6.715   3.482
 1231SOL     OW 4591   1.639   3.772   4.512
 1231SOL    HW1 4592   1.542   3.747   4.504
 1231SOL    HW2 4593   1.666   3.823   4.430
 1232SOL     OW 4594   1.712   2.097   4.462
 1232SOL    HW1 4595   1.720   2.044   4.546
 1232SOL    HW2 4596   1.739   2.192   4.480
 1233SOL     OW 4597   0.685   3.565   4.790
 1233SOL    HW1 4598   0.692   3.507   4.871
 1233SOL    HW2 4599   0.626   3.520   4.723
 1234SOL     OW 4600   6.383   4.382   4.624
 1234SOL    HW1 4601   6.392   4.423   4.533
 1234SOL    HW2 4602   6.433   4.437   4.690
 1235SOL     OW 4603   6.777   5.849   3.891
 1235SOL    HW1 4604   6.742   5.790   3.818
 1235SOL    HW2 4605   6.757   5.945   3.869
 1236SOL     OW 4606   5.192   0.427   0.108
 1236SOL    HW1 4607   5.147   0.511   0.138
 1236SOL    HW2 4608   5.253   0.446   0.031
 1237SOL     OW 4609   3.457   5.201   6.654
 1237SOL    HW1 4610   3.403   5.215   6.738
 1237SOL    HW2 4611   3.482   5.104   6.646
 1238SOL     OW 4612   1.641   1.933   1.290
 1238SOL    HW1 4613   1.691   2.019   1.300
 1238SOL    HW2 4614   1.548   1.944   1.324
 1239SOL     OW 4615   6.902   6.081   0.012
 1239SOL    HW1 4616   6.885   6.120   6.947
 1239SOL    HW2 4617   6.998   6.052   0.018
 1240SOL     OW 4618   5.021   6.271   1.826
 1240SOL    HW1 4619   4.956   6.207   1.785
 1240SOL    HW2 4620   5.095   6.289   1.761
 1241SOL     OW 4621   6.447   3.507   3.725
 1241SOL    HW1 4622   6.371   3.527   3.662
 1241SOL    HW2 4623   6.450   3.408   3.741
 1242SOL     OW 4624   2.292   3.889   0.262
 1242SOL    HW1 4625   2.205   3.879   0.215
 1242SOL    HW2 4626   2.299   3.821   0.336
 1243SOL     OW 4627   2.539   5.074   5.261
 1243SOL    HW1 4628   2.584   5.158   5.290
 1243SOL    HW2 4629   2.604   5.016   5.212
 1244SOL     OW 4630   0.759   1.192   3.873
 1244SOL    HW1 4631   0.660   1.203   3.859
 1244SOL    HW2 4632   0.776   1.166   3.968
 1245SOL     OW 4633   3.456   3.632   6.864
 1245SOL    HW1 4634   3.387   3.562   6.880
 1245SOL    HW2 4635   3.425   3.693   6.790
 1246SOL     OW 4636   1.536   6.399   2.253
 1246SOL    HW1 4637   1.621   6.348   2.244
 1246SOL    HW2 4638   1.491   6.375   2.339
 1247SOL     OW 4639   1.912   6.523   6.333
 1247SOL    HW1 4640   1.849   6.595   6.303
 1247SOL    HW2 4641   1.895   6.440   6.280
 1248SOL     OW 4642   2.066   5.460   3.866
 1248SOL    HW1 4643   2.035   5.554   3.880
 1248SOL    HW2 4644   2.039   5.404   3.944
 1249SOL     OW 4645   6.186   3.314   3.108
 1249SOL    HW1 4646   6.279   3.351   3.106
 1249SOL    HW2 4647   6.131   3.366   3.174
 1250SOL     OW 4648   0.930   5.084   4.709
 1250SOL    HW1 4649   0.959   5.109   4.802
 1250SOL    HW2 4650   0.833   5.061   4.710
 1251SOL     OW 4651   3.754   0.594   4.893
 1251SOL    HW1 4652   3.765   0.500   4.924
 1251SOL    HW2 4653   3.828   0.650   4.930
 1252SOL     OW 4654   3.476   4.014   6.063
 1252SOL    HW1 4655   3.452   3.944   6.130
 1252SOL    HW2 4656   3.543   3.977   5.999
 1253SOL     OW 4657   3.998   5.690   2.921
 1253SOL    HW1 4658   3.903   5.700   2.951
 1253SOL    HW2 4659   4.030   5.777   2.884
 1254SOL     OW 4660   6.337   2.224   2.899
 1254SOL    HW1 4661   6.421   2.202   2.850
 1254SOL    HW2 4662   6.284   2.141   2.912
 1255SOL     OW 4663   6.570   6.596   6.471
 1255SOL    HW1 4664   6.654   6.640   6.438
 1255SOL    HW2 4665   6.491   6.647   6.439
 1256SOL     OW 4666   4.339   0.873   3.443
 1256SOL    HW1 4667   4.423   0.925   3.462
 1256SOL    HW2 4668   4.358   0.803   3.375
 1257SOL     OW 4669   6.308   1.255   3.726
 1257SOL    HW1 4670   6.369   1.176   3.728
 1257SOL    HW2 4671   6.228   1.237   3.782
 1258SOL     OW 4672   0.344   6.781   3.262
 1258SOL    HW1 4673   0.332   6.840   3.182
 1258SOL    HW2 4674   0.287   6.700   3.252
 1259SOL     OW 4675   4.430   2.033   4.474
 1259SOL    HW1 4676   4.521   2.025   4.514
 1259SOL    HW2 4677   4.365   2.061   4.545
 1260SOL     OW 4678   1.206   0.817   6.928
 1260SOL    HW1 4679   1.203   0.857   6.836
 1260SOL    HW2 4680   1.277   0.861   6.982
 1261SOL     OW 4681   6.902   4.373   0.853
 1261SOL    HW1 4682   6.900   4.280   0.815
 1261SOL    HW2 4683   6.884   4.369   0.951
 1262SOL     OW 4684   5.330   5.883   1.285
 1262SOL    HW1 4685   5.265   5.816   1.251
 1262SOL    HW2 4686   5.359   5.858   1.378
 1263SOL     OW 4687   1.108   2.069   3.267
 1263SOL    HW1 4688   1.114   1.970   3.251
 1263SOL    HW2 4689   1.143   2.090   3.358
 1264SOL     OW 4690   0.676   2.536   5.304
 1264SOL    HW1 4691   0.617   2.510   5.227
 1264SOL    HW2 4692   0.769   2.553   5.271
 1265SOL     OW 4693   5.871   6.258   4.974
 1265SOL    HW1 4694   5.958   6.282   5.018
 1265SOL    HW2 4695   5.829   6.340   4.935
 1266SOL     OW 4696   2.032   0.675   5.002
 1266SOL    HW1 4697   2.119   0.659   4.955
 1266SOL    HW2 4698   2.018   0.773   5.013
 1267SOL     OW 4699   3.743   6.849   3.000
 1267SOL    HW1 4700   3.681   6.770   2.994
 1267SOL    HW2 4701   3.838   6.817   3.001
 1268SOL     OW 4702   4.331   2.512   5.580
 1268SOL    HW1 4703   4.371   2.547   5.664
 1268SOL    HW2 4704   4.283   2.586   5.532
 1269SOL     OW 4705   6.217   2.191   4.032
 1269SOL    HW1 4706   6.150   2.128   4.071
 1269SOL    HW2 4707   6.179   2.236   3.952
 1270SOL     OW 4708   6.547   5.941   2.605
 1270SOL    HW1 4709   6.630   5.919   2.553
 1270SOL    HW2 4710   6.469   5.945   2.543
 1271SOL     OW 4711   1.706   1.470   0.744
 1271SOL    HW1 4712   1.739   1.423   0.826
 1271SOL    HW2 4713   1.776   1.535   0.713
 1272SOL     OW 4714   6.467   3.621   6.989
 1272SOL    HW1 4715   6.515   3.567   6.920
 1272SOL    HW2 4716   6.370   3.626   6.966
 1273SOL     OW 4717   1.283   4.898   4.875
 1273SOL    HW1 4718   1.330   4.810   4.870
 1273SOL    HW2 4719   1.233   4.905   4.961
 1274SOL     OW 4720   0.267   5.794   3.014
 1274SOL    HW1 4721   0.252   5.741   3.097
 1274SOL    HW2 4722   0.314   5.737   2.946
 1275SOL     OW 4723   2.451   1.392   3.045
 1275SOL    HW1 4724   2.544   1.384   3.081
 1275SOL    HW2 4725   2.450   1.370   2.948
 1276SOL     OW 4726   5.231   4.676   3.863
 1276SOL    HW1 4727   5.220   4.679   3.962
 1276SOL    HW2 4728   5.248   4.582   3.834
 1277SOL     OW 4729   0.617   6.035   0.332
 1277SOL    HW1 4730   0.650   6.083   0.413
 1277SOL    HW2 4731   0.556   5.961   0.360
 1278SOL     OW 4732   1.146   5.651   2.824
 1278SOL    HW1 4733   1.220   5.643   2.891
 1278SOL    HW2 4734   1.167   5.725   2.760
 1279SOL     OW 4735   2.135   2.531   0.775
 1279SOL    HW1 4736   2.099   2.471   0.847
 1279SOL    HW2 4737   2.173   2.614   0.817
 1280SOL     OW 4738   1.976   2.283   3.662
 1280SOL    HW1 4739   1.928   2.286   3.574
 1280SOL    HW2 4740   1.985   2.187   3.691
 1281SOL     OW 4741   4.386   6.243   4.713
 1281SOL    HW1 4742   4.397   6.179   4.636
 1281SOL    HW2 4743   4.474   6.283   4.736
 1282SOL     OW 4744   6.640   2.113   1.402
 1282SOL    HW1 4745   6.593   2.189   1.448
 1282SOL    HW2 4746   6.739   2.124   1.413
 1283SOL     OW 4747   6.952   2.956   4.900
 1283SOL    HW1 4748   6.925   3.018   4.974
 1283SOL    HW2 4749   6.891   2.969   4.822
 1284SOL     OW 4750   4.326   1.915   1.691
 1284SOL    HW1 4751   4.361   2.005   1.717
 1284SOL    HW2 4752   4.260   1.925   1.617
 1285SOL     OW 4753   4.510   1.087   4.879
 1285SOL    HW1 4754   4.440   1.016   4.868
 1285SOL    HW2 4755   4.497   1.157   4.809
 1286SOL     OW 4756   5.524   2.077   1.788
 1286SOL    HW1 4757   5.502   2.168   1.751
 1286SOL    HW2 4758   5.446   2.016   1.775
 1287SOL     OW 4759   6.533   4.561   4.764
 1287SOL    HW1 4760   6.611   4.506   4.794
 1287SOL    HW2 4761   6.565   4.652   4.738
 1288SOL     OW 4762   4.200   3.907   6.970
 1288SOL    HW1 4763   4.173   3.866   0.033
 1288SOL    HW2 4764   4.244   3.995   6.987
 1289SOL     OW 4765   0.067   0.198   1.563
 1289SOL    HW1 4766   0.092   0.210   1.660
 1289SOL    HW2 4767   0.071   0.101   1.540
 1290SOL     OW 4768   1.929   6.807   6.061
 1290SOL    HW1 4769   2.015   6.816   6.111
 1290SOL    HW2 4770   1.933   6.864   5.979
 1291SOL     OW 4771   6.613   5.052   3.402
 1291SOL    HW1 4772   6.577   5.021   3.314
 1291SOL    HW2 4773   6.681   4.987   3.435
 1292SOL     OW 4774   0.852   6.700   1.755
 1292SOL    HW1 4775   0.916   6.754   1.700
 1292SOL    HW2 4776   0.880   6.703   1.851
 1293SOL     OW 4777   3.692   1.689   0.131
 1293SOL    HW1 4778   3.670   1.784   0.111
 1293SOL    HW2 4779   3.637   1.628   0.074
 1294SOL     OW 4780   2.275   3.601   5.299
 1294SOL    HW1 4781   2.367   3.565   5.308
 1294SOL    HW2 4782   2.279   3.701   5.289
 1295SOL     OW 4783   6.176   4.326   0.662
 1295SOL    HW1 4784   6.257   4.341   0.719
 1295SOL    HW2 4785   6.115   4.405   0.670
 1296SOL     OW 4786   5.394   0.038   5.610
 1296SOL    HW1 4787   5.347   0.072   5.692
 1296SOL    HW2 4788   5.343   0.067   5.529
 1297SOL     OW 4789   0.286   0.435   2.388
 1297SOL    HW1 4790   0.323   0.365   2.450
 1297SOL    HW2 4791   0.334   0.521   2.403
 1298SOL     OW 4792   5.284   6.483   2.642
 1298SOL    HW1 4793   5.260   6.391   2.610
 1298SOL    HW2 4794   5.205   6.522   2.690
 1299SOL     OW 4795   1.069   3.399   5.145
 1299SOL    HW1 4796   1.130   3.363   5.074
 1299SOL    HW2 4797   1.117   3.472   5.195
 1300SOL     OW 4798   1.186   4.797   1.975
 1300SOL    HW1 4799   1.185   4.810   1.876
 1300SOL    HW2 4800   1.130   4.717   1.999
 1301SOL     OW 4801   0.776   0.490   0.761
 1301SOL    HW1 4802   0.760   0.400   0.720
 1301SOL    HW2 4803   0.872   0.515   0.751
 1302SOL     OW 4804   5.416   0.089   4.536
 1302SOL    HW1 4805   5.329   0.039   4.532
 1302SOL    HW2 4806   5.471   0.055   4.612
 1303SOL     OW 4807   3.995   6.392   2.226
 1303SOL    HW1 4808   3.944   6.308   2.209
 1303SOL    HW2 4809   4.087   6.370   2.256
 1304SOL     OW 4810   0.588   1.064   0.682
 1304SOL    HW1 4811   0.642   1.019   0.753
 1304SOL    HW2 4812   0.573   1.001   0.606
 1305SOL     OW 4813   5.094   3.853   6.323
 1305SOL    HW1 4814   5.016   3.875   6.265
 1305SOL    HW2 4815   5.163   3.925   6.315
 1306SOL     OW 4816   2.396   5.377   4.224
 1306SOL    HW1 4817   2.455   5.352   4.300
 1306SOL    HW2 4818   2.365   5.295   4.177
 1307SOL     OW 4819   2.782   2.065   3.483
 1307SOL    HW1 4820   2.835   1.999   3.429
 1307SOL    HW2 4821   2.746   2.020   3.564
 1308SOL     OW 4822   0.806   4.444   5.902
 1308SOL    HW1 4823   0.876   4.382   5.868
 1308SOL    HW2 4824   0.835   4.538   5.887
 1309SOL     OW 4825   5.377   4.442   6.763
 1309SOL    HW1 4826   5.283   4.439   6.729
 1309SOL    HW2 4827   5.440   4.453   6.686
 1310SOL     OW 4828   1.196   3.847   3.280
 1310SOL    HW1 4829   1.267   3.777   3.295
 1310SOL    HW2 4830   1.119   3.806   3.232
 1311SOL     OW 4831   7.009   5.625   0.637
 1311SOL    HW1 4832   0.022   5.680   0.711
 1311SOL    HW2 4833   6.942   5.561   0.673
 1312SOL     OW 4834   2.381   1.248   6.065
 1312SOL    HW1 4835   2.329   1.294   5.993
 1312SOL    HW2 4836   2.330   1.168   6.097
 1313SOL     OW 4837   6.352   6.308   2.358
 1313SOL    HW1 4838   6.402   6.317   2.444
 1313SOL    HW2 4839   6.417   6.307   2.282
 1314SOL     OW 4840   2.187   1.479   5.128
 1314SOL    HW1 4841   2.093   1.464   5.157
 1314SOL    HW2 4842   2.238   1.524   5.202
 1315SOL     OW 4843   6.065   1.322   3.387
 1315SOL    HW1 4844   6.135   1.378   3.431
 1315SOL    HW2 4845   6.027   1.258   3.454
 1316SOL     OW 4846   4.185   0.500   5.196
 1316SOL    HW1 4847   4.255   0.520   5.264
 1316SOL    HW2 4848   4.106   0.560   5.211
 1317SOL     OW 4849   3.082   3.528   5.964
 1317SOL    HW1 4850   3.180   3.543   5.977
 1317SOL    HW2 4851   3.032   3.607   5.999
 1318SOL     OW 4852   1.946   2.579   6.308
 1318SOL    HW1 4853   1.891   2.495   6.307
 1318SOL    HW2 4854   1.887   2.656   6.333
 1319SOL     OW 4855   6.726   6.288   1.135
 1319SOL    HW1 4856   6.780   6.364   1.173
 1319SOL    HW2 4857   6.644   6.324   1.091
 1320SOL     OW 4858   3.471   3.167   5.989
 1320SOL    HW1 4859   3.409   3.135   5.917
 1320SOL    HW2 4860   3.443   3.127   6.076
 1321SOL     OW 4861   5.355   2.488   0.327
 1321SOL    HW1 4862   5.405   2.457   0.246
 1321SOL    HW2 4863   5.257   2.485   0.309
 1322SOL     OW 4864   3.381   1.766   0.220
 1322SOL    HW1 4865   3.440   1.839   0.185
 1322SOL    HW2 4866   3.351   1.789   0.312
 1323SOL     OW 4867   4.054   6.893   0.543
 1323SOL    HW1 4868   3.965   6.848   0.542
 1323SOL    HW2 4869   4.122   6.830   0.505
 1324SOL     OW 4870   1.752   3.448   0.158
 1324SOL    HW1 4871   1.827   3.454   0.092
 1324SOL    HW2 4872   1.711   3.538   0.171
 1325SOL     OW 4873   2.564   5.351   5.662
 1325SOL    HW1 4874   2.545   5.253   5.664
 1325SOL    HW2 4875   2.488   5.401   5.701
 1326SOL     OW 4876   4.747   2.907   3.620
 1326SOL    HW1 4877   4.812   2.883   3.691
 1326SOL    HW2 4878   4.672   2.840   3.619
 1327SOL     OW 4879   5.853   5.234   1.382
 1327SOL    HW1 4880   5.923   5.196   1.443
 1327SOL    HW2 4881   5.834   5.329   1.408
 1328SOL     OW 4882   2.200   3.191   5.063
 1328SOL    HW1 4883   2.223   3.281   5.101
 1328SOL    HW2 4884   2.273   3.126   5.083
 1329SOL     OW 4885   0.918   3.225   3.228
 1329SOL    HW1 4886   0.912   3.217   3.128
 1329SOL    HW2 4887   1.015   3.228   3.255
 1330SOL     OW 4888   6.466   3.148   1.446
 1330SOL    HW1 4889   6.537   3.079   1.462
 1330SOL    HW2 4890   6.453   3.160   1.347
 1331SOL     OW 4891   4.577   1.938   3.313
 1331SOL    HW1 4892   4.484   1.902   3.311
 1331SOL    HW2 4893   4.643   1.863   3.303
 1332SOL     OW 4894   1.610   6.216   0.069
 1332SOL    HW1 4895   1.609   6.215   6.993
 1332SOL    HW2 4896   1.517   6.202   0.102
 1333SOL     OW 4897   3.998   3.936   3.342
 1333SOL    HW1 4898   4.077   3.994   3.360
 1333SOL    HW2 4899   3.925   3.959   3.407
 1334SOL     OW 4900   7.016   3.466   2.139
 1334SOL    HW1 4901   6.937   3.499   2.087
 1334SOL    HW2 4902   0.048   3.544   2.167
 1335SOL     OW 4903   1.232   3.541   2.138
 1335SOL    HW1 4904   1.190   3.463   2.184
 1335SOL    HW2 4905   1.160   3.605   2.111
 1336SOL     OW 4906   3.035   0.764   5.319
 1336SOL    HW1 4907   2.955   0.708   5.341
 1336SOL    HW2 4908   3.089   0.718   5.248
 1337SOL     OW 4909   6.778   1.261   4.055
 1337SOL    HW1 4910   6.786   1.345   4.108
 1337SOL    HW2 4911   6.868   1.218   4.046
 1338SOL     OW 4912   6.651   4.132   4.894
 1338SOL    HW1 4913   6.553   4.153   4.899
 1338SOL    HW2 4914   6.699   4.211   4.856
 1339SOL     OW 4915   0.124   0.321   0.096
 1339SOL    HW1 4916   0.152   0.229   0.124
 1339SOL    HW2 4917   0.142   0.386   0.170
 1340SOL     OW 4918   4.232   2.573   1.544
 1340SOL    HW1 4919   4.275   2.492   1.582
 1340SOL    HW2 4920   4.133   2.566   1.552
 1341SOL     OW 4921   4.797   6.880   0.298
 1341SOL    HW1 4922   4.829   6.785   0.298
 1341SOL    HW2 4923   4.863   6.938   0.346
 1342SOL     OW 4924   2.542   6.439   1.309
 1342SOL    HW1 4925   2.522   6.389   1.393
 1342SOL    HW2 4926   2.534   6.537   1.325
 1343SOL     OW 4927   5.872   6.364   3.067
 1343SOL    HW1 4928   5.951   6.346   3.126
 1343SOL    HW2 4929   5.789   6.333   3.114
 1344SOL     OW 4930   0.262   0.408   5.072
 1344SOL    HW1 4931   0.178   0.382   5.025
 1344SOL    HW2 4932   0.247   0.406   5.171
 1345SOL     OW 4933   0.255   5.951   0.595
 1345SOL    HW1 4934   0.260   6.036   0.542
 1345SOL    HW2 4935   0.159   5.929   0.612
 1346SOL     OW 4936   3.037   5.208   5.456
 1346SOL    HW1 4937   3.071   5.300   5.478
 1346SOL    HW2 4938   2.996   5.167   5.538
 1347SOL     OW 4939   1.319   0.004   6.254
 1347SOL    HW1 4940   1.280   0.034   6.167
 1347SOL    HW2 4941   1.252   0.019   6.327
 1348SOL     OW 4942   0.920   6.483   5.414
 1348SOL    HW1 4943   0.955   6.574   5.393
 1348SOL    HW2 4944   0.834   6.491   5.464
 1349SOL     OW 4945   4.936   2.908   4.061
 1349SOL    HW1 4946   4.877   2.830   4.040
 1349SOL    HW2 4947   4.941   2.969   3.982
 1350SOL     OW 4948   3.914   3.839   0.112
 1350SOL    HW1 4949   3.914   3.748   0.069
 1350SOL    HW2 4950   3.821   3.876   0.112
 1351SOL     OW 4951   6.505   2.388   5.540
 1351SOL    HW1 4952   6.509   2.471   5.596
 1351SOL    HW2 4953   6.587   2.333   5.557
 1352SOL     OW 4954   6.965   0.699   2.211
 1352SOL    HW1 4955   0.011   0.684   2.279
 1352SOL    HW2 4956   6.882   0.732   2.256
 1353SOL     OW 4957   0.377   0.870   0.356
 1353SOL    HW1 4958   0.363   0.962   0.318
 1353SOL    HW2 4959   0.470   0.840   0.336
 1354SOL     OW 4960   5.132   5.028   2.315
 1354SOL    HW1 4961   5.094   5.104   2.263
 1354SOL    HW2 4962   5.059   4.980   2.363
 1355SOL     OW 4963   6.382   3.514   5.854
 1355SOL    HW1 4964   6.371   3.469   5.766
 1355SOL    HW2 4965   6.293   3.547   5.886
 1356SOL     OW 4966   3.364   2.906   1.009
 1356SOL    HW1 4967   3.301   2.843   1.055
 1356SOL    HW2 4968   3.434   2.853   0.960
 1357SOL     OW 4969   0.190   3.686   5.440
 1357SOL    HW1 4970   0.191   3.586   5.448
 1357SOL    HW2 4971   0.097   3.716   5.417
 1358SOL     OW 4972   1.553   6.540   6.970
 1358SOL    HW1 4973   1.470   6.486   6.983
 1358SOL    HW2 4974   1.530   6.637   6.972
 1359SOL     OW 4975   6.921   4.256   1.602
 1359SOL    HW1 4976   6.960   4.258   1.694
 1359SOL    HW2 4977   6.821   4.259   1.608
 1360SOL     OW 4978   2.256   2.237   0.186
 1360SOL    HW1 4979   2.178   2.281   0.232
 1360SOL    HW2 4980   2.318   2.307   0.152
 1361SOL     OW 4981   0.120   5.076   5.172
 1361SOL    HW1 4982   0.124   5.030   5.083
 1361SOL    HW2 4983   0.073   5.163   5.162
 1362SOL     OW 4984   3.068   3.113   2.995
 1362SOL    HW1 4985   3.151   3.167   2.980
 1362SOL    HW2 4986   3.044   3.064   2.912
 1363SOL     OW 4987   1.342   5.775   5.037
 1363SOL    HW1 4988   1.275   5.774   4.963
 1363SOL    HW2 4989   1.381   5.683   5.048
 1364SOL     OW 4990   3.457   3.903   1.053
 1364SOL    HW1 4991   3.456   3.833   0.982
 1364SOL    HW2 4992   3.416   3.988   1.018
 1365SOL     OW 4993   0.398   3.563   6.897
 1365SOL    HW1 4994   0.427   3.589   6.805
 1365SOL    HW2 4995   0.345   3.478   6.893
 1366SOL     OW 4996   2.885   0.294   5.465
 1366SOL    HW1 4997   2.908   0.368   5.528
 1366SOL    HW2 4998   2.812   0.238   5.504
 1367SOL     OW 4999   1.860   0.821   2.709
 1367SOL    HW1 5000   1.794   0.747   2.702
 1367SOL    HW2 5001   1.826   0.891   2.772
 1368SOL     OW 5002   5.486   0.123   3.577
 1368SOL    HW1 5003   5.504   0.215   3.613
 1368SOL    HW2 5004   5.408   0.127   3.514
 1369SOL     OW 5005   0.645   1.014   3.350
 1369SOL    HW1 5006   0.577   0.967   3.293
 1369SOL    HW2 5007   0.723   1.041   3.293
 1370SOL     OW 5008   2.931   0.554   1.528
 1370SOL    HW1 5009   2.905   0.467   1.570
 1370SOL    HW2 5010   2.960   0.618   1.600
 1371SOL     OW 5011   4.435   0.635   6.816
 1371SOL    HW1 5012   4.339   0.656   6.834
 1371SOL    HW2 5013   4.443   0.542   6.781
 1372SOL     OW 5014   3.152   1.973   1.657
 1372SOL    HW1 5015   3.060   2.002   1.682
 1372SOL    HW2 5016   3.198   1.936   1.738
 1373SOL     OW 5017   1.293   6.186   0.918
 1373SOL    HW1 5018   1.195   6.165   0.928
 1373SOL    HW2 5019   1.347   6.114   0.961
 1374SOL     OW 5020   5.091   2.775   0.504
 1374SOL    HW1 5021   5.078   2.748   0.409
 1374SOL    HW2 5022   5.040   2.712   0.564
 1375SOL     OW 5023   0.453   3.928   5.637
 1375SOL    HW1 5024   0.487   4.021   5.649
 1375SOL    HW2 5025   0.374   3.929   5.576
 1376SOL     OW 5026   4.780   1.900   2.285
 1376SOL    HW1 5027   4.730   1.910   2.199
 1376SOL    HW2 5028   4.779   1.987   2.335
 1377SOL     OW 5029   0.474   5.396   5.023
 1377SOL    HW1 5030   0.399   5.359   5.077
 1377SOL    HW2 5031   0.485   5.494   5.042
 1378SOL     OW 5032   1.946   2.398   0.024
 1378SOL    HW1 5033   1.854   2.399   7.008
 1378SOL    HW2 5034   1.984   2.491   0.021
 1379SOL     OW 5035   4.085   6.529   1.321
 1379SOL    HW1 5036   4.016   6.566   1.382
 1379SOL    HW2 5037   4.041   6.496   1.237
 1380SOL     OW 5038   6.249   6.634   2.772
 1380SOL    HW1 5039   6.295   6.635   2.860
 1380SOL    HW2 5040   6.150   6.641   2.785
 1381SOL     OW 5041   6.530   0.834   1.302
 1381SOL    HW1 5042   6.524   0.844   1.203
 1381SOL    HW2 5043   6.457   0.888   1.345
 1382SOL     OW 5044   6.538   4.856   6.440
 1382SOL    HW1 5045   6.606   4.795   6.480
 1382SOL    HW2 5046   6.477   4.803   6.381
 1383SOL     OW 5047   2.738   6.960   0.601
 1383SOL    HW1 5048   2.837   6.973   0.610
 1383SOL    HW2 5049   2.691   7.013   0.672
 1384SOL     OW 5050   2.965   1.843   2.163
 1384SOL    HW1 5051   3.020   1.898   2.101
 1384SOL    HW2 5052   2.959   1.889   2.252
 1385SOL     OW 5053   5.859   2.991   2.632
 1385SOL    HW1 5054   5.768   2.978   2.671
 1385SOL    HW2 5055   5.850   3.026   2.539
 1386SOL     OW 5056   2.074   2.568   4.049
 1386SOL    HW1 5057   2.156   2.532   4.095
 1386SOL    HW2 5058   2.090   2.571   3.950
 1387SOL     OW 5059   2.598   0.755   5.205
 1387SOL    HW1 5060   2.578   0.800   5.118
 1387SOL    HW2 5061   2.599   0.656   5.192
 1388SOL     OW 5062   6.314   1.006   5.210
 1388SOL    HW1 5063   6.229   0.957   5.233
 1388SOL    HW2 5064   6.392   0.945   5.226
 1389SOL     OW 5065   6.821   1.090   4.945
 1389SOL    HW1 5066   6.762   1.033   4.888
 1389SOL    HW2 5067   6.787   1.184   4.943
 1390SOL     OW 5068   4.930   2.503   2.376
 1390SOL    HW1 5069   4.841   2.544   2.392
 1390SOL    HW2 5070   4.989   2.568   2.328
 1391SOL     OW 5071   5.845   1.707   4.794
 1391SOL    HW1 5072   5.810   1.761   4.870
 1391SOL    HW2 5073   5.881   1.767   4.724
 1392SOL     OW 5074   4.618   5.745   6.118
 1392SOL    HW1 5075   4.554   5.740   6.042
 1392SOL    HW2 5076   4.583   5.692   6.195
 1393SOL     OW 5077   5.782   0.660   6.328
 1393SOL    HW1 5078   5.734   0.721   6.265
 1393SOL    HW2 5079   5.790   0.569   6.288
 1394SOL     OW 5080   4.415   0.137   3.964
 1394SOL    HW1 5081   4.429   0.235   3.948
 1394SOL    HW2 5082   4.375   0.095   3.882
 1395SOL     OW 5083   1.417   5.204   2.169
 1395SOL    HW1 5084   1.352   5.132   2.143
 1395SOL    HW2 5085   1.391   5.290   2.124
 1396SOL     OW 5086   2.017   1.362   3.565
 1396SOL    HW1 5087   2.001   1.407   3.652
 1396SOL    HW2 5088   1.958   1.402   3.495
 1397SOL     OW 5089   0.984   5.593   4.863
 1397SOL    HW1 5090   1.004   5.516   4.923
 1397SOL    HW2 5091   1.064   5.653   4.858
 1398SOL     OW 5092   1.437   6.445   0.305
 1398SOL    HW1 5093   1.405   6.430   0.212
 1398SOL    HW2 5094   1.537   6.450   0.305
 1399SOL     OW 5095   4.134   0.182   0.224
 1399SOL    HW1 5096   4.034   0.191   0.213
 1399SOL    HW2 5097   4.161   0.223   0.311
 1400SOL     OW 5098   0.301   0.737   5.006
 1400SOL    HW1 5099   0.298   0.724   4.907
 1400SOL    HW2 5100   0.278   0.651   5.052
 1401SOL     OW 5101   5.136   0.505   2.338
 1401SOL    HW1 5102   5.128   0.481   2.434
 1401SOL    HW2 5103   5.086   0.590   2.320
 1402SOL     OW 5104   6.804   4.527   2.757
 1402SOL    HW1 5105   6.839   4.466   2.685
 1402SOL    HW2 5106   6.877   4.546   2.823
 1403SOL     OW 5107   3.254   3.337   6.204
 1403SOL    HW1 5108   3.276   3.410   6.140
 1403SOL    HW2 5109   3.155   3.320   6.202
 1404SOL     OW 5110   4.072   6.372   0.471
 1404SOL    HW1 5111   4.157   6.344   0.515
 1404SOL    HW2 5112   4.000   6.381   0.541
 1405SOL     OW 5113   0.515   3.918   1.178
 1405SOL    HW1 5114   0.608   3.953   1.177
 1405SOL    HW2 5115   0.473   3.937   1.267
 1406SOL     OW 5116   1.910   3.114   0.513
 1406SOL    HW1 5117   1.934   3.018   0.526
 1406SOL    HW2 5118   1.923   3.139   0.417
 1407SOL     OW 5119   0.101   3.035   1.449
 1407SOL    HW1 5120   0.064   3.051   1.541
 1407SOL    HW2 5121   0.201   3.029   1.455
 1408SOL     OW 5122   5.772   6.547   1.163
 1408SOL    HW1 5123   5.713   6.589   1.094
 1408SOL    HW2 5124   5.792   6.452   1.136
 1409SOL     OW 5125   6.453   1.311   5.737
 1409SOL    HW1 5126   6.548   1.340   5.725
 1409SOL    HW2 5127   6.395   1.391   5.748
 1410SOL     OW 5128   3.205   0.671   6.568
 1410SOL    HW1 5129   3.272   0.630   6.507
 1410SOL    HW2 5130   3.253   0.716   6.644
 1411SOL     OW 5131   3.750   4.856   0.091
 1411SOL    HW1 5132   3.674   4.919   0.075
 1411SOL    HW2 5133   3.834   4.908   0.106
 1412SOL     OW 5134   2.635   2.611   6.802
 1412SOL    HW1 5135   2.647   2.512   6.788
 1412SOL    HW2 5136   2.700   2.642   6.872
 1413SOL     OW 5137   1.787   1.758   4.958
 1413SOL    HW1 5138   1.700   1.765   5.007
 1413SOL    HW2 5139   1.843   1.839   4.977
 1414SOL     OW 5140   0.541   4.589   2.859
 1414SOL    HW1 5141   0.617   4.525   2.844
 1414SOL    HW2 5142   0.577   4.683   2.863
 1415SOL     OW 5143   2.705   1.511   4.845
 1415SOL    HW1 5144   2.669   1.579   4.781
 1415SOL    HW2 5145   2.635   1.441   4.861
 1416SOL     OW 5146   4.684   0.673   4.510
 1416SOL    HW1 5147   4.585   0.670   4.496
 1416SOL    HW2 5148   4.729   0.622   4.437
 1417SOL     OW 5149   3.617   3.393   5.237
 1417SOL    HW1 5150   3.547   3.433   5.178
 1417SOL    HW2 5151   3.580   3.381   5.329
 1418SOL     OW 5152   3.706   4.043   5.799
 1418SOL    HW1 5153   3.793   4.018   5.755
 1418SOL    HW2 5154   3.722   4.115   5.866
 1419SOL     OW 5155   1.668   5.960   1.795
 1419SOL    HW1 5156   1.630   6.043   1.754
 1419SOL    HW2 5157   1.598   5.888   1.794
 1420SOL     OW 5158   2.799   6.239   2.823
 1420SOL    HW1 5159   2.835   6.151   2.852
 1420SOL    HW2 5160   2.699   6.237   2.828
 1421SOL     OW 5161   1.486   4.897   6.436
 1421SOL    HW1 5162   1.521   4.806   6.414
 1421SOL    HW2 5163   1.412   4.889   6.503
 1422SOL     OW 5164   2.272   3.282   6.641
 1422SOL    HW1 5165   2.346   3.336   6.679
 1422SOL    HW2 5166   2.236   3.221   6.711
 1423SOL     OW 5167   4.287   0.913   4.833
 1423SOL    HW1 5168   4.234   0.981   4.884
 1423SOL    HW2 5169   4.302   0.833   4.891
 1424SOL     OW 5170   6.330   2.818   0.882
 1424SOL    HW1 5171   6.416   2.828   0.932
 1424SOL    HW2 5172   6.286   2.908   0.874
 1425SOL     OW 5173   5.306   0.559   3.588
 1425SOL    HW1 5174   5.394   0.583   3.546
 1425SOL    HW2 5175   5.323   0.499   3.667
 1426SOL     OW 5176   4.028   1.224   0.366
 1426SOL    HW1 5177   4.108   1.168   0.345
 1426SOL    HW2 5178   4.051   1.321   0.357
 1427SOL     OW 5179   1.886   0.345   3.804
 1427SOL    HW1 5180   1.838   0.431   3.818
 1427SOL    HW2 5181   1.906   0.333   3.707
 1428SOL     OW 5182   1.106   3.176   4.092
 1428SOL    HW1 5183   1.117   3.125   4.007
 1428SOL    HW2 5184   1.190   3.170   4.146
 1429SOL     OW 5185   6.374   0.861   2.144
 1429SOL    HW1 5186   6.397   0.766   2.123
 1429SOL    HW2 5187   6.293   0.888   2.091
 1430SOL     OW 5188   2.083   3.594   4.509
 1430SOL    HW1 5189   2.093   3.667   4.577
 1430SOL    HW2 5190   2.079   3.506   4.556
 1431SOL     OW 5191   2.988   1.390   0.129
 1431SOL    HW1 5192   3.070   1.341   0.157
 1431SOL    HW2 5193   2.981   1.476   0.179
 1432SOL     OW 5194   3.182   0.103   2.427
 1432SOL    HW1 5195   3.190   0.005   2.446
 1432SOL    HW2 5196   3.258   0.132   2.369
 1433SOL     OW 5197   2.561   0.849   4.206
 1433SOL    HW1 5198   2.524   0.928   4.157
 1433SOL    HW2 5199   2.532   0.853   4.302
 1434SOL     OW 5200   5.968   3.965   0.384
 1434SOL    HW1 5201   5.880   3.999   0.415
 1434SOL    HW2 5202   6.037   4.038   0.389
 1435SOL     OW 5203   1.203   0.216   3.794
 1435SOL    HW1 5204   1.290   0.189   3.752
 1435SOL    HW2 5205   1.196   0.316   3.795
 1436SOL     OW 5206   5.423   1.062   0.541
 1436SOL    HW1 5207   5.342   1.107   0.578
 1436SOL    HW2 5208   5.451   1.109   0.457
 1437SOL     OW 5209   3.602   0.791   0.241
 1437SOL    HW1 5210   3.565   0.703   0.271
 1437SOL    HW2 5211   3.700   0.794   0.256
 1438SOL     OW 5212   2.512   0.526   2.722
 1438SOL    HW1 5213   2.571   0.595   2.680
 1438SOL    HW2 5214   2.432   0.571   2.762
 1439SOL     OW 5215   0.008   4.815   0.100
 1439SOL    HW1 5216   6.998   4.766   0.179
 1439SOL    HW2 5217   6.986   4.783   0.017
 1440SOL     OW 5218   3.194   2.986   3.220
 1440SOL    HW1 5219   3.155   3.077   3.211
 1440SOL    HW2 5220   3.158   2.927   3.147
 1441SOL     OW 5221   6.505   2.734   4.404
 1441SOL    HW1 5222   6.472   2.802   4.469
 1441SOL    HW2 5223   6.494   2.769   4.311
 1442SOL     OW 5224   5.437   6.897   6.904
 1442SOL    HW1 5225   5.348   6.892   6.950
 1442SOL    HW2 5226   5.429   6.952   6.821
 1443SOL     OW 5227   0.927   2.849   3.010
 1443SOL    HW1 5228   0.924   2.781   2.937
 1443SOL    HW2 5229   1.019   2.855   3.047
 1444SOL     OW 5230   5.619   0.510   5.500
 1444SOL    HW1 5231   5.572   0.574   5.440
 1444SOL    HW2 5232   5.578   0.514   5.591
 1445SOL     OW 5233   6.384   1.832   0.835
 1445SOL    HW1 5234   6.357   1.826   0.739
 1445SOL    HW2 5235   6.467   1.778   0.850
 1446SOL     OW 5236   3.878   6.803   0.869
 1446SOL    HW1 5237   3.971   6.801   0.833
 1446SOL    HW2 5238   3.880   6.835   0.964
 1447SOL     OW 5239   5.460   1.653   4.980
 1447SOL    HW1 5240   5.376   1.627   5.026
 1447SOL    HW2 5241   5.441   1.723   4.911
 1448SOL     OW 5242   5.406   0.396   6.933
 1448SOL    HW1 5243   5.440   0.425   6.844
 1448SOL    HW2 5244   5.483   0.377   6.994
 1449SOL     OW 5245   4.919   5.851   0.835
 1449SOL    HW1 5246   4.822   5.863   0.856
 1449SOL    HW2 5247   4.939   5.753   0.824
 1450SOL     OW 5248   5.965   2.300   3.662
 1450SOL    HW1 5249   5.883   2.295   3.606
 1450SOL    HW2 5250   6.012   2.386   3.645
 1451SOL     OW 5251   1.850   0.091   2.277
 1451SOL    HW1 5252   1.949   0.078   2.268
 1451SOL    HW2 5253   1.822   0.169   2.220
 1452SOL     OW 5254   4.513   0.548   4.970
 1452SOL    HW1 5255   4.478   0.457   4.949
 1452SOL    HW2 5256   4.582   0.573   4.902
 1453SOL     OW 5257   4.636   4.419   4.121
 1453SOL    HW1 5258   4.673   4.326   4.127
 1453SOL    HW2 5259   4.614   4.451   4.213
 1454SOL     OW 5260   5.065   4.531   1.103
 1454SOL    HW1 5261   5.046   4.471   1.181
 1454SOL    HW2 5262   5.150   4.504   1.060
 1455SOL     OW 5263   2.412   2.016   1.361
 1455SOL    HW1 5264   2.508   1.987   1.368
 1455SOL    HW2 5265   2.404   2.111   1.391
 1456SOL     OW 5266   6.248   5.587   3.917
 1456SOL    HW1 5267   6.328   5.631   3.958
 1456SOL    HW2 5268   6.166   5.639   3.942
 1457SOL     OW 5269   1.494   6.937   3.643
 1457SOL    HW1 5270   1.525   6.862   3.701
 1457SOL    HW2 5271   1.555   6.948   3.565
 1458SOL     OW 5272   0.043   5.359   0.226
 1458SOL    HW1 5273   0.054   5.458   0.224
 1458SOL    HW2 5274   0.008   5.326   0.139
 1459SOL     OW 5275   2.628   0.276   1.036
 1459SOL    HW1 5276   2.640   0.302   1.132
 1459SOL    HW2 5277   2.549   0.216   1.027
 1460SOL     OW 5278   1.042   6.387   0.226
 1460SOL    HW1 5279   0.959   6.334   0.212
 1460SOL    HW2 5280   1.019   6.476   0.266
 1461SOL     OW 5281   4.328   4.991   1.553
 1461SOL    HW1 5282   4.347   4.894   1.570
 1461SOL    HW2 5283   4.234   5.002   1.522
 1462SOL     OW 5284   5.249   0.596   5.492
 1462SOL    HW1 5285   5.260   0.648   5.576
 1462SOL    HW2 5286   5.314   0.629   5.423
 1463SOL     OW 5287   0.196   1.225   5.065
 1463SOL    HW1 5288   0.205   1.142   5.120
 1463SOL    HW2 5289   0.221   1.305   5.119
 1464SOL     OW 5290   0.167   6.940   1.568
 1464SOL    HW1 5291   0.256   6.982   1.555
 1464SOL    HW2 5292   0.176   6.860   1.629
 1465SOL     OW 5293   0.162   0.302   4.598
 1465SOL    HW1 5294   0.143   0.396   4.569
 1465SOL    HW2 5295   0.219   0.304   4.681
 1466SOL     OW 5296   5.207   5.135   4.418
 1466SOL    HW1 5297   5.287   5.080   4.395
 1466SOL    HW2 5298   5.196   5.207   4.350
 1467SOL     OW 5299   5.890   3.873   2.784
 1467SOL    HW1 5300   5.809   3.885   2.726
 1467SOL    HW2 5301   5.968   3.848   2.727
 1468SOL     OW 5302   5.644   6.673   2.832
 1468SOL    HW1 5303   5.724   6.639   2.781
 1468SOL    HW2 5304   5.675   6.712   2.919
 1469SOL     OW 5305   0.203   1.285   2.358
 1469SOL    HW1 5306   0.201   1.370   2.307
 1469SOL    HW2 5307   0.273   1.224   2.319
 1470SOL     OW 5308   0.042   0.923   3.178
 1470SOL    HW1 5309   0.112   0.961   3.118
 1470SOL    HW2 5310   6.984   0.979   3.172
 1471SOL     OW 5311   6.503   0.195   0.885
 1471SOL    HW1 5312   6.514   0.248   0.801
 1471SOL    HW2 5313   6.592   0.156   0.911
 1472SOL     OW 5314   4.215   5.557   5.348
 1472SOL    HW1 5315   4.139   5.591   5.404
 1472SOL    HW2 5316   4.230   5.460   5.369
 1473SOL     OW 5317   6.036   4.143   3.106
 1473SOL    HW1 5318   6.064   4.229   3.150
 1473SOL    HW2 5319   6.083   4.133   3.019
 1474SOL     OW 5320   4.457   5.012   4.106
 1474SOL    HW1 5321   4.424   4.918   4.121
 1474SOL    HW2 5322   4.382   5.068   4.070
 1475SOL     OW 5323   6.450   0.972   3.415
 1475SOL    HW1 5324   6.355   0.966   3.445
 1475SOL    HW2 5325   6.480   1.068   3.418
 1476SOL     OW 5326   6.247   2.165   1.604
 1476SOL    HW1 5327   6.182   2.241   1.595
 1476SOL    HW2 5328   6.197   2.078   1.602
 1477SOL     OW 5329   3.285   6.119   3.661
 1477SOL    HW1 5330   3.196   6.073   3.657
 1477SOL    HW2 5331   3.336   6.099   3.578
 1478SOL     OW 5332   7.015   4.748   1.919
 1478SOL    HW1 5333   0.007   4.815   1.847
 1478SOL    HW2 5334   0.043   4.665   1.900
 1479SOL     OW 5335   0.809   4.792   0.961
 1479SOL    HW1 5336   0.750   4.716   0.992
 1479SOL    HW2 5337   0.897   4.786   1.007
 1480SOL     OW 5338   3.220   0.850   0.162
 1480SOL    HW1 5339   3.276   0.912   0.107
 1480SOL    HW2 5340   3.204   0.765   0.110
 1481SOL     OW 5341   6.793   2.168   6.324
 1481SOL    HW1 5342   6.877   2.223   6.332
 1481SOL    HW2 5343   6.763   2.167   6.229
 1482SOL     OW 5344   5.406   1.503   6.737
 1482SOL    HW1 5345   5.338   1.505   6.810
 1482SOL    HW2 5346   5.457   1.417   6.742
 1483SOL     OW 5347   6.250   2.343   6.818
 1483SOL    HW1 5348   6.236   2.249   6.786
 1483SOL    HW2 5349   6.293   2.340   6.908
 1484SOL     OW 5350   0.134   6.677   2.661
 1484SOL    HW1 5351   0.225   6.716   2.669
 1484SOL    HW2 5352   0.087   6.716   2.581
 1485SOL     OW 5353   5.643   2.461   4.079
 1485SOL    HW1 5354   5.669   2.525   4.151
 1485SOL    HW2 5355   5.630   2.510   3.993
 1486SOL     OW 5356   5.374   2.326   1.766
 1486SOL    HW1 5357   5.374   2.366   1.674
 1486SOL    HW2 5358   5.427   2.385   1.828
 1487SOL     OW 5359   6.537   1.060   5.657
 1487SOL    HW1 5360   6.603   1.074   5.583
 1487SOL    HW2 5361   6.487   1.145   5.672
 1488SOL     OW 5362   4.400   1.897   2.860
 1488SOL    HW1 5363   4.354   1.880   2.773
 1488SOL    HW2 5364   4.406   1.811   2.911
 1489SOL     OW 5365   3.914   4.884   4.673
 1489SOL    HW1 5366   3.820   4.902   4.644
 1489SOL    HW2 5367   3.970   4.865   4.593
 1490SOL     OW 5368   2.274   2.416   1.121
 1490SOL    HW1 5369   2.297   2.475   1.198
 1490SOL    HW2 5370   2.337   2.339   1.118
 1491SOL     OW 5371   6.689   1.936   5.682
 1491SOL    HW1 5372   6.630   2.009   5.717
 1491SOL    HW2 5373   6.783   1.952   5.713
 1492SOL     OW 5374   5.873   3.081   1.503
 1492SOL    HW1 5375   5.931   3.047   1.429
 1492SOL    HW2 5376   5.806   3.145   1.467
 1493SOL     OW 5377   5.705   1.119   5.498
 1493SOL    HW1 5378   5.617   1.160   5.524
 1493SOL    HW2 5379   5.769   1.192   5.472
 1494SOL     OW 5380   5.648   2.203   4.182
 1494SOL    HW1 5381   5.663   2.297   4.152
 1494SOL    HW2 5382   5.673   2.195   4.278
 1495SOL     OW 5383   1.597   2.243   2.823
 1495SOL    HW1 5384   1.557   2.334   2.810
 1495SOL    HW2 5385   1.601   2.195   2.736
 1496SOL     OW 5386   0.827   0.826   3.474
 1496SOL    HW1 5387   0.812   0.732   3.506
 1496SOL    HW2 5388   0.739   0.870   3.457
 1497SOL     OW 5389   5.151   4.182   5.693
 1497SOL    HW1 5390   5.172   4.120   5.769
 1497SOL    HW2 5391   5.235   4.202   5.642
 1498SOL     OW 5392   2.326   5.738   6.990
 1498SOL    HW1 5393   2.311   5.836   7.007
 1498SOL    HW2 5394   2.297   5.715   6.897
 1499SOL     OW 5395   0.670   4.532   5.032
 1499SOL    HW1 5396   0.715   4.444   5.021
 1499SOL    HW2 5397   0.692   4.570   5.122
 1500SOL     OW 5398   4.450   6.745   5.210
 1500SOL    HW1 5399   4.416   6.741   5.304
 1500SOL    HW2 5400   4.464   6.840   5.184
 1501SOL     OW 5401   4.414   0.118   6.630
 1501SOL    HW1 5402   4.352   0.129   6.553
 1501SOL    HW2 5403   4.375   0.162   6.711
 1502SOL     OW 5404   0.605   5.957   6.935
 1502SOL    HW1 5405   0.586   6.044   6.981
 1502SOL    HW2 5406   0.704   5.940   6.936
 1503SOL     OW 5407   3.562   3.994   4.996
 1503SOL    HW1 5408   3.573   3.906   5.043
 1503SOL    HW2 5409   3.499   4.052   5.048
 1504SOL     OW 5410   3.163   6.419   4.247
 1504SOL    HW1 5411   3.257   6.405   4.279
 1504SOL    HW2 5412   3.140   6.516   4.254
 1505SOL     OW 5413   4.818   5.241   2.144
 1505SOL    HW1 5414   4.836   5.289   2.058
 1505SOL    HW2 5415   4.748   5.172   2.130
 1506SOL     OW 5416   0.367   6.446   2.977
 1506SOL    HW1 5417   0.441   6.388   3.013
 1506SOL    HW2 5418   0.307   6.472   3.052
 1507SOL     OW 5419   2.646   1.533   6.381
 1507SOL    HW1 5420   2.555   1.565   6.409
 1507SOL    HW2 5421   2.637   1.446   6.332
 1508SOL     OW 5422   4.317   7.003   0.364
 1508SOL    HW1 5423   4.236   7.006   0.304
 1508SOL    HW2 5424   4.293   0.014   0.454
 1509SOL     OW 5425   5.293   1.892   0.243
 1509SOL    HW1 5426   5.195   1.906   0.224
 1509SOL    HW2 5427   5.324   1.809   0.198
 1510SOL     OW 5428   0.020   2.179   3.443
 1510SOL    HW1 5429   0.086   2.246   3.411
 1510SOL    HW2 5430   6.964   2.182   3.383
 1511SOL     OW 5431   1.402   2.264   0.459
 1511SOL    HW1 5432   1.336   2.301   0.525
 1511SOL    HW2 5433   1.490   2.252   0.503
 1512SOL     OW 5434   6.064   0.636   2.392
 1512SOL    HW1 5435   6.142   0.618   2.333
 1512SOL    HW2 5436   6.093   0.631   2.488
 1513SOL     OW 5437   3.986   1.029   2.200
 1513SOL    HW1 5438   3.947   1.120   2.218
 1513SOL    HW2 5439   4.067   1.038   2.142
 1514SOL     OW 5440   4.936   1.194   6.185
 1514SOL    HW1 5441   4.861   1.229   6.241
 1514SOL    HW2 5442   4.940   1.094   6.194
 1515SOL     OW 5443   6.488   5.364   4.795
 1515SOL    HW1 5444   6.418   5.398   4.858
 1515SOL    HW2 5445   6.446   5.305   4.727
 1516SOL     OW 5446   0.907   1.008   1.104
 1516SOL    HW1 5447   0.919   0.945   1.181
 1516SOL    HW2 5448   0.994   1.050   1.082
 1517SOL     OW 5449   3.898   4.988   3.758
 1517SOL    HW1 5450   3.902   4.990   3.858
 1517SOL    HW2 5451   3.912   4.895   3.726
 1518SOL     OW 5452   1.198   4.766   1.167
 1518SOL    HW1 5453   1.254   4.691   1.132
 1518SOL    HW2 5454   1.114   4.730   1.207
 1519SOL     OW 5455   6.673   4.072   1.229
 1519SOL    HW1 5456   6.714   3.994   1.181
 1519SOL    HW2 5457   6.647   4.043   1.322
 1520SOL     OW 5458   1.450   2.910   2.367
 1520SOL    HW1 5459   1.430   2.998   2.325
 1520SOL    HW2 5460   1.521   2.921   2.436
 1521SOL     OW 5461   2.851   4.224   6.031
 1521SOL    HW1 5462   2.873   4.229   6.128
 1521SOL    HW2 5463   2.930   4.191   5.980
 1522SOL     OW 5464   0.944   2.832   6.445
 1522SOL    HW1 5465   0.945   2.732   6.435
 1522SOL    HW2 5466   0.924   2.874   6.357
 1523SOL     OW 5467   6.784   1.289   0.347
 1523SOL    HW1 5468   6.802   1.311   0.443
 1523SOL    HW2 5469   6.697   1.330   0.319
 1524SOL     OW 5470   6.236   1.200   3.183
 1524SOL    HW1 5471   6.177   1.231   3.258
 1524SOL    HW2 5472   6.216   1.253   3.101
 1525SOL     OW 5473   4.557   1.756   6.032
 1525SOL    HW1 5474   4.612   1.819   5.978
 1525SOL    HW2 5475   4.616   1.689   6.077
 1526SOL     OW 5476   6.746   1.627   0.311
 1526SOL    HW1 5477   6.715   1.717   0.341
 1526SOL    HW2 5478   6.727   1.615   0.214
 1527SOL     OW 5479   2.703   2.021   5.610
 1527SOL    HW1 5480   2.771   1.997   5.680
 1527SOL    HW2 5481   2.715   1.962   5.530
 1528SOL     OW 5482   4.999   5.946   4.174
 1528SOL    HW1 5483   4.967   6.030   4.129
 1528SOL    HW2 5484   4.956   5.938   4.263
 1529SOL     OW 5485   3.108   1.080   4.964
 1529SOL    HW1 5486   3.130   1.016   4.890
 1529SOL    HW2 5487   3.171   1.158   4.961
 1530SOL     OW 5488   3.173   6.987   1.829
 1530SOL    HW1 5489   3.157   6.903   1.777
 1530SOL    HW2 5490   3.145   0.041   1.775
 1531SOL     OW 5491   6.268   0.505   5.936
 1531SOL    HW1 5492   6.172   0.530   5.951
 1531SOL    HW2 5493   6.284   0.490   5.839
 1532SOL     OW 5494   3.235   2.141   5.304
 1532SOL    HW1 5495   3.212   2.219   5.245
 1532SOL    HW2 5496   3.307   2.087   5.261
 1533SOL     OW 5497   5.727   2.462   6.929
 1533SOL    HW1 5498   5.800   2.425   6.870
 1533SOL    HW2 5499   5.707   2.556   6.902
 1534SOL     OW 5500   6.967   6.937   1.832
 1534SOL    HW1 5501   6.886   6.979   1.873
 1534SOL    HW2 5502   6.993   6.987   1.750
 1535SOL     OW 5503   4.704   5.320   3.830
 1535SOL    HW1 5504   4.711   5.221   3.822
 1535SOL    HW2 5505   4.624   5.352   3.779
 1536SOL     OW 5506   2.946   5.580   3.443
 1536SOL    HW1 5507   2.998   5.506   3.401
 1536SOL    HW2 5508   3.010   5.648   3.481
 1537SOL     OW 5509   2.129   5.468   4.630
 1537SOL    HW1 5510   2.075   5.534   4.683
 1537SOL    HW2 5511   2.204   5.516   4.584
 1538SOL     OW 5512   3.344   5.505   6.931
 1538SOL    HW1 5513   3.264   5.459   6.893
 1538SOL    HW2 5514   3.365   5.586   6.876
 1539SOL     OW 5515   3.411   5.171   1.890
 1539SOL    HW1 5516   3.357   5.225   1.954
 1539SOL    HW2 5517   3.360   5.088   1.865
 1540SOL     OW 5518   6.374   0.106   5.654
 1540SOL    HW1 5519   6.372   0.100   5.754
 1540SOL    HW2 5520   6.291   0.065   5.617
 1541SOL     OW 5521   4.651   1.744   0.602
 1541SOL    HW1 5522   4.669   1.813   0.531
 1541SOL    HW2 5523   4.701   1.769   0.685
 1542SOL     OW 5524   0.381   6.089   0.912
 1542SOL    HW1 5525   0.441   6.049   0.843
 1542SOL    HW2 5526   0.420   6.073   1.003
 1543SOL     OW 5527   3.313   3.914   3.814
 1543SOL    HW1 5528   3.413   3.907   3.820
 1543SOL    HW2 5529   3.275   3.907   3.906
 1544SOL     OW 5530   3.603   3.859   2.635
 1544SOL    HW1 5531   3.630   3.764   2.654
 1544SOL    HW2 5532   3.675   3.921   2.666
 1545SOL     OW 5533   6.553   0.476   4.298
 1545SOL    HW1 5534   6.617   0.506   4.227
 1545SOL    HW2 5535   6.478   0.425   4.255
 1546SOL     OW 5536   0.354   6.536   6.266
 1546SOL    HW1 5537   0.324   6.451   6.310
 1546SOL    HW2 5538   0.404   6.592   6.331
 1547SOL     OW 5539   4.071   6.105   6.771
 1547SOL    HW1 5540   4.037   6.012   6.756
 1547SOL    HW2 5541   3.997   6.171   6.752
 1548SOL     OW 5542   6.022   4.610   3.736
 1548SOL    HW1 5543   6.084   4.644   3.807
 1548SOL    HW2 5544   6.048   4.649   3.648
 1549SOL     OW 5545   6.523   1.754   1.262
 1549SOL    HW1 5546   6.531   1.811   1.344
 1549SOL    HW2 5547   6.439   1.777   1.214
 1550SOL     OW 5548   2.424   5.921   2.685
 1550SOL    HW1 5549   2.486   5.852   2.723
 1550SOL    HW2 5550   2.452   5.943   2.591
 1551SOL     OW 5551   0.577   3.679   1.374
 1551SOL    HW1 5552   0.674   3.666   1.351
 1551SOL    HW2 5553   0.521   3.620   1.316
 1552SOL     OW 5554   1.333   6.718   0.733
 1552SOL    HW1 5555   1.343   6.809   0.773
 1552SOL    HW2 5556   1.255   6.672   0.774
 1553SOL     OW 5557   5.635   1.573   5.938
 1553SOL    HW1 5558   5.667   1.658   5.895
 1553SOL    HW2 5559   5.572   1.526   5.877
 1554SOL     OW 5560   2.653   1.911   1.373
 1554SOL    HW1 5561   2.703   1.974   1.432
 1554SOL    HW2 5562   2.696   1.820   1.376
 1555SOL     OW 5563   4.095   0.976   6.007
 1555SOL    HW1 5564   4.115   1.027   6.091
 1555SOL    HW2 5565   3.999   0.946   6.009
 1556SOL     OW 5566   3.907   2.044   6.933
 1556SOL    HW1 5567   3.870   2.126   6.977
 1556SOL    HW2 5568   3.993   2.066   6.887
 1557SOL     OW 5569   1.502   2.987   0.201
 1557SOL    HW1 5570   1.499   3.053   0.276
 1557SOL    HW2 5571   1.522   3.035   0.115
 1558SOL     OW 5572   5.289   3.130   6.285
 1558SOL    HW1 5573   5.287   3.191   6.364
 1558SOL    HW2 5574   5.240   3.173   6.209
 1559SOL     OW 5575   3.124   5.343   2.901
 1559SOL    HW1 5576   3.177   5.271   2.946
 1559SOL    HW2 5577   3.026   5.321   2.909
 1560SOL     OW 5578   3.893   1.910   0.733
 1560SOL    HW1 5579   3.845   1.905   0.645
 1560SOL    HW2 5580   3.851   1.981   0.790
 1561SOL     OW 5581   5.918   5.961   1.028
 1561SOL    HW1 5582   5.848   5.984   1.096
 1561SOL    HW2 5583   6.001   6.013   1.047
 1562SOL     OW 5584   3.122   0.123   2.681
 1562SOL    HW1 5585   3.139   0.136   2.583
 1562SOL    HW2 5586   3.121   0.025   2.702
 1563SOL     OW 5587   2.240   2.245   3.936
 1563SOL    HW1 5588   2.253   2.294   4.022
 1563SOL    HW2 5589   2.328   2.239   3.888
 1564SOL     OW 5590   0.367   1.080   2.781
 1564SOL    HW1 5591   0.401   1.174   2.788
 1564SOL    HW2 5592   0.284   1.078   2.725
 1565SOL     OW 5593   3.896   1.277   4.575
 1565SOL    HW1 5594   3.923   1.313   4.486
 1565SOL    HW2 5595   3.975   1.276   4.636
 1566SOL     OW 5596   5.878   4.314   3.471
 1566SOL    HW1 5597   5.829   4.400   3.486
 1566SOL    HW2 5598   5.944   4.325   3.397
 1567SOL     OW 5599   5.755   0.594   5.138
 1567SOL    HW1 5600   5.685   0.641   5.191
 1567SOL    HW2 5601   5.719   0.570   5.048
 1568SOL     OW 5602   3.127   4.814   1.282
 1568SOL    HW1 5603   3.164   4.838   1.372
 1568SOL    HW2 5604   3.086   4.895   1.240
 1569SOL     OW 5605   2.812   0.975   2.531
 1569SOL    HW1 5606   2.834   1.070   2.549
 1569SOL    HW2 5607   2.718   0.967   2.498
 1570SOL     OW 5608   3.022   6.003   6.067
 1570SOL    HW1 5609   3.059   5.910   6.058
 1570SOL    HW2 5610   3.091   6.062   6.109
 1571SOL     OW 5611   0.358   3.356   3.628
 1571SOL    HW1 5612   0.345   3.427   3.698
 1571SOL    HW2 5613   0.335   3.267   3.666
 1572SOL     OW 5614   3.039   5.566   2.518
 1572SOL    HW1 5615   2.964   5.499   2.513
 1572SOL    HW2 5616   3.099   5.543   2.595
 1573SOL     OW 5617   5.325   5.736   0.033
 1573SOL    HW1 5618   5.367   5.650   0.059
 1573SOL    HW2 5619   5.380   5.779   6.986
 1574SOL     OW 5620   0.651   4.454   3.176
 1574SOL    HW1 5621   0.750   4.446   3.166
 1574SOL    HW2 5622   0.609   4.364   3.161
 1575SOL     OW 5623   6.756   2.444   6.996
 1575SOL    HW1 5624   6.690   2.435   6.921
 1575SOL    HW2 5625   6.716   2.498   0.045
 1576SOL     OW 5626   1.450   6.846   1.329
 1576SOL    HW1 5627   1.423   6.896   1.412
 1576SOL    HW2 5628   1.422   6.750   1.338
 1577SOL     OW 5629   4.016   5.828   5.348
 1577SOL    HW1 5630   3.940   5.863   5.294
 1577SOL    HW2 5631   4.100   5.830   5.293
 1578SOL     OW 5632   4.939   1.231   1.654
 1578SOL    HW1 5633   4.921   1.213   1.558
 1578SOL    HW2 5634   5.010   1.301   1.662
 1579SOL     OW 5635   1.625   2.687   1.792
 1579SOL    HW1 5636   1.553   2.639   1.742
 1579SOL    HW2 5637   1.681   2.740   1.728
 1580SOL     OW 5638   2.933   3.345   2.658
 1580SOL    HW1 5639   2.906   3.264   2.711
 1580SOL    HW2 5640   2.977   3.412   2.719
 1581SOL     OW 5641   6.273   4.287   5.722
 1581SOL    HW1 5642   6.362   4.272   5.766
 1581SOL    HW2 5643   6.269   4.236   5.636
 1582SOL     OW 5644   4.604   6.003   5.147
 1582SOL    HW1 5645   4.552   6.067   5.090
 1582SOL    HW2 5646   4.582   6.019   5.243
 1583SOL     OW 5647   1.054   5.060   5.256
 1583SOL    HW1 5648   1.126   5.104   5.308
 1583SOL    HW2 5649   0.965   5.092   5.288
 1584SOL     OW 5650   6.910   4.059   0.372
 1584SOL    HW1 5651   6.988   4.070   0.434
 1584SOL    HW2 5652   6.843   3.997   0.413
 1585SOL     OW 5653   4.146   6.768   3.528
 1585SOL    HW1 5654   4.073   6.782   3.461
 1585SOL    HW2 5655   4.234   6.763   3.481
 1586SOL     OW 5656   3.537   6.212   3.776
 1586SOL    HW1 5657   3.582   6.129   3.809
 1586SOL    HW2 5658   3.444   6.191   3.748
 1587SOL     OW 5659   2.632   6.845   6.713
 1587SOL    HW1 5660   2.573   6.779   6.761
 1587SOL    HW2 5661   2.723   6.844   6.754
 1588SOL     OW 5662   6.448   1.424   3.933
 1588SOL    HW1 5663   6.541   1.459   3.942
 1588SOL    HW2 5664   6.448   1.341   3.877
 1589SOL     OW 5665   6.564   4.055   3.744
 1589SOL    HW1 5666   6.525   4.012   3.663
 1589SOL    HW2 5667   6.599   3.984   3.806
 1590SOL     OW 5668   6.642   2.173   4.055
 1590SOL    HW1 5669   6.683   2.088   4.021
 1590SOL    HW2 5670   6.690   2.251   4.015
 1591SOL     OW 5671   1.228   5.818   1.318
 1591SOL    HW1 5672   1.279   5.905   1.322
 1591SOL    HW2 5673   1.280   5.748   1.366
 1592SOL     OW 5674   0.042   4.154   6.000
 1592SOL    HW1 5675   0.068   4.058   5.992
 1592SOL    HW2 5676   6.997   4.164   6.071
 1593SOL     OW 5677   3.477   6.696   0.104
 1593SOL    HW1 5678   3.571   6.710   0.075
 1593SOL    HW2 5679   3.428   6.783   0.103
 1594SOL     OW 5680   6.217   0.589   2.605
 1594SOL    HW1 5681   6.256   0.568   2.695
 1594SOL    HW2 5682   6.290   0.620   2.544
 1595SOL     OW 5683   0.588   3.718   0.208
 1595SOL    HW1 5684   0.601   3.695   0.111
 1595SOL    HW2 5685   0.513   3.662   0.245
 1596SOL     OW 5686   4.503   4.987   3.530
 1596SOL    HW1 5687   4.541   4.894   3.533
 1596SOL    HW2 5688   4.469   5.012   3.620
 1597SOL     OW 5689   4.192   6.240   6.987
 1597SOL    HW1 5690   4.178   6.175   0.037
 1597SOL    HW2 5691   4.147   6.206   6.905
 1598SOL     OW 5692   1.315   4.838   6.659
 1598SOL    HW1 5693   1.356   4.906   6.720
 1598SOL    HW2 5694   1.375   4.758   6.652
 1599SOL     OW 5695   4.209   5.568   3.212
 1599SOL    HW1 5696   4.180   5.658   3.245
 1599SOL    HW2 5697   4.304   5.573   3.181
 1600SOL     OW 5698   3.633   0.052   2.097
 1600SOL    HW1 5699   3.582   0.025   2.015
 1600SOL    HW2 5700   3.618   0.149   2.115
 1601SOL     OW 5701   6.635   0.554   5.291
 1601SOL    HW1 5702   6.588   0.608   5.360
 1601SOL    HW2 5703   6.702   0.612   5.244
 1602SOL     OW 5704   4.109   6.063   3.951
 1602SOL    HW1 5705   4.071   5.981   3.907
 1602SOL    HW2 5706   4.204   6.075   3.923
 1603SOL     OW 5707   3.471   5.287   3.369
 1603SOL    HW1 5708   3.436   5.227   3.441
 1603SOL    HW2 5709   3.411   5.281   3.289
 1604SOL     OW 5710   4.336   5.292   2.060
 1604SOL    HW1 5711   4.435   5.308   2.066
 1604SOL    HW2 5712   4.289   5.355   2.122
 1605SOL     OW 5713   4.900   5.303   0.576
 1605SOL    HW1 5714   4.856   5.294   0.487
 1605SOL    HW2 5715   4.833   5.289   0.648
 1606SOL     OW 5716   3.432   5.789   4.692
 1606SOL    HW1 5717   3.467   5.834   4.610
 1606SOL    HW2 5718   3.505   5.784   4.760
 1607SOL     OW 5719   4.680   5.500   3.370
 1607SOL    HW1 5720   4.694   5.579   3.430
 1607SOL    HW2 5721   4.659   5.419   3.425
 1608SOL     OW 5722   5.080   1.616   3.535
 1608SOL    HW1 5723   4.992   1.590   3.575
 1608SOL    HW2 5724   5.153   1.594   3.599
 1609SOL     OW 5725   2.939   6.727   1.026
 1609SOL    HW1 5726   2.918   6.742   1.123
 1609SOL    HW2 5727   2.973   6.813   0.987
 1610SOL     OW 5728   5.592   0.223   1.174
 1610SOL    HW1 5729   5.638   0.135   1.188
 1610SOL    HW2 5730   5.590   0.244   1.076
 1611SOL     OW 5731   1.540   4.565   0.504
 1611SOL    HW1 5732   1.608   4.507   0.459
 1611SOL    HW2 5733   1.568   4.583   0.598
 1612SOL     OW 5734   4.408   0.224   2.485
 1612SOL    HW1 5735   4.342   0.155   2.454
 1612SOL    HW2 5736   4.424   0.290   2.412
 1613SOL     OW 5737   6.283   5.830   2.209
 1613SOL    HW1 5738   6.380   5.826   2.185
 1613SOL    HW2 5739   6.228   5.796   2.132
 1614SOL     OW 5740   6.208   1.282   6.174
 1614SOL    HW1 5741   6.268   1.286   6.253
 1614SOL    HW2 5742   6.244   1.217   6.107
 1615SOL     OW 5743   0.517   3.825   6.759
 1615SOL    HW1 5744   0.574   3.759   6.807
 1615SOL    HW2 5745   0.507   3.796   6.663
 1616SOL     OW 5746   1.060   1.055   4.144
 1616SOL    HW1 5747   1.070   0.966   4.190
 1616SOL    HW2 5748   1.148   1.104   4.148
 1617SOL     OW 5749   6.189   6.564   3.241
 1617SOL    HW1 5750   6.136   6.479   3.240
 1617SOL    HW2 5751   6.195   6.598   3.334
 1618SOL     OW 5752   3.733   5.642   3.692
 1618SOL    HW1 5753   3.716   5.709   3.620
 1618SOL    HW2 5754   3.713   5.550   3.658
 1619SOL     OW 5755   1.530   4.356   0.059
 1619SOL    HW1 5756   1.560   4.404   7.001
 1619SOL    HW2 5757   1.431   4.364   0.069
 1620SOL     OW 5758   3.566   5.506   5.101
 1620SOL    HW1 5759   3.505   5.483   5.025
 1620SOL    HW2 5760   3.657   5.526   5.065
 1621SOL     OW 5761   5.107   6.358   0.356
 1621SOL    HW1 5762   5.042   6.283   0.351
 1621SOL    HW2 5763   5.162   6.360   0.272
 1622SOL     OW 5764   6.691   4.391   4.534
 1622SOL    HW1 5765   6.594   4.369   4.523
 1622SOL    HW2 5766   6.703   4.490   4.529
 1623SOL     OW 5767   6.448   2.129   3.241
 1623SOL    HW1 5768   6.474   2.213   3.195
 1623SOL    HW2 5769   6.350   2.113   3.229
 1624SOL     OW 5770   3.611   2.813   0.889
 1624SOL    HW1 5771   3.611   2.715   0.907
 1624SOL    HW2 5772   3.696   2.853   0.921
 1625SOL     OW 5773   0.311   6.253   1.267
 1625SOL    HW1 5774   0.261   6.169   1.293
 1625SOL    HW2 5775   0.257   6.332   1.295
 1626SOL     OW 5776   2.655   1.888   1.796
 1626SOL    HW1 5777   2.692   1.796   1.804
 1626SOL    HW2 5778   2.731   1.953   1.785
 1627SOL     OW 5779   3.842   1.944   5.375
 1627SOL    HW1 5780   3.805   1.899   5.293
 1627SOL    HW2 5781   3.849   1.878   5.449
 1628SOL     OW 5782   5.596   6.670   1.016
 1628SOL    HW1 5783   5.515   6.705   1.061
 1628SOL    HW2 5784   5.570   6.619   0.934
 1629SOL     OW 5785   2.028   0.311   3.520
 1629SOL    HW1 5786   1.941   0.304   3.471
 1629SOL    HW2 5787   2.104   0.297   3.456
 1630SOL     OW 5788   0.530   3.685   6.332
 1630SOL    HW1 5789   0.599   3.755   6.312
 1630SOL    HW2 5790   0.462   3.722   6.396
 1631SOL     OW 5791   6.691   3.812   0.233
 1631SOL    HW1 5792   6.733   3.734   0.187
 1631SOL    HW2 5793   6.633   3.861   0.169
 1632SOL     OW 5794   6.569   5.819   2.174
 1632SOL    HW1 5795   6.660   5.811   2.215
 1632SOL    HW2 5796   6.573   5.883   2.098
 1633SOL     OW 5797   5.824   3.633   4.634
 1633SOL    HW1 5798   5.766   3.598   4.708
 1633SOL    HW2 5799   5.903   3.680   4.673
 1634SOL     OW 5800   6.642   1.893   5.387
 1634SOL    HW1 5801   6.684   1.904   5.477
 1634SOL    HW2 5802   6.705   1.926   5.316
 1635SOL     OW 5803   3.940   5.989   3.392
 1635SOL    HW1 5804   3.892   6.064   3.346
 1635SOL    HW2 5805   3.923   5.995   3.491
 1636SOL     OW 5806   6.212   5.946   1.351
 1636SOL    HW1 5807   6.271   5.867   1.337
 1636SOL    HW2 5808   6.238   5.993   1.435
 1637SOL     OW 5809   0.575   0.742   2.632
 1637SOL    HW1 5810   0.666   0.780   2.648
 1637SOL    HW2 5811   0.523   0.744   2.718
 1638SOL     OW 5812   5.931   2.227   2.093
 1638SOL    HW1 5813   6.019   2.208   2.049
 1638SOL    HW2 5814   5.866   2.155   2.069
 1639SOL     OW 5815   5.152   2.690   2.300
 1639SOL    HW1 5816   5.186   2.690   2.395
 1639SOL    HW2 5817   5.224   2.724   2.239
 1640SOL     OW 5818   6.351   6.994   6.777
 1640SOL    HW1 5819   6.342   0.067   6.796
 1640SOL    HW2 5820   6.297   6.942   6.843
 1641SOL     OW 5821   5.959   2.399   3.003
 1641SOL    HW1 5822   5.881   2.391   3.066
 1641SOL    HW2 5823   5.963   2.318   2.945
 1642SOL     OW 5824   0.016   2.755   6.174
 1642SOL    HW1 5825   0.001   2.834   6.115
 1642SOL    HW2 5826   6.983   2.763   6.255
 1643SOL     OW 5827   2.101   6.050   4.131
 1643SOL    HW1 5828   2.193   6.053   4.093
 1643SOL    HW2 5829   2.063   5.958   4.120
 1644SOL     OW 5830   5.901   2.823   1.562
 1644SOL    HW1 5831   5.998   2.799   1.569
 1644SOL    HW2 5832   5.892   2.922   1.560
 1645SOL     OW 5833   2.029   0.656   5.785
 1645SOL    HW1 5834   2.029   0.610   5.697
 1645SOL    HW2 5835   2.045   0.590   5.858
 1646SOL     OW 5836   1.358   4.715   0.698
 1646SOL    HW1 5837   1.343   4.768   0.614
 1646SOL    HW2 5838   1.335   4.771   0.777
 1647SOL     OW 5839   5.542   3.161   4.346
 1647SOL    HW1 5840   5.592   3.081   4.311
 1647SOL    HW2 5841   5.601   3.211   4.409
 1648SOL     OW 5842   5.502   5.993   1.125
 1648SOL    HW1 5843   5.459   5.940   1.198
 1648SOL    HW2 5844   5.496   5.942   1.039
 1649SOL     OW 5845   3.487   0.691   2.930
 1649SOL    HW1 5846   3.542   0.735   3.001
 1649SOL    HW2 5847   3.537   0.692   2.843
 1650SOL     OW 5848   2.658   4.022   6.188
 1650SOL    HW1 5849   2.743   4.027   6.241
 1650SOL    HW2 5850   2.613   3.934   6.205
 1651SOL     OW 5851   0.742   2.740   3.429
 1651SOL    HW1 5852   0.740   2.833   3.392
 1651SOL    HW2 5853   0.801   2.738   3.510
 1652SOL     OW 5854   0.405   3.338   1.435
 1652SOL    HW1 5855   0.358   3.388   1.507
 1652SOL    HW2 5856   0.345   3.330   1.355
 1653SOL     OW 5857   0.308   4.718   2.919
 1653SOL    HW1 5858   0.375   4.645   2.936
 1653SOL    HW2 5859   0.332   4.768   2.836
 1654SOL     OW 5860   0.370   3.008   2.268
 1654SOL    HW1 5861   0.336   2.929   2.217
 1654SOL    HW2 5862   0.297   3.076   2.276
 1655SOL     OW 5863   6.877   0.340   5.213
 1655SOL    HW1 5864   6.928   0.318   5.130
 1655SOL    HW2 5865   6.824   0.260   5.241
 1656SOL     OW 5866   2.019   4.408   3.572
 1656SOL    HW1 5867   2.088   4.481   3.572
 1656SOL    HW2 5868   2.026   4.355   3.488
 1657SOL     OW 5869   0.545   6.831   5.486
 1657SOL    HW1 5870   0.594   6.859   5.568
 1657SOL    HW2 5871   0.611   6.811   5.413
 1658SOL     OW 5872   5.894   6.723   5.903
 1658SOL    HW1 5873   5.942   6.640   5.932
 1658SOL    HW2 5874   5.937   6.803   5.945
 1659SOL     OW 5875   4.415   6.935   5.934
 1659SOL    HW1 5876   4.417   0.010   5.943
 1659SOL    HW2 5877   4.346   6.909   5.866
 1660SOL     OW 5878   2.147   1.047   2.294
 1660SOL    HW1 5879   2.144   0.961   2.345
 1660SOL    HW2 5880   2.152   1.026   2.196
 1661SOL     OW 5881   4.797   4.571   2.944
 1661SOL    HW1 5882   4.732   4.500   2.918
 1661SOL    HW2 5883   4.889   4.543   2.918
 1662SOL     OW 5884   0.366   1.871   4.033
 1662SOL    HW1 5885   0.319   1.827   3.957
 1662SOL    HW2 5886   0.450   1.822   4.054
 1663SOL     OW 5887   4.828   5.054   0.075
 1663SOL    HW1 5888   4.762   5.085   0.007
 1663SOL    HW2 5889   4.920   5.053   0.035
 1664SOL     OW 5890   1.086   0.085   5.272
 1664SOL    HW1 5891   1.170   0.077   5.325
 1664SOL    HW2 5892   1.066   0.182   5.255
 1665SOL     OW 5893   3.099   4.255   0.130
 1665SOL    HW1 5894   3.190   4.231   0.166
 1665SOL    HW2 5895   3.093   4.354   0.119
 1666SOL     OW 5896   5.757   6.515   5.758
 1666SOL    HW1 5897   5.688   6.543   5.692
 1666SOL    HW2 5898   5.809   6.595   5.789
 1667SOL     OW 5899   0.030   6.208   1.368
 1667SOL    HW1 5900   0.018   6.121   1.415
 1667SOL    HW2 5901   7.020   6.200   1.274
 1668SOL     OW 5902   5.909   4.380   2.642
 1668SOL    HW1 5903   5.972   4.418   2.710
 1668SOL    HW2 5904   5.839   4.326   2.688
 1669SOL     OW 5905   6.208   3.895   5.639
 1669SOL    HW1 5906   6.288   3.901   5.699
 1669SOL    HW2 5907   6.127   3.879   5.694
 1670SOL     OW 5908   2.333   4.749   6.450
 1670SOL    HW1 5909   2.410   4.703   6.405
 1670SOL    HW2 5910   2.321   4.840   6.412
 1671SOL     OW 5911   6.307   2.083   1.264
 1671SOL    HW1 5912   6.327   1.992   1.227
 1671SOL    HW2 5913   6.246   2.132   1.201
 1672SOL     OW 5914   0.493   3.179   0.520
 1672SOL    HW1 5915   0.454   3.108   0.462
 1672SOL    HW2 5916   0.434   3.195   0.599
 1673SOL     OW 5917   1.539   0.616   4.412
 1673SOL    HW1 5918   1.565   0.594   4.506
 1673SOL    HW2 5919   1.621   0.633   4.358
 1674SOL     OW 5920   4.564   1.949   2.097
 1674SOL    HW1 5921   4.485   1.892   2.073
 1674SOL    HW2 5922   4.538   2.045   2.094
 1675SOL     OW 5923   5.306   0.477   1.814
 1675SOL    HW1 5924   5.242   0.554   1.815
 1675SOL    HW2 5925   5.339   0.462   1.721
 1676SOL     OW 5926   1.226   2.328   2.660
 1676SOL    HW1 5927   1.258   2.241   2.623
 1676SOL    HW2 5928   1.198   2.315   2.756
 1677SOL     OW 5929   3.931   3.099   3.429
 1677SOL    HW1 5930   3.903   3.119   3.523
 1677SOL    HW2 5931   3.985   3.176   3.394
 1678SOL     OW 5932   1.290   0.195   1.176
 1678SOL    HW1 5933   1.219   0.264   1.191
 1678SOL    HW2 5934   1.369   0.237   1.132
 1679SOL     OW 5935   0.598   1.687   6.633
 1679SOL    HW1 5936   0.565   1.738   6.712
 1679SOL    HW2 5937   0.650   1.749   6.573
 1680SOL     OW 5938   5.247   2.377   3.557
 1680SOL    HW1 5939   5.149   2.392   3.550
 1680SOL    HW2 5940   5.270   2.345   3.649
 1681SOL     OW 5941   2.697   6.509   4.515
 1681SOL    HW1 5942   2.777   6.558   4.479
 1681SOL    HW2 5943   2.726   6.451   4.591
 1682SOL     OW 5944   3.483   0.228   4.349
 1682SOL    HW1 5945   3.510   0.235   4.253
 1682SOL    HW2 5946   3.530   0.298   4.402
 1683SOL     OW 5947   6.233   4.607   2.711
 1683SOL    HW1 5948   6.303   4.663   2.755
 1683SOL    HW2 5949   6.165   4.667   2.668
 1684SOL     OW 5950   2.492   4.564   2.021
 1684SOL    HW1 5951   2.590   4.573   2.035
 1684SOL    HW2 5952   2.444   4.636   2.071
 1685SOL     OW 5953   0.233   1.104   5.390
 1685SOL    HW1 5954   0.239   1.053   5.476
 1685SOL    HW2 5955   0.177   1.052   5.325
 1686SOL     OW 5956   4.685   5.323   2.961
 1686SOL    HW1 5957   4.609   5.261   2.977
 1686SOL    HW2 5958   4.771   5.278   2.989
 1687SOL     OW 5959   4.934   4.019   1.450
 1687SOL    HW1 5960   4.937   4.060   1.541
 1687SOL    HW2 5961   4.867   4.067   1.394
 1688SOL     OW 5962   1.292   1.049   2.451
 1688SOL    HW1 5963   1.373   1.089   2.496
 1688SOL    HW2 5964   1.295   0.950   2.459
 1689SOL     OW 5965   4.538   0.693   1.310
 1689SOL    HW1 5966   4.563   0.706   1.407
 1689SOL    HW2 5967   4.560   0.777   1.260
 1690SOL     OW 5968   0.677   4.759   3.603
 1690SOL    HW1 5969   0.628   4.673   3.591
 1690SOL    HW2 5970   0.656   4.798   3.693
 1691SOL     OW 5971   4.437   2.353   5.181
 1691SOL    HW1 5972   4.438   2.309   5.270
 1691SOL    HW2 5973   4.349   2.397   5.167
 1692SOL     OW 5974   4.613   5.032   1.813
 1692SOL    HW1 5975   4.685   5.005   1.749
 1692SOL    HW2 5976   4.562   4.951   1.843
 1693SOL     OW 5977   5.385   0.145   5.190
 1693SOL    HW1 5978   5.400   0.239   5.159
 1693SOL    HW2 5979   5.390   0.083   5.112
 1694SOL     OW 5980   4.752   1.890   5.806
 1694SOL    HW1 5981   4.741   1.796   5.775
 1694SOL    HW2 5982   4.847   1.906   5.832
 1695SOL     OW 5983   3.970   0.957   6.757
 1695SOL    HW1 5984   3.970   1.055   6.739
 1695SOL    HW2 5985   3.965   0.941   6.856
 1696SOL     OW 5986   5.330   6.438   0.516
 1696SOL    HW1 5987   5.413   6.394   0.483
 1696SOL    HW2 5988   5.251   6.399   0.469
 1697SOL     OW 5989   5.004   2.424   1.984
 1697SOL    HW1 5990   4.906   2.440   1.974
 1697SOL    HW2 5991   5.048   2.508   2.015
 1698SOL     OW 5992   4.376   0.870   1.558
 1698SOL    HW1 5993   4.461   0.823   1.532
 1698SOL    HW2 5994   4.383   0.901   1.653
 1699SOL     OW 5995   2.365   7.012   0.364
 1699SOL    HW1 5996   2.385   6.993   0.267
 1699SOL    HW2 5997   2.451   0.005   0.412
 1700SOL     OW 5998   5.507   2.967   2.906
 1700SOL    HW1 5999   5.408   2.958   2.894
 1700SOL    HW2 6000   5.552   2.952   2.818
 1701SOL     OW 6001   0.131   6.014   4.808
 1701SOL    HW1 6002   0.083   6.079   4.749
 1701SOL    HW2 6003   0.228   6.015   4.788
 1702SOL     OW 6004   2.054   2.162   6.579
 1702SOL    HW1 6005   2.069   2.067   6.553
 1702SOL    HW2 6006   2.024   2.165   6.675
 1703SOL     OW 6007   1.851   1.720   1.647
 1703SOL    HW1 6008   1.796   1.682   1.572
 1703SOL    HW2 6009   1.845   1.820   1.646
 1704SOL     OW 6010   3.254   1.687   0.989
 1704SOL    HW1 6011   3.294   1.763   1.040
 1704SOL    HW2 6012   3.157   1.708   0.971
 1705SOL     OW 6013   4.212   2.456   0.610
 1705SOL    HW1 6014   4.251   2.433   0.700
 1705SOL    HW2 6015   4.262   2.532   0.570
 1706SOL     OW 6016   5.827   2.276   6.565
 1706SOL    HW1 6017   5.760   2.292   6.637
 1706SOL    HW2 6018   5.911   2.327   6.585
 1707SOL     OW 6019   4.393   1.817   1.947
 1707SOL    HW1 6020   4.400   1.720   1.972
 1707SOL    HW2 6021   4.354   1.825   1.855
 1708SOL     OW 6022   3.568   4.903   2.234
 1708SOL    HW1 6023   3.653   4.884   2.282
 1708SOL    HW2 6024   3.579   4.883   2.137
 1709SOL     OW 6025   4.591   5.076   0.758
 1709SOL    HW1 6026   4.512   5.024   0.725
 1709SOL    HW2 6027   4.583   5.091   0.856
 1710SOL     OW 6028   5.301   5.072   3.008
 1710SOL    HW1 6029   5.388   5.023   3.004
 1710SOL    HW2 6030   5.226   5.006   2.999
 1711SOL     OW 6031   4.178   5.357   6.774
 1711SOL    HW1 6032   4.158   5.277   6.718
 1711SOL    HW2 6033   4.151   5.339   6.869
 1712SOL     OW 6034   0.606   1.649   2.150
 1712SOL    HW1 6035   0.701   1.676   2.135
 1712SOL    HW2 6036   0.549   1.731   2.153
 1713SOL     OW 6037   3.890   0.944   2.635
 1713SOL    HW1 6038   3.798   0.947   2.596
 1713SOL    HW2 6039   3.896   1.007   2.712
 1714SOL     OW 6040   3.504   3.829   0.319
 1714SOL    HW1 6041   3.409   3.821   0.349
 1714SOL    HW2 6042   3.543   3.737   0.308
 1715SOL     OW 6043   2.273   6.431   2.627
 1715SOL    HW1 6044   2.332   6.459   2.703
 1715SOL    HW2 6045   2.180   6.418   2.659
 1716SOL     OW 6046   4.489   1.111   3.496
 1716SOL    HW1 6047   4.581   1.147   3.510
 1716SOL    HW2 6048   4.424   1.188   3.488
 1717SOL     OW 6049   3.210   6.289   5.117
 1717SOL    HW1 6050   3.209   6.259   5.213
 1717SOL    HW2 6051   3.253   6.219   5.060
 1718SOL     OW 6052   0.827   3.070   1.381
 1718SOL    HW1 6053   0.886   2.991   1.366
 1718SOL    HW2 6054   0.875   3.138   1.437
 1719SOL     OW 6055   0.910   5.629   2.718
 1719SOL    HW1 6056   0.905   5.582   2.630
 1719SOL    HW2 6057   1.004   5.627   2.752
 1720SOL     OW 6058   0.616   3.571   5.762
 1720SOL    HW1 6059   0.643   3.487   5.717
 1720SOL    HW2 6060   0.525   3.598   5.731
 1721SOL     OW 6061   1.208   2.359   0.615
 1721SOL    HW1 6062   1.109   2.371   0.624
 1721SOL    HW2 6063   1.254   2.445   0.634
 1722SOL     OW 6064   2.475   2.480   3.865
 1722SOL    HW1 6065   2.542   2.433   3.923
 1722SOL    HW2 6066   2.448   2.566   3.907
 1723SOL     OW 6067   5.747   4.387   1.061
 1723SOL    HW1 6068   5.670   4.403   0.999
 1723SOL    HW2 6069   5.817   4.333   1.014
 1724SOL     OW 6070   5.920   2.836   1.049
 1724SOL    HW1 6071   5.908   2.884   0.962
 1724SOL    HW2 6072   5.990   2.765   1.039
 1725SOL     OW 6073   1.705   6.425   6.541
 1725SOL    HW1 6074   1.749   6.493   6.481
 1725SOL    HW2 6075   1.662   6.354   6.485
 1726SOL     OW 6076   5.465   4.506   2.653
 1726SOL    HW1 6077   5.375   4.471   2.628
 1726SOL    HW2 6078   5.488   4.583   2.595
 1727SOL     OW 6079   3.025   3.974   3.082
 1727SOL    HW1 6080   3.066   4.030   3.155
 1727SOL    HW2 6081   3.054   4.009   2.993
 1728SOL     OW 6082   5.347   2.519   4.228
 1728SOL    HW1 6083   5.381   2.574   4.151
 1728SOL    HW2 6084   5.414   2.519   4.302
 1729SOL     OW 6085   1.272   2.659   3.000
 1729SOL    HW1 6086   1.357   2.712   3.001
 1729SOL    HW2 6087   1.286   2.573   3.049
 1730SOL     OW 6088   1.999   5.383   4.130
 1730SOL    HW1 6089   1.920   5.399   4.189
 1730SOL    HW2 6090   2.060   5.462   4.134
 1731SOL     OW 6091   6.245   5.121   3.264
 1731SOL    HW1 6092   6.147   5.101   3.259
 1731SOL    HW2 6093   6.262   5.190   3.333
 1732SOL     OW 6094   2.453   3.415   5.708
 1732SOL    HW1 6095   2.413   3.386   5.622
 1732SOL    HW2 6096   2.549   3.439   5.694
 1733SOL     OW 6097   2.054   3.333   6.132
 1733SOL    HW1 6098   2.018   3.424   6.154
 1733SOL    HW2 6099   2.044   3.273   6.212
 1734SOL     OW 6100   6.503   3.066   0.725
 1734SOL    HW1 6101   6.435   3.079   0.797
 1734SOL    HW2 6102   6.535   3.155   0.694
 1735SOL     OW 6103   4.151   5.390   6.083
 1735SOL    HW1 6104   4.069   5.343   6.050
 1735SOL    HW2 6105   4.213   5.407   6.007
 1736SOL     OW 6106   5.039   2.319   0.531
 1736SOL    HW1 6107   5.014   2.224   0.546
 1736SOL    HW2 6108   4.980   2.378   0.586
 1737SOL     OW 6109   4.257   1.989   5.666
 1737SOL    HW1 6110   4.268   1.967   5.569
 1737SOL    HW2 6111   4.347   1.992   5.710
 1738SOL     OW 6112   1.871   3.311   4.197
 1738SOL    HW1 6113   1.895   3.244   4.127
 1738SOL    HW2 6114   1.862   3.265   4.286
 1739SOL     OW 6115   5.968   0.684   3.446
 1739SOL    HW1 6116   5.917   0.609   3.405
 1739SOL    HW2 6117   5.945   0.691   3.543
 1740SOL     OW 6118   6.139   3.425   5.152
 1740SOL    HW1 6119   6.211   3.486   5.186
 1740SOL    HW2 6120   6.107   3.366   5.226
 1741SOL     OW 6121   6.999   1.934   4.792
 1741SOL    HW1 6122   6.993   2.006   4.722
 1741SOL    HW2 6123   6.909   1.891   4.803
 1742SOL     OW 6124   6.378   6.103   6.316
 1742SOL    HW1 6125   6.317   6.141   6.246
 1742SOL    HW2 6126   6.454   6.057   6.271
 1743SOL     OW 6127   1.613   1.469   2.335
 1743SOL    HW1 6128   1.655   1.450   2.423
 1743SOL    HW2 6129   1.651   1.408   2.266
 1744SOL     OW 6130   3.454   2.099   4.894
 1744SOL    HW1 6131   3.539   2.149   4.908
 1744SOL    HW2 6132   3.382   2.141   4.950
 1745SOL     OW 6133   6.014   6.476   1.280
 1745SOL    HW1 6134   5.928   6.495   1.233
 1745SOL    HW2 6135   6.049   6.559   1.321
 1746SOL     OW 6136   2.759   4.756   3.485
 1746SOL    HW1 6137   2.823   4.789   3.554
 1746SOL    HW2 6138   2.780   4.797   3.397
 1747SOL     OW 6139   3.951   0.324   2.657
 1747SOL    HW1 6140   3.985   0.377   2.734
 1747SOL    HW2 6141   3.940   0.383   2.578
 1748SOL     OW 6142   6.580   2.934   4.973
 1748SOL    HW1 6143   6.511   2.911   4.904
 1748SOL    HW2 6144   6.667   2.955   4.928
 1749SOL     OW 6145   0.951   5.125   1.491
 1749SOL    HW1 6146   0.959   5.113   1.590
 1749SOL    HW2 6147   1.041   5.141   1.452
 1750SOL     OW 6148   3.858   0.071   6.295
 1750SOL    HW1 6149   3.885   7.002   6.275
 1750SOL    HW2 6150   3.837   0.119   6.209
 1751SOL     OW 6151   6.062   3.029   5.205
 1751SOL    HW1 6152   6.154   2.998   5.229
 1751SOL    HW2 6153   5.994   2.967   5.244
 1752SOL     OW 6154   6.687   0.890   1.868
 1752SOL    HW1 6155   6.781   0.912   1.897
 1752SOL    HW2 6156   6.683   0.889   1.768
 1753SOL     OW 6157   5.967   1.233   1.833
 1753SOL    HW1 6158   6.045   1.232   1.895
 1753SOL    HW2 6159   5.895   1.173   1.868
 1754SOL     OW 6160   3.200   5.544   3.953
 1754SOL    HW1 6161   3.116   5.533   3.901
 1754SOL    HW2 6162   3.188   5.616   4.022
 1755SOL     OW 6163   5.909   6.748   4.586
 1755SOL    HW1 6164   5.870   6.712   4.671
 1755SOL    HW2 6165   5.967   6.679   4.544
 1756SOL     OW 6166   4.863   6.092   0.127
 1756SOL    HW1 6167   4.846   6.008   0.180
 1756SOL    HW2 6168   4.961   6.108   0.121
 1757SOL     OW 6169   2.829   5.030   5.241
 1757SOL    HW1 6170   2.861   4.941   5.209
 1757SOL    HW2 6171   2.907   5.092   5.249
 1758SOL     OW 6172   1.833   6.023   4.650
 1758SOL    HW1 6173   1.790   6.001   4.562
 1758SOL    HW2 6174   1.822   6.121   4.669
 1759SOL     OW 6175   1.226   6.098   0.131
 1759SOL    HW1 6176   1.232   6.081   0.032
 1759SOL    HW2 6177   1.279   6.029   0.180
 1760SOL     OW 6178   0.061   0.951   4.577
 1760SOL    HW1 6179   7.018   1.002   4.629
 1760SOL    HW2 6180   0.152   0.989   4.594
 1761SOL     OW 6181   5.770   1.331   2.782
 1761SOL    HW1 6182   5.726   1.287   2.704
 1761SOL    HW2 6183   5.792   1.426   2.759
 1762SOL     OW 6184   1.134   1.278   5.497
 1762SOL    HW1 6185   1.204   1.263   5.427
 1762SOL    HW2 6186   1.099   1.372   5.490
 1763SOL     OW 6187   1.156   4.008   3.761
 1763SOL    HW1 6188   1.073   4.048   3.801
 1763SOL    HW2 6189   1.192   3.938   3.822
 1764SOL     OW 6190   1.418   5.559   3.538
 1764SOL    HW1 6191   1.401   5.542   3.441
 1764SOL    HW2 6192   1.489   5.498   3.572
 1765SOL     OW 6193   5.505   3.359   2.631
 1765SOL    HW1 6194   5.557   3.356   2.716
 1765SOL    HW2 6195   5.458   3.272   2.618
 1766SOL     OW 6196   4.383   4.831   3.842
 1766SOL    HW1 6197   4.351   4.773   3.768
 1766SOL    HW2 6198   4.317   4.830   3.917
 1767SOL     OW 6199   0.431   4.884   1.994
 1767SOL    HW1 6200   0.437   4.954   1.922
 1767SOL    HW2 6201   0.345   4.894   2.043
 1768SOL     OW 6202   5.102   5.037   1.995
 1768SOL    HW1 6203   5.010   5.001   2.008
 1768SOL    HW2 6204   5.124   5.100   2.069
 1769SOL     OW 6205   5.614   0.621   0.495
 1769SOL    HW1 6206   5.695   0.574   0.531
 1769SOL    HW2 6207   5.535   0.599   0.554
 1770SOL     OW 6208   1.639   5.141   0.731
 1770SOL    HW1 6209   1.588   5.113   0.812
 1770SOL    HW2 6210   1.579   5.137   0.651
 1771SOL     OW 6211   2.040   3.002   5.957
 1771SOL    HW1 6212   1.946   3.006   5.922
 1771SOL    HW2 6213   2.067   2.906   5.967
 1772SOL     OW 6214   2.244   4.054   2.604
 1772SOL    HW1 6215   2.254   4.009   2.693
 1772SOL    HW2 6216   2.207   3.990   2.537
 1773SOL     OW 6217   2.369   6.373   6.313
 1773SOL    HW1 6218   2.350   6.313   6.235
 1773SOL    HW2 6219   2.385   6.317   6.395
 1774SOL     OW 6220   5.286   5.946   0.848
 1774SOL    HW1 6221   5.295   5.904   0.758
 1774SOL    HW2 6222   5.308   6.043   0.842
 1775SOL     OW 6223   2.140   5.201   0.614
 1775SOL    HW1 6224   2.159   5.113   0.571
 1775SOL    HW2 6225   2.042   5.216   0.618
 1776SOL     OW 6226   4.702   2.598   5.616
 1776SOL    HW1 6227   4.713   2.624   5.520
 1776SOL    HW2 6228   4.605   2.604   5.641
 1777SOL     OW 6229   4.589   6.488   7.009
 1777SOL    HW1 6230   4.519   6.549   0.020
 1777SOL    HW2 6231   4.636   6.442   0.060
 1778SOL     OW 6232   6.341   0.030   4.235
 1778SOL    HW1 6233   6.425   7.017   4.197
 1778SOL    HW2 6234   6.269   0.028   4.166
 1779SOL     OW 6235   5.579   0.539   4.172
 1779SOL    HW1 6236   5.494   0.518   4.220
 1779SOL    HW2 6237   5.652   0.557   4.239
 1780SOL     OW 6238   2.422   4.912   5.441
 1780SOL    HW1 6239   2.323   4.903   5.429
 1780SOL    HW2 6240   2.459   4.971   5.368
 1781SOL     OW 6241   4.139   0.788   5.241
 1781SOL    HW1 6242   4.177   0.880   5.237
 1781SOL    HW2 6243   4.130   0.759   5.336
 1782SOL     OW 6244   5.841   1.387   2.287
 1782SOL    HW1 6245   5.782   1.455   2.243
 1782SOL    HW2 6246   5.797   1.298   2.286
 1783SOL     OW 6247   2.005   4.131   6.829
 1783SOL    HW1 6248   1.908   4.109   6.814
 1783SOL    HW2 6249   2.016   4.179   6.915
 1784SOL     OW 6250   2.593   6.371   1.795
 1784SOL    HW1 6251   2.502   6.400   1.826
 1784SOL    HW2 6252   2.656   6.372   1.873
 1785SOL     OW 6253   1.073   6.649   4.877
 1785SOL    HW1 6254   1.045   6.617   4.786
 1785SOL    HW2 6255   1.038   6.741   4.893
 1786SOL     OW 6256   0.920   6.372   0.919
 1786SOL    HW1 6257   1.012   6.406   0.902
 1786SOL    HW2 6258   0.877   6.347   0.832
 1787SOL     OW 6259   1.980   3.345   5.857
 1787SOL    HW1 6260   1.983   3.348   5.957
 1787SOL    HW2 6261   1.898   3.296   5.827
 1788SOL     OW 6262   4.515   3.557   0.836
 1788SOL    HW1 6263   4.455   3.499   0.892
 1788SOL    HW2 6264   4.563   3.622   0.894
 1789SOL     OW 6265   6.020   3.862   2.544
 1789SOL    HW1 6266   5.998   3.764   2.538
 1789SOL    HW2 6267   6.040   3.897   2.453
 1790SOL     OW 6268   1.730   2.020   4.721
 1790SOL    HW1 6269   1.723   1.943   4.783
 1790SOL    HW2 6270   1.765   2.100   4.770
 1791SOL     OW 6271   5.056   0.337   3.825
 1791SOL    HW1 6272   4.997   0.418   3.823
 1791SOL    HW2 6273   5.004   0.256   3.799
 1792SOL     OW 6274   0.569   1.978   6.396
 1792SOL    HW1 6275   0.497   2.042   6.423
 1792SOL    HW2 6276   0.644   1.982   6.463
 1793SOL     OW 6277   6.976   0.696   5.859
 1793SOL    HW1 6278   0.017   0.661   5.924
 1793SOL    HW2 6279   7.023   0.727   5.776
 1794SOL     OW 6280   0.927   0.420   6.011
 1794SOL    HW1 6281   0.997   0.439   6.081
 1794SOL    HW2 6282   0.886   0.506   5.981
 1795SOL     OW 6283   5.421   4.230   0.957
 1795SOL    HW1 6284   5.487   4.302   0.934
 1795SOL    HW2 6285   5.461   4.141   0.936
 1796SOL     OW 6286   0.189   0.049   0.172
 1796SOL    HW1 6287   0.233   6.987   0.150
 1796SOL    HW2 6288   0.091   0.035   0.181
 1797SOL     OW 6289   2.163   5.278   5.745
 1797SOL    HW1 6290   2.230   5.221   5.792
 1797SOL    HW2 6291   2.088   5.221   5.713
 1798SOL     OW 6292   2.267   3.864   5.286
 1798SOL    HW1 6293   2.263   3.907   5.196
 1798SOL    HW2 6294   2.270   3.934   5.357
 1799SOL     OW 6295   2.881   1.228   1.272
 1799SOL    HW1 6296   2.782   1.222   1.275
 1799SOL    HW2 6297   2.915   1.172   1.196
 1800SOL     OW 6298   5.722   3.168   5.342
 1800SOL    HW1 6299   5.745   3.265   5.349
 1800SOL    HW2 6300   5.657   3.154   5.267
 1801SOL     OW 6301   0.732   0.273   3.605
 1801SOL    HW1 6302   0.772   0.294   3.516
 1801SOL    HW2 6303   0.652   0.214   3.593
 1802SOL     OW 6304   6.823   5.152   3.883
 1802SOL    HW1 6305   6.802   5.063   3.924
 1802SOL    HW2 6306   6.772   5.162   3.798
 1803SOL     OW 6307   0.562   7.001   3.307
 1803SOL    HW1 6308   0.483   7.022   3.365
 1803SOL    HW2 6309   0.641   6.981   3.366
 1804SOL     OW 6310   2.220   3.052   6.169
 1804SOL    HW1 6311   2.168   3.005   6.098
 1804SOL    HW2 6312   2.278   3.122   6.128
 1805SOL     OW 6313   6.790   4.889   0.918
 1805SOL    HW1 6314   6.817   4.816   0.855
 1805SOL    HW2 6315   6.690   4.900   0.916
 1806SOL     OW 6316   0.084   1.351   0.921
 1806SOL    HW1 6317   0.077   1.251   0.923
 1806SOL    HW2 6318   0.137   1.379   0.842
 1807SOL     OW 6319   7.019   2.492   2.444
 1807SOL    HW1 6320   6.945   2.558   2.454
 1807SOL    HW2 6321   6.993   2.422   2.378
 1808SOL     OW 6322   5.155   1.603   6.383
 1808SOL    HW1 6323   5.224   1.531   6.381
 1808SOL    HW2 6324   5.132   1.626   6.478
 1809SOL     OW 6325   4.960   0.334   5.254
 1809SOL    HW1 6326   4.862   0.356   5.255
 1809SOL    HW2 6327   4.974   0.244   5.296
 1810SOL     OW 6328   0.757   0.319   4.199
 1810SOL    HW1 6329   0.845   0.301   4.154
 1810SOL    HW2 6330   0.719   0.405   4.165
 1811SOL     OW 6331   3.736   6.067   2.093
 1811SOL    HW1 6332   3.791   6.144   2.060
 1811SOL    HW2 6333   3.716   6.005   2.017
 1812SOL     OW 6334   4.876   6.382   6.394
 1812SOL    HW1 6335   4.789   6.384   6.445
 1812SOL    HW2 6336   4.910   6.476   6.384
 1813SOL     OW 6337   4.827   4.234   1.959
 1813SOL    HW1 6338   4.738   4.271   1.932
 1813SOL    HW2 6339   4.859   4.170   1.889
 1814SOL     OW 6340   6.532   5.727   0.610
 1814SOL    HW1 6341   6.507   5.706   0.515
 1814SOL    HW2 6342   6.598   5.802   0.611
 1815SOL     OW 6343   5.667   6.175   1.433
 1815SOL    HW1 6344   5.642   6.272   1.426
 1815SOL    HW2 6345   5.587   6.121   1.459
 1816SOL     OW 6346   4.217   4.800   5.141
 1816SOL    HW1 6347   4.198   4.896   5.161
 1816SOL    HW2 6348   4.237   4.789   5.044
 1817SOL     OW 6349   0.019   2.539   3.651
 1817SOL    HW1 6350   6.981   2.508   3.579
 1817SOL    HW2 6351   0.112   2.543   3.615
 1818SOL     OW 6352   2.528   1.087   0.465
 1818SOL    HW1 6353   2.473   1.117   0.542
 1818SOL    HW2 6354   2.547   1.165   0.405
 1819SOL     OW 6355   2.050   4.223   2.873
 1819SOL    HW1 6356   1.960   4.210   2.830
 1819SOL    HW2 6357   2.119   4.237   2.802
 1820SOL     OW 6358   3.152   0.535   5.155
 1820SOL    HW1 6359   3.202   0.493   5.079
 1820SOL    HW2 6360   3.056   0.547   5.129
 1821SOL     OW 6361   3.477   2.088   2.619
 1821SOL    HW1 6362   3.527   2.127   2.543
 1821SOL    HW2 6363   3.463   1.990   2.604
 1822SOL     OW 6364   0.045   3.643   2.728
 1822SOL    HW1 6365   0.044   3.614   2.824
 1822SOL    HW2 6366   6.985   3.690   2.707
 1823SOL     OW 6367   4.537   6.607   2.164
 1823SOL    HW1 6368   4.602   6.565   2.229
 1823SOL    HW2 6369   4.575   6.603   2.072
 1824SOL     OW 6370   4.361   3.090   1.665
 1824SOL    HW1 6371   4.430   3.082   1.736
 1824SOL    HW2 6372   4.322   3.183   1.667
 1825SOL     OW 6373   0.894   2.635   5.194
 1825SOL    HW1 6374   0.921   2.621   5.099
 1825SOL    HW2 6375   0.961   2.692   5.240
 1826SOL     OW 6376   3.144   2.154   1.421
 1826SOL    HW1 6377   3.180   2.245   1.442
 1826SOL    HW2 6378   3.138   2.100   1.505
 1827SOL     OW 6379   5.563   5.059   0.423
 1827SOL    HW1 6380   5.471   5.020   0.435
 1827SOL    HW2 6381   5.580   5.126   0.495
 1828SOL     OW 6382   1.935   3.498   5.315
 1828SOL    HW1 6383   1.930   3.398   5.313
 1828SOL    HW2 6384   1.982   3.528   5.398
 1829SOL     OW 6385   4.030   0.035   1.962
 1829SOL    HW1 6386   4.019   6.997   2.039
 1829SOL    HW2 6387   4.076   7.013   1.887
 1830SOL     OW 6388   4.795   0.883   6.216
 1830SOL    HW1 6389   4.883   0.892   6.169
 1830SOL    HW2 6390   4.784   0.790   6.251
 1831SOL     OW 6391   3.332   4.836   0.551
 1831SOL    HW1 6392   3.245   4.814   0.595
 1831SOL    HW2 6393   3.392   4.756   0.553
 1832SOL     OW 6394   2.886   2.740   6.667
 1832SOL    HW1 6395   2.795   2.779   6.675
 1832SOL    HW2 6396   2.955   2.806   6.697
 1833SOL     OW 6397   5.423   1.252   0.015
 1833SOL    HW1 6398   5.436   1.179   6.972
 1833SOL    HW2 6399   5.489   1.325   7.023
 1834SOL     OW 6400   0.308   2.880   5.470
 1834SOL    HW1 6401   0.222   2.833   5.451
 1834SOL    HW2 6402   0.381   2.813   5.485
 1835SOL     OW 6403   6.805   6.071   1.330
 1835SOL    HW1 6404   6.784   6.153   1.278
 1835SOL    HW2 6405   6.790   6.088   1.428
 1836SOL     OW 6406   5.340   2.325   2.631
 1836SOL    HW1 6407   5.316   2.283   2.718
 1836SOL    HW2 6408   5.258   2.340   2.577
 1837SOL     OW 6409   3.131   1.820   6.895
 1837SOL    HW1 6410   3.130   1.794   6.991
 1837SOL    HW2 6411   3.107   1.917   6.887
 1838SOL     OW 6412   5.094   1.022   1.178
 1838SOL    HW1 6413   5.169   0.998   1.117
 1838SOL    HW2 6414   5.021   0.954   1.171
 1839SOL     OW 6415   6.827   0.107   0.673
 1839SOL    HW1 6416   6.846   0.176   0.743
 1839SOL    HW2 6417   6.866   0.019   0.702
 1840SOL     OW 6418   4.463   6.428   4.333
 1840SOL    HW1 6419   4.561   6.410   4.322
 1840SOL    HW2 6420   4.416   6.409   4.247
 1841SOL     OW 6421   0.961   1.330   2.111
 1841SOL    HW1 6422   0.871   1.289   2.126
 1841SOL    HW2 6423   1.028   1.286   2.170
 1842SOL     OW 6424   1.199   5.193   1.397
 1842SOL    HW1 6425   1.253   5.277   1.390
 1842SOL    HW2 6426   1.207   5.140   1.313
 1843SOL     OW 6427   2.592   0.776   6.678
 1843SOL    HW1 6428   2.560   0.866   6.649
 1843SOL    HW2 6429   2.523   0.735   6.738
 1844SOL     OW 6430   5.786   3.080   6.682
 1844SOL    HW1 6431   5.782   3.159   6.620
 1844SOL    HW2 6432   5.874   3.033   6.670
 1845SOL     OW 6433   0.838   1.988   2.994
 1845SOL    HW1 6434   0.804   2.057   3.057
 1845SOL    HW2 6435   0.855   2.030   2.904
 1846SOL     OW 6436   2.591   1.478   1.334
 1846SOL    HW1 6437   2.648   1.548   1.377
 1846SOL    HW2 6438   2.503   1.474   1.382
 1847SOL     OW 6439   1.664   5.510   6.005
 1847SOL    HW1 6440   1.646   5.494   5.908
 1847SOL    HW2 6441   1.601   5.456   6.061
 1848SOL     OW 6442   3.723   6.413   3.137
 1848SOL    HW1 6443   3.628   6.430   3.109
 1848SOL    HW2 6444   3.784   6.428   3.059
 1849SOL     OW 6445   4.939   2.893   2.083
 1849SOL    HW1 6446   4.874   2.948   2.031
 1849SOL    HW2 6447   4.908   2.884   2.177
 1850SOL     OW 6448   4.122   1.916   0.513
 1850SOL    HW1 6449   4.042   1.884   0.463
 1850SOL    HW2 6450   4.104   2.008   0.549
 1851SOL     OW 6451   6.992   4.674   4.597
 1851SOL    HW1 6452   7.021   4.589   4.552
 1851SOL    HW2 6453   6.950   4.735   4.529
 1852SOL     OW 6454   0.714   0.570   2.934
 1852SOL    HW1 6455   0.717   0.560   3.034
 1852SOL    HW2 6456   0.801   0.606   2.901
 1853SOL     OW 6457   0.412   2.259   5.886
 1853SOL    HW1 6458   0.451   2.329   5.828
 1853SOL    HW2 6459   0.400   2.295   5.979
 1854SOL     OW 6460   0.585   6.652   3.617
 1854SOL    HW1 6461   0.517   6.681   3.550
 1854SOL    HW2 6462   0.553   6.569   3.664
 1855SOL     OW 6463   5.667   2.823   4.931
 1855SOL    HW1 6464   5.738   2.755   4.916
 1855SOL    HW2 6465   5.667   2.889   4.855
 1856SOL     OW 6466   4.109   3.262   0.250
 1856SOL    HW1 6467   4.031   3.200   0.239
 1856SOL    HW2 6468   4.080   3.344   0.300
 1857SOL     OW 6469   3.900   1.250   6.733
 1857SOL    HW1 6470   3.878   1.348   6.725
 1857SOL    HW2 6471   3.819   1.201   6.764
 1858SOL     OW 6472   4.918   2.631   4.295
 1858SOL    HW1 6473   4.914   2.622   4.196
 1858SOL    HW2 6474   5.012   2.649   4.324
 1859SOL     OW 6475   6.327   0.777   4.107
 1859SOL    HW1 6476   6.289   0.756   4.197
 1859SOL    HW2 6477   6.384   0.859   4.114
 1860SOL     OW 6478   2.177   1.374   5.906
 1860SOL    HW1 6479   2.089   1.371   5.954
 1860SOL    HW2 6480   2.192   1.466   5.870
 1861SOL     OW 6481   6.241   6.370   4.413
 1861SOL    HW1 6482   6.309   6.436   4.381
 1861SOL    HW2 6483   6.274   6.329   4.498
 1862SOL     OW 6484   2.799   5.413   5.232
 1862SOL    HW1 6485   2.771   5.456   5.146
 1862SOL    HW2 6486   2.898   5.422   5.243
 1863SOL     OW 6487   0.189   2.322   1.344
 1863SOL    HW1 6488   0.276   2.371   1.339
 1863SOL    HW2 6489   0.149   2.334   1.435
 1864SOL     OW 6490   3.244   6.007   1.835
 1864SOL    HW1 6491   3.174   6.068   1.870
 1864SOL    HW2 6492   3.316   5.995   1.903
 1865SOL     OW 6493   6.151   2.793   5.968
 1865SOL    HW1 6494   6.181   2.827   5.879
 1865SOL    HW2 6495   6.051   2.791   5.971
 1866SOL     OW 6496   0.723   5.601   3.326
 1866SOL    HW1 6497   0.711   5.677   3.390
 1866SOL    HW2 6498   0.634   5.558   3.309
 1867SOL     OW 6499   0.845   2.475   1.469
 1867SOL    HW1 6500   0.765   2.517   1.510
 1867SOL    HW2 6501   0.898   2.428   1.540
 1868SOL     OW 6502   5.862   3.527   6.641
 1868SOL    HW1 6503   5.866   3.516   6.740
 1868SOL    HW2 6504   5.827   3.443   6.599
 1869SOL     OW 6505   5.031   1.033   4.500
 1869SOL    HW1 6506   4.983   0.956   4.542
 1869SOL    HW2 6507   5.046   1.104   4.569
 1870SOL     OW 6508   6.456   6.588   5.583
 1870SOL    HW1 6509   6.433   6.666   5.641
 1870SOL    HW2 6510   6.488   6.621   5.494
 1871SOL     OW 6511   0.848   6.511   7.010
 1871SOL    HW1 6512   0.766   6.527   0.040
 1871SOL    HW2 6513   0.929   6.528   0.041
 1872SOL     OW 6514   2.919   3.181   1.445
 1872SOL    HW1 6515   3.001   3.237   1.456
 1872SOL    HW2 6516   2.898   3.136   1.532
 1873SOL     OW 6517   6.784   0.945   1.251
 1873SOL    HW1 6518   6.850   0.988   1.313
 1873SOL    HW2 6519   6.705   0.913   1.304
 1874SOL     OW 6520   0.964   5.263   0.740
 1874SOL    HW1 6521   0.978   5.166   0.719
 1874SOL    HW2 6522   1.029   5.319   0.690
 1875SOL     OW 6523   0.504   5.495   1.745
 1875SOL    HW1 6524   0.427   5.469   1.688
 1875SOL    HW2 6525   0.481   5.477   1.841
 1876SOL     OW 6526   0.462   5.008   0.888
 1876SOL    HW1 6527   0.421   4.997   0.978
 1876SOL    HW2 6528   0.471   5.105   0.867
 1877SOL     OW 6529   1.112   1.899   2.138
 1877SOL    HW1 6530   1.055   1.962   2.190
 1877SOL    HW2 6531   1.180   1.950   2.086
 1878SOL     OW 6532   5.441   3.779   4.043
 1878SOL    HW1 6533   5.526   3.727   4.042
 1878SOL    HW2 6534   5.393   3.765   3.956
 1879SOL     OW 6535   5.082   6.271   4.429
 1879SOL    HW1 6536   5.022   6.351   4.425
 1879SOL    HW2 6537   5.171   6.294   4.391
 1880SOL     OW 6538   0.031   1.205   4.315
 1880SOL    HW1 6539   0.086   1.122   4.320
 1880SOL    HW2 6540   0.002   1.232   4.407
 1881SOL     OW 6541   1.959   1.437   3.818
 1881SOL    HW1 6542   2.019   1.487   3.880
 1881SOL    HW2 6543   1.913   1.364   3.868
 1882SOL     OW 6544   1.813   5.353   0.373
 1882SOL    HW1 6545   1.838   5.411   0.295
 1882SOL    HW2 6546   1.750   5.402   0.433
 1883SOL     OW 6547   2.350   2.333   3.006
 1883SOL    HW1 6548   2.354   2.262   3.076
 1883SOL    HW2 6549   2.410   2.409   3.031
 1884SOL     OW 6550   4.244   1.063   0.377
 1884SOL    HW1 6551   4.302   1.048   0.297
 1884SOL    HW2 6552   4.220   0.974   0.417
 1885SOL     OW 6553   0.119   1.526   0.577
 1885SOL    HW1 6554   0.087   1.549   0.485
 1885SOL    HW2 6555   0.159   1.608   0.620
 1886SOL     OW 6556   3.537   2.544   6.342
 1886SOL    HW1 6557   3.500   2.611   6.277
 1886SOL    HW2 6558   3.635   2.537   6.329
 1887SOL     OW 6559   0.812   6.409   4.863
 1887SOL    HW1 6560   0.723   6.422   4.906
 1887SOL    HW2 6561   0.874   6.482   4.891
 1888SOL     OW 6562   1.882   1.668   5.298
 1888SOL    HW1 6563   1.798   1.679   5.351
 1888SOL    HW2 6564   1.905   1.753   5.252
 1889SOL     OW 6565   3.061   2.736   0.164
 1889SOL    HW1 6566   3.108   2.653   0.134
 1889SOL    HW2 6567   3.070   2.744   0.264
 1890SOL     OW 6568   6.180   6.301   0.081
 1890SOL    HW1 6569   6.266   6.304   0.030
 1890SOL    HW2 6570   6.104   6.314   0.018
 1891SOL     OW 6571   5.196   3.550   6.832
 1891SOL    HW1 6572   5.273   3.609   6.808
 1891SOL    HW2 6573   5.113   3.583   6.787
 1892SOL     OW 6574   4.267   0.052   2.296
 1892SOL    HW1 6575   4.331   7.001   2.285
 1892SOL    HW2 6576   4.173   0.019   2.279
 1893SOL     OW 6577   3.127   1.543   5.194
 1893SOL    HW1 6578   3.083   1.554   5.105
 1893SOL    HW2 6579   3.086   1.466   5.243
 1894SOL     OW 6580   4.856   3.756   1.372
 1894SOL    HW1 6581   4.854   3.835   1.434
 1894SOL    HW2 6582   4.867   3.789   1.278
 1895SOL     OW 6583   4.509   6.845   3.596
 1895SOL    HW1 6584   4.506   6.939   3.561
 1895SOL    HW2 6585   4.476   6.843   3.690
 1896SOL     OW 6586   6.248   1.935   5.755
 1896SOL    HW1 6587   6.270   1.914   5.660
 1896SOL    HW2 6588   6.267   2.032   5.773
 1897SOL     OW 6589   5.478   5.138   3.333
 1897SOL    HW1 6590   5.434   5.123   3.421
 1897SOL    HW2 6591   5.473   5.235   3.310
 1898SOL     OW 6592   5.995   6.753   6.631
 1898SOL    HW1 6593   5.937   6.681   6.669
 1898SOL    HW2 6594   5.955   6.842   6.650
 1899SOL     OW 6595   1.596   2.381   3.202
 1899SOL    HW1 6596   1.675   2.442   3.210
 1899SOL    HW2 6597   1.626   2.291   3.170
 1900SOL     OW 6598   2.488   6.549   2.343
 1900SOL    HW1 6599   2.455   6.509   2.429
 1900SOL    HW2 6600   2.474   6.648   2.345
 1901SOL     OW 6601   1.419   1.048   6.216
 1901SOL    HW1 6602   1.389   1.114   6.285
 1901SOL    HW2 6603   1.342   1.022   6.158
 1902SOL     OW 6604   1.717   2.320   5.466
 1902SOL    HW1 6605   1.763   2.408   5.466
 1902SOL    HW2 6606   1.730   2.275   5.554
 1903SOL     OW 6607   6.977   4.455   4.127
 1903SOL    HW1 6608   0.046   4.421   4.137
 1903SOL    HW2 6609   6.915   4.394   4.176
 1904SOL     OW 6610   0.338   0.546   4.393
 1904SOL    HW1 6611   0.249   0.591   4.408
 1904SOL    HW2 6612   0.369   0.504   4.479
 1905SOL     OW 6613   6.679   3.028   4.417
 1905SOL    HW1 6614   6.585   3.029   4.449
 1905SOL    HW2 6615   6.685   2.975   4.332
 1906SOL     OW 6616   2.950   5.912   6.440
 1906SOL    HW1 6617   3.001   5.990   6.406
 1906SOL    HW2 6618   2.928   5.926   6.537
 1907SOL     OW 6619   4.163   6.478   3.638
 1907SOL    HW1 6620   4.262   6.475   3.653
 1907SOL    HW2 6621   4.139   6.561   3.589
 1908SOL     OW 6622   4.914   0.151   6.788
 1908SOL    HW1 6623   4.946   0.112   6.702
 1908SOL    HW2 6624   4.852   0.087   6.833
 1909SOL     OW 6625   4.355   4.981   4.611
 1909SOL    HW1 6626   4.402   4.901   4.573
 1909SOL    HW2 6627   4.398   5.065   4.577
 1910SOL     OW 6628   5.189   3.299   4.640
 1910SOL    HW1 6629   5.173   3.376   4.578
 1910SOL    HW2 6630   5.102   3.255   4.661
 1911SOL     OW 6631   0.041   3.371   5.770
 1911SOL    HW1 6632   0.054   3.314   5.851
 1911SOL    HW2 6633   0.093   3.332   5.694
 1912SOL     OW 6634   2.596   5.834   3.302
 1912SOL    HW1 6635   2.568   5.760   3.363
 1912SOL    HW2 6636   2.695   5.847   3.309
 1913SOL     OW 6637   1.164   4.132   5.282
 1913SOL    HW1 6638   1.202   4.134   5.190
 1913SOL    HW2 6639   1.237   4.147   5.349
 1914SOL     OW 6640   4.541   1.372   5.667
 1914SOL    HW1 6641   4.581   1.352   5.756
 1914SOL    HW2 6642   4.502   1.289   5.628
 1915SOL     OW 6643   3.475   0.631   5.273
 1915SOL    HW1 6644   3.417   0.598   5.198
 1915SOL    HW2 6645   3.498   0.727   5.258
 1916SOL     OW 6646   4.324   6.570   2.315
 1916SOL    HW1 6647   4.247   6.610   2.265
 1916SOL    HW2 6648   4.408   6.619   2.292
 1917SOL     OW 6649   3.260   2.937   4.387
 1917SOL    HW1 6650   3.305   2.924   4.298
 1917SOL    HW2 6651   3.297   2.871   4.453
 1918SOL     OW 6652   6.335   6.291   4.711
 1918SOL    HW1 6653   6.327   6.317   4.807
 1918SOL    HW2 6654   6.411   6.340   4.670
 1919SOL     OW 6655   6.702   0.123   1.693
 1919SOL    HW1 6656   6.604   0.105   1.703
 1919SOL    HW2 6657   6.742   0.056   1.630
 1920SOL     OW 6658   6.466   5.973   4.217
 1920SOL    HW1 6659   6.399   5.952   4.288
 1920SOL    HW2 6660   6.481   5.892   4.159
 1921SOL     OW 6661   1.280   0.023   6.529
 1921SOL    HW1 6662   1.204   6.985   6.517
 1921SOL    HW2 6663   1.365   6.997   6.534
 1922SOL     OW 6664   3.468   4.314   1.133
 1922SOL    HW1 6665   3.561   4.346   1.154
 1922SOL    HW2 6666   3.417   4.387   1.089
 1923SOL     OW 6667   2.037   2.984   0.927
 1923SOL    HW1 6668   1.994   2.955   1.012
 1923SOL    HW2 6669   2.118   3.040   0.948
 1924SOL     OW 6670   0.869   3.833   1.859
 1924SOL    HW1 6671   0.789   3.793   1.902
 1924SOL    HW2 6672   0.951   3.804   1.908
 1925SOL     OW 6673   3.800   4.214   0.390
 1925SOL    HW1 6674   3.785   4.119   0.418
 1925SOL    HW2 6675   3.751   4.275   0.453
 1926SOL     OW 6676   0.832   0.297   3.355
 1926SOL    HW1 6677   0.921   0.277   3.312
 1926SOL    HW2 6678   0.786   0.369   3.302
 1927SOL     OW 6679   4.176   3.723   0.540
 1927SOL    HW1 6680   4.211   3.806   0.583
 1927SOL    HW2 6681   4.248   3.653   0.538
 1928SOL     OW 6682   0.266   5.127   5.746
 1928SOL    HW1 6683   0.300   5.072   5.670
 1928SOL    HW2 6684   0.175   5.162   5.723
 1929SOL     OW 6685   2.103   6.616   3.264
 1929SOL    HW1 6686   2.154   6.573   3.190
 1929SOL    HW2 6687   2.023   6.664   3.226
 1930SOL     OW 6688   6.453   4.902   6.984
 1930SOL    HW1 6689   6.455   4.803   6.971
 1930SOL    HW2 6690   6.436   4.947   6.897
 1931SOL     OW 6691   0.635   1.889   5.549
 1931SOL    HW1 6692   0.606   1.985   5.559
 1931SOL    HW2 6693   0.727   1.878   5.588
 1932SOL     OW 6694   5.910   2.976   2.140
 1932SOL    HW1 6695   5.865   2.985   2.229
 1932SOL    HW2 6696   5.880   2.891   2.096
 1933SOL     OW 6697   2.287   4.607   0.785
 1933SOL    HW1 6698   2.243   4.667   0.852
 1933SOL    HW2 6699   2.221   4.538   0.753
 1934SOL     OW 6700   0.235   5.910   4.517
 1934SOL    HW1 6701   0.273   5.975   4.584
 1934SOL    HW2 6702   0.310   5.865   4.468
 1935SOL     OW 6703   2.409   0.952   3.733
 1935SOL    HW1 6704   2.448   0.860   3.725
 1935SOL    HW2 6705   2.332   0.961   3.670
 1936SOL     OW 6706   6.706   6.086   5.708
 1936SOL    HW1 6707   6.693   6.178   5.669
 1936SOL    HW2 6708   6.803   6.064   5.708
 1937SOL     OW 6709   4.612   0.733   3.020
 1937SOL    HW1 6710   4.580   0.787   2.942
 1937SOL    HW2 6711   4.561   0.646   3.023
 1938SOL     OW 6712   4.807   0.651   4.103
 1938SOL    HW1 6713   4.857   0.623   4.020
 1938SOL    HW2 6714   4.783   0.748   4.096
 1939SOL     OW 6715   2.619   0.457   3.355
 1939SOL    HW1 6716   2.619   0.359   3.338
 1939SOL    HW2 6717   2.675   0.477   3.436
 1940SOL     OW 6718   6.483   5.369   6.604
 1940SOL    HW1 6719   6.447   5.338   6.516
 1940SOL    HW2 6720   6.418   5.431   6.647
 1941SOL     OW 6721   5.336   5.087   2.520
 1941SOL    HW1 6722   5.266   5.068   2.450
 1941SOL    HW2 6723   5.326   5.022   2.595
 1942SOL     OW 6724   6.333   4.804   3.174
 1942SOL    HW1 6725   6.249   4.852   3.149
 1942SOL    HW2 6726   6.411   4.866   3.166
 1943SOL     OW 6727   3.081   5.849   2.498
 1943SOL    HW1 6728   3.051   5.754   2.497
 1943SOL    HW2 6729   3.161   5.860   2.440
 1944SOL     OW 6730   6.834   0.060   2.034
 1944SOL    HW1 6731   6.851   0.155   2.010
 1944SOL    HW2 6732   6.911   0.025   2.088
 1945SOL     OW 6733   3.293   4.883   3.953
 1945SOL    HW1 6734   3.204   4.879   3.906
 1945SOL    HW2 6735   3.278   4.895   4.051
 1946SOL     OW 6736   1.921   0.130   0.392
 1946SOL    HW1 6737   2.006   0.177   0.367
 1946SOL    HW2 6738   1.923   0.037   0.355
 1947SOL     OW 6739   5.294   6.748   3.692
 1947SOL    HW1 6740   5.358   6.705   3.755
 1947SOL    HW2 6741   5.285   6.846   3.714
 1948SOL     OW 6742   6.364   4.244   6.092
 1948SOL    HW1 6743   6.336   4.331   6.050
 1948SOL    HW2 6744   6.432   4.200   6.033
 1949SOL     OW 6745   5.400   4.165   6.660
 1949SOL    HW1 6746   5.427   4.100   6.731
 1949SOL    HW2 6747   5.318   4.214   6.689
 1950SOL     OW 6748   2.856   4.670   1.183
 1950SOL    HW1 6749   2.937   4.724   1.159
 1950SOL    HW2 6750   2.848   4.664   1.282
 1951SOL     OW 6751   6.957   2.242   6.931
 1951SOL    HW1 6752   6.890   2.168   6.946
 1951SOL    HW2 6753   6.913   2.330   6.950
 1952SOL     OW 6754   4.028   2.583   5.524
 1952SOL    HW1 6755   4.058   2.499   5.479
 1952SOL    HW2 6756   3.981   2.641   5.459
 1953SOL     OW 6757   0.368   3.291   5.016
 1953SOL    HW1 6758   0.289   3.251   5.063
 1953SOL    HW2 6759   0.404   3.367   5.070
 1954SOL     OW 6760   2.349   2.030   3.713
 1954SOL    HW1 6761   2.262   1.999   3.751
 1954SOL    HW2 6762   2.402   2.078   3.783
 1955SOL     OW 6763   6.395   5.647   1.831
 1955SOL    HW1 6764   6.375   5.675   1.925
 1955SOL    HW2 6765   6.426   5.552   1.830
 1956SOL     OW 6766   5.864   6.690   2.475
 1956SOL    HW1 6767   5.962   6.699   2.495
 1956SOL    HW2 6768   5.844   6.594   2.455
 1957SOL     OW 6769   0.758   6.523   5.701
 1957SOL    HW1 6770   0.842   6.500   5.751
 1957SOL    HW2 6771   0.765   6.616   5.665
 1958SOL     OW 6772   4.732   3.331   5.902
 1958SOL    HW1 6773   4.822   3.354   5.865
 1958SOL    HW2 6774   4.685   3.269   5.839
 1959SOL     OW 6775   2.160   2.435   6.639
 1959SOL    HW1 6776   2.207   2.461   6.724
 1959SOL    HW2 6777   2.147   2.336   6.637
 1960SOL     OW 6778   5.057   6.697   2.121
 1960SOL    HW1 6779   4.981   6.758   2.098
 1960SOL    HW2 6780   5.037   6.605   2.087
 1961SOL     OW 6781   5.681   5.055   4.707
 1961SOL    HW1 6782   5.704   4.980   4.769
 1961SOL    HW2 6783   5.759   5.118   4.700
 1962SOL     OW 6784   6.693   6.644   3.091
 1962SOL    HW1 6785   6.764   6.713   3.081
 1962SOL    HW2 6786   6.608   6.688   3.119
 1963SOL     OW 6787   1.923   0.029   2.998
 1963SOL    HW1 6788   1.892   7.012   2.913
 1963SOL    HW2 6789   1.978   0.111   2.977
 1964SOL     OW 6790   5.330   4.363   2.284
 1964SOL    HW1 6791   5.415   4.411   2.259
 1964SOL    HW2 6792   5.271   4.356   2.204
 1965SOL     OW 6793   2.611   5.346   3.748
 1965SOL    HW1 6794   2.644   5.255   3.725
 1965SOL    HW2 6795   2.515   5.356   3.720
 1966SOL     OW 6796   6.620   5.759   5.992
 1966SOL    HW1 6797   6.655   5.751   6.085
 1966SOL    HW2 6798   6.695   5.752   5.926
 1967SOL     OW 6799   5.296   3.522   4.472
 1967SOL    HW1 6800   5.381   3.472   4.460
 1967SOL    HW2 6801   5.289   3.594   4.402
 1968SOL     OW 6802   3.472   5.220   5.530
 1968SOL    HW1 6803   3.525   5.258   5.454
 1968SOL    HW2 6804   3.484   5.121   5.533
 1969SOL     OW 6805   6.528   2.234   2.039
 1969SOL    HW1 6806   6.443   2.250   2.089
 1969SOL    HW2 6807   6.545   2.312   1.978
 1970SOL     OW 6808   1.678   6.775   3.822
 1970SOL    HW1 6809   1.696   6.842   3.894
 1970SOL    HW2 6810   1.730   6.691   3.841
 1971SOL     OW 6811   0.348   0.126   6.288
 1971SOL    HW1 6812   0.262   0.147   6.241
 1971SOL    HW2 6813   0.425   0.161   6.233
 1972SOL     OW 6814   1.289   5.081   4.156
 1972SOL    HW1 6815   1.225   5.022   4.204
 1972SOL    HW2 6816   1.383   5.055   4.180
 1973SOL     OW 6817   2.690   3.079   0.253
 1973SOL    HW1 6818   2.674   2.998   0.197
 1973SOL    HW2 6819   2.727   3.152   0.195
 1974SOL     OW 6820   6.111   0.570   4.559
 1974SOL    HW1 6821   6.045   0.625   4.509
 1974SOL    HW2 6822   6.110   0.476   4.525
 1975SOL     OW 6823   2.985   1.021   3.830
 1975SOL    HW1 6824   2.991   1.095   3.896
 1975SOL    HW2 6825   2.908   1.037   3.768
 1976SOL     OW 6826   6.925   4.694   0.331
 1976SOL    HW1 6827   6.849   4.734   0.381
 1976SOL    HW2 6828   6.935   4.598   0.355
 1977SOL     OW 6829   2.313   2.683   4.575
 1977SOL    HW1 6830   2.350   2.719   4.661
 1977SOL    HW2 6831   2.217   2.708   4.567
 1978SOL     OW 6832   6.682   1.629   5.032
 1978SOL    HW1 6833   6.661   1.647   5.128
 1978SOL    HW2 6834   6.727   1.540   5.023
 1979SOL     OW 6835   6.052   4.821   3.201
 1979SOL    HW1 6836   5.986   4.747   3.212
 1979SOL    HW2 6837   6.025   4.879   3.123
 1980SOL     OW 6838   4.382   0.463   1.655
 1980SOL    HW1 6839   4.421   0.432   1.742
 1980SOL    HW2 6840   4.375   0.385   1.593
 1981SOL     OW 6841   4.651   3.263   1.720
 1981SOL    HW1 6842   4.632   3.184   1.779
 1981SOL    HW2 6843   4.565   3.311   1.700
 1982SOL     OW 6844   5.922   0.024   5.120
 1982SOL    HW1 6845   5.837   0.060   5.159
 1982SOL    HW2 6846   5.989   0.010   5.193
 1983SOL     OW 6847   0.746   4.138   2.583
 1983SOL    HW1 6848   0.826   4.095   2.542
 1983SOL    HW2 6849   0.689   4.067   2.625
 1984SOL     OW 6850   4.459   0.846   5.501
 1984SOL    HW1 6851   4.525   0.920   5.514
 1984SOL    HW2 6852   4.367   0.883   5.509
 1985SOL     OW 6853   1.419   7.005   1.586
 1985SOL    HW1 6854   1.331   0.028   1.588
 1985SOL    HW2 6855   1.493   0.046   1.598
 1986SOL     OW 6856   1.052   1.909   6.441
 1986SOL    HW1 6857   1.097   1.826   6.409
 1986SOL    HW2 6858   1.089   1.988   6.392
 1987SOL     OW 6859   2.664   3.418   6.924
 1987SOL    HW1 6860   2.659   3.375   6.834
 1987SOL    HW2 6861   2.693   3.514   6.915
 1988SOL     OW 6862   5.000   3.263   0.115
 1988SOL    HW1 6863   4.938   3.338   0.095
 1988SOL    HW2 6864   5.091   3.299   0.137
 1989SOL     OW 6865   2.638   0.462   4.265
 1989SOL    HW1 6866   2.732   0.439   4.292
 1989SOL    HW2 6867   2.594   0.514   4.337
 1990SOL     OW 6868   2.363   1.358   2.781
 1990SOL    HW1 6869   2.429   1.286   2.761
 1990SOL    HW2 6870   2.312   1.381   2.698
 1991SOL     OW 6871   3.862   5.184   4.398
 1991SOL    HW1 6872   3.953   5.162   4.364
 1991SOL    HW2 6873   3.812   5.099   4.414
 1992SOL     OW 6874   2.101   6.880   5.564
 1992SOL    HW1 6875   2.117   6.936   5.481
 1992SOL    HW2 6876   2.108   6.783   5.540
 1993SOL     OW 6877   3.455   2.872   4.615
 1993SOL    HW1 6878   3.473   2.774   4.611
 1993SOL    HW2 6879   3.520   2.915   4.678
 1994SOL     OW 6880   6.005   2.727   2.382
 1994SOL    HW1 6881   6.041   2.686   2.466
 1994SOL    HW2 6882   5.905   2.730   2.387
 1995SOL     OW 6883   4.849   2.652   1.154
 1995SOL    HW1 6884   4.919   2.689   1.093
 1995SOL    HW2 6885   4.772   2.619   1.099
 1996SOL     OW 6886   2.868   4.048   6.345
 1996SOL    HW1 6887   2.926   4.127   6.329
 1996SOL    HW2 6888   2.900   3.998   6.426
 1997SOL     OW 6889   5.240   0.588   4.051
 1997SOL    HW1 6890   5.288   0.676   4.043
 1997SOL    HW2 6891   5.260   0.532   3.970
 1998SOL     OW 6892   3.146   4.847   5.038
 1998SOL    HW1 6893   3.058   4.843   4.991
 1998SOL    HW2 6894   3.139   4.801   5.126
 1999SOL     OW 6895   1.695   1.157   2.438
 1999SOL    HW1 6896   1.789   1.161   2.472
 1999SOL    HW2 6897   1.685   1.220   2.361
 2000SOL     OW 6898   4.173   2.273   4.663
 2000SOL    HW1 6899   4.116   2.268   4.581
 2000SOL    HW2 6900   4.116   2.260   4.744
 2001SOL     OW 6901   2.836   2.975   0.468
 2001SOL    HW1 6902   2.787   3.021   0.394
 2001SOL    HW2 6903   2.780   2.977   0.551
 2002SOL     OW 6904   1.941   4.856   5.008
 2002SOL    HW1 6905   1.990   4.908   5.077
 2002SOL    HW2 6906   2.001   4.787   4.968
 2003SOL     OW 6907   6.325   5.346   3.378
 2003SOL    HW1 6908   6.363   5.412   3.313
 2003SOL    HW2 6909   6.399   5.300   3.426
 2004SOL     OW 6910   3.188   0.439   6.080
 2004SOL    HW1 6911   3.160   0.528   6.042
 2004SOL    HW2 6912   3.277   0.414   6.043
 2005SOL     OW 6913   3.027   6.815   5.549
 2005SOL    HW1 6914   3.066   6.832   5.458
 2005SOL    HW2 6915   3.099   6.786   5.611
 2006SOL     OW 6916   4.120   5.477   3.864
 2006SOL    HW1 6917   4.092   5.395   3.913
 2006SOL    HW2 6918   4.215   5.467   3.833
 2007SOL     OW 6919   6.082   5.126   0.145
 2007SOL    HW1 6920   6.150   5.183   0.099
 2007SOL    HW2 6921   6.124   5.039   0.173
 2008SOL     OW 6922   0.083   5.980   3.726
 2008SOL    HW1 6923   0.011   5.939   3.669
 2008SOL    HW2 6924   0.064   5.962   3.822
 2009SOL     OW 6925   0.586   0.112   1.380
 2009SOL    HW1 6926   0.639   0.065   1.451
 2009SOL    HW2 6927   0.489   0.089   1.390
 2010SOL     OW 6928   1.514   0.196   0.908
 2010SOL    HW1 6929   1.498   0.293   0.893
 2010SOL    HW2 6930   1.554   0.156   0.825
 2011SOL     OW 6931   6.874   2.981   5.363
 2011SOL    HW1 6932   6.842   3.026   5.279
 2011SOL    HW2 6933   6.887   3.050   5.435
 2012SOL     OW 6934   0.492   3.931   1.471
 2012SOL    HW1 6935   0.563   3.993   1.505
 2012SOL    HW2 6936   0.525   3.837   1.475
 2013SOL     OW 6937   4.297   1.299   2.375
 2013SOL    HW1 6938   4.347   1.303   2.289
 2013SOL    HW2 6939   4.341   1.234   2.437
 2014SOL     OW 6940   2.697   5.495   3.361
 2014SOL    HW1 6941   2.789   5.535   3.370
 2014SOL    HW2 6942   2.631   5.555   3.406
 2015SOL     OW 6943   3.297   6.827   6.841
 2015SOL    HW1 6944   3.384   6.849   6.797
 2015SOL    HW2 6945   3.243   6.768   6.781
 2016SOL     OW 6946   6.457   5.206   3.600
 2016SOL    HW1 6947   6.368   5.182   3.641
 2016SOL    HW2 6948   6.489   5.130   3.544
 2017SOL     OW 6949   2.731   6.030   2.010
 2017SOL    HW1 6950   2.820   6.055   2.046
 2017SOL    HW2 6951   2.720   5.930   2.014
 2018SOL     OW 6952   0.726   4.852   6.222
 2018SOL    HW1 6953   0.759   4.770   6.268
 2018SOL    HW2 6954   0.657   4.827   6.154
 2019SOL     OW 6955   5.811   1.697   2.362
 2019SOL    HW1 6956   5.748   1.760   2.407
 2019SOL    HW2 6957   5.819   1.613   2.416
 2020SOL     OW 6958   2.177   5.670   3.189
 2020SOL    HW1 6959   2.122   5.750   3.169
 2020SOL    HW2 6960   2.125   5.587   3.168
 2021SOL     OW 6961   1.108   6.817   1.457
 2021SOL    HW1 6962   1.133   6.900   1.408
 2021SOL    HW2 6963   1.139   6.737   1.405
 2022SOL     OW 6964   2.641   4.275   0.918
 2022SOL    HW1 6965   2.570   4.206   0.925
 2022SOL    HW2 6966   2.603   4.365   0.939
 2023SOL     OW 6967   6.420   1.164   5.997
 2023SOL    HW1 6968   6.416   1.186   5.900
 2023SOL    HW2 6969   6.409   1.065   6.009
 2024SOL     OW 6970   6.249   0.616   3.436
 2024SOL    HW1 6971   6.171   0.678   3.429
 2024SOL    HW2 6972   6.262   0.589   3.531
 2025SOL     OW 6973   0.149   0.926   1.072
 2025SOL    HW1 6974   0.128   0.996   1.140
 2025SOL    HW2 6975   0.232   0.952   1.022
 2026SOL     OW 6976   1.406   1.323   4.910
 2026SOL    HW1 6977   1.381   1.365   4.823
 2026SOL    HW2 6978   1.373   1.380   4.986
 2027SOL     OW 6979   0.020   1.776   2.713
 2027SOL    HW1 6980   6.965   1.725   2.684
 2027SOL    HW2 6981   0.052   1.742   2.802
 2028SOL     OW 6982   4.274   3.394   6.441
 2028SOL    HW1 6983   4.316   3.391   6.350
 2028SOL    HW2 6984   4.310   3.319   6.496
 2029SOL     OW 6985   1.820   0.380   0.453
 2029SOL    HW1 6986   1.846   0.285   0.433
 2029SOL    HW2 6987   1.730   0.381   0.495
 2030SOL     OW 6988   1.092   0.921   2.798
 2030SOL    HW1 6989   1.057   0.906   2.706
 2030SOL    HW2 6990   1.166   0.987   2.796
 2031SOL     OW 6991   4.960   0.082   2.733
 2031SOL    HW1 6992   5.031   0.095   2.802
 2031SOL    HW2 6993   4.870   0.089   2.775
 2032SOL     OW 6994   5.252   6.714   1.575
 2032SOL    HW1 6995   5.247   6.653   1.496
 2032SOL    HW2 6996   5.159   6.744   1.599
 2033SOL     OW 6997   6.099   4.788   6.792
 2033SOL    HW1 6998   6.193   4.806   6.763
 2033SOL    HW2 6999   6.101   4.730   6.874
 2034SOL     OW 7000   2.464   6.778   3.188
 2034SOL    HW1 7001   2.516   6.837   3.250
 2034SOL    HW2 7002   2.477   6.683   3.215
 2035SOL     OW 7003   0.968   3.433   1.905
 2035SOL    HW1 7004   0.934   3.504   1.844
 2035SOL    HW2 7005   1.068   3.428   1.897
 2036SOL     OW 7006   1.713   4.876   0.535
 2036SOL    HW1 7007   1.736   4.790   0.580
 2036SOL    HW2 7008   1.640   4.922   0.587
 2037SOL     OW 7009   6.986   1.178   6.251
 2037SOL    HW1 7010   6.984   1.278   6.244
 2037SOL    HW2 7011   7.001   1.151   6.346
 2038SOL     OW 7012   0.542   0.683   4.666
 2038SOL    HW1 7013   0.610   0.756   4.673
 2038SOL    HW2 7014   0.583   0.597   4.697
 2039SOL     OW 7015   1.153   5.956   2.395
 2039SOL    HW1 7016   1.164   5.987   2.301
 2039SOL    HW2 7017   1.110   6.029   2.449
 2040SOL     OW 7018   3.821   3.461   4.556
 2040SOL    HW1 7019   3.832   3.406   4.638
 2040SOL    HW2 7020   3.905   3.513   4.540
 2041SOL     OW 7021   5.950   4.148   6.411
 2041SOL    HW1 7022   5.965   4.089   6.490
 2041SOL    HW2 7023   5.951   4.244   6.440
 2042SOL     OW 7024   3.987   5.846   0.206
 2042SOL    HW1 7025   3.998   5.792   0.122
 2042SOL    HW2 7026   3.947   5.789   0.277
 2043SOL     OW 7027   4.653   4.607   2.332
 2043SOL    HW1 7028   4.691   4.572   2.417
 2043SOL    HW2 7029   4.723   4.658   2.282
 2044SOL     OW 7030   6.273   0.576   1.986
 2044SOL    HW1 7031   6.363   0.619   1.981
 2044SOL    HW2 7032   6.234   0.572   1.894
 2045SOL     OW 7033   1.498   5.338   6.165
 2045SOL    HW1 7034   1.421   5.298   6.115
 2045SOL    HW2 7035   1.541   5.269   6.223
 2046SOL     OW 7036   6.265   0.609   4.781
 2046SOL    HW1 7037   6.213   0.604   4.695
 2046SOL    HW2 7038   6.275   0.517   4.819
 2047SOL     OW 7039   5.741   2.210   0.148
 2047SOL    HW1 7040   5.747   2.290   0.088
 2047SOL    HW2 7041   5.726   2.241   0.242
 2048SOL     OW 7042   4.421   0.310   5.593
 2048SOL    HW1 7043   4.367   0.374   5.647
 2048SOL    HW2 7044   4.502   0.357   5.558
 2049SOL     OW 7045   4.970   6.947   0.501
 2049SOL    HW1 7046   5.063   6.926   0.469
 2049SOL    HW2 7047   4.975   6.988   0.592
 2050SOL     OW 7048   5.522   2.101   3.961
 2050SOL    HW1 7049   5.593   2.057   3.907
 2050SOL    HW2 7050   5.562   2.135   4.047
 2051SOL     OW 7051   1.889   5.144   0.518
 2051SOL    HW1 7052   1.830   5.150   0.598
 2051SOL    HW2 7053   1.866   5.218   0.454
 2052SOL     OW 7054   1.207   3.408   0.791
 2052SOL    HW1 7055   1.264   3.332   0.821
 2052SOL    HW2 7056   1.224   3.488   0.849
 2053SOL     OW 7057   5.250   0.552   0.521
 2053SOL    HW1 7058   5.281   0.646   0.503
 2053SOL    HW2 7059   5.309   0.511   0.590
 2054SOL     OW 7060   6.556   2.819   1.038
 2054SOL    HW1 7061   6.534   2.723   1.054
 2054SOL    HW2 7062   6.654   2.833   1.049
 2055SOL     OW 7063   6.396   2.707   3.810
 2055SOL    HW1 7064   6.304   2.693   3.772
 2055SOL    HW2 7065   6.421   2.629   3.866
 2056SOL     OW 7066   1.277   0.770   3.115
 2056SOL    HW1 7067   1.355   0.737   3.168
 2056SOL    HW2 7068   1.275   0.870   3.118
 2057SOL     OW 7069   6.963   2.442   4.113
 2057SOL    HW1 7070   6.988   2.423   4.018
 2057SOL    HW2 7071   6.878   2.494   4.115
 2058SOL     OW 7072   0.040   2.468   2.101
 2058SOL    HW1 7073   0.136   2.449   2.121
 2058SOL    HW2 7074   0.013   2.554   2.145
 2059SOL     OW 7075   1.768   1.600   6.851
 2059SOL    HW1 7076   1.813   1.572   6.766
 2059SOL    HW2 7077   1.703   1.529   6.880
 2060SOL     OW 7078   0.607   5.567   2.531
 2060SOL    HW1 7079   0.525   5.519   2.503
 2060SOL    HW2 7080   0.594   5.666   2.521
 2061SOL     OW 7081   6.753   1.348   1.969
 2061SOL    HW1 7082   6.684   1.294   2.017
 2061SOL    HW2 7083   6.709   1.423   1.919
 2062SOL     OW 7084   3.905   0.923   3.194
 2062SOL    HW1 7085   3.991   0.953   3.236
 2062SOL    HW2 7086   3.872   0.841   3.241
 2063SOL     OW 7087   2.509   2.393   6.969
 2063SOL    HW1 7088   2.487   2.298   6.943
 2063SOL    HW2 7089   2.495   2.453   6.890
 2064SOL     OW 7090   0.514   2.309   0.167
 2064SOL    HW1 7091   0.551   2.279   0.255
 2064SOL    HW2 7092   0.451   2.385   0.182
 2065SOL     OW 7093   6.412   2.675   2.116
 2065SOL    HW1 7094   6.492   2.637   2.161
 2065SOL    HW2 7095   6.396   2.628   2.030
 2066SOL     OW 7096   1.840   6.481   4.328
 2066SOL    HW1 7097   1.897   6.562   4.340
 2066SOL    HW2 7098   1.782   6.468   4.408
 2067SOL     OW 7099   7.000   0.132   1.049
 2067SOL    HW1 7100   0.021   0.045   1.034
 2067SOL    HW2 7101   0.029   0.188   1.111
 2068SOL     OW 7102   1.902   1.195   4.770
 2068SOL    HW1 7103   1.817   1.221   4.816
 2068SOL    HW2 7104   1.911   1.246   4.684
 2069SOL     OW 7105   0.217   1.518   2.203
 2069SOL    HW1 7106   0.199   1.615   2.219
 2069SOL    HW2 7107   0.142   1.480   2.149
 2070SOL     OW 7108   0.541   1.290   2.845
 2070SOL    HW1 7109   0.605   1.347   2.793
 2070SOL    HW2 7110   0.531   1.327   2.937
 2071SOL     OW 7111   1.040   6.591   4.368
 2071SOL    HW1 7112   1.043   6.573   4.466
 2071SOL    HW2 7113   1.063   6.507   4.318
 2072SOL     OW 7114   5.130   5.424   1.796
 2072SOL    HW1 7115   5.178   5.445   1.710
 2072SOL    HW2 7116   5.196   5.392   1.864
 2073SOL     OW 7117   2.464   6.780   5.988
 2073SOL    HW1 7118   2.480   6.703   5.925
 2073SOL    HW2 7119   2.390   6.837   5.952
 2074SOL     OW 7120   5.450   1.326   2.185
 2074SOL    HW1 7121   5.438   1.423   2.208
 2074SOL    HW2 7122   5.386   1.301   2.112
 2075SOL     OW 7123   4.646   3.573   6.023
 2075SOL    HW1 7124   4.662   3.503   5.954
 2075SOL    HW2 7125   4.596   3.533   6.100
 2076SOL     OW 7126   4.659   0.369   1.258
 2076SOL    HW1 7127   4.570   0.391   1.217
 2076SOL    HW2 7128   4.688   0.444   1.317
 2077SOL     OW 7129   5.394   1.120   3.050
 2077SOL    HW1 7130   5.298   1.132   3.075
 2077SOL    HW2 7131   5.452   1.156   3.123
 2078SOL     OW 7132   3.608   5.293   5.308
 2078SOL    HW1 7133   3.691   5.241   5.289
 2078SOL    HW2 7134   3.617   5.385   5.269
 2079SOL     OW 7135   5.861   1.523   4.174
 2079SOL    HW1 7136   5.762   1.512   4.182
 2079SOL    HW2 7137   5.906   1.439   4.203
 2080SOL     OW 7138   2.977   2.201   4.235
 2080SOL    HW1 7139   3.055   2.214   4.174
 2080SOL    HW2 7140   3.010   2.198   4.329
 2081SOL     OW 7141   0.444   6.608   5.158
 2081SOL    HW1 7142   0.447   6.704   5.129
 2081SOL    HW2 7143   0.353   6.586   5.191
 2082SOL     OW 7144   5.059   0.548   1.212
 2082SOL    HW1 7145   5.000   0.475   1.178
 2082SOL    HW2 7146   5.137   0.560   1.150
 2083SOL     OW 7147   3.142   5.479   5.496
 2083SOL    HW1 7148   3.215   5.450   5.558
 2083SOL    HW2 7149   3.078   5.538   5.546
 2084SOL     OW 7150   0.048   3.206   2.931
 2084SOL    HW1 7151   0.053   3.136   3.001
 2084SOL    HW2 7152   0.035   3.296   2.973
 2085SOL     OW 7153   5.879   6.723   6.307
 2085SOL    HW1 7154   5.955   6.660   6.322
 2085SOL    HW2 7155   5.905   6.794   6.242
 2086SOL     OW 7156   2.879   4.952   0.657
 2086SOL    HW1 7157   2.826   4.981   0.737
 2086SOL    HW2 7158   2.897   4.854   0.664
 2087SOL     OW 7159   5.284   6.639   3.458
 2087SOL    HW1 7160   5.306   6.671   3.550
 2087SOL    HW2 7161   5.226   6.558   3.465
 2088SOL     OW 7162   3.164   7.019   0.371
 2088SOL    HW1 7163   3.226   6.953   0.412
 2088SOL    HW2 7164   3.112   6.976   0.298
 2089SOL     OW 7165   3.412   0.056   6.591
 2089SOL    HW1 7166   3.403   0.155   6.586
 2089SOL    HW2 7167   3.348   0.013   6.528
 2090SOL     OW 7168   3.315   3.285   4.270
 2090SOL    HW1 7169   3.355   3.332   4.191
 2090SOL    HW2 7170   3.387   3.241   4.323
 2091SOL     OW 7171   2.284   4.922   0.621
 2091SOL    HW1 7172   2.349   4.862   0.573
 2091SOL    HW2 7173   2.197   4.921   0.572
 2092SOL     OW 7174   6.348   5.818   0.767
 2092SOL    HW1 7175   6.420   5.788   0.704
 2092SOL    HW2 7176   6.378   5.802   0.861
 2093SOL     OW 7177   1.236   2.377   1.535
 2093SOL    HW1 7178   1.225   2.280   1.514
 2093SOL    HW2 7179   1.186   2.431   1.468
 2094SOL     OW 7180   6.041   0.123   2.233
 2094SOL    HW1 7181   6.061   0.036   2.278
 2094SOL    HW2 7182   5.957   0.116   2.179
 2095SOL     OW 7183   6.945   4.930   5.041
 2095SOL    HW1 7184   6.896   4.971   5.118
 2095SOL    HW2 7185   6.903   4.960   4.955
 2096SOL     OW 7186   4.675   4.238   2.936
 2096SOL    HW1 7187   4.600   4.277   2.883
 2096SOL    HW2 7188   4.676   4.139   2.926
 2097SOL     OW 7189   0.272   2.594   6.974
 2097SOL    HW1 7190   0.297   2.567   0.042
 2097SOL    HW2 7191   0.202   2.532   6.939
 2098SOL     OW 7192   4.371   0.821   4.243
 2098SOL    HW1 7193   4.275   0.847   4.235
 2098SOL    HW2 7194   4.393   0.751   4.175
 2099SOL     OW 7195   2.988   1.760   4.058
 2099SOL    HW1 7196   2.915   1.696   4.082
 2099SOL    HW2 7197   3.032   1.730   3.973
 2100SOL     OW 7198   4.088   4.250   6.707
 2100SOL    HW1 7199   4.114   4.303   6.787
 2100SOL    HW2 7200   4.136   4.284   6.626
 2101SOL     OW 7201   0.316   0.216   3.356
 2101SOL    HW1 7202   0.294   0.191   3.262
 2101SOL    HW2 7203   0.289   0.310   3.373
 2102SOL     OW 7204   0.154   4.975   2.031
 2102SOL    HW1 7205   0.108   4.887   2.035
 2102SOL    HW2 7206   0.103   5.043   2.083
 2103SOL     OW 7207   3.017   3.929   6.600
 2103SOL    HW1 7208   3.100   3.874   6.603
 2103SOL    HW2 7209   2.939   3.875   6.631
 2104SOL     OW 7210   1.288   3.811   5.283
 2104SOL    HW1 7211   1.363   3.808   5.348
 2104SOL    HW2 7212   1.315   3.867   5.204
 2105SOL     OW 7213   6.111   5.493   1.502
 2105SOL    HW1 7214   6.012   5.476   1.496
 2105SOL    HW2 7215   6.128   5.561   1.573
 2106SOL     OW 7216   5.194   5.401   6.863
 2106SOL    HW1 7217   5.156   5.434   6.950
 2106SOL    HW2 7218   5.284   5.361   6.879
 2107SOL     OW 7219   3.889   4.318   6.375
 2107SOL    HW1 7220   3.856   4.227   6.348
 2107SOL    HW2 7221   3.981   4.331   6.339
 2108SOL     OW 7222   5.163   5.202   5.773
 2108SOL    HW1 7223   5.180   5.300   5.777
 2108SOL    HW2 7224   5.240   5.156   5.727
 2109SOL     OW 7225   5.705   0.348   2.745
 2109SOL    HW1 7226   5.732   0.323   2.653
 2109SOL    HW2 7227   5.786   0.376   2.797
 2110SOL     OW 7228   2.330   5.164   5.986
 2110SOL    HW1 7229   2.406   5.160   6.050
 2110SOL    HW2 7230   2.275   5.080   5.994
 2111SOL     OW 7231   1.398   2.855   6.963
 2111SOL    HW1 7232   1.348   2.789   6.907
 2111SOL    HW2 7233   1.338   2.890   0.010
 2112SOL     OW 7234   4.712   3.202   1.341
 2112SOL    HW1 7235   4.775   3.188   1.418
 2112SOL    HW2 7236   4.656   3.283   1.359
 2113SOL     OW 7237   6.804   1.035   3.048
 2113SOL    HW1 7238   6.768   0.957   3.100
 2113SOL    HW2 7239   6.828   1.004   2.956
 2114SOL     OW 7240   2.069   4.180   0.067
 2114SOL    HW1 7241   2.085   4.174   0.166
 2114SOL    HW2 7242   2.091   4.273   0.036
 2115SOL     OW 7243   2.783   4.702   2.523
 2115SOL    HW1 7244   2.716   4.683   2.452
 2115SOL    HW2 7245   2.876   4.694   2.486
 2116SOL     OW 7246   0.156   4.099   3.272
 2116SOL    HW1 7247   0.068   4.074   3.312
 2116SOL    HW2 7248   0.209   4.016   3.254
 2117SOL     OW 7249   0.193   4.629   1.058
 2117SOL    HW1 7250   0.113   4.666   1.105
 2117SOL    HW2 7251   0.220   4.691   0.985
 2118SOL     OW 7252   6.532   3.737   2.386
 2118SOL    HW1 7253   6.630   3.746   2.405
 2118SOL    HW2 7254   6.518   3.714   2.290
 2119SOL     OW 7255   2.494   6.019   1.235
 2119SOL    HW1 7256   2.539   6.104   1.263
 2119SOL    HW2 7257   2.396   6.026   1.251
 2120SOL     OW 7258   7.013   5.171   2.162
 2120SOL    HW1 7259   6.937   5.177   2.227
 2120SOL    HW2 7260   0.027   5.262   2.148
 2121SOL     OW 7261   0.677   4.952   4.757
 2121SOL    HW1 7262   0.663   4.853   4.745
 2121SOL    HW2 7263   0.670   4.974   4.854
 2122SOL     OW 7264   4.663   4.252   4.803
 2122SOL    HW1 7265   4.596   4.183   4.830
 2122SOL    HW2 7266   4.668   4.324   4.873
 2123SOL     OW 7267   6.145   4.759   3.492
 2123SOL    HW1 7268   6.237   4.721   3.492
 2123SOL    HW2 7269   6.126   4.801   3.403
 2124SOL     OW 7270   2.724   1.681   0.715
 2124SOL    HW1 7271   2.625   1.686   0.702
 2124SOL    HW2 7272   2.758   1.768   0.748
 2125SOL     OW 7273   3.238   6.805   0.912
 2125SOL    HW1 7274   3.211   6.739   0.842
 2125SOL    HW2 7275   3.170   6.877   0.919
 2126SOL     OW 7276   2.889   0.745   1.328
 2126SOL    HW1 7277   2.917   0.682   1.400
 2126SOL    HW2 7278   2.821   0.809   1.365
 2127SOL     OW 7279   5.094   3.416   5.298
 2127SOL    HW1 7280   5.052   3.336   5.341
 2127SOL    HW2 7281   5.054   3.499   5.337
 2128SOL     OW 7282   0.669   5.223   4.077
 2128SOL    HW1 7283   0.717   5.169   4.146
 2128SOL    HW2 7284   0.584   5.259   4.115
 2129SOL     OW 7285   4.090   1.789   5.781
 2129SOL    HW1 7286   3.991   1.801   5.774
 2129SOL    HW2 7287   4.137   1.856   5.724
 2130SOL     OW 7288   4.252   6.126   3.149
 2130SOL    HW1 7289   4.261   6.220   3.182
 2130SOL    HW2 7290   4.306   6.114   3.066
 2131SOL     OW 7291   6.517   2.081   6.975
 2131SOL    HW1 7292   6.547   2.151   0.014
 2131SOL    HW2 7293   6.417   2.072   6.979
 2132SOL     OW 7294   2.384   3.171   0.478
 2132SOL    HW1 7295   2.445   3.121   0.540
 2132SOL    HW2 7296   2.337   3.243   0.529
 2133SOL     OW 7297   2.879   2.946   5.813
 2133SOL    HW1 7298   2.824   3.028   5.799
 2133SOL    HW2 7299   2.853   2.877   5.745
 2134SOL     OW 7300   1.004   6.916   1.168
 2134SOL    HW1 7301   0.930   6.951   1.111
 2134SOL    HW2 7302   1.092   6.946   1.130
 2135SOL     OW 7303   0.293   3.838   4.036
 2135SOL    HW1 7304   0.385   3.873   4.023
 2135SOL    HW2 7305   0.297   3.742   4.066
 2136SOL     OW 7306   2.313   5.202   1.524
 2136SOL    HW1 7307   2.222   5.195   1.566
 2136SOL    HW2 7308   2.345   5.296   1.531
 2137SOL     OW 7309   2.215   5.577   4.178
 2137SOL    HW1 7310   2.181   5.633   4.254
 2137SOL    HW2 7311   2.282   5.512   4.211
 2138SOL     OW 7312   5.026   1.435   1.846
 2138SOL    HW1 7313   5.094   1.503   1.819
 2138SOL    HW2 7314   5.036   1.415   1.943
 2139SOL     OW 7315   2.686   0.947   5.370
 2139SOL    HW1 7316   2.647   0.873   5.315
 2139SOL    HW2 7317   2.776   0.972   5.333
 2140SOL     OW 7318   2.277   0.834   5.211
 2140SOL    HW1 7319   2.251   0.906   5.147
 2140SOL    HW2 7320   2.341   0.870   5.279
 2141SOL     OW 7321   6.394   4.394   2.627
 2141SOL    HW1 7322   6.351   4.461   2.687
 2141SOL    HW2 7323   6.433   4.440   2.547
 2142SOL     OW 7324   1.537   1.901   2.833
 2142SOL    HW1 7325   1.486   1.906   2.747
 2142SOL    HW2 7326   1.490   1.956   2.902
 2143SOL     OW 7327   1.472   4.890   0.181
 2143SOL    HW1 7328   1.439   4.860   0.271
 2143SOL    HW2 7329   1.570   4.908   0.186
 2144SOL     OW 7330   6.013   5.362   4.225
 2144SOL    HW1 7331   6.056   5.452   4.218
 2144SOL    HW2 7332   6.073   5.293   4.182
 2145SOL     OW 7333   3.937   0.151   3.543
 2145SOL    HW1 7334   3.850   0.115   3.576
 2145SOL    HW2 7335   3.941   0.250   3.559
 2146SOL     OW 7336   1.914   2.808   0.349
 2146SOL    HW1 7337   1.914   2.749   0.430
 2146SOL    HW2 7338   2.008   2.824   0.320
 2147SOL     OW 7339   5.963   0.777   4.457
 2147SOL    HW1 7340   5.912   0.748   4.377
 2147SOL    HW2 7341   5.967   0.877   4.459
 2148SOL     OW 7342   0.486   3.465   6.469
 2148SOL    HW1 7343   0.432   3.400   6.415
 2148SOL    HW2 7344   0.500   3.549   6.417
 2149SOL     OW 7345   0.565   0.111   0.355
 2149SOL    HW1 7346   0.521   0.170   0.288
 2149SOL    HW2 7347   0.599   0.028   0.311
 2150SOL     OW 7348   1.823   3.265   1.336
 2150SOL    HW1 7349   1.761   3.331   1.378
 2150SOL    HW2 7350   1.915   3.304   1.331
 2151SOL     OW 7351   1.376   5.960   0.321
 2151SOL    HW1 7352   1.460   6.010   0.341
 2151SOL    HW2 7353   1.334   5.929   0.407
 2152SOL     OW 7354   4.480   5.745   4.518
 2152SOL    HW1 7355   4.485   5.740   4.418
 2152SOL    HW2 7356   4.400   5.799   4.544
 2153SOL     OW 7357   4.349   1.374   3.353
 2153SOL    HW1 7358   4.377   1.289   3.306
 2153SOL    HW2 7359   4.407   1.449   3.323
 2154SOL     OW 7360   3.159   0.236   3.374
 2154SOL    HW1 7361   3.198   0.176   3.445
 2154SOL    HW2 7362   3.233   0.268   3.314
 2155SOL     OW 7363   4.533   0.392   0.780
 2155SOL    HW1 7364   4.455   0.436   0.823
 2155SOL    HW2 7365   4.612   0.453   0.785
 2156SOL     OW 7366   5.529   1.439   4.829
 2156SOL    HW1 7367   5.516   1.500   4.907
 2156SOL    HW2 7368   5.590   1.364   4.854
 2157SOL     OW 7369   3.229   6.155   3.994
 2157SOL    HW1 7370   3.141   6.166   3.949
 2157SOL    HW2 7371   3.283   6.086   3.945
 2158SOL     OW 7372   3.629   0.308   0.124
 2158SOL    HW1 7373   3.603   0.398   0.161
 2158SOL    HW2 7374   3.562   0.240   0.152
 2159SOL     OW 7375   0.619   0.671   5.527
 2159SOL    HW1 7376   0.563   0.630   5.598
 2159SOL    HW2 7377   0.594   0.767   5.516
 2160SOL     OW 7378   5.957   6.628   0.319
 2160SOL    HW1 7379   6.004   6.624   0.231
 2160SOL    HW2 7380   5.991   6.706   0.371
 2161SOL     OW 7381   0.974   2.762   1.888
 2161SOL    HW1 7382   0.975   2.741   1.790
 2161SOL    HW2 7383   0.989   2.860   1.901
 2162SOL     OW 7384   0.858   0.430   1.486
 2162SOL    HW1 7385   0.921   0.502   1.514
 2162SOL    HW2 7386   0.875   0.406   1.390
 2163SOL     OW 7387   1.912   3.372   2.529
 2163SOL    HW1 7388   1.908   3.298   2.463
 2163SOL    HW2 7389   1.821   3.386   2.569
 2164SOL     OW 7390   1.969   2.871   2.645
 2164SOL    HW1 7391   2.068   2.866   2.635
 2164SOL    HW2 7392   1.946   2.873   2.742
 2165SOL     OW 7393   6.873   1.718   3.794
 2165SOL    HW1 7394   6.910   1.810   3.784
 2165SOL    HW2 7395   6.925   1.654   3.736
 2166SOL     OW 7396   6.922   4.216   2.881
 2166SOL    HW1 7397   7.006   4.162   2.888
 2166SOL    HW2 7398   6.904   4.260   2.969
 2167SOL     OW 7399   2.617   1.688   3.517
 2167SOL    HW1 7400   2.684   1.746   3.563
 2167SOL    HW2 7401   2.562   1.743   3.454
 2168SOL     OW 7402   1.452   2.020   3.074
 2168SOL    HW1 7403   1.530   2.072   3.107
 2168SOL    HW2 7404   1.369   2.076   3.080
 2169SOL     OW 7405   0.776   6.956   1.519
 2169SOL    HW1 7406   0.829   6.958   1.603
 2169SOL    HW2 7407   0.828   6.908   1.448
 2170SOL     OW 7408   1.134   3.637   5.865
 2170SOL    HW1 7409   1.168   3.728   5.842
 2170SOL    HW2 7410   1.034   3.638   5.863
 2171SOL     OW 7411   0.762   5.472   1.692
 2171SOL    HW1 7412   0.813   5.499   1.774
 2171SOL    HW2 7413   0.664   5.483   1.708
 2172SOL     OW 7414   1.293   1.370   4.670
 2172SOL    HW1 7415   1.226   1.320   4.615
 2172SOL    HW2 7416   1.374   1.390   4.614
 2173SOL     OW 7417   6.382   0.263   5.284
 2173SOL    HW1 7418   6.292   0.254   5.242
 2173SOL    HW2 7419   6.423   0.350   5.259
 2174SOL     OW 7420   6.704   6.632   5.807
 2174SOL    HW1 7421   6.776   6.664   5.746
 2174SOL    HW2 7422   6.622   6.612   5.755
 2175SOL     OW 7423   2.654   3.987   5.406
 2175SOL    HW1 7424   2.668   4.085   5.417
 2175SOL    HW2 7425   2.627   3.947   5.494
 2176SOL     OW 7426   5.488   2.505   1.540
 2176SOL    HW1 7427   5.538   2.419   1.552
 2176SOL    HW2 7428   5.436   2.502   1.454
 2177SOL     OW 7429   0.416   0.350   4.025
 2177SOL    HW1 7430   0.383   0.322   3.935
 2177SOL    HW2 7431   0.501   0.402   4.014
 2178SOL     OW 7432   0.617   2.071   2.548
 2178SOL    HW1 7433   0.584   2.029   2.632
 2178SOL    HW2 7434   0.641   2.000   2.482
 2179SOL     OW 7435   1.418   3.944   6.131
 2179SOL    HW1 7436   1.387   3.987   6.046
 2179SOL    HW2 7437   1.401   3.846   6.127
 2180SOL     OW 7438   0.721   6.418   2.392
 2180SOL    HW1 7439   0.814   6.453   2.404
 2180SOL    HW2 7440   0.723   6.336   2.336
 2181SOL     OW 7441   3.506   4.973   4.269
 2181SOL    HW1 7442   3.430   4.908   4.262
 2181SOL    HW2 7443   3.469   5.066   4.279
 2182SOL     OW 7444   0.213   5.730   2.307
 2182SOL    HW1 7445   0.205   5.827   2.328
 2182SOL    HW2 7446   0.187   5.714   2.212
 2183SOL     OW 7447   3.407   2.742   6.879
 2183SOL    HW1 7448   3.384   2.645   6.893
 2183SOL    HW2 7449   3.330   2.787   6.833
 2184SOL     OW 7450   6.396   1.374   6.802
 2184SOL    HW1 7451   6.477   1.382   6.859
 2184SOL    HW2 7452   6.367   1.465   6.772
 2185SOL     OW 7453   0.638   6.933   6.662
 2185SOL    HW1 7454   0.686   6.847   6.673
 2185SOL    HW2 7455   0.565   6.923   6.595
 2186SOL     OW 7456   6.792   4.478   5.590
 2186SOL    HW1 7457   6.765   4.497   5.495
 2186SOL    HW2 7458   6.890   4.457   5.593
 2187SOL     OW 7459   0.669   5.831   3.078
 2187SOL    HW1 7460   0.759   5.812   3.119
 2187SOL    HW2 7461   0.643   5.754   3.020
 2188SOL     OW 7462   2.623   0.065   0.812
 2188SOL    HW1 7463   2.575   0.151   0.799
 2188SOL    HW2 7464   2.609   0.033   0.906
 2189SOL     OW 7465   2.419   1.337   1.567
 2189SOL    HW1 7466   2.390   1.419   1.518
 2189SOL    HW2 7467   2.466   1.364   1.652
 2190SOL     OW 7468   6.427   3.982   2.429
 2190SOL    HW1 7469   6.342   3.990   2.376
 2190SOL    HW2 7470   6.469   3.894   2.409
 2191SOL     OW 7471   2.893   0.164   6.928
 2191SOL    HW1 7472   2.833   0.188   7.005
 2191SOL    HW2 7473   2.880   0.068   6.904
 2192SOL     OW 7474   4.893   1.521   1.002
 2192SOL    HW1 7475   4.937   1.541   0.915
 2192SOL    HW2 7476   4.962   1.490   1.068
 2193SOL     OW 7477   1.531   6.343   6.101
 2193SOL    HW1 7478   1.460   6.413   6.090
 2193SOL    HW2 7479   1.596   6.350   6.025
 2194SOL     OW 7480   1.073   3.449   6.199
 2194SOL    HW1 7481   1.011   3.527   6.187
 2194SOL    HW2 7482   1.073   3.394   6.115
 2195SOL     OW 7483   0.366   3.789   5.982
 2195SOL    HW1 7484   0.450   3.826   5.942
 2195SOL    HW2 7485   0.303   3.761   5.909
 2196SOL     OW 7486   2.924   0.292   5.876
 2196SOL    HW1 7487   2.887   0.254   5.960
 2196SOL    HW2 7488   2.881   0.379   5.856
 2197SOL     OW 7489   2.852   5.279   5.723
 2197SOL    HW1 7490   2.832   5.188   5.759
 2197SOL    HW2 7491   2.767   5.326   5.701
 2198SOL     OW 7492   0.376   0.371   6.853
 2198SOL    HW1 7493   0.301   0.310   6.878
 2198SOL    HW2 7494   0.423   0.336   6.772
 2199SOL     OW 7495   4.003   6.482   4.803
 2199SOL    HW1 7496   4.017   6.387   4.776
 2199SOL    HW2 7497   4.084   6.516   4.850
 2200SOL     OW 7498   2.504   2.163   3.886
 2200SOL    HW1 7499   2.523   2.138   3.980
 2200SOL    HW2 7500   2.558   2.244   3.862
 2201SOL     OW 7501   6.397   4.244   3.866
 2201SOL    HW1 7502   6.446   4.175   3.813
 2201SOL    HW2 7503   6.309   4.264   3.823
 2202SOL     OW 7504   3.461   6.425   2.373
 2202SOL    HW1 7505   3.561   6.423   2.379
 2202SOL    HW2 7506   3.431   6.362   2.301
 2203SOL     OW 7507   2.083   3.439   0.698
 2203SOL    HW1 7508   2.003   3.391   0.733
 2203SOL    HW2 7509   2.056   3.530   0.665
 2204SOL     OW 7510   5.385   3.494   0.920
 2204SOL    HW1 7511   5.440   3.426   0.872
 2204SOL    HW2 7512   5.318   3.448   0.979
 2205SOL     OW 7513   0.546   4.757   0.421
 2205SOL    HW1 7514   0.629   4.778   0.474
 2205SOL    HW2 7515   0.502   4.676   0.461
 2206SOL     OW 7516   3.125   2.210   6.187
 2206SOL    HW1 7517   3.187   2.134   6.203
 2206SOL    HW2 7518   3.066   2.190   6.109
 2207SOL     OW 7519   4.977   6.386   1.092
 2207SOL    HW1 7520   5.052   6.343   1.142
 2207SOL    HW2 7521   4.892   6.339   1.114
 2208SOL     OW 7522   0.182   5.679   3.960
 2208SOL    HW1 7523   0.231   5.737   3.895
 2208SOL    HW2 7524   0.087   5.709   3.967
 2209SOL     OW 7525   3.131   5.755   4.112
 2209SOL    HW1 7526   3.110   5.740   4.209
 2209SOL    HW2 7527   3.059   5.812   4.072
 2210SOL     OW 7528   4.611   0.149   0.951
 2210SOL    HW1 7529   4.675   0.088   0.904
 2210SOL    HW2 7530   4.594   0.230   0.894
 2211SOL     OW 7531   6.741   1.490   1.067
 2211SOL    HW1 7532   6.826   1.540   1.056
 2211SOL    HW2 7533   6.756   1.393   1.050
 2212SOL     OW 7534   2.544   5.991   6.770
 2212SOL    HW1 7535   2.450   6.022   6.787
 2212SOL    HW2 7536   2.556   5.971   6.673
 2213SOL     OW 7537   3.566   2.015   4.608
 2213SOL    HW1 7538   3.516   2.073   4.672
 2213SOL    HW2 7539   3.662   2.045   4.605
 2214SOL     OW 7540   4.315   3.665   6.825
 2214SOL    HW1 7541   4.321   3.669   6.725
 2214SOL    HW2 7542   4.289   3.754   6.860
 2215SOL     OW 7543   4.524   6.916   6.880
 2215SOL    HW1 7544   4.442   6.872   6.842
 2215SOL    HW2 7545   4.603   6.895   6.822
 2216SOL     OW 7546   0.586   6.742   6.335
 2216SOL    HW1 7547   0.529   6.761   6.414
 2216SOL    HW2 7548   0.676   6.710   6.365
 2217SOL     OW 7549   3.701   0.567   3.681
 2217SOL    HW1 7550   3.640   0.615   3.745
 2217SOL    HW2 7551   3.786   0.618   3.672
 2218SOL     OW 7552   0.572   5.803   5.831
 2218SOL    HW1 7553   0.504   5.854   5.777
 2218SOL    HW2 7554   0.639   5.866   5.869
 2219SOL     OW 7555   5.833   1.041   0.509
 2219SOL    HW1 7556   5.764   0.991   0.560
 2219SOL    HW2 7557   5.790   1.086   0.430
 2220SOL     OW 7558   0.910   6.018   5.471
 2220SOL    HW1 7559   0.880   6.062   5.386
 2220SOL    HW2 7560   0.979   5.949   5.450
 2221SOL     OW 7561   6.517   0.981   4.106
 2221SOL    HW1 7562   6.612   1.006   4.090
 2221SOL    HW2 7563   6.473   1.051   4.162
 2222SOL     OW 7564   4.662   6.261   1.988
 2222SOL    HW1 7565   4.611   6.280   2.072
 2222SOL    HW2 7566   4.758   6.282   2.002
 2223SOL     OW 7567   6.989   5.908   5.332
 2223SOL    HW1 7568   6.905   5.931   5.282
 2223SOL    HW2 7569   0.032   5.980   5.318
 2224SOL     OW 7570   5.702   4.064   0.719
 2224SOL    HW1 7571   5.638   4.073   0.795
 2224SOL    HW2 7572   5.783   4.015   0.749
 2225SOL     OW 7573   0.533   6.614   2.836
 2225SOL    HW1 7574   0.585   6.672   2.899
 2225SOL    HW2 7575   0.469   6.558   2.888
 2226SOL     OW 7576   2.254   5.362   0.781
 2226SOL    HW1 7577   2.216   5.324   0.697
 2226SOL    HW2 7578   2.234   5.301   0.858
 2227SOL     OW 7579   4.019   2.050   1.750
 2227SOL    HW1 7580   3.995   1.959   1.715
 2227SOL    HW2 7581   3.936   2.105   1.757
 2228SOL     OW 7582   5.349   4.770   6.948
 2228SOL    HW1 7583   5.447   4.780   6.962
 2228SOL    HW2 7584   5.321   4.678   6.976
 2229SOL     OW 7585   3.700   3.390   4.020
 2229SOL    HW1 7586   3.713   3.362   3.925
 2229SOL    HW2 7587   3.685   3.309   4.077
 2230SOL     OW 7588   5.600   0.194   0.895
 2230SOL    HW1 7589   5.678   0.221   0.838
 2230SOL    HW2 7590   5.597   0.095   0.903
 2231SOL     OW 7591   1.433   0.301   6.940
 2231SOL    HW1 7592   1.457   0.269   6.848
 2231SOL    HW2 7593   1.371   0.379   6.933
 2232SOL     OW 7594   1.134   0.852   5.521
 2232SOL    HW1 7595   1.102   0.944   5.497
 2232SOL    HW2 7596   1.138   0.843   5.620
 2233SOL     OW 7597   2.906   4.089   0.435
 2233SOL    HW1 7598   2.888   4.131   0.524
 2233SOL    HW2 7599   2.905   4.160   0.364
 2234SOL     OW 7600   4.612   1.744   1.240
 2234SOL    HW1 7601   4.629   1.665   1.182
 2234SOL    HW2 7602   4.673   1.819   1.213
 2235SOL     OW 7603   1.725   1.580   3.118
 2235SOL    HW1 7604   1.793   1.614   3.053
 2235SOL    HW2 7605   1.698   1.653   3.181
 2236SOL     OW 7606   1.981   4.212   5.317
 2236SOL    HW1 7607   1.985   4.301   5.272
 2236SOL    HW2 7608   1.890   4.172   5.305
 2237SOL     OW 7609   6.726   5.097   5.489
 2237SOL    HW1 7610   6.766   5.184   5.457
 2237SOL    HW2 7611   6.780   5.021   5.453
 2238SOL     OW 7612   5.227   4.349   1.915
 2238SOL    HW1 7613   5.326   4.347   1.903
 2238SOL    HW2 7614   5.182   4.328   1.828
 2239SOL     OW 7615   3.986   6.824   3.305
 2239SOL    HW1 7616   3.889   6.833   3.326
 2239SOL    HW2 7617   3.998   6.798   3.209
 2240SOL     OW 7618   4.961   5.195   3.439
 2240SOL    HW1 7619   5.015   5.124   3.395
 2240SOL    HW2 7620   4.950   5.273   3.377
 2241SOL     OW 7621   0.397   0.555   1.814
 2241SOL    HW1 7622   0.401   0.563   1.715
 2241SOL    HW2 7623   0.345   0.473   1.839
 2242SOL     OW 7624   4.965   3.301   3.373
 2242SOL    HW1 7625   4.975   3.392   3.335
 2242SOL    HW2 7626   4.924   3.240   3.305
 2243SOL     OW 7627   1.210   6.034   0.688
 2243SOL    HW1 7628   1.214   6.092   0.769
 2243SOL    HW2 7629   1.170   6.085   0.612
 2244SOL     OW 7630   2.797   6.997   0.157
 2244SOL    HW1 7631   2.759   6.906   0.175
 2244SOL    HW2 7632   2.751   0.040   0.215
 2245SOL     OW 7633   0.416   0.195   0.114
 2245SOL    HW1 7634   0.330   0.148   0.133
 2245SOL    HW2 7635   0.396   0.290   0.087
 2246SOL     OW 7636   2.013   0.867   5.341
 2246SOL    HW1 7637   2.100   0.852   5.294
 2246SOL    HW2 7638   2.030   0.917   5.426
 2247SOL     OW 7639   2.998   3.938   2.664
 2247SOL    HW1 7640   2.908   3.978   2.684
 2247SOL    HW2 7641   2.989   3.838   2.659
 2248SOL     OW 7642   5.113   4.156   5.267
 2248SOL    HW1 7643   5.127   4.059   5.248
 2248SOL    HW2 7644   5.091   4.204   5.181
 2249SOL     OW 7645   1.806   6.509   3.894
 2249SOL    HW1 7646   1.882   6.472   3.948
 2249SOL    HW2 7647   1.842   6.551   3.811
 2250SOL     OW 7648   4.423   4.226   6.474
 2250SOL    HW1 7649   4.487   4.302   6.461
 2250SOL    HW2 7650   4.329   4.262   6.478
 2251SOL     OW 7651   5.587   6.920   5.518
 2251SOL    HW1 7652   5.508   6.970   5.555
 2251SOL    HW2 7653   5.661   6.921   5.584
 2252SOL     OW 7654   4.288   1.491   2.689
 2252SOL    HW1 7655   4.317   1.499   2.785
 2252SOL    HW2 7656   4.208   1.432   2.683
 2253SOL     OW 7657   0.616   3.617   0.586
 2253SOL    HW1 7658   0.575   3.610   0.495
 2253SOL    HW2 7659   0.647   3.710   0.602
 2254SOL     OW 7660   3.701   3.425   2.969
 2254SOL    HW1 7661   3.734   3.379   2.887
 2254SOL    HW2 7662   3.775   3.430   3.037
 2255SOL     OW 7663   3.238   3.758   5.910
 2255SOL    HW1 7664   3.232   3.857   5.904
 2255SOL    HW2 7665   3.150   3.720   5.939
 2256SOL     OW 7666   4.843   6.866   2.013
 2256SOL    HW1 7667   4.932   6.891   1.973
 2256SOL    HW2 7668   4.774   6.933   1.986
 2257SOL     OW 7669   0.288   1.362   4.831
 2257SOL    HW1 7670   0.273   1.461   4.843
 2257SOL    HW2 7671   0.239   1.312   4.902
 2258SOL     OW 7672   2.891   6.075   3.855
 2258SOL    HW1 7673   2.863   6.057   3.761
 2258SOL    HW2 7674   2.855   6.164   3.884
 2259SOL     OW 7675   6.229   2.205   4.472
 2259SOL    HW1 7676   6.316   2.245   4.501
 2259SOL    HW2 7677   6.246   2.125   4.414
 2260SOL     OW 7678   1.295   3.849   1.628
 2260SOL    HW1 7679   1.261   3.757   1.648
 2260SOL    HW2 7680   1.218   3.908   1.604
 2261SOL     OW 7681   5.779   3.820   6.715
 2261SOL    HW1 7682   5.727   3.832   6.630
 2261SOL    HW2 7683   5.829   3.734   6.712
 2262SOL     OW 7684   6.495   0.030   4.526
 2262SOL    HW1 7685   6.458   0.031   4.433
 2262SOL    HW2 7686   6.479   6.966   4.568
 2263SOL     OW 7687   1.378   4.667   0.049
 2263SOL    HW1 7688   1.419   4.752   0.083
 2263SOL    HW2 7689   1.298   4.689   7.017
 2264SOL     OW 7690   1.771   0.091   5.667
 2264SOL    HW1 7691   1.745   7.020   5.682
 2264SOL    HW2 7692   1.707   0.150   5.715
 2265SOL     OW 7693   0.570   6.169   4.481
 2265SOL    HW1 7694   0.568   6.254   4.428
 2265SOL    HW2 7695   0.595   6.093   4.421
 2266SOL     OW 7696   4.598   1.888   6.614
 2266SOL    HW1 7697   4.557   1.797   6.619
 2266SOL    HW2 7698   4.588   1.924   6.521
 2267SOL     OW 7699   4.840   3.056   4.264
 2267SOL    HW1 7700   4.744   3.084   4.261
 2267SOL    HW2 7701   4.858   2.990   4.191
 2268SOL     OW 7702   0.258   4.814   6.045
 2268SOL    HW1 7703   0.160   4.812   6.066
 2268SOL    HW2 7704   0.298   4.725   6.065
 2269SOL     OW 7705   2.135   2.853   5.108
 2269SOL    HW1 7706   2.191   2.807   5.177
 2269SOL    HW2 7707   2.186   2.929   5.067
 2270SOL     OW 7708   4.838   1.681   6.040
 2270SOL    HW1 7709   4.914   1.630   6.081
 2270SOL    HW2 7710   4.839   1.667   5.941
 2271SOL     OW 7711   5.473   5.020   5.860
 2271SOL    HW1 7712   5.517   4.930   5.859
 2271SOL    HW2 7713   5.433   5.038   5.770
 2272SOL     OW 7714   5.575   1.058   6.105
 2272SOL    HW1 7715   5.581   1.145   6.154
 2272SOL    HW2 7716   5.665   1.014   6.105
 2273SOL     OW 7717   1.654   2.811   2.029
 2273SOL    HW1 7718   1.640   2.787   1.933
 2273SOL    HW2 7719   1.742   2.775   2.060
 2274SOL     OW 7720   0.489   1.004   6.755
 2274SOL    HW1 7721   0.394   0.976   6.738
 2274SOL    HW2 7722   0.519   0.967   6.843
 2275SOL     OW 7723   5.636   5.055   2.498
 2275SOL    HW1 7724   5.634   5.064   2.398
 2275SOL    HW2 7725   5.543   5.055   2.534
 2276SOL     OW 7726   1.444   1.706   1.035
 2276SOL    HW1 7727   1.362   1.675   0.987
 2276SOL    HW2 7728   1.483   1.629   1.085
 2277SOL     OW 7729   3.805   4.062   3.473
 2277SOL    HW1 7730   3.721   4.010   3.459
 2277SOL    HW2 7731   3.841   4.044   3.565
 2278SOL     OW 7732   0.761   2.121   4.098
 2278SOL    HW1 7733   0.701   2.199   4.112
 2278SOL    HW2 7734   0.725   2.063   4.026
 2279SOL     OW 7735   0.638   6.224   5.275
 2279SOL    HW1 7736   0.588   6.138   5.267
 2279SOL    HW2 7737   0.646   6.249   5.371
 2280SOL     OW 7738   5.089   1.534   4.852
 2280SOL    HW1 7739   5.171   1.477   4.858
 2280SOL    HW2 7740   5.014   1.481   4.813
 2281SOL     OW 7741   5.272   6.824   2.936
 2281SOL    HW1 7742   5.297   6.727   2.940
 2281SOL    HW2 7743   5.274   6.854   2.840
 2282SOL     OW 7744   4.114   5.872   5.765
 2282SOL    HW1 7745   4.064   5.905   5.685
 2282SOL    HW2 7746   4.207   5.846   5.739
 2283SOL     OW 7747   0.675   0.707   3.769
 2283SOL    HW1 7748   0.694   0.757   3.853
 2283SOL    HW2 7749   0.736   0.628   3.763
 2284SOL     OW 7750   1.315   3.196   6.798
 2284SOL    HW1 7751   1.377   3.212   6.722
 2284SOL    HW2 7752   1.245   3.130   6.771
 2285SOL     OW 7753   1.241   4.099   6.529
 2285SOL    HW1 7754   1.169   4.089   6.460
 2285SOL    HW2 7755   1.331   4.095   6.484
 2286SOL     OW 7756   4.622   6.082   4.166
 2286SOL    HW1 7757   4.583   6.047   4.251
 2286SOL    HW2 7758   4.649   6.006   4.108
 2287SOL     OW 7759   2.086   0.898   3.211
 2287SOL    HW1 7760   2.130   0.988   3.212
 2287SOL    HW2 7761   2.096   0.856   3.301
 2288SOL     OW 7762   0.254   6.528   3.266
 2288SOL    HW1 7763   0.318   6.503   3.339
 2288SOL    HW2 7764   0.175   6.467   3.269
 2289SOL     OW 7765   1.341   5.940   1.791
 2289SOL    HW1 7766   1.299   5.997   1.720
 2289SOL    HW2 7767   1.390   5.997   1.856
 2290SOL     OW 7768   1.063   5.195   0.999
 2290SOL    HW1 7769   1.015   5.208   0.913
 2290SOL    HW2 7770   1.054   5.277   1.055
 2291SOL     OW 7771   2.882   1.982   6.331
 2291SOL    HW1 7772   2.838   1.907   6.380
 2291SOL    HW2 7773   2.891   2.061   6.391
 2292SOL     OW 7774   1.516   0.949   4.568
 2292SOL    HW1 7775   1.530   1.048   4.571
 2292SOL    HW2 7776   1.421   0.930   4.545
 2293SOL     OW 7777   5.417   5.172   1.997
 2293SOL    HW1 7778   5.374   5.251   2.040
 2293SOL    HW2 7779   5.459   5.115   2.068
 2294SOL     OW 7780   4.599   6.573   6.749
 2294SOL    HW1 7781   4.615   6.501   6.682
 2294SOL    HW2 7782   4.611   6.537   6.841
 2295SOL     OW 7783   0.212   2.064   1.313
 2295SOL    HW1 7784   0.311   2.055   1.298
 2295SOL    HW2 7785   0.188   2.160   1.325
 2296SOL     OW 7786   3.021   6.729   7.002
 2296SOL    HW1 7787   3.063   6.690   6.920
 2296SOL    HW2 7788   3.012   6.658   0.047
 2297SOL     OW 7789   3.992   5.051   5.726
 2297SOL    HW1 7790   3.964   5.008   5.641
 2297SOL    HW2 7791   3.913   5.063   5.786
 2298SOL     OW 7792   3.722   2.342   1.036
 2298SOL    HW1 7793   3.777   2.267   0.999
 2298SOL    HW2 7794   3.650   2.305   1.095
 2299SOL     OW 7795   4.965   5.875   6.753
 2299SOL    HW1 7796   5.029   5.864   6.676
 2299SOL    HW2 7797   4.926   5.786   6.777
 2300SOL     OW 7798   2.023   5.390   0.996
 2300SOL    HW1 7799   2.065   5.468   0.949
 2300SOL    HW2 7800   2.086   5.312   0.996
 2301SOL     OW 7801   4.091   3.227   2.436
 2301SOL    HW1 7802   4.155   3.194   2.367
 2301SOL    HW2 7803   4.046   3.150   2.480
 2302SOL     OW 7804   3.348   5.774   2.807
 2302SOL    HW1 7805   3.361   5.868   2.777
 2302SOL    HW2 7806   3.431   5.721   2.791
 2303SOL     OW 7807   1.463   2.190   4.492
 2303SOL    HW1 7808   1.543   2.130   4.490
 2303SOL    HW2 7809   1.473   2.261   4.422
 2304SOL     OW 7810   2.180   0.960   3.581
 2304SOL    HW1 7811   2.183   0.880   3.521
 2304SOL    HW2 7812   2.110   1.023   3.548
 2305SOL     OW 7813   3.213   5.457   2.311
 2305SOL    HW1 7814   3.148   5.493   2.377
 2305SOL    HW2 7815   3.304   5.452   2.352
 2306SOL     OW 7816   1.656   4.151   1.581
 2306SOL    HW1 7817   1.698   4.060   1.586
 2306SOL    HW2 7818   1.557   4.141   1.575
 2307SOL     OW 7819   0.538   2.514   3.092
 2307SOL    HW1 7820   0.620   2.561   3.125
 2307SOL    HW2 7821   0.560   2.460   3.011
 2308SOL     OW 7822   0.401   6.781   6.827
 2308SOL    HW1 7823   0.325   6.756   6.767
 2308SOL    HW2 7824   0.467   6.837   6.778
 2309SOL     OW 7825   3.888   5.850   6.119
 2309SOL    HW1 7826   3.874   5.754   6.141
 2309SOL    HW2 7827   3.977   5.881   6.153
 2310SOL     OW 7828   5.095   1.061   1.771
 2310SOL    HW1 7829   5.152   1.030   1.695
 2310SOL    HW2 7830   5.022   1.120   1.736
 2311SOL     OW 7831   2.897   0.087   3.015
 2311SOL    HW1 7832   2.828   0.131   2.958
 2311SOL    HW2 7833   2.988   0.123   2.991
 2312SOL     OW 7834   3.972   0.154   3.121
 2312SOL    HW1 7835   4.010   0.114   3.204
 2312SOL    HW2 7836   3.873   0.141   3.120
 2313SOL     OW 7837   4.854   3.990   2.117
 2313SOL    HW1 7838   4.951   3.988   2.140
 2313SOL    HW2 7839   4.837   4.063   2.051
 2314SOL     OW 7840   6.254   0.060   3.631
 2314SOL    HW1 7841   6.296   6.998   3.604
 2314SOL    HW2 7842   6.326   0.129   3.643
 2315SOL     OW 7843   4.343   4.537   5.901
 2315SOL    HW1 7844   4.349   4.444   5.937
 2315SOL    HW2 7845   4.253   4.552   5.861
 2316SOL     OW 7846   2.974   1.048   5.972
 2316SOL    HW1 7847   3.059   1.040   6.023
 2316SOL    HW2 7848   2.973   1.135   5.923
 2317SOL     OW 7849   6.330   6.282   4.096
 2317SOL    HW1 7850   6.289   6.373   4.090
 2317SOL    HW2 7851   6.288   6.231   4.171
 2318SOL     OW 7852   2.282   4.357   5.049
 2318SOL    HW1 7853   2.323   4.273   5.085
 2318SOL    HW2 7854   2.323   4.437   5.093
 2319SOL     OW 7855   2.248   5.088   4.799
 2319SOL    HW1 7856   2.254   4.989   4.790
 2319SOL    HW2 7857   2.203   5.126   4.718
 2320SOL     OW 7858   1.404   3.178   5.399
 2320SOL    HW1 7859   1.464   3.159   5.476
 2320SOL    HW2 7860   1.459   3.183   5.315
 2321SOL     OW 7861   2.800   5.096   6.088
 2321SOL    HW1 7862   2.870   5.027   6.105
 2321SOL    HW2 7863   2.844   5.185   6.076
 2322SOL     OW 7864   2.159   3.601   2.486
 2322SOL    HW1 7865   2.130   3.550   2.404
 2322SOL    HW2 7866   2.140   3.546   2.567
 2323SOL     OW 7867   2.551   4.868   1.662
 2323SOL    HW1 7868   2.643   4.833   1.681
 2323SOL    HW2 7869   2.537   4.952   1.714
 2324SOL     OW 7870   0.979   5.354   2.106
 2324SOL    HW1 7871   0.915   5.400   2.168
 2324SOL    HW2 7872   1.012   5.270   2.148
 2325SOL     OW 7873   6.959   4.976   1.701
 2325SOL    HW1 7874   6.859   4.970   1.695
 2325SOL    HW2 7875   6.995   5.018   1.618
 2326SOL     OW 7876   0.976   7.006   6.972
 2326SOL    HW1 7877   0.960   0.036   6.890
 2326SOL    HW2 7878   1.035   0.032   0.010
 2327SOL     OW 7879   6.865   0.298   2.412
 2327SOL    HW1 7880   6.903   0.380   2.455
 2327SOL    HW2 7881   6.768   0.312   2.394
 2328SOL     OW 7882   1.496   1.796   2.274
 2328SOL    HW1 7883   1.481   1.735   2.352
 2328SOL    HW2 7884   1.587   1.838   2.282
 2329SOL     OW 7885   1.163   5.069   3.913
 2329SOL    HW1 7886   1.229   5.061   3.988
 2329SOL    HW2 7887   1.078   5.021   3.939
 2330SOL     OW 7888   6.890   3.003   0.381
 2330SOL    HW1 7889   6.931   3.075   0.437
 2330SOL    HW2 7890   6.800   2.979   0.418
 2331SOL     OW 7891   3.566   6.097   0.040
 2331SOL    HW1 7892   3.539   6.141   6.979
 2331SOL    HW2 7893   3.664   6.111   0.054
 2332SOL     OW 7894   5.936   0.115   5.941
 2332SOL    HW1 7895   5.970   0.096   5.848
 2332SOL    HW2 7896   5.994   0.183   5.984
 2333SOL     OW 7897   0.027   5.076   2.992
 2333SOL    HW1 7898   0.114   5.118   3.017
 2333SOL    HW2 7899   0.027   5.052   2.895
 2334SOL     OW 7900   2.349   1.195   6.375
 2334SOL    HW1 7901   2.326   1.103   6.342
 2334SOL    HW2 7902   2.443   1.216   6.351
 2335SOL     OW 7903   6.151   1.865   4.338
 2335SOL    HW1 7904   6.244   1.899   4.350
 2335SOL    HW2 7905   6.127   1.868   4.241
 2336SOL     OW 7906   2.631   1.667   3.837
 2336SOL    HW1 7907   2.537   1.661   3.873
 2336SOL    HW2 7908   2.628   1.671   3.737
 2337SOL     OW 7909   4.166   1.846   1.069
 2337SOL    HW1 7910   4.222   1.919   1.108
 2337SOL    HW2 7911   4.190   1.833   0.973
 2338SOL     OW 7912   0.609   3.496   4.099
 2338SOL    HW1 7913   0.658   3.576   4.134
 2338SOL    HW2 7914   0.642   3.414   4.145
 2339SOL     OW 7915   3.102   3.526   2.768
 2339SOL    HW1 7916   3.159   3.513   2.686
 2339SOL    HW2 7917   3.161   3.528   2.849
 2340SOL     OW 7918   0.769   5.134   6.609
 2340SOL    HW1 7919   0.852   5.189   6.596
 2340SOL    HW2 7920   0.788   5.060   6.673
 2341SOL     OW 7921   2.468   4.508   3.114
 2341SOL    HW1 7922   2.435   4.417   3.086
 2341SOL    HW2 7923   2.485   4.508   3.212
 2342SOL     OW 7924   3.000   6.604   4.518
 2342SOL    HW1 7925   3.027   6.622   4.424
 2342SOL    HW2 7926   2.944   6.680   4.552
 2343SOL     OW 7927   2.232   6.327   3.333
 2343SOL    HW1 7928   2.162   6.317   3.262
 2343SOL    HW2 7929   2.225   6.251   3.398
 2344SOL     OW 7930   6.856   5.140   0.865
 2344SOL    HW1 7931   6.860   5.138   0.765
 2344SOL    HW2 7932   6.819   5.054   0.899
 2345SOL     OW 7933   2.618   5.744   4.699
 2345SOL    HW1 7934   2.557   5.805   4.649
 2345SOL    HW2 7935   2.706   5.790   4.714
 2346SOL     OW 7936   3.926   3.344   6.130
 2346SOL    HW1 7937   3.842   3.393   6.155
 2346SOL    HW2 7938   3.902   3.264   6.075
 2347SOL     OW 7939   1.496   2.400   1.445
 2347SOL    HW1 7940   1.541   2.444   1.523
 2347SOL    HW2 7941   1.403   2.374   1.470
 2348SOL     OW 7942   1.590   6.386   3.183
 2348SOL    HW1 7943   1.543   6.300   3.162
 2348SOL    HW2 7944   1.654   6.371   3.258
 2349SOL     OW 7945   0.835   3.930   6.487
 2349SOL    HW1 7946   0.821   4.017   6.534
 2349SOL    HW2 7947   0.856   3.859   6.553
 2350SOL     OW 7948   5.671   3.961   5.679
 2350SOL    HW1 7949   5.690   4.054   5.711
 2350SOL    HW2 7950   5.699   3.952   5.584
 2351SOL     OW 7951   2.921   4.860   2.847
 2351SOL    HW1 7952   2.879   4.793   2.786
 2351SOL    HW2 7953   2.901   4.952   2.813
 2352SOL     OW 7954   6.633   3.102   3.469
 2352SOL    HW1 7955   6.576   3.043   3.526
 2352SOL    HW2 7956   6.584   3.126   3.385
 2353SOL     OW 7957   4.173   5.059   5.437
 2353SOL    HW1 7958   4.083   5.018   5.453
 2353SOL    HW2 7959   4.188   5.070   5.339
 2354SOL     OW 7960   2.755   2.359   4.269
 2354SOL    HW1 7961   2.797   2.450   4.265
 2354SOL    HW2 7962   2.824   2.289   4.252
 2355SOL     OW 7963   2.266   6.092   4.830
 2355SOL    HW1 7964   2.266   6.011   4.772
 2355SOL    HW2 7965   2.244   6.173   4.776
 2356SOL     OW 7966   0.654   2.908   0.037
 2356SOL    HW1 7967   0.730   2.848   0.061
 2356SOL    HW2 7968   0.687   3.002   0.030
 2357SOL     OW 7969   3.324   1.248   1.717
 2357SOL    HW1 7970   3.391   1.176   1.699
 2357SOL    HW2 7971   3.351   1.299   1.798
 2358SOL     OW 7972   2.538   4.933   5.866
 2358SOL    HW1 7973   2.539   4.833   5.868
 2358SOL    HW2 7974   2.454   4.966   5.909
 2359SOL     OW 7975   1.553   6.830   5.385
 2359SOL    HW1 7976   1.519   6.736   5.392
 2359SOL    HW2 7977   1.602   6.841   5.298
 2360SOL     OW 7978   6.821   3.555   0.811
 2360SOL    HW1 7979   6.895   3.544   0.878
 2360SOL    HW2 7980   6.835   3.491   0.735
 2361SOL     OW 7981   2.806   1.157   6.262
 2361SOL    HW1 7982   2.857   1.107   6.332
 2361SOL    HW2 7983   2.864   1.167   6.180
 2362SOL     OW 7984   3.634   4.997   3.609
 2362SOL    HW1 7985   3.692   4.946   3.546
 2362SOL    HW2 7986   3.616   4.942   3.690
 2363SOL     OW 7987   3.864   1.946   3.224
 2363SOL    HW1 7988   3.849   1.849   3.241
 2363SOL    HW2 7989   3.807   1.976   3.147
 2364SOL     OW 7990   0.989   2.752   1.623
 2364SOL    HW1 7991   1.002   2.715   1.531
 2364SOL    HW2 7992   0.925   2.829   1.620
 2365SOL     OW 7993   6.055   1.862   6.663
 2365SOL    HW1 7994   5.980   1.925   6.645
 2365SOL    HW2 7995   6.080   1.814   6.579
 2366SOL     OW 7996   3.292   5.356   0.779
 2366SOL    HW1 7997   3.204   5.307   0.785
 2366SOL    HW2 7998   3.367   5.290   0.782
 2367SOL     OW 7999   2.187   2.973   0.387
 2367SOL    HW1 8000   2.173   2.937   0.479
 2367SOL    HW2 8001   2.258   3.043   0.390
 2368SOL     OW 8002   5.687   0.374   4.015
 2368SOL    HW1 8003   5.629   0.448   4.050
 2368SOL    HW2 8004   5.749   0.343   4.087
 2369SOL     OW 8005   2.036   6.823   4.037
 2369SOL    HW1 8006   2.086   6.906   4.063
 2369SOL    HW2 8007   2.099   6.760   3.991
 2370SOL     OW 8008   5.752   2.729   6.819
 2370SOL    HW1 8009   5.780   2.673   6.741
 2370SOL    HW2 8010   5.688   2.799   6.788
 2371SOL     OW 8011   2.310   0.012   1.974
 2371SOL    HW1 8012   2.287   0.032   2.070
 2371SOL    HW2 8013   2.231   0.033   1.916
 2372SOL     OW 8014   6.988   2.703   2.201
 2372SOL    HW1 8015   6.999   2.796   2.164
 2372SOL    HW2 8016   0.021   2.693   2.282
 2373SOL     OW 8017   1.801   3.601   5.664
 2373SOL    HW1 8018   1.887   3.573   5.621
 2373SOL    HW2 8019   1.817   3.619   5.761
 2374SOL     OW 8020   6.426   2.058   5.275
 2374SOL    HW1 8021   6.372   1.996   5.218
 2374SOL    HW2 8022   6.492   2.005   5.329
 2375SOL     OW 8023   3.313   5.405   5.672
 2375SOL    HW1 8024   3.318   5.391   5.771
 2375SOL    HW2 8025   3.366   5.333   5.626
 2376SOL     OW 8026   5.916   3.876   3.740
 2376SOL    HW1 8027   5.874   3.951   3.689
 2376SOL    HW2 8028   5.970   3.819   3.678
 2377SOL     OW 8029   3.345   3.670   3.589
 2377SOL    HW1 8030   3.281   3.595   3.572
 2377SOL    HW2 8031   3.307   3.730   3.659
 2378SOL     OW 8032   4.934   2.246   0.188
 2378SOL    HW1 8033   4.940   2.343   0.165
 2378SOL    HW2 8034   4.871   2.201   0.124
 2379SOL     OW 8035   6.489   1.199   0.488
 2379SOL    HW1 8036   6.517   1.253   0.409
 2379SOL    HW2 8037   6.497   1.253   0.571
 2380SOL     OW 8038   6.908   2.688   0.301
 2380SOL    HW1 8039   7.005   2.682   0.325
 2380SOL    HW2 8040   6.890   2.776   0.259
 2381SOL     OW 8041   2.220   5.847   3.679
 2381SOL    HW1 8042   2.228   5.799   3.591
 2381SOL    HW2 8043   2.295   5.913   3.688
 2382SOL     OW 8044   1.615   3.397   4.149
 2382SOL    HW1 8045   1.711   3.380   4.127
 2382SOL    HW2 8046   1.586   3.334   4.221
 2383SOL     OW 8047   6.737   6.149   0.877
 2383SOL    HW1 8048   6.710   6.178   0.969
 2383SOL    HW2 8049   6.784   6.061   0.883
 2384SOL     OW 8050   5.008   2.036   1.945
 2384SOL    HW1 8051   5.017   1.971   2.020
 2384SOL    HW2 8052   5.089   2.096   1.942
 2385SOL     OW 8053   0.216   0.705   6.894
 2385SOL    HW1 8054   0.176   0.784   6.940
 2385SOL    HW2 8055   0.261   0.647   6.961
 2386SOL     OW 8056   4.987   5.780   4.487
 2386SOL    HW1 8057   4.929   5.715   4.437
 2386SOL    HW2 8058   5.057   5.731   4.537
 2387SOL     OW 8059   1.694   0.872   4.360
 2387SOL    HW1 8060   1.609   0.898   4.407
 2387SOL    HW2 8061   1.768   0.931   4.390
 2388SOL     OW 8062   6.550   2.975   3.790
 2388SOL    HW1 8063   6.537   2.971   3.691
 2388SOL    HW2 8064   6.535   2.884   3.829
 2389SOL     OW 8065   4.533   4.559   3.630
 2389SOL    HW1 8066   4.545   4.467   3.594
 2389SOL    HW2 8067   4.555   4.560   3.728
 2390SOL     OW 8068   3.942   3.873   2.710
 2390SOL    HW1 8069   3.888   3.945   2.667
 2390SOL    HW2 8070   3.934   3.879   2.809
 2391SOL     OW 8071   5.072   4.731   6.239
 2391SOL    HW1 8072   5.100   4.708   6.146
 2391SOL    HW2 8073   5.148   4.715   6.302
 2392SOL     OW 8074   2.509   6.975   6.503
 2392SOL    HW1 8075   2.570   6.929   6.567
 2392SOL    HW2 8076   2.438   6.912   6.473
 2393SOL     OW 8077   4.611   4.410   6.403
 2393SOL    HW1 8078   4.577   4.437   6.312
 2393SOL    HW2 8079   4.627   4.492   6.458
 2394SOL     OW 8080   0.017   4.199   4.853
 2394SOL    HW1 8081   0.097   4.143   4.876
 2394SOL    HW2 8082   6.979   4.201   4.930
 2395SOL     OW 8083   4.656   6.683   5.944
 2395SOL    HW1 8084   4.732   6.641   5.894
 2395SOL    HW2 8085   4.661   6.659   6.040
 2396SOL     OW 8086   3.898   5.473   1.077
 2396SOL    HW1 8087   3.880   5.389   1.130
 2396SOL    HW2 8088   3.993   5.474   1.049
 2397SOL     OW 8089   0.455   4.268   4.456
 2397SOL    HW1 8090   0.517   4.302   4.385
 2397SOL    HW2 8091   0.400   4.344   4.491
 2398SOL     OW 8092   5.148   4.262   6.724
 2398SOL    HW1 8093   5.107   4.257   6.633
 2398SOL    HW2 8094   5.077   4.265   6.793
 2399SOL     OW 8095   4.218   1.173   1.238
 2399SOL    HW1 8096   4.226   1.073   1.232
 2399SOL    HW2 8097   4.259   1.204   1.324
 2400SOL     OW 8098   2.559   4.319   0.632
 2400SOL    HW1 8099   2.537   4.223   0.648
 2400SOL    HW2 8100   2.611   4.355   0.710
 2401SOL     OW 8101   6.044   6.141   6.358
 2401SOL    HW1 8102   6.125   6.162   6.413
 2401SOL    HW2 8103   5.996   6.225   6.336
 2402SOL     OW 8104   0.897   7.003   4.186
 2402SOL    HW1 8105   0.880   6.909   4.213
 2402SOL    HW2 8106   0.959   7.005   4.108
 2403SOL     OW 8107   1.057   2.803   5.401
 2403SOL    HW1 8108   1.069   2.902   5.390
 2403SOL    HW2 8109   1.142   2.763   5.435
 2404SOL     OW 8110   2.600   0.886   1.187
 2404SOL    HW1 8111   2.537   0.956   1.153
 2404SOL    HW2 8112   2.669   0.866   1.117
 2405SOL     OW 8113   3.393   4.111   2.597
 2405SOL    HW1 8114   3.409   4.114   2.499
 2405SOL    HW2 8115   3.322   4.045   2.617
 2406SOL     OW 8116   4.245   1.481   0.899
 2406SOL    HW1 8117   4.341   1.467   0.875
 2406SOL    HW2 8118   4.198   1.524   0.822
 2407SOL     OW 8119   5.477   1.873   3.460
 2407SOL    HW1 8120   5.426   1.953   3.492
 2407SOL    HW2 8121   5.416   1.814   3.407
 2408SOL     OW 8122   4.447   4.520   2.160
 2408SOL    HW1 8123   4.526   4.540   2.218
 2408SOL    HW2 8124   4.455   4.426   2.126
 2409SOL     OW 8125   2.405   3.900   1.241
 2409SOL    HW1 8126   2.451   3.979   1.199
 2409SOL    HW2 8127   2.310   3.898   1.211
 2410SOL     OW 8128   3.898   3.056   4.004
 2410SOL    HW1 8129   3.977   3.116   3.989
 2410SOL    HW2 8130   3.890   3.034   4.101
 2411SOL     OW 8131   5.207   6.772   4.923
 2411SOL    HW1 8132   5.186   6.748   4.829
 2411SOL    HW2 8133   5.206   6.690   4.980
 2412SOL     OW 8134   5.193   3.859   1.281
 2412SOL    HW1 8135   5.216   3.796   1.206
 2412SOL    HW2 8136   5.098   3.843   1.309
 2413SOL     OW 8137   5.538   0.318   1.852
 2413SOL    HW1 8138   5.453   0.355   1.815
 2413SOL    HW2 8139   5.582   0.387   1.909
 2414SOL     OW 8140   4.901   3.668   3.617
 2414SOL    HW1 8141   4.917   3.604   3.692
 2414SOL    HW2 8142   4.858   3.751   3.651
 2415SOL     OW 8143   5.868   1.589   2.734
 2415SOL    HW1 8144   5.877   1.633   2.823
 2415SOL    HW2 8145   5.951   1.605   2.680
 2416SOL     OW 8146   5.201   1.796   6.106
 2416SOL    HW1 8147   5.295   1.825   6.123
 2416SOL    HW2 8148   5.196   1.745   6.020
 2417SOL     OW 8149   2.933   3.377   4.925
 2417SOL    HW1 8150   2.939   3.427   4.839
 2417SOL    HW2 8151   2.970   3.285   4.913
 2418SOL     OW 8152   3.313   3.260   3.868
 2418SOL    HW1 8153   3.331   3.278   3.772
 2418SOL    HW2 8154   3.369   3.321   3.925
 2419SOL     OW 8155   0.638   6.731   3.213
 2419SOL    HW1 8156   0.548   6.770   3.229
 2419SOL    HW2 8157   0.707   6.803   3.215
 2420SOL     OW 8158   2.809   0.202   1.704
 2420SOL    HW1 8159   2.748   0.281   1.696
 2420SOL    HW2 8160   2.808   0.168   1.798
 2421SOL     OW 8161   1.616   2.579   4.663
 2421SOL    HW1 8162   1.694   2.610   4.718
 2421SOL    HW2 8163   1.543   2.547   4.723
 2422SOL     OW 8164   5.096   2.346   1.033
 2422SOL    HW1 8165   5.077   2.274   1.100
 2422SOL    HW2 8166   5.070   2.435   1.070
 2423SOL     OW 8167   2.571   5.947   2.439
 2423SOL    HW1 8168   2.574   5.866   2.380
 2423SOL    HW2 8169   2.664   5.974   2.463
 2424SOL     OW 8170   5.903   1.295   0.184
 2424SOL    HW1 8171   5.875   1.376   0.132
 2424SOL    HW2 8172   5.985   1.316   0.236
 2425SOL     OW 8173   6.054   6.734   4.157
 2425SOL    HW1 8174   6.004   6.667   4.212
 2425SOL    HW2 8175   6.113   6.788   4.216
 2426SOL     OW 8176   2.569   4.829   4.558
 2426SOL    HW1 8177   2.510   4.778   4.621
 2426SOL    HW2 8178   2.591   4.773   4.479
 2427SOL     OW 8179   6.053   6.404   5.124
 2427SOL    HW1 8180   6.004   6.491   5.134
 2427SOL    HW2 8181   6.027   6.342   5.197
 2428SOL     OW 8182   0.711   0.715   1.454
 2428SOL    HW1 8183   0.700   0.731   1.552
 2428SOL    HW2 8184   0.678   0.795   1.403
 2429SOL     OW 8185   5.096   5.951   1.560
 2429SOL    HW1 8186   5.176   5.890   1.564
 2429SOL    HW2 8187   5.037   5.933   1.638
 2430SOL     OW 8188   5.792   1.002   2.615
 2430SOL    HW1 8189   5.780   1.089   2.567
 2430SOL    HW2 8190   5.837   1.018   2.703
 2431SOL     OW 8191   3.909   0.317   2.269
 2431SOL    HW1 8192   3.997   0.354   2.300
 2431SOL    HW2 8193   3.891   0.348   2.176
 2432SOL     OW 8194   3.836   6.148   2.518
 2432SOL    HW1 8195   3.851   6.097   2.602
 2432SOL    HW2 8196   3.823   6.245   2.539
 2433SOL     OW 8197   4.151   0.427   6.795
 2433SOL    HW1 8198   4.106   0.390   6.877
 2433SOL    HW2 8199   4.110   0.386   6.713
 2434SOL     OW 8200   3.462   1.649   6.373
 2434SOL    HW1 8201   3.556   1.682   6.379
 2434SOL    HW2 8202   3.413   1.700   6.302
 2435SOL     OW 8203   6.148   5.722   4.959
 2435SOL    HW1 8204   6.093   5.710   5.042
 2435SOL    HW2 8205   6.179   5.817   4.954
 2436SOL     OW 8206   2.931   5.598   0.024
 2436SOL    HW1 8207   2.831   5.597   0.032
 2436SOL    HW2 8208   2.971   5.619   0.114
 2437SOL     OW 8209   6.864   6.598   6.027
 2437SOL    HW1 8210   6.794   6.619   5.958
 2437SOL    HW2 8211   6.822   6.547   6.102
 2438SOL     OW 8212   3.058   2.114   0.976
 2438SOL    HW1 8213   2.976   2.171   0.975
 2438SOL    HW2 8214   3.076   2.080   0.884
 2439SOL     OW 8215   5.790   3.995   5.145
 2439SOL    HW1 8216   5.857   3.925   5.120
 2439SOL    HW2 8217   5.813   4.081   5.100
 2440SOL     OW 8218   5.581   5.131   6.126
 2440SOL    HW1 8219   5.627   5.216   6.101
 2440SOL    HW2 8220   5.570   5.074   6.045
 2441SOL     OW 8221   6.099   2.366   0.727
 2441SOL    HW1 8222   6.162   2.382   0.803
 2441SOL    HW2 8223   6.037   2.444   0.718
 2442SOL     OW 8224   0.598   3.688   4.514
 2442SOL    HW1 8225   0.543   3.609   4.487
 2442SOL    HW2 8226   0.648   3.667   4.598
 2443SOL     OW 8227   2.444   4.647   5.910
 2443SOL    HW1 8228   2.393   4.563   5.897
 2443SOL    HW2 8229   2.516   4.654   5.841
 2444SOL     OW 8230   2.705   3.481   5.606
 2444SOL    HW1 8231   2.714   3.514   5.512
 2444SOL    HW2 8232   2.761   3.399   5.618
 2445SOL     OW 8233   1.110   0.784   1.056
 2445SOL    HW1 8234   1.184   0.786   1.123
 2445SOL    HW2 8235   1.033   0.732   1.092
 2446SOL     OW 8236   6.094   4.513   5.690
 2446SOL    HW1 8237   6.155   4.445   5.731
 2446SOL    HW2 8238   6.123   4.530   5.596
 2447SOL     OW 8239   0.614   1.447   6.811
 2447SOL    HW1 8240   0.616   1.365   6.754
 2447SOL    HW2 8241   0.597   1.527   6.753
 2448SOL     OW 8242   1.186   6.824   4.345
 2448SOL    HW1 8243   1.152   6.730   4.336
 2448SOL    HW2 8244   1.221   6.856   4.257
 2449SOL     OW 8245   0.128   3.179   5.355
 2449SOL    HW1 8246   0.206   3.152   5.298
 2449SOL    HW2 8247   0.092   3.099   5.402
 2450SOL     OW 8248   2.164   3.789   3.078
 2450SOL    HW1 8249   2.136   3.702   3.036
 2450SOL    HW2 8250   2.180   3.775   3.176
 2451SOL     OW 8251   2.342   6.287   4.026
 2451SOL    HW1 8252   2.350   6.188   4.011
 2451SOL    HW2 8253   2.344   6.306   4.124
 2452SOL     OW 8254   1.304   2.158   4.172
 2452SOL    HW1 8255   1.320   2.098   4.094
 2452SOL    HW2 8256   1.390   2.201   4.199
 2453SOL     OW 8257   0.233   3.981   2.022
 2453SOL    HW1 8258   0.210   3.963   1.927
 2453SOL    HW2 8259   0.325   3.948   2.041
 2454SOL     OW 8260   2.743   0.747   2.170
 2454SOL    HW1 8261   2.818   0.738   2.235
 2454SOL    HW2 8262   2.774   0.716   2.080
 2455SOL     OW 8263   5.407   5.931   0.202
 2455SOL    HW1 8264   5.388   5.873   0.123
 2455SOL    HW2 8265   5.475   5.887   0.260
 2456SOL     OW 8266   4.231   6.801   1.425
 2456SOL    HW1 8267   4.159   6.814   1.494
 2456SOL    HW2 8268   4.202   6.731   1.360
 2457SOL     OW 8269   5.535   6.443   1.460
 2457SOL    HW1 8270   5.517   6.420   1.365
 2457SOL    HW2 8271   5.540   6.542   1.470
 2458SOL     OW 8272   0.485   5.554   3.716
 2458SOL    HW1 8273   0.410   5.575   3.653
 2458SOL    HW2 8274   0.535   5.638   3.737
 2459SOL     OW 8275   2.473   0.303   0.755
 2459SOL    HW1 8276   2.517   0.315   0.666
 2459SOL    HW2 8277   2.477   0.388   0.806
 2460SOL     OW 8278   3.378   5.520   1.612
 2460SOL    HW1 8279   3.364   5.618   1.620
 2460SOL    HW2 8280   3.415   5.499   1.521
 2461SOL     OW 8281   5.762   1.330   3.094
 2461SOL    HW1 8282   5.803   1.352   3.006
 2461SOL    HW2 8283   5.784   1.401   3.160
 2462SOL     OW 8284   1.846   4.460   6.517
 2462SOL    HW1 8285   1.854   4.383   6.454
 2462SOL    HW2 8286   1.930   4.513   6.517
 2463SOL     OW 8287   6.673   1.618   3.983
 2463SOL    HW1 8288   6.721   1.657   3.905
 2463SOL    HW2 8289   6.738   1.602   4.057
 2464SOL     OW 8290   1.521   3.187   1.309
 2464SOL    HW1 8291   1.462   3.197   1.389
 2464SOL    HW2 8292   1.521   3.092   1.279
 2465SOL     OW 8293   6.384   5.603   3.180
 2465SOL    HW1 8294   6.423   5.669   3.244
 2465SOL    HW2 8295   6.452   5.534   3.156
 2466SOL     OW 8296   3.481   1.308   2.366
 2466SOL    HW1 8297   3.576   1.317   2.397
 2466SOL    HW2 8298   3.475   1.236   2.297
 2467SOL     OW 8299   6.726   1.307   5.696
 2467SOL    HW1 8300   6.728   1.214   5.658
 2467SOL    HW2 8301   6.732   1.373   5.622
 2468SOL     OW 8302   0.116   3.736   0.370
 2468SOL    HW1 8303   0.037   3.760   0.427
 2468SOL    HW2 8304   0.160   3.819   0.336
 2469SOL     OW 8305   2.480   3.130   5.651
 2469SOL    HW1 8306   2.500   3.182   5.568
 2469SOL    HW2 8307   2.560   3.131   5.711
 2470SOL     OW 8308   5.444   2.734   0.337
 2470SOL    HW1 8309   5.417   2.637   0.341
 2470SOL    HW2 8310   5.403   2.777   0.257
 2471SOL     OW 8311   0.631   0.617   3.448
 2471SOL    HW1 8312   0.596   0.531   3.409
 2471SOL    HW2 8313   0.557   0.665   3.494
 2472SOL     OW 8314   5.350   1.402   2.892
 2472SOL    HW1 8315   5.393   1.319   2.929
 2472SOL    HW2 8316   5.374   1.480   2.949
 2473SOL     OW 8317   0.321   6.889   5.363
 2473SOL    HW1 8318   0.399   6.850   5.413
 2473SOL    HW2 8319   0.272   6.816   5.317
 2474SOL     OW 8320   5.640   5.599   4.769
 2474SOL    HW1 8321   5.649   5.506   4.805
 2474SOL    HW2 8322   5.564   5.645   4.816
 2475SOL     OW 8323   4.016   2.352   6.529
 2475SOL    HW1 8324   4.105   2.354   6.576
 2475SOL    HW2 8325   3.947   2.313   6.590
 2476SOL     OW 8326   0.329   2.068   3.665
 2476SOL    HW1 8327   0.386   1.991   3.696
 2476SOL    HW2 8328   0.383   2.128   3.606
 2477SOL     OW 8329   4.269   4.916   1.996
 2477SOL    HW1 8330   4.209   4.888   1.921
 2477SOL    HW2 8331   4.354   4.862   1.992
 2478SOL     OW 8332   6.595   0.036   3.139
 2478SOL    HW1 8333   6.605   0.095   3.219
 2478SOL    HW2 8334   6.560   0.090   3.062
 2479SOL     OW 8335   0.833   3.394   0.204
 2479SOL    HW1 8336   0.740   3.388   0.168
 2479SOL    HW2 8337   0.846   3.483   0.248
 2480SOL     OW 8338   0.934   4.082   1.740
 2480SOL    HW1 8339   0.952   4.156   1.805
 2480SOL    HW2 8340   0.890   4.006   1.787
 2481SOL     OW 8341   4.430   5.179   2.771
 2481SOL    HW1 8342   4.499   5.149   2.705
 2481SOL    HW2 8343   4.361   5.234   2.725
 2482SOL     OW 8344   4.720   2.783   4.357
 2482SOL    HW1 8345   4.709   2.763   4.455
 2482SOL    HW2 8346   4.789   2.723   4.318
 2483SOL     OW 8347   0.766   1.921   6.581
 2483SOL    HW1 8348   0.861   1.949   6.575
 2483SOL    HW2 8349   0.723   1.961   6.662
 2484SOL     OW 8350   3.275   1.965   6.148
 2484SOL    HW1 8351   3.231   1.885   6.108
 2484SOL    HW2 8352   3.332   2.010   6.079
 2485SOL     OW 8353   1.140   6.323   1.814
 2485SOL    HW1 8354   1.048   6.329   1.854
 2485SOL    HW2 8355   1.155   6.398   1.751
 2486SOL     OW 8356   1.152   5.029   3.145
 2486SOL    HW1 8357   1.191   5.046   3.236
 2486SOL    HW2 8358   1.107   4.939   3.145
 2487SOL     OW 8359   3.078   0.832   1.148
 2487SOL    HW1 8360   3.126   0.754   1.108
 2487SOL    HW2 8361   3.026   0.803   1.228
 2488SOL     OW 8362   3.608   6.497   6.289
 2488SOL    HW1 8363   3.671   6.512   6.366
 2488SOL    HW2 8364   3.580   6.586   6.252
 2489SOL     OW 8365   6.729   5.580   4.326
 2489SOL    HW1 8366   6.774   5.650   4.270
 2489SOL    HW2 8367   6.643   5.616   4.363
 2490SOL     OW 8368   5.302   3.385   1.323
 2490SOL    HW1 8369   5.244   3.466   1.325
 2490SOL    HW2 8370   5.245   3.303   1.322
 2491SOL     OW 8371   0.836   4.650   2.999
 2491SOL    HW1 8372   0.793   4.724   2.946
 2491SOL    HW2 8373   0.864   4.685   3.088
 2492SOL     OW 8374   4.383   2.729   6.076
 2492SOL    HW1 8375   4.352   2.800   6.139
 2492SOL    HW2 8376   4.424   2.772   5.996
 2493SOL     OW 8377   6.336   1.692   4.115
 2493SOL    HW1 8378   6.389   1.774   4.137
 2493SOL    HW2 8379   6.374   1.613   4.163
 2494SOL     OW 8380   4.277   4.424   1.459
 2494SOL    HW1 8381   4.316   4.509   1.424
 2494SOL    HW2 8382   4.264   4.360   1.384
 2495SOL     OW 8383   6.087   0.895   4.056
 2495SOL    HW1 8384   6.011   0.830   4.052
 2495SOL    HW2 8385   6.174   0.846   4.051
 2496SOL     OW 8386   1.666   5.727   6.604
 2496SOL    HW1 8387   1.601   5.663   6.563
 2496SOL    HW2 8388   1.622   5.775   6.680
 2497SOL     OW 8389   5.461   1.768   6.717
 2497SOL    HW1 8390   5.440   1.672   6.735
 2497SOL    HW2 8391   5.512   1.806   6.794
 2498SOL     OW 8392   1.027   3.713   5.031
 2498SOL    HW1 8393   1.118   3.710   4.990
 2498SOL    HW2 8394   1.035   3.743   5.126
 2499SOL     OW 8395   6.136   0.285   6.044
 2499SOL    HW1 8396   6.176   0.218   6.106
 2499SOL    HW2 8397   6.210   0.338   6.001
 2500SOL     OW 8398   4.563   3.788   6.234
 2500SOL    HW1 8399   4.471   3.772   6.198
 2500SOL    HW2 8400   4.620   3.708   6.217
 2501SOL     OW 8401   6.368   4.757   0.611
 2501SOL    HW1 8402   6.445   4.693   0.610
 2501SOL    HW2 8403   6.386   4.831   0.675
 2502SOL     OW 8404   1.951   6.504   2.930
 2502SOL    HW1 8405   1.999   6.582   2.969
 2502SOL    HW2 8406   1.869   6.534   2.883
 2503SOL     OW 8407   4.909   6.479   4.761
 2503SOL    HW1 8408   4.863   6.559   4.798
 2503SOL    HW2 8409   4.923   6.490   4.662
 2504SOL     OW 8410   2.107   4.267   3.356
 2504SOL    HW1 8411   2.040   4.197   3.379
 2504SOL    HW2 8412   2.099   4.292   3.260
 2505SOL     OW 8413   4.708   4.775   3.807
 2505SOL    HW1 8414   4.780   4.706   3.817
 2505SOL    HW2 8415   4.621   4.738   3.841
 2506SOL     OW 8416   0.425   1.765   1.030
 2506SOL    HW1 8417   0.448   1.690   1.092
 2506SOL    HW2 8418   0.358   1.825   1.075
 2507SOL     OW 8419   6.174   6.046   1.082
 2507SOL    HW1 8420   6.264   6.061   1.042
 2507SOL    HW2 8421   6.185   6.014   1.177
 2508SOL     OW 8422   2.335   2.735   2.081
 2508SOL    HW1 8423   2.427   2.765   2.104
 2508SOL    HW2 8424   2.322   2.738   1.982
 2509SOL     OW 8425   4.891   1.542   3.336
 2509SOL    HW1 8426   4.972   1.554   3.393
 2509SOL    HW2 8427   4.914   1.489   3.255
 2510SOL     OW 8428   4.039   5.918   1.016
 2510SOL    HW1 8429   3.940   5.925   1.006
 2510SOL    HW2 8430   4.072   5.838   0.967
 2511SOL     OW 8431   0.988   6.422   3.907
 2511SOL    HW1 8432   0.936   6.365   3.971
 2511SOL    HW2 8433   0.998   6.514   3.944
 2512SOL     OW 8434   5.335   3.169   4.165
 2512SOL    HW1 8435   5.317   3.267   4.158
 2512SOL    HW2 8436   5.419   3.154   4.218
 2513SOL     OW 8437   0.184   4.835   1.471
 2513SOL    HW1 8438   0.213   4.918   1.424
 2513SOL    HW2 8439   0.197   4.846   1.569
 2514SOL     OW 8440   1.024   1.422   4.159
 2514SOL    HW1 8441   1.123   1.437   4.162
 2514SOL    HW2 8442   0.984   1.476   4.085
 2515SOL     OW 8443   0.978   4.844   0.422
 2515SOL    HW1 8444   0.936   4.815   0.508
 2515SOL    HW2 8445   0.921   4.916   0.380
 2516SOL     OW 8446   5.272   6.102   4.561
 2516SOL    HW1 8447   5.208   6.172   4.528
 2516SOL    HW2 8448   5.343   6.087   4.493
 2517SOL     OW 8449   2.498   5.459   0.770
 2517SOL    HW1 8450   2.498   5.465   0.671
 2517SOL    HW2 8451   2.405   5.439   0.803
 2518SOL     OW 8452   2.603   2.680   6.000
 2518SOL    HW1 8453   2.604   2.656   6.097
 2518SOL    HW2 8454   2.541   2.757   5.986
 2519SOL     OW 8455   5.138   4.182   4.559
 2519SOL    HW1 8456   5.056   4.151   4.607
 2519SOL    HW2 8457   5.133   4.281   4.546
 2520SOL     OW 8458   2.706   5.078   2.160
 2520SOL    HW1 8459   2.662   5.157   2.117
 2520SOL    HW2 8460   2.719   5.006   2.091
 2521SOL     OW 8461   5.923   6.949   6.111
 2521SOL    HW1 8462   5.984   6.984   6.182
 2521SOL    HW2 8463   5.901   7.022   6.047
 2522SOL     OW 8464   1.096   3.119   4.815
 2522SOL    HW1 8465   1.008   3.166   4.822
 2522SOL    HW2 8466   1.156   3.170   4.754
 2523SOL     OW 8467   6.701   3.018   6.104
 2523SOL    HW1 8468   6.732   2.923   6.109
 2523SOL    HW2 8469   6.627   3.033   6.170
 2524SOL     OW 8470   0.704   0.123   4.792
 2524SOL    HW1 8471   0.677   0.032   4.825
 2524SOL    HW2 8472   0.672   0.135   4.699
 2525SOL     OW 8473   1.649   4.454   3.300
 2525SOL    HW1 8474   1.742   4.489   3.312
 2525SOL    HW2 8475   1.652   4.364   3.256
 2526SOL     OW 8476   0.540   2.122   5.535
 2526SOL    HW1 8477   0.471   2.165   5.477
 2526SOL    HW2 8478   0.612   2.189   5.556
 2527SOL     OW 8479   5.633   6.956   3.509
 2527SOL    HW1 8480   5.583   6.879   3.470
 2527SOL    HW2 8481   5.569   7.024   3.543
 2528SOL     OW 8482   6.112   5.070   0.603
 2528SOL    HW1 8483   6.129   5.149   0.543
 2528SOL    HW2 8484   6.053   5.005   0.555
 2529SOL     OW 8485   5.172   3.931   5.105
 2529SOL    HW1 8486   5.136   3.852   5.055
 2529SOL    HW2 8487   5.254   3.903   5.155
 2530SOL     OW 8488   1.153   6.644   3.762
 2530SOL    HW1 8489   1.115   6.557   3.731
 2530SOL    HW2 8490   1.185   6.696   3.682
 2531SOL     OW 8491   5.130   1.352   0.704
 2531SOL    HW1 8492   5.222   1.363   0.667
 2531SOL    HW2 8493   5.062   1.371   0.633
 2532SOL     OW 8494   1.306   4.126   5.943
 2532SOL    HW1 8495   1.378   4.172   5.890
 2532SOL    HW2 8496   1.250   4.195   5.988
 2533SOL     OW 8497   5.664   6.731   5.085
 2533SOL    HW1 8498   5.588   6.761   5.143
 2533SOL    HW2 8499   5.629   6.674   5.011
 2534SOL     OW 8500   6.602   2.220   3.614
 2534SOL    HW1 8501   6.570   2.126   3.603
 2534SOL    HW2 8502   6.622   2.259   3.524
 2535SOL     OW 8503   1.991   1.283   2.916
 2535SOL    HW1 8504   1.918   1.257   2.852
 2535SOL    HW2 8505   1.980   1.233   3.001
 2536SOL     OW 8506   6.685   0.880   3.788
 2536SOL    HW1 8507   6.708   0.809   3.854
 2536SOL    HW2 8508   6.756   0.951   3.790
 2537SOL     OW 8509   4.219   5.331   1.762
 2537SOL    HW1 8510   4.129   5.345   1.802
 2537SOL    HW2 8511   4.281   5.293   1.831
 2538SOL     OW 8512   1.528   4.376   5.075
 2538SOL    HW1 8513   1.540   4.463   5.124
 2538SOL    HW2 8514   1.601   4.366   5.007
 2539SOL     OW 8515   2.288   0.756   5.841
 2539SOL    HW1 8516   2.188   0.750   5.852
 2539SOL    HW2 8517   2.311   0.739   5.745
 2540SOL     OW 8518   5.677   1.937   2.450
 2540SOL    HW1 8519   5.678   1.994   2.368
 2540SOL    HW2 8520   5.621   1.981   2.520
 2541SOL     OW 8521   0.571   0.049   5.679
 2541SOL    HW1 8522   0.666   0.080   5.667
 2541SOL    HW2 8523   0.537   0.081   5.768
 2542SOL     OW 8524   3.689   1.468   3.770
 2542SOL    HW1 8525   3.591   1.451   3.784
 2542SOL    HW2 8526   3.741   1.423   3.844
 2543SOL     OW 8527   0.289   2.249   4.216
 2543SOL    HW1 8528   0.293   2.327   4.153
 2543SOL    HW2 8529   0.268   2.281   4.308
 2544SOL     OW 8530   6.536   6.252   2.163
 2544SOL    HW1 8531   6.536   6.332   2.103
 2544SOL    HW2 8532   6.614   6.257   2.225
 2545SOL     OW 8533   6.748   1.653   0.041
 2545SOL    HW1 8534   6.826   1.676   7.008
 2545SOL    HW2 8535   6.685   1.730   0.046
 2546SOL     OW 8536   6.541   4.183   2.617
 2546SOL    HW1 8537   6.472   4.249   2.645
 2546SOL    HW2 8538   6.504   4.124   2.546
 2547SOL     OW 8539   5.498   3.954   0.898
 2547SOL    HW1 8540   5.479   3.947   0.996
 2547SOL    HW2 8541   5.467   3.871   0.852
 2548SOL     OW 8542   6.655   6.367   5.337
 2548SOL    HW1 8543   6.661   6.414   5.249
 2548SOL    HW2 8544   6.719   6.409   5.402
 2549SOL     OW 8545   2.669   3.293   0.449
 2549SOL    HW1 8546   2.592   3.306   0.512
 2549SOL    HW2 8547   2.660   3.204   0.404
 2550SOL     OW 8548   4.453   6.194   0.271
 2550SOL    HW1 8549   4.409   6.284   0.269
 2550SOL    HW2 8550   4.395   6.128   0.222
 2551SOL     OW 8551   3.564   4.825   0.882
 2551SOL    HW1 8552   3.572   4.770   0.966
 2551SOL    HW2 8553   3.467   4.840   0.861
 2552SOL     OW 8554   2.354   5.122   1.909
 2552SOL    HW1 8555   2.343   5.134   2.008
 2552SOL    HW2 8556   2.264   5.114   1.866
 2553SOL     OW 8557   4.420   1.421   0.142
 2553SOL    HW1 8558   4.336   1.374   0.113
 2553SOL    HW2 8559   4.396   1.503   0.194
 2554SOL     OW 8560   1.415   5.686   1.451
 2554SOL    HW1 8561   1.440   5.716   1.544
 2554SOL    HW2 8562   1.368   5.598   1.456
 2555SOL     OW 8563   5.714   6.925   4.525
 2555SOL    HW1 8564   5.635   6.895   4.578
 2555SOL    HW2 8565   5.791   6.864   4.542
 2556SOL     OW 8566   3.574   6.617   0.401
 2556SOL    HW1 8567   3.517   6.686   0.356
 2556SOL    HW2 8568   3.604   6.550   0.334
 2557SOL     OW 8569   3.028   0.416   6.859
 2557SOL    HW1 8570   3.108   0.407   6.800
 2557SOL    HW2 8571   2.987   0.325   6.874
 2558SOL     OW 8572   4.925   2.695   1.689
 2558SOL    HW1 8573   4.908   2.791   1.713
 2558SOL    HW2 8574   4.925   2.685   1.590
 2559SOL     OW 8575   0.858   5.035   3.691
 2559SOL    HW1 8576   0.915   5.055   3.611
 2559SOL    HW2 8577   0.799   4.957   3.671
 2560SOL     OW 8578   4.847   2.246   3.055
 2560SOL    HW1 8579   4.865   2.276   2.961
 2560SOL    HW2 8580   4.750   2.258   3.076
 2561SOL     OW 8581   4.238   0.025   4.454
 2561SOL    HW1 8582   4.224   6.958   4.489
 2561SOL    HW2 8583   4.200   0.032   4.362
 2562SOL     OW 8584   1.987   6.702   4.372
 2562SOL    HW1 8585   1.950   6.769   4.308
 2562SOL    HW2 8586   2.072   6.664   4.336
 2563SOL     OW 8587   3.512   2.461   6.623
 2563SOL    HW1 8588   3.526   2.463   6.524
 2563SOL    HW2 8589   3.596   2.488   6.670
 2564SOL     OW 8590   1.496   1.874   0.066
 2564SOL    HW1 8591   1.556   1.871   7.011
 2564SOL    HW2 8592   1.431   1.949   0.057
 2565SOL     OW 8593   1.206   1.360   0.444
 2565SOL    HW1 8594   1.293   1.344   0.396
 2565SOL    HW2 8595   1.220   1.426   0.518
 2566SOL     OW 8596   3.010   0.962   1.509
 2566SOL    HW1 8597   2.911   0.970   1.496
 2566SOL    HW2 8598   3.028   0.897   1.583
 2567SOL     OW 8599   1.706   0.849   6.893
 2567SOL    HW1 8600   1.750   0.850   6.803
 2567SOL    HW2 8601   1.675   0.942   6.915
 2568SOL     OW 8602   2.239   5.663   0.476
 2568SOL    HW1 8603   2.282   5.727   0.539
 2568SOL    HW2 8604   2.151   5.700   0.444
 2569SOL     OW 8605   2.020   0.135   1.289
 2569SOL    HW1 8606   2.010   0.051   1.234
 2569SOL    HW2 8607   1.933   0.157   1.332
 2570SOL     OW 8608   0.463   6.273   4.898
 2570SOL    HW1 8609   0.470   6.372   4.907
 2570SOL    HW2 8610   0.487   6.230   4.985
 2571SOL     OW 8611   3.300   3.747   4.092
 2571SOL    HW1 8612   3.203   3.735   4.071
 2571SOL    HW2 8613   3.310   3.808   4.171
 2572SOL     OW 8614   1.563   5.090   2.354
 2572SOL    HW1 8615   1.658   5.075   2.328
 2572SOL    HW2 8616   1.512   5.126   2.276
 2573SOL     OW 8617   0.216   1.979   4.249
 2573SOL    HW1 8618   0.259   2.069   4.256
 2573SOL    HW2 8619   0.242   1.936   4.162
 2574SOL     OW 8620   0.715   4.101   2.039
 2574SOL    HW1 8621   0.643   4.066   2.100
 2574SOL    HW2 8622   0.672   4.144   1.960
 2575SOL     OW 8623   5.740   3.572   6.164
 2575SOL    HW1 8624   5.658   3.516   6.178
 2575SOL    HW2 8625   5.726   3.632   6.085
 2576SOL     OW 8626   2.044   0.013   3.525
 2576SOL    HW1 8627   1.992   0.021   3.610
 2576SOL    HW2 8628   2.141   0.033   3.543
 2577SOL     OW 8629   2.248   5.852   1.736
 2577SOL    HW1 8630   2.220   5.931   1.791
 2577SOL    HW2 8631   2.222   5.866   1.641
 2578SOL     OW 8632   4.638   2.486   3.980
 2578SOL    HW1 8633   4.586   2.443   3.906
 2578SOL    HW2 8634   4.605   2.453   4.068
 2579SOL     OW 8635   6.730   1.387   6.161
 2579SOL    HW1 8636   6.732   1.407   6.259
 2579SOL    HW2 8637   6.642   1.416   6.123
 2580SOL     OW 8638   1.660   1.633   6.077
 2580SOL    HW1 8639   1.583   1.691   6.052
 2580SOL    HW2 8640   1.740   1.658   6.023
 2581SOL     OW 8641   6.128   0.155   4.652
 2581SOL    HW1 8642   6.219   0.196   4.646
 2581SOL    HW2 8643   6.130   0.073   4.709
 2582SOL     OW 8644   0.483   5.115   2.795
 2582SOL    HW1 8645   0.442   5.153   2.878
 2582SOL    HW2 8646   0.582   5.120   2.801
 2583SOL     OW 8647   2.023   1.187   6.771
 2583SOL    HW1 8648   2.015   1.090   6.747
 2583SOL    HW2 8649   2.095   1.229   6.716
 2584SOL     OW 8650   5.294   0.143   2.489
 2584SOL    HW1 8651   5.339   0.232   2.494
 2584SOL    HW2 8652   5.348   0.081   2.432
 2585SOL     OW 8653   4.239   1.259   1.491
 2585SOL    HW1 8654   4.333   1.294   1.485
 2585SOL    HW2 8655   4.176   1.327   1.454
 2586SOL     OW 8656   6.653   1.778   4.566
 2586SOL    HW1 8657   6.737   1.793   4.514
 2586SOL    HW2 8658   6.592   1.857   4.554
 2587SOL     OW 8659   6.803   6.473   2.436
 2587SOL    HW1 8660   6.796   6.387   2.386
 2587SOL    HW2 8661   6.896   6.484   2.471
 2588SOL     OW 8662   5.111   0.690   1.836
 2588SOL    HW1 8663   5.015   0.671   1.858
 2588SOL    HW2 8664   5.115   0.752   1.758
 2589SOL     OW 8665   5.644   6.084   0.543
 2589SOL    HW1 8666   5.728   6.047   0.503
 2589SOL    HW2 8667   5.625   6.038   0.630
 2590SOL     OW 8668   3.993   6.803   2.835
 2590SOL    HW1 8669   3.994   6.901   2.815
 2590SOL    HW2 8670   4.051   6.755   2.769
 2591SOL     OW 8671   5.794   0.456   1.624
 2591SOL    HW1 8672   5.729   0.413   1.560
 2591SOL    HW2 8673   5.860   0.510   1.572
 2592SOL     OW 8674   3.288   5.092   1.578
 2592SOL    HW1 8675   3.294   5.050   1.669
 2592SOL    HW2 8676   3.251   5.185   1.587
 2593SOL     OW 8677   3.192   6.845   2.466
 2593SOL    HW1 8678   3.248   6.766   2.443
 2593SOL    HW2 8679   3.111   6.847   2.407
 2594SOL     OW 8680   1.314   6.527   6.027
 2594SOL    HW1 8681   1.279   6.614   6.062
 2594SOL    HW2 8682   1.277   6.510   5.936
 2595SOL     OW 8683   6.219   3.074   4.226
 2595SOL    HW1 8684   6.139   3.038   4.274
 2595SOL    HW2 8685   6.257   3.151   4.278
 2596SOL     OW 8686   4.654   2.369   1.683
 2596SOL    HW1 8687   4.714   2.349   1.605
 2596SOL    HW2 8688   4.605   2.454   1.666
 2597SOL     OW 8689   1.859   2.567   6.653
 2597SOL    HW1 8690   1.827   2.531   6.740
 2597SOL    HW2 8691   1.933   2.509   6.618
 2598SOL     OW 8692   5.851   2.547   2.525
 2598SOL    HW1 8693   5.927   2.559   2.588
 2598SOL    HW2 8694   5.845   2.451   2.498
 2599SOL     OW 8695   4.347   4.032   6.696
 2599SOL    HW1 8696   4.378   4.095   6.625
 2599SOL    HW2 8697   4.249   4.045   6.712
 2600SOL     OW 8698   6.747   3.481   3.319
 2600SOL    HW1 8699   6.800   3.411   3.367
 2600SOL    HW2 8700   6.721   3.553   3.383
 2601SOL     OW 8701   3.573   3.069   5.568
 2601SOL    HW1 8702   3.573   2.972   5.546
 2601SOL    HW2 8703   3.637   3.117   5.507
 2602SOL     OW 8704   5.789   5.669   5.545
 2602SOL    HW1 8705   5.832   5.608   5.479
 2602SOL    HW2 8706   5.728   5.733   5.497
 2603SOL     OW 8707   2.615   2.875   0.072
 2603SOL    HW1 8708   2.539   2.927   0.034
 2603SOL    HW2 8709   2.584   2.783   0.096
 2604SOL     OW 8710   5.836   1.280   1.084
 2604SOL    HW1 8711   5.797   1.190   1.064
 2604SOL    HW2 8712   5.879   1.278   1.175
 2605SOL     OW 8713   4.887   3.939   3.761
 2605SOL    HW1 8714   4.875   4.009   3.831
 2605SOL    HW2 8715   4.939   3.862   3.799
 2606SOL     OW 8716   0.202   4.402   1.202
 2606SOL    HW1 8717   0.202   4.489   1.154
 2606SOL    HW2 8718   0.132   4.403   1.274
 2607SOL     OW 8719   0.459   2.145   4.820
 2607SOL    HW1 8720   0.421   2.238   4.825
 2607SOL    HW2 8721   0.558   2.150   4.814
 2608SOL     OW 8722   4.931   0.225   0.617
 2608SOL    HW1 8723   4.960   0.305   0.671
 2608SOL    HW2 8724   4.963   0.235   0.523
 2609SOL     OW 8725   0.280   2.478   4.032
 2609SOL    HW1 8726   0.222   2.536   4.089
 2609SOL    HW2 8727   0.223   2.418   3.976
 2610SOL     OW 8728   5.756   5.855   4.823
 2610SOL    HW1 8729   5.688   5.928   4.824
 2610SOL    HW2 8730   5.720   5.776   4.774
 2611SOL     OW 8731   2.792   6.437   1.965
 2611SOL    HW1 8732   2.854   6.509   1.996
 2611SOL    HW2 8733   2.749   6.393   2.044
 2612SOL     OW 8734   5.953   6.952   4.890
 2612SOL    HW1 8735   5.933   6.996   4.978
 2612SOL    HW2 8736   5.883   6.884   4.870
 2613SOL     OW 8737   3.746   1.001   1.133
 2613SOL    HW1 8738   3.713   0.909   1.112
 2613SOL    HW2 8739   3.682   1.069   1.098
 2614SOL     OW 8740   0.097   6.004   6.383
 2614SOL    HW1 8741   0.176   6.043   6.432
 2614SOL    HW2 8742   0.040   6.078   6.349
 2615SOL     OW 8743   5.397   5.191   1.736
 2615SOL    HW1 8744   5.393   5.203   1.835
 2615SOL    HW2 8745   5.471   5.127   1.713
 2616SOL     OW 8746   4.103   3.472   2.569
 2616SOL    HW1 8747   4.027   3.537   2.564
 2616SOL    HW2 8748   4.083   3.392   2.512
 2617SOL     OW 8749   3.595   0.321   1.530
 2617SOL    HW1 8750   3.659   0.317   1.454
 2617SOL    HW2 8751   3.591   0.414   1.566
 2618SOL     OW 8752   1.049   0.384   0.470
 2618SOL    HW1 8753   1.001   0.456   0.519
 2618SOL    HW2 8754   1.008   0.372   0.379
 2619SOL     OW 8755   5.278   1.292   1.040
 2619SOL    HW1 8756   5.318   1.374   0.999
 2619SOL    HW2 8757   5.299   1.213   0.982
 2620SOL     OW 8758   1.723   4.307   4.910
 2620SOL    HW1 8759   1.793   4.237   4.923
 2620SOL    HW2 8760   1.727   4.341   4.816
 2621SOL     OW 8761   1.484   4.259   4.026
 2621SOL    HW1 8762   1.405   4.268   4.086
 2621SOL    HW2 8763   1.454   4.255   3.931
 2622SOL     OW 8764   2.649   3.054   6.063
 2622SOL    HW1 8765   2.567   3.009   6.028
 2622SOL    HW2 8766   2.707   2.986   6.109
 2623SOL     OW 8767   3.230   1.071   6.067
 2623SOL    HW1 8768   3.287   1.009   6.120
 2623SOL    HW2 8769   3.209   1.152   6.120
 2624SOL     OW 8770   6.410   2.308   4.171
 2624SOL    HW1 8771   6.480   2.237   4.166
 2624SOL    HW2 8772   6.326   2.275   4.128
 2625SOL     OW 8773   4.892   0.744   5.143
 2625SOL    HW1 8774   4.814   0.713   5.196
 2625SOL    HW2 8775   4.972   0.689   5.166
 2626SOL     OW 8776   2.617   0.007   2.243
 2626SOL    HW1 8777   2.652   0.031   2.153
 2626SOL    HW2 8778   2.677   0.046   2.313
 2627SOL     OW 8779   0.044   0.543   4.466
 2627SOL    HW1 8780   6.997   0.565   4.533
 2627SOL    HW2 8781   0.022   0.587   4.379
 2628SOL     OW 8782   3.285   5.878   5.553
 2628SOL    HW1 8783   3.194   5.848   5.526
 2628SOL    HW2 8784   3.348   5.800   5.553
 2629SOL     OW 8785   3.158   4.261   1.390
 2629SOL    HW1 8786   3.104   4.252   1.474
 2629SOL    HW2 8787   3.238   4.202   1.396
 2630SOL     OW 8788   2.918   2.231   2.382
 2630SOL    HW1 8789   2.910   2.237   2.282
 2630SOL    HW2 8790   2.851   2.291   2.425
 2631SOL     OW 8791   4.523   6.651   4.673
 2631SOL    HW1 8792   4.542   6.636   4.770
 2631SOL    HW2 8793   4.427   6.628   4.654
 2632SOL     OW 8794   5.686   1.637   1.121
 2632SOL    HW1 8795   5.610   1.687   1.080
 2632SOL    HW2 8796   5.721   1.569   1.055
 2633SOL     OW 8797   6.893   2.856   6.478
 2633SOL    HW1 8798   6.827   2.853   6.553
 2633SOL    HW2 8799   6.848   2.830   6.393
 2634SOL     OW 8800   2.919   5.408   1.151
 2634SOL    HW1 8801   2.864   5.327   1.132
 2634SOL    HW2 8802   3.009   5.381   1.184
 2635SOL     OW 8803   5.392   4.522   3.478
 2635SOL    HW1 8804   5.394   4.606   3.531
 2635SOL    HW2 8805   5.322   4.460   3.515
 2636SOL     OW 8806   5.987   0.459   5.075
 2636SOL    HW1 8807   6.060   0.525   5.062
 2636SOL    HW2 8808   5.910   0.503   5.121
 2637SOL     OW 8809   4.859   6.799   2.646
 2637SOL    HW1 8810   4.925   6.872   2.663
 2637SOL    HW2 8811   4.770   6.839   2.626
 2638SOL     OW 8812   5.734   5.685   1.193
 2638SOL    HW1 8813   5.706   5.711   1.285
 2638SOL    HW2 8814   5.832   5.701   1.182
 2639SOL     OW 8815   6.778   6.620   0.167
 2639SOL    HW1 8816   6.721   6.693   0.128
 2639SOL    HW2 8817   6.742   6.531   0.139
 2640SOL     OW 8818   6.398   6.968   6.518
 2640SOL    HW1 8819   6.401   0.037   6.484
 2640SOL    HW2 8820   6.391   6.969   6.618
 2641SOL     OW 8821   5.885   5.325   0.144
 2641SOL    HW1 8822   5.794   5.294   0.174
 2641SOL    HW2 8823   5.950   5.249   0.153
 2642SOL     OW 8824   6.568   7.013   3.558
 2642SOL    HW1 8825   6.665   6.989   3.567
 2642SOL    HW2 8826   6.556   0.051   3.480
 2643SOL     OW 8827   0.995   0.642   2.571
 2643SOL    HW1 8828   0.954   0.576   2.508
 2643SOL    HW2 8829   1.064   0.596   2.627
 2644SOL     OW 8830   0.650   5.403   6.256
 2644SOL    HW1 8831   0.634   5.307   6.234
 2644SOL    HW2 8832   0.641   5.417   6.355
 2645SOL     OW 8833   6.181   5.267   5.695
 2645SOL    HW1 8834   6.264   5.309   5.730
 2645SOL    HW2 8835   6.106   5.284   5.759
 2646SOL     OW 8836   6.621   6.077   6.896
 2646SOL    HW1 8837   6.649   6.008   6.962
 2646SOL    HW2 8838   6.596   6.033   6.810
 2647SOL     OW 8839   3.527   2.520   0.660
 2647SOL    HW1 8840   3.555   2.537   0.754
 2647SOL    HW2 8841   3.605   2.532   0.599
 2648SOL     OW 8842   3.057   0.835   2.547
 2648SOL    HW1 8843   3.128   0.886   2.595
 2648SOL    HW2 8844   2.967   0.869   2.574
 2649SOL     OW 8845   3.676   2.376   5.654
 2649SOL    HW1 8846   3.703   2.362   5.749
 2649SOL    HW2 8847   3.637   2.467   5.642
 2650SOL     OW 8848   0.218   6.192   1.837
 2650SOL    HW1 8849   0.292   6.205   1.772
 2650SOL    HW2 8850   0.238   6.113   1.895
 2651SOL     OW 8851   0.792   0.198   3.865
 2651SOL    HW1 8852   0.716   0.174   3.925
 2651SOL    HW2 8853   0.761   0.199   3.770
 2652SOL     OW 8854   3.143   3.523   2.359
 2652SOL    HW1 8855   3.207   3.495   2.287
 2652SOL    HW2 8856   3.191   3.577   2.428
 2653SOL     OW 8857   6.830   5.591   6.407
 2653SOL    HW1 8858   6.732   5.606   6.419
 2653SOL    HW2 8859   6.868   5.551   6.491
 2654SOL     OW 8860   5.400   2.342   6.450
 2654SOL    HW1 8861   5.319   2.290   6.425
 2654SOL    HW2 8862   5.435   2.390   6.369
 2655SOL     OW 8863   5.218   5.534   4.919
 2655SOL    HW1 8864   5.279   5.530   4.839
 2655SOL    HW2 8865   5.178   5.625   4.926
 2656SOL     OW 8866   5.746   3.679   3.547
 2656SOL    HW1 8867   5.840   3.691   3.513
 2656SOL    HW2 8868   5.746   3.681   3.647
 2657SOL     OW 8869   2.426   2.547   5.772
 2657SOL    HW1 8870   2.507   2.499   5.805
 2657SOL    HW2 8871   2.427   2.550   5.672
 2658SOL     OW 8872   5.862   4.394   5.753
 2658SOL    HW1 8873   5.874   4.306   5.706
 2658SOL    HW2 8874   5.935   4.456   5.727
 2659SOL     OW 8875   6.491   2.377   3.124
 2659SOL    HW1 8876   6.408   2.416   3.164
 2659SOL    HW2 8877   6.543   2.450   3.079
 2660SOL     OW 8878   6.407   1.999   3.486
 2660SOL    HW1 8879   6.452   2.035   3.405
 2660SOL    HW2 8880   6.339   2.065   3.518
 2661SOL     OW 8881   4.634   6.190   1.455
 2661SOL    HW1 8882   4.710   6.127   1.438
 2661SOL    HW2 8883   4.646   6.232   1.545
 2662SOL     OW 8884   3.354   6.838   3.882
 2662SOL    HW1 8885   3.424   6.797   3.941
 2662SOL    HW2 8886   3.365   6.805   3.789
 2663SOL     OW 8887   0.759   4.453   2.832
 2663SOL    HW1 8888   0.842   4.397   2.824
 2663SOL    HW2 8889   0.766   4.510   2.914
 2664SOL     OW 8890   4.191   3.583   1.865
 2664SOL    HW1 8891   4.134   3.608   1.943
 2664SOL    HW2 8892   4.224   3.665   1.820
 2665SOL     OW 8893   4.083   0.773   4.526
 2665SOL    HW1 8894   4.163   0.831   4.539
 2665SOL    HW2 8895   4.005   0.813   4.574
 2666SOL     OW 8896   5.458   6.052   1.538
 2666SOL    HW1 8897   5.363   6.023   1.548
 2666SOL    HW2 8898   5.496   6.072   1.628
 2667SOL     OW 8899   1.443   5.287   3.944
 2667SOL    HW1 8900   1.448   5.230   4.026
 2667SOL    HW2 8901   1.362   5.262   3.891
 2668SOL     OW 8902   0.074   2.357   5.884
 2668SOL    HW1 8903   0.015   2.391   5.958
 2668SOL    HW2 8904   0.114   2.434   5.835
 2669SOL     OW 8905   4.270   5.097   5.825
 2669SOL    HW1 8906   4.248   5.003   5.850
 2669SOL    HW2 8907   4.200   5.132   5.762
 2670SOL     OW 8908   1.463   0.396   6.486
 2670SOL    HW1 8909   1.508   0.340   6.417
 2670SOL    HW2 8910   1.529   0.460   6.526
 2671SOL     OW 8911   3.255   3.596   5.656
 2671SOL    HW1 8912   3.355   3.587   5.659
 2671SOL    HW2 8913   3.222   3.618   5.748
 2672SOL     OW 8914   0.538   4.450   0.519
 2672SOL    HW1 8915   0.518   4.352   0.517
 2672SOL    HW2 8916   0.634   4.464   0.544
 2673SOL     OW 8917   4.714   2.147   3.743
 2673SOL    HW1 8918   4.693   2.180   3.651
 2673SOL    HW2 8919   4.633   2.159   3.801
 2674SOL     OW 8920   5.004   5.371   5.513
 2674SOL    HW1 8921   5.032   5.441   5.579
 2674SOL    HW2 8922   5.085   5.335   5.467
 2675SOL     OW 8923   0.379   3.658   5.682
 2675SOL    HW1 8924   0.287   3.650   5.644
 2675SOL    HW2 8925   0.413   3.751   5.667
 2676SOL     OW 8926   4.241   0.335   2.217
 2676SOL    HW1 8927   4.206   0.344   2.124
 2676SOL    HW2 8928   4.245   0.238   2.241
 2677SOL     OW 8929   2.634   4.606   2.305
 2677SOL    HW1 8930   2.679   4.583   2.218
 2677SOL    HW2 8931   2.560   4.541   2.322
 2678SOL     OW 8932   0.267   5.298   6.275
 2678SOL    HW1 8933   0.199   5.265   6.210
 2678SOL    HW2 8934   0.283   5.229   6.345
 2679SOL     OW 8935   2.500   4.505   0.955
 2679SOL    HW1 8936   2.471   4.520   1.050
 2679SOL    HW2 8937   2.439   4.555   0.893
 2680SOL     OW 8938   1.029   2.006   1.714
 2680SOL    HW1 8939   1.117   1.994   1.761
 2680SOL    HW2 8940   1.008   1.923   1.662
 2681SOL     OW 8941   1.239   1.674   2.592
 2681SOL    HW1 8942   1.200   1.618   2.520
 2681SOL    HW2 8943   1.337   1.655   2.600
 2682SOL     OW 8944   6.438   2.474   3.527
 2682SOL    HW1 8945   6.485   2.408   3.469
 2682SOL    HW2 8946   6.406   2.551   3.471
 2683SOL     OW 8947   1.355   0.298   1.647
 2683SOL    HW1 8948   1.338   0.343   1.559
 2683SOL    HW2 8949   1.280   0.319   1.710
 2684SOL     OW 8950   2.642   6.035   3.080
 2684SOL    HW1 8951   2.563   6.096   3.074
 2684SOL    HW2 8952   2.611   5.943   3.106
 2685SOL     OW 8953   5.132   5.771   5.232
 2685SOL    HW1 8954   5.039   5.747   5.258
 2685SOL    HW2 8955   5.144   5.870   5.239
 2686SOL     OW 8956   1.410   2.958   4.217
 2686SOL    HW1 8957   1.379   2.875   4.261
 2686SOL    HW2 8958   1.356   3.036   4.248
 2687SOL     OW 8959   5.075   5.609   3.079
 2687SOL    HW1 8960   4.982   5.590   3.112
 2687SOL    HW2 8961   5.129   5.525   3.081
 2688SOL     OW 8962   3.671   4.961   6.238
 2688SOL    HW1 8963   3.573   4.943   6.238
 2688SOL    HW2 8964   3.720   4.878   6.267
 2689SOL     OW 8965   6.789   2.882   4.136
 2689SOL    HW1 8966   6.735   2.955   4.093
 2689SOL    HW2 8967   6.875   2.920   4.168
 2690SOL     OW 8968   3.056   3.502   3.470
 2690SOL    HW1 8969   3.065   3.563   3.391
 2690SOL    HW2 8970   3.052   3.407   3.440
 2691SOL     OW 8971   1.204   6.103   1.637
 2691SOL    HW1 8972   1.183   6.196   1.667
 2691SOL    HW2 8973   1.265   6.107   1.557
 2692SOL     OW 8974   6.716   6.104   3.077
 2692SOL    HW1 8975   6.704   6.101   2.977
 2692SOL    HW2 8976   6.718   6.199   3.107
 2693SOL     OW 8977   1.909   3.893   3.251
 2693SOL    HW1 8978   1.881   3.801   3.278
 2693SOL    HW2 8979   1.997   3.888   3.203
 2694SOL     OW 8980   2.628   0.184   3.374
 2694SOL    HW1 8981   2.612   0.142   3.463
 2694SOL    HW2 8982   2.726   0.182   3.354
 2695SOL     OW 8983   3.718   2.176   2.810
 2695SOL    HW1 8984   3.639   2.236   2.798
 2695SOL    HW2 8985   3.776   2.179   2.729
 2696SOL     OW 8986   3.865   3.885   5.463
 2696SOL    HW1 8987   3.916   3.926   5.388
 2696SOL    HW2 8988   3.779   3.934   5.475
 2697SOL     OW 8989   2.476   2.474   4.592
 2697SOL    HW1 8990   2.413   2.551   4.603
 2697SOL    HW2 8991   2.535   2.468   4.672
 2698SOL     OW 8992   2.096   3.528   0.087
 2698SOL    HW1 8993   2.106   3.614   0.138
 2698SOL    HW2 8994   2.182   3.478   0.088
 2699SOL     OW 8995   3.878   5.679   1.712
 2699SOL    HW1 8996   3.899   5.731   1.629
 2699SOL    HW2 8997   3.857   5.584   1.687
 2700SOL     OW 8998   1.719   3.638   3.129
 2700SOL    HW1 8999   1.745   3.543   3.114
 2700SOL    HW2 9000   1.740   3.692   3.047
 2701SOL     OW 9001   3.401   6.694   6.211
 2701SOL    HW1 9002   3.331   6.679   6.280
 2701SOL    HW2 9003   3.436   6.788   6.218
 2702SOL     OW 9004   0.232   0.144   2.795
 2702SOL    HW1 9005   0.169   0.089   2.741
 2702SOL    HW2 9006   0.294   0.084   2.845
 2703SOL     OW 9007   2.012   1.507   2.768
 2703SOL    HW1 9008   2.009   1.421   2.818
 2703SOL    HW2 9009   1.975   1.493   2.676
 2704SOL     OW 9010   1.969   5.686   0.440
 2704SOL    HW1 9011   1.952   5.619   0.367
 2704SOL    HW2 9012   1.942   5.777   0.408
 2705SOL     OW 9013   0.488   4.992   3.081
 2705SOL    HW1 9014   0.405   4.982   3.027
 2705SOL    HW2 9015   0.465   5.026   3.172
 2706SOL     OW 9016   6.845   1.971   2.007
 2706SOL    HW1 9017   6.933   1.985   1.962
 2706SOL    HW2 9018   6.819   2.054   2.056
 2707SOL     OW 9019   2.094   1.555   5.555
 2707SOL    HW1 9020   2.005   1.601   5.554
 2707SOL    HW2 9021   2.132   1.557   5.647
 2708SOL     OW 9022   1.949   2.654   0.998
 2708SOL    HW1 9023   1.965   2.564   0.957
 2708SOL    HW2 9024   2.030   2.681   1.050
 2709SOL     OW 9025   4.745   6.473   1.511
 2709SOL    HW1 9026   4.660   6.446   1.465
 2709SOL    HW2 9027   4.735   6.460   1.610
 2710SOL     OW 9028   5.403   3.851   2.254
 2710SOL    HW1 9029   5.339   3.787   2.296
 2710SOL    HW2 9030   5.409   3.833   2.156
 2711SOL     OW 9031   1.143   0.360   1.800
 2711SOL    HW1 9032   1.162   0.315   1.888
 2711SOL    HW2 9033   1.067   0.313   1.755
 2712SOL     OW 9034   3.261   4.706   0.813
 2712SOL    HW1 9035   3.234   4.777   0.879
 2712SOL    HW2 9036   3.218   4.619   0.838
 2713SOL     OW 9037   2.267   3.035   4.774
 2713SOL    HW1 9038   2.286   3.011   4.870
 2713SOL    HW2 9039   2.334   3.103   4.743
 2714SOL     OW 9040   5.236   0.149   5.414
 2714SOL    HW1 9041   5.153   0.097   5.393
 2714SOL    HW2 9042   5.290   0.161   5.331
 2715SOL     OW 9043   6.883   0.758   0.099
 2715SOL    HW1 9044   6.817   0.822   0.138
 2715SOL    HW2 9045   6.850   0.664   0.113
 2716SOL     OW 9046   0.390   6.763   2.660
 2716SOL    HW1 9047   0.450   6.714   2.724
 2716SOL    HW2 9048   0.424   6.856   2.647
 2717SOL     OW 9049   1.160   0.502   2.859
 2717SOL    HW1 9050   1.252   0.539   2.851
 2717SOL    HW2 9051   1.107   0.556   2.925
 2718SOL     OW 9052   1.553   4.596   3.536
 2718SOL    HW1 9053   1.633   4.569   3.590
 2718SOL    HW2 9054   1.558   4.551   3.447
 2719SOL     OW 9055   4.035   5.149   1.977
 2719SOL    HW1 9056   3.999   5.238   1.947
 2719SOL    HW2 9057   4.023   5.082   1.904
 2720SOL     OW 9058   1.193   5.773   4.231
 2720SOL    HW1 9059   1.203   5.766   4.131
 2720SOL    HW2 9060   1.263   5.834   4.267
 2721SOL     OW 9061   4.443   0.333   4.268
 2721SOL    HW1 9062   4.530   0.367   4.232
 2721SOL    HW2 9063   4.461   0.264   4.339
 2722SOL     OW 9064   1.742   5.628   1.500
 2722SOL    HW1 9065   1.739   5.647   1.598
 2722SOL    HW2 9066   1.649   5.625   1.464
 2723SOL     OW 9067   1.077   1.285   5.156
 2723SOL    HW1 9068   1.037   1.198   5.184
 2723SOL    HW2 9069   1.005   1.354   5.148
 2724SOL     OW 9070   3.192   5.479   6.387
 2724SOL    HW1 9071   3.235   5.509   6.302
 2724SOL    HW2 9072   3.094   5.467   6.372
 2725SOL     OW 9073   3.313   5.129   3.105
 2725SOL    HW1 9074   3.362   5.041   3.102
 2725SOL    HW2 9075   3.218   5.114   3.079
 2726SOL     OW 9076   5.066   5.864   1.974
 2726SOL    HW1 9077   4.982   5.813   1.956
 2726SOL    HW2 9078   5.143   5.818   1.930
 2727SOL     OW 9079   2.395   5.349   3.177
 2727SOL    HW1 9080   2.305   5.384   3.149
 2727SOL    HW2 9081   2.401   5.349   3.276
 2728SOL     OW 9082   3.417   0.362   5.965
 2728SOL    HW1 9083   3.446   0.383   5.872
 2728SOL    HW2 9084   3.458   0.276   5.995
 2729SOL     OW 9085   6.299   4.953   2.819
 2729SOL    HW1 9086   6.358   5.001   2.883
 2729SOL    HW2 9087   6.351   4.925   2.739
 2730SOL     OW 9088   1.810   4.677   1.281
 2730SOL    HW1 9089   1.769   4.642   1.196
 2730SOL    HW2 9090   1.862   4.605   1.326
 2731SOL     OW 9091   3.056   3.848   1.667
 2731SOL    HW1 9092   3.100   3.772   1.715
 2731SOL    HW2 9093   3.053   3.928   1.726
 2732SOL     OW 9094   5.534   2.307   3.036
 2732SOL    HW1 9095   5.599   2.373   3.071
 2732SOL    HW2 9096   5.462   2.290   3.104
 2733SOL     OW 9097   1.478   0.745   5.716
 2733SOL    HW1 9098   1.478   0.810   5.640
 2733SOL    HW2 9099   1.463   0.652   5.680
 2734SOL     OW 9100   2.324   6.022   3.966
 2734SOL    HW1 9101   2.372   6.032   3.878
 2734SOL    HW2 9102   2.335   5.929   4.000
 2735SOL     OW 9103   1.827   4.300   2.212
 2735SOL    HW1 9104   1.875   4.334   2.131
 2735SOL    HW2 9105   1.868   4.213   2.241
 2736SOL     OW 9106   4.333   0.157   5.850
 2736SOL    HW1 9107   4.329   0.172   5.752
 2736SOL    HW2 9108   4.357   0.243   5.896
 2737SOL     OW 9109   4.290   3.528   6.040
 2737SOL    HW1 9110   4.339   3.586   5.975
 2737SOL    HW2 9111   4.206   3.493   5.999
 2738SOL     OW 9112   5.462   4.926   3.855
 2738SOL    HW1 9113   5.520   4.851   3.887
 2738SOL    HW2 9114   5.374   4.923   3.901
 2739SOL     OW 9115   5.937   3.563   1.046
 2739SOL    HW1 9116   5.866   3.557   0.976
 2739SOL    HW2 9117   5.911   3.509   1.126
 2740SOL     OW 9118   5.941   2.205   2.766
 2740SOL    HW1 9119   5.966   2.194   2.670
 2740SOL    HW2 9120   5.990   2.137   2.821
 2741SOL     OW 9121   0.976   2.652   6.075
 2741SOL    HW1 9122   1.034   2.666   6.156
 2741SOL    HW2 9123   1.034   2.643   5.994
 2742SOL     OW 9124   2.000   6.522   6.011
 2742SOL    HW1 9125   2.097   6.510   6.034
 2742SOL    HW2 9126   1.971   6.614   6.037
 2743SOL     OW 9127   5.146   4.814   0.803
 2743SOL    HW1 9128   5.181   4.906   0.783
 2743SOL    HW2 9129   5.210   4.746   0.769
 2744SOL     OW 9130   4.022   1.222   6.460
 2744SOL    HW1 9131   4.024   1.319   6.436
 2744SOL    HW2 9132   3.974   1.211   6.547
 2745SOL     OW 9133   2.096   5.837   1.067
 2745SOL    HW1 9134   2.150   5.851   0.985
 2745SOL    HW2 9135   2.063   5.926   1.100
 2746SOL     OW 9136   1.537   1.896   6.453
 2746SOL    HW1 9137   1.632   1.903   6.422
 2746SOL    HW2 9138   1.528   1.818   6.514
 2747SOL     OW 9139   5.340   5.774   3.747
 2747SOL    HW1 9140   5.353   5.828   3.831
 2747SOL    HW2 9141   5.382   5.684   3.759
 2748SOL     OW 9142   4.071   1.568   4.173
 2748SOL    HW1 9143   4.097   1.479   4.135
 2748SOL    HW2 9144   4.037   1.555   4.266
 2749SOL     OW 9145   4.611   5.177   4.259
 2749SOL    HW1 9146   4.643   5.264   4.224
 2749SOL    HW2 9147   4.564   5.126   4.186
 2750SOL     OW 9148   0.983   5.981   1.728
 2750SOL    HW1 9149   0.999   5.932   1.813
 2750SOL    HW2 9150   1.071   5.999   1.683
 2751SOL     OW 9151   1.084   6.796   6.809
 2751SOL    HW1 9152   1.073   6.889   6.845
 2751SOL    HW2 9153   1.104   6.733   6.884
 2752SOL     OW 9154   6.206   6.035   5.247
 2752SOL    HW1 9155   6.184   6.129   5.220
 2752SOL    HW2 9156   6.216   6.031   5.346
 2753SOL     OW 9157   2.683   5.885   5.095
 2753SOL    HW1 9158   2.724   5.932   5.016
 2753SOL    HW2 9159   2.601   5.935   5.124
 2754SOL     OW 9160   0.833   6.179   4.552
 2754SOL    HW1 9161   0.735   6.163   4.537
 2754SOL    HW2 9162   0.854   6.171   4.649
 2755SOL     OW 9163   3.953   6.024   2.268
 2755SOL    HW1 9164   3.925   6.050   2.360
 2755SOL    HW2 9165   3.879   6.045   2.203
 2756SOL     OW 9166   0.490   2.684   5.427
 2756SOL    HW1 9167   0.408   2.640   5.391
 2756SOL    HW2 9168   0.571   2.634   5.395
 2757SOL     OW 9169   4.237   3.283   6.835
 2757SOL    HW1 9170   4.262   3.284   6.738
 2757SOL    HW2 9171   4.319   3.275   6.891
 2758SOL     OW 9172   0.174   6.394   1.986
 2758SOL    HW1 9173   0.185   6.306   1.940
 2758SOL    HW2 9174   0.264   6.434   2.006
 2759SOL     OW 9175   3.605   3.409   5.961
 2759SOL    HW1 9176   3.626   3.472   5.887
 2759SOL    HW2 9177   3.581   3.320   5.924
 2760SOL     OW 9178   5.927   6.129   2.787
 2760SOL    HW1 9179   6.016   6.163   2.819
 2760SOL    HW2 9180   5.904   6.174   2.701
 2761SOL     OW 9181   1.256   2.795   3.642
 2761SOL    HW1 9182   1.354   2.777   3.630
 2761SOL    HW2 9183   1.232   2.879   3.595
 2762SOL     OW 9184   2.878   2.383   0.556
 2762SOL    HW1 9185   2.834   2.307   0.603
 2762SOL    HW2 9186   2.817   2.420   0.486
 2763SOL     OW 9187   6.570   1.864   4.102
 2763SOL    HW1 9188   6.597   1.768   4.105
 2763SOL    HW2 9189   6.650   1.921   4.085
 2764SOL     OW 9190   0.749   2.887   2.478
 2764SOL    HW1 9191   0.781   2.923   2.566
 2764SOL    HW2 9192   0.792   2.798   2.461
 2765SOL     OW 9193   6.390   6.747   6.366
 2765SOL    HW1 9194   6.300   6.708   6.344
 2765SOL    HW2 9195   6.379   6.822   6.431
 2766SOL     OW 9196   4.548   0.030   0.239
 2766SOL    HW1 9197   4.629   7.012   0.279
 2766SOL    HW2 9198   4.466   7.023   0.288
 2767SOL     OW 9199   0.353   5.064   6.415
 2767SOL    HW1 9200   0.450   5.045   6.425
 2767SOL    HW2 9201   0.303   4.978   6.403
 2768SOL     OW 9202   3.980   6.723   1.592
 2768SOL    HW1 9203   3.950   6.818   1.587
 2768SOL    HW2 9204   3.914   6.665   1.545
 2769SOL     OW 9205   0.595   4.645   5.780
 2769SOL    HW1 9206   0.679   4.599   5.752
 2769SOL    HW2 9207   0.543   4.672   5.699
 2770SOL     OW 9208   2.692   6.150   0.900
 2770SOL    HW1 9209   2.693   6.150   0.800
 2770SOL    HW2 9210   2.599   6.130   0.932
 2771SOL     OW 9211   4.765   0.247   4.941
 2771SOL    HW1 9212   4.814   0.326   4.903
 2771SOL    HW2 9213   4.796   0.164   4.896
 2772SOL     OW 9214   4.469   0.696   3.856
 2772SOL    HW1 9215   4.473   0.639   3.938
 2772SOL    HW2 9216   4.548   0.675   3.797
 2773SOL     OW 9217   5.792   2.537   5.037
 2773SOL    HW1 9218   5.720   2.576   5.095
 2773SOL    HW2 9219   5.868   2.507   5.095
 2774SOL     OW 9220   5.831   1.956   4.337
 2774SOL    HW1 9221   5.890   1.979   4.259
 2774SOL    HW2 9222   5.764   1.888   4.308
 2775SOL     OW 9223   0.087   3.259   3.958
 2775SOL    HW1 9224   0.161   3.252   4.025
 2775SOL    HW2 9225   0.068   3.356   3.940
 2776SOL     OW 9226   4.780   5.229   6.131
 2776SOL    HW1 9227   4.814   5.317   6.099
 2776SOL    HW2 9228   4.856   5.166   6.145
 2777SOL     OW 9229   2.629   2.357   6.666
 2777SOL    HW1 9230   2.663   2.264   6.674
 2777SOL    HW2 9231   2.671   2.402   6.588
 2778SOL     OW 9232   2.535   0.693   5.929
 2778SOL    HW1 9233   2.454   0.731   5.885
 2778SOL    HW2 9234   2.587   0.766   5.973
 2779SOL     OW 9235   4.626   0.960   1.184
 2779SOL    HW1 9236   4.593   1.021   1.112
 2779SOL    HW2 9237   4.620   1.008   1.272
 2780SOL     OW 9238   0.002   1.487   5.185
 2780SOL    HW1 9239   0.024   1.480   5.283
 2780SOL    HW2 9240   7.019   1.584   5.161
 2781SOL     OW 9241   5.105   1.150   3.420
 2781SOL    HW1 9242   5.096   1.191   3.510
 2781SOL    HW2 9243   5.135   1.054   3.430
 2782SOL     OW 9244   5.313   0.941   6.093
 2782SOL    HW1 9245   5.314   0.856   6.040
 2782SOL    HW2 9246   5.403   0.985   6.087
 2783SOL     OW 9247   5.930   3.545   1.546
 2783SOL    HW1 9248   5.914   3.574   1.640
 2783SOL    HW2 9249   5.955   3.448   1.545
 2784SOL     OW 9250   1.022   3.121   0.892
 2784SOL    HW1 9251   0.935   3.153   0.855
 2784SOL    HW2 9252   1.022   3.021   0.897
 2785SOL     OW 9253   6.065   3.351   2.415
 2785SOL    HW1 9254   6.005   3.351   2.335
 2785SOL    HW2 9255   6.020   3.304   2.491
 2786SOL     OW 9256   0.637   6.102   6.221
 2786SOL    HW1 9257   0.607   6.054   6.304
 2786SOL    HW2 9258   0.697   6.177   6.247
 2787SOL     OW 9259   0.095   5.432   6.797
 2787SOL    HW1 9260   0.011   5.379   6.804
 2787SOL    HW2 9261   0.122   5.440   6.701
 2788SOL     OW 9262   2.852   0.116   6.082
 2788SOL    HW1 9263   2.752   0.103   6.082
 2788SOL    HW2 9264   2.892   0.062   6.155
 2789SOL     OW 9265   0.724   2.139   4.863
 2789SOL    HW1 9266   0.693   2.157   4.956
 2789SOL    HW2 9267   0.800   2.201   4.841
 2790SOL     OW 9268   1.568   5.443   2.335
 2790SOL    HW1 9269   1.515   5.527   2.341
 2790SOL    HW2 9270   1.507   5.364   2.343
 2791SOL     OW 9271   1.203   3.018   3.468
 2791SOL    HW1 9272   1.209   3.085   3.395
 2791SOL    HW2 9273   1.115   3.027   3.515
 2792SOL     OW 9274   3.294   1.736   5.887
 2792SOL    HW1 9275   3.226   1.730   5.814
 2792SOL    HW2 9276   3.250   1.722   5.976
 2793SOL     OW 9277   3.758   3.665   0.607
 2793SOL    HW1 9278   3.663   3.635   0.611
 2793SOL    HW2 9279   3.789   3.666   0.512
 2794SOL     OW 9280   0.954   2.369   6.924
 2794SOL    HW1 9281   1.020   2.436   6.959
 2794SOL    HW2 9282   0.891   2.343   6.997
 2795SOL     OW 9283   1.354   6.071   1.339
 2795SOL    HW1 9284   1.378   6.045   1.246
 2795SOL    HW2 9285   1.414   6.146   1.369
 2796SOL     OW 9286   1.930   6.058   6.442
 2796SOL    HW1 9287   1.920   5.959   6.448
 2796SOL    HW2 9288   1.944   6.095   6.534
 2797SOL     OW 9289   5.158   5.057   3.280
 2797SOL    HW1 9290   5.173   5.041   3.378
 2797SOL    HW2 9291   5.235   5.109   3.242
 2798SOL     OW 9292   5.326   1.208   1.398
 2798SOL    HW1 9293   5.344   1.193   1.301
 2798SOL    HW2 9294   5.305   1.120   1.442
 2799SOL     OW 9295   3.821   6.574   4.285
 2799SOL    HW1 9296   3.888   6.555   4.212
 2799SOL    HW2 9297   3.772   6.490   4.307
 2800SOL     OW 9298   5.841   0.402   6.207
 2800SOL    HW1 9299   5.846   0.405   6.107
 2800SOL    HW2 9300   5.933   0.393   6.244
 2801SOL     OW 9301   0.076   4.698   4.099
 2801SOL    HW1 9302   0.001   4.736   4.044
 2801SOL    HW2 9303   0.051   4.606   4.129
 2802SOL     OW 9304   1.661   4.909   5.407
 2802SOL    HW1 9305   1.577   4.865   5.440
 2802SOL    HW2 9306   1.656   5.008   5.423
 2803SOL     OW 9307   3.844   2.326   6.109
 2803SOL    HW1 9308   3.820   2.374   6.193
 2803SOL    HW2 9309   3.933   2.282   6.120
 2804SOL     OW 9310   6.900   2.773   3.746
 2804SOL    HW1 9311   6.969   2.701   3.749
 2804SOL    HW2 9312   6.819   2.745   3.796
 2805SOL     OW 9313   3.286   3.177   0.881
 2805SOL    HW1 9314   3.297   3.081   0.906
 2805SOL    HW2 9315   3.227   3.184   0.801
 2806SOL     OW 9316   0.386   2.798   5.959
 2806SOL    HW1 9317   0.456   2.864   5.933
 2806SOL    HW2 9318   0.415   2.706   5.931
 2807SOL     OW 9319   4.041   1.410   3.657
 2807SOL    HW1 9320   3.980   1.485   3.682
 2807SOL    HW2 9321   3.990   1.324   3.658
 2808SOL     OW 9322   0.464   4.879   5.601
 2808SOL    HW1 9323   0.521   4.962   5.606
 2808SOL    HW2 9324   0.457   4.849   5.506
 2809SOL     OW 9325   0.367   5.321   2.024
 2809SOL    HW1 9326   0.268   5.316   2.033
 2809SOL    HW2 9327   0.405   5.376   2.098
 2810SOL     OW 9328   2.244   6.578   3.027
 2810SOL    HW1 9329   2.307   6.578   3.104
 2810SOL    HW2 9330   2.296   6.581   2.941
 2811SOL     OW 9331   1.029   1.119   0.846
 2811SOL    HW1 9332   0.969   1.133   0.767
 2811SOL    HW2 9333   1.092   1.197   0.855
 2812SOL     OW 9334   1.236   1.516   0.662
 2812SOL    HW1 9335   1.327   1.551   0.640
 2812SOL    HW2 9336   1.217   1.530   0.759
 2813SOL     OW 9337   0.715   3.479   2.048
 2813SOL    HW1 9338   0.812   3.458   2.053
 2813SOL    HW2 9339   0.662   3.394   2.050
 2814SOL     OW 9340   2.871   3.897   0.035
 2814SOL    HW1 9341   2.965   3.903   0.067
 2814SOL    HW2 9342   2.821   3.979   0.062
 2815SOL     OW 9343   0.356   4.838   4.735
 2815SOL    HW1 9344   0.286   4.887   4.682
 2815SOL    HW2 9345   0.403   4.902   4.795
 2816SOL     OW 9346   0.590   5.920   5.400
 2816SOL    HW1 9347   0.553   5.827   5.406
 2816SOL    HW2 9348   0.611   5.941   5.304
 2817SOL     OW 9349   3.456   0.697   2.222
 2817SOL    HW1 9350   3.444   0.772   2.288
 2817SOL    HW2 9351   3.408   0.616   2.256
 2818SOL     OW 9352   1.980   0.584   0.463
 2818SOL    HW1 9353   1.898   0.530   0.448
 2818SOL    HW2 9354   2.056   0.544   0.410
 2819SOL     OW 9355   0.779   0.182   6.532
 2819SOL    HW1 9356   0.829   0.238   6.466
 2819SOL    HW2 9357   0.780   0.087   6.502
 2820SOL     OW 9358   1.580   2.190   0.254
 2820SOL    HW1 9359   1.547   2.198   0.160
 2820SOL    HW2 9360   1.549   2.268   0.307
 2821SOL     OW 9361   3.362   3.540   6.030
 2821SOL    HW1 9362   3.376   3.639   6.025
 2821SOL    HW2 9363   3.450   3.494   6.017
 2822SOL     OW 9364   4.951   2.784   0.187
 2822SOL    HW1 9365   4.874   2.830   0.231
 2822SOL    HW2 9366   4.966   2.823   0.097
 2823SOL     OW 9367   4.895   3.007   1.222
 2823SOL    HW1 9368   4.825   3.060   1.269
 2823SOL    HW2 9369   4.905   2.918   1.266
 2824SOL     OW 9370   0.802   4.236   4.548
 2824SOL    HW1 9371   0.779   4.143   4.576
 2824SOL    HW2 9372   0.744   4.301   4.595
 2825SOL     OW 9373   5.298   1.394   6.490
 2825SOL    HW1 9374   5.333   1.318   6.434
 2825SOL    HW2 9375   5.352   1.401   6.574
 2826SOL     OW 9376   2.394   2.802   6.452
 2826SOL    HW1 9377   2.324   2.741   6.491
 2826SOL    HW2 9378   2.349   2.883   6.415
 2827SOL     OW 9379   6.117   1.512   6.494
 2827SOL    HW1 9380   6.109   1.608   6.467
 2827SOL    HW2 9381   6.027   1.469   6.488
 2828SOL     OW 9382   1.495   3.421   1.175
 2828SOL    HW1 9383   1.578   3.472   1.157
 2828SOL    HW2 9384   1.515   3.345   1.237
 2829SOL     OW 9385   3.364   3.464   2.159
 2829SOL    HW1 9386   3.463   3.455   2.153
 2829SOL    HW2 9387   3.340   3.561   2.168
 2830SOL     OW 9388   3.325   6.111   4.936
 2830SOL    HW1 9389   3.416   6.073   4.952
 2830SOL    HW2 9390   3.284   6.066   4.857
 2831SOL     OW 9391   5.839   1.640   1.812
 2831SOL    HW1 9392   5.790   1.562   1.853
 2831SOL    HW2 9393   5.787   1.674   1.734
 2832SOL     OW 9394   0.489   3.870   2.100
 2832SOL    HW1 9395   0.559   3.835   2.038
 2832SOL    HW2 9396   0.450   3.795   2.153
 2833SOL     OW 9397   1.255   2.801   2.504
 2833SOL    HW1 9398   1.310   2.857   2.442
 2833SOL    HW2 9399   1.158   2.811   2.481
 2834SOL     OW 9400   3.626   6.522   4.584
 2834SOL    HW1 9401   3.713   6.571   4.586
 2834SOL    HW2 9402   3.555   6.581   4.544
 2835SOL     OW 9403   6.291   0.499   6.777
 2835SOL    HW1 9404   6.377   0.534   6.814
 2835SOL    HW2 9405   6.217   0.562   6.800
 2836SOL     OW 9406   3.155   6.094   2.645
 2836SOL    HW1 9407   3.244   6.121   2.610
 2836SOL    HW2 9408   3.128   6.006   2.605
 2837SOL     OW 9409   4.828   4.540   1.416
 2837SOL    HW1 9410   4.898   4.479   1.377
 2837SOL    HW2 9411   4.765   4.568   1.344
 2838SOL     OW 9412   6.367   4.414   6.401
 2838SOL    HW1 9413   6.456   4.380   6.370
 2838SOL    HW2 9414   6.295   4.373   6.345
 2839SOL     OW 9415   6.019   3.628   5.387
 2839SOL    HW1 9416   5.960   3.555   5.422
 2839SOL    HW2 9417   5.988   3.655   5.296
 2840SOL     OW 9418   6.477   6.537   4.359
 2840SOL    HW1 9419   6.488   6.589   4.274
 2840SOL    HW2 9420   6.511   6.591   4.436
 2841SOL     OW 9421   5.472   4.124   2.377
 2841SOL    HW1 9422   5.452   4.033   2.341
 2841SOL    HW2 9423   5.405   4.189   2.340
 2842SOL     OW 9424   0.826   0.487   3.773
 2842SOL    HW1 9425   0.798   0.430   3.696
 2842SOL    HW2 9426   0.914   0.454   3.809
 2843SOL     OW 9427   2.388   2.557   3.433
 2843SOL    HW1 9428   2.377   2.647   3.473
 2843SOL    HW2 9429   2.321   2.544   3.360
 2844SOL     OW 9430   4.815   3.763   0.486
 2844SOL    HW1 9431   4.778   3.830   0.551
 2844SOL    HW2 9432   4.760   3.764   0.403
 2845SOL     OW 9433   2.868   1.649   1.993
 2845SOL    HW1 9434   2.926   1.717   2.038
 2845SOL    HW2 9435   2.877   1.561   2.039
 2846SOL     OW 9436   6.826   6.913   6.689
 2846SOL    HW1 9437   6.845   6.821   6.722
 2846SOL    HW2 9438   6.730   6.937   6.706
 2847SOL     OW 9439   4.840   5.220   1.274
 2847SOL    HW1 9440   4.889   5.252   1.355
 2847SOL    HW2 9441   4.906   5.188   1.206
 2848SOL     OW 9442   0.998   3.986   5.438
 2848SOL    HW1 9443   1.035   4.065   5.387
 2848SOL    HW2 9444   0.986   3.909   5.375
 2849SOL     OW 9445   5.360   0.775   1.919
 2849SOL    HW1 9446   5.273   0.729   1.901
 2849SOL    HW2 9447   5.412   0.784   1.834
 2850SOL     OW 9448   1.218   0.709   2.067
 2850SOL    HW1 9449   1.296   0.653   2.094
 2850SOL    HW2 9450   1.149   0.708   2.140
 2851SOL     OW 9451   3.163   3.566   1.528
 2851SOL    HW1 9452   3.140   3.470   1.510
 2851SOL    HW2 9453   3.095   3.625   1.486
 2852SOL     OW 9454   6.723   4.249   5.721
 2852SOL    HW1 9455   6.801   4.186   5.723
 2852SOL    HW2 9456   6.750   4.333   5.674
 2853SOL     OW 9457   0.203   4.004   5.472
 2853SOL    HW1 9458   0.152   3.966   5.394
 2853SOL    HW2 9459   0.165   3.967   5.557
 2854SOL     OW 9460   3.630   1.048   6.139
 2854SOL    HW1 9461   3.655   0.986   6.213
 2854SOL    HW2 9462   3.678   1.135   6.149
 2855SOL     OW 9463   2.308   1.466   4.754
 2855SOL    HW1 9464   2.232   1.423   4.802
 2855SOL    HW2 9465   2.279   1.493   4.662
 2856SOL     OW 9466   0.529   5.809   3.878
 2856SOL    HW1 9467   0.611   5.754   3.889
 2856SOL    HW2 9468   0.545   5.879   3.809
 2857SOL     OW 9469   6.854   4.113   0.757
 2857SOL    HW1 9470   6.826   4.029   0.710
 2857SOL    HW2 9471   6.935   4.094   0.814
 2858SOL     OW 9472   4.493   4.815   2.429
 2858SOL    HW1 9473   4.539   4.726   2.435
 2858SOL    HW2 9474   4.397   4.805   2.453
 2859SOL     OW 9475   5.472   4.951   1.382
 2859SOL    HW1 9476   5.476   4.930   1.285
 2859SOL    HW2 9477   5.382   4.928   1.418
 2860SOL     OW 9478   1.172   0.201   2.204
 2860SOL    HW1 9479   1.081   0.240   2.216
 2860SOL    HW2 9480   1.167   0.101   2.214
 2861SOL     OW 9481   4.520   4.212   5.608
 2861SOL    HW1 9482   4.545   4.305   5.581
 2861SOL    HW2 9483   4.442   4.181   5.554
 2862SOL     OW 9484   4.561   2.427   0.068
 2862SOL    HW1 9485   4.494   2.378   0.124
 2862SOL    HW2 9486   4.602   2.501   0.121
 2863SOL     OW 9487   5.976   1.679   5.167
 2863SOL    HW1 9488   6.025   1.592   5.163
 2863SOL    HW2 9489   5.978   1.723   5.077
 2864SOL     OW 9490   3.676   4.705   0.453
 2864SOL    HW1 9491   3.746   4.656   0.402
 2864SOL    HW2 9492   3.665   4.663   0.543
 2865SOL     OW 9493   5.711   4.899   5.100
 2865SOL    HW1 9494   5.788   4.895   5.037
 2865SOL    HW2 9495   5.730   4.842   5.180
 2866SOL     OW 9496   3.628   4.345   0.540
 2866SOL    HW1 9497   3.631   4.370   0.637
 2866SOL    HW2 9498   3.557   4.276   0.525
 2867SOL     OW 9499   5.820   6.322   2.502
 2867SOL    HW1 9500   5.763   6.309   2.582
 2867SOL    HW2 9501   5.764   6.353   2.425
 2868SOL     OW 9502   0.540   0.239   6.142
 2868SOL    HW1 9503   0.571   0.330   6.171
 2868SOL    HW2 9504   0.530   0.238   6.043
 2869SOL     OW 9505   6.124   5.151   4.113
 2869SOL    HW1 9506   6.086   5.068   4.154
 2869SOL    HW2 9507   6.135   5.137   4.015
 2870SOL     OW 9508   6.640   1.779   1.833
 2870SOL    HW1 9509   6.577   1.856   1.842
 2870SOL    HW2 9510   6.708   1.782   1.906
 2871SOL     OW 9511   4.640   1.562   2.780
 2871SOL    HW1 9512   4.620   1.576   2.684
 2871SOL    HW2 9513   4.677   1.469   2.793
 2872SOL     OW 9514   2.468   1.934   2.535
 2872SOL    HW1 9515   2.562   1.953   2.563
 2872SOL    HW2 9516   2.420   2.019   2.516
 2873SOL     OW 9517   1.196   0.055   1.395
 2873SOL    HW1 9518   1.099   0.077   1.397
 2873SOL    HW2 9519   1.240   0.106   1.321
 2874SOL     OW 9520   2.178   1.379   3.167
 2874SOL    HW1 9521   2.108   1.310   3.152
 2874SOL    HW2 9522   2.260   1.355   3.114
 2875SOL     OW 9523   2.401   6.526   3.281
 2875SOL    HW1 9524   2.473   6.529   3.350
 2875SOL    HW2 9525   2.339   6.450   3.300
 2876SOL     OW 9526   1.568   6.982   1.822
 2876SOL    HW1 9527   1.514   6.976   1.739
 2876SOL    HW2 9528   1.517   6.943   1.898
 2877SOL     OW 9529   1.615   2.461   6.538
 2877SOL    HW1 9530   1.588   2.470   6.442
 2877SOL    HW2 9531   1.699   2.513   6.553
 2878SOL     OW 9532   3.870   2.983   4.270
 2878SOL    HW1 9533   3.790   2.979   4.330
 2878SOL    HW2 9534   3.951   3.003   4.324
 2879SOL     OW 9535   5.304   4.489   0.424
 2879SOL    HW1 9536   5.374   4.559   0.408
 2879SOL    HW2 9537   5.336   4.427   0.495
 2880SOL     OW 9538   2.318   1.072   3.371
 2880SOL    HW1 9539   2.281   1.089   3.462
 2880SOL    HW2 9540   2.396   1.010   3.378
 2881SOL     OW 9541   5.554   6.343   0.432
 2881SOL    HW1 9542   5.624   6.391   0.380
 2881SOL    HW2 9543   5.587   6.252   0.456
 2882SOL     OW 9544   4.603   6.126   0.048
 2882SOL    HW1 9545   4.701   6.109   0.043
 2882SOL    HW2 9546   4.578   6.153   0.141
 2883SOL     OW 9547   6.106   6.573   3.841
 2883SOL    HW1 9548   6.129   6.603   3.933
 2883SOL    HW2 9549   6.116   6.651   3.778
 2884SOL     OW 9550   5.750   5.595   4.101
 2884SOL    HW1 9551   5.753   5.499   4.129
 2884SOL    HW2 9552   5.797   5.606   4.014
 2885SOL     OW 9553   1.286   2.559   3.359
 2885SOL    HW1 9554   1.313   2.522   3.271
 2885SOL    HW2 9555   1.338   2.514   3.432
 2886SOL     OW 9556   2.608   4.207   5.607
 2886SOL    HW1 9557   2.705   4.198   5.629
 2886SOL    HW2 9558   2.554   4.190   5.689
 2887SOL     OW 9559   0.361   6.016   2.808
 2887SOL    HW1 9560   0.323   5.932   2.848
 2887SOL    HW2 9561   0.454   6.030   2.843
 2888SOL     OW 9562   5.572   0.173   6.461
 2888SOL    HW1 9563   5.577   0.203   6.556
 2888SOL    HW2 9564   5.614   0.083   6.452
 2889SOL     OW 9565   3.810   6.055   3.625
 2889SOL    HW1 9566   3.772   6.142   3.591
 2889SOL    HW2 9567   3.755   6.023   3.702
 2890SOL     OW 9568   0.808   2.372   1.205
 2890SOL    HW1 9569   0.828   2.401   1.298
 2890SOL    HW2 9570   0.722   2.412   1.175
 2891SOL     OW 9571   6.995   1.736   5.062
 2891SOL    HW1 9572   0.018   1.813   5.021
 2891SOL    HW2 9573   6.901   1.732   5.028
 2892SOL     OW 9574   5.104   3.988   2.194
 2892SOL    HW1 9575   5.164   3.908   2.207
 2892SOL    HW2 9576   5.155   4.071   2.216
 2893SOL     OW 9577   6.698   5.526   5.204
 2893SOL    HW1 9578   6.702   5.502   5.108
 2893SOL    HW2 9579   6.603   5.546   5.230
 2894SOL     OW 9580   2.293   5.446   2.302
 2894SOL    HW1 9581   2.338   5.456   2.214
 2894SOL    HW2 9582   2.227   5.520   2.315
 2895SOL     OW 9583   4.662   6.959   5.808
 2895SOL    HW1 9584   4.696   6.874   5.848
 2895SOL    HW2 9585   4.564   6.967   5.826
 2896SOL     OW 9586   5.463   0.339   4.530
 2896SOL    HW1 9587   5.456   0.240   4.535
 2896SOL    HW2 9588   5.558   0.366   4.519
 2897SOL     OW 9589   4.055   5.124   3.002
 2897SOL    HW1 9590   4.039   5.221   3.018
 2897SOL    HW2 9591   3.969   5.074   3.012
 2898SOL     OW 9592   5.438   2.758   2.458
 2898SOL    HW1 9593   5.412   2.774   2.362
 2898SOL    HW2 9594   5.368   2.797   2.518
 2899SOL     OW 9595   7.012   3.640   0.993
 2899SOL    HW1 9596   7.023   3.642   1.092
 2899SOL    HW2 9597   0.077   3.642   0.949
 2900SOL     OW 9598   2.204   3.084   5.727
 2900SOL    HW1 9599   2.296   3.121   5.725
 2900SOL    HW2 9600   2.161   3.106   5.815
 2901SOL     OW 9601   0.838   3.975   3.247
 2901SOL    HW1 9602   0.807   3.987   3.152
 2901SOL    HW2 9603   0.830   4.062   3.296
 2902SOL     OW 9604   6.087   5.848   3.846
 2902SOL    HW1 9605   6.003   5.899   3.824
 2902SOL    HW2 9606   6.112   5.865   3.942
 2903SOL     OW 9607   5.349   4.873   0.232
 2903SOL    HW1 9608   5.366   4.952   0.173
 2903SOL    HW2 9609   5.359   4.789   0.180
 2904SOL     OW 9610   2.071   4.103   5.083
 2904SOL    HW1 9611   2.165   4.076   5.060
 2904SOL    HW2 9612   2.070   4.147   5.173
 2905SOL     OW 9613   1.796   5.992   1.225
 2905SOL    HW1 9614   1.780   6.087   1.197
 2905SOL    HW2 9615   1.708   5.945   1.234
 2906SOL     OW 9616   6.060   6.015   4.543
 2906SOL    HW1 9617   6.015   6.014   4.632
 2906SOL    HW2 9618   5.995   6.044   4.473
 2907SOL     OW 9619   0.305   1.049   4.660
 2907SOL    HW1 9620   0.267   1.142   4.668
 2907SOL    HW2 9621   0.359   1.029   4.742
 2908SOL     OW 9622   4.335   6.939   3.255
 2908SOL    HW1 9623   4.305   6.912   3.164
 2908SOL    HW2 9624   4.267   6.998   3.297
 2909SOL     OW 9625   0.165   6.384   1.515
 2909SOL    HW1 9626   0.148   6.300   1.464
 2909SOL    HW2 9627   0.098   6.392   1.589
 2910SOL     OW 9628   0.447   0.749   4.226
 2910SOL    HW1 9629   0.416   0.659   4.256
 2910SOL    HW2 9630   0.468   0.806   4.305
 2911SOL     OW 9631   0.031   4.281   5.421
 2911SOL    HW1 9632   0.071   4.331   5.344
 2911SOL    HW2 9633   0.058   4.185   5.415
 2912SOL     OW 9634   1.383   1.400   1.628
 2912SOL    HW1 9635   1.370   1.459   1.707
 2912SOL    HW2 9636   1.462   1.431   1.576
 2913SOL     OW 9637   3.035   6.386   3.195
 2913SOL    HW1 9638   2.991   6.416   3.111
 2913SOL    HW2 9639   3.127   6.425   3.200
 2914SOL     OW 9640   4.154   5.432   1.045
 2914SOL    HW1 9641   4.188   5.348   1.004
 2914SOL    HW2 9642   4.213   5.459   1.121
 2915SOL     OW 9643   2.877   0.151   3.303
 2915SOL    HW1 9644   2.896   0.120   3.209
 2915SOL    HW2 9645   2.962   0.174   3.348
 2916SOL     OW 9646   2.027   6.035   6.948
 2916SOL    HW1 9647   2.118   6.057   6.982
 2916SOL    HW2 9648   1.967   6.114   6.962
 2917SOL     OW 9649   2.732   6.886   3.656
 2917SOL    HW1 9650   2.715   6.974   3.700
 2917SOL    HW2 9651   2.771   6.900   3.566
 2918SOL     OW 9652   4.841   3.134   1.572
 2918SOL    HW1 9653   4.780   3.184   1.633
 2918SOL    HW2 9654   4.874   3.051   1.618
 2919SOL     OW 9655   0.660   5.948   5.106
 2919SOL    HW1 9656   0.684   5.852   5.119
 2919SOL    HW2 9657   0.744   6.001   5.090
 2920SOL     OW 9658   2.248   2.447   2.635
 2920SOL    HW1 9659   2.196   2.423   2.553
 2920SOL    HW2 9660   2.257   2.366   2.693
 2921SOL     OW 9661   1.132   6.205   3.774
 2921SOL    HW1 9662   1.077   6.279   3.735
 2921SOL    HW2 9663   1.090   6.175   3.860
 2922SOL     OW 9664   3.941   5.470   4.356
 2922SOL    HW1 9665   4.002   5.547   4.374
 2922SOL    HW2 9666   3.846   5.501   4.355
 2923SOL     OW 9667   6.783   5.353   5.393
 2923SOL    HW1 9668   6.787   5.417   5.470
 2923SOL    HW2 9669   6.730   5.394   5.319
 2924SOL     OW 9670   6.061   1.636   6.167
 2924SOL    HW1 9671   6.097   1.612   6.077
 2924SOL    HW2 9672   5.973   1.681   6.157
 2925SOL     OW 9673   5.650   6.475   4.929
 2925SOL    HW1 9674   5.599   6.398   4.966
 2925SOL    HW2 9675   5.587   6.538   4.883
 2926SOL     OW 9676   6.770   2.625   4.209
 2926SOL    HW1 9677   6.791   2.715   4.170
 2926SOL    HW2 9678   6.672   2.617   4.222
 2927SOL     OW 9679   1.293   2.065   1.817
 2927SOL    HW1 9680   1.362   2.007   1.859
 2927SOL    HW2 9681   1.278   2.146   1.874
 2928SOL     OW 9682   6.382   2.938   0.372
 2928SOL    HW1 9683   6.443   2.928   0.451
 2928SOL    HW2 9684   6.422   2.892   0.293
 2929SOL     OW 9685   2.033   2.125   4.079
 2929SOL    HW1 9686   2.071   2.177   4.003
 2929SOL    HW2 9687   1.973   2.184   4.134
 2930SOL     OW 9688   0.643   4.385   4.279
 2930SOL    HW1 9689   0.623   4.429   4.192
 2930SOL    HW2 9690   0.742   4.369   4.286
 2931SOL     OW 9691   4.868   4.164   5.643
 2931SOL    HW1 9692   4.813   4.210   5.713
 2931SOL    HW2 9693   4.965   4.171   5.667
 2932SOL     OW 9694   6.034   4.964   1.317
 2932SOL    HW1 9695   6.100   5.014   1.261
 2932SOL    HW2 9696   6.063   4.868   1.324
 2933SOL     OW 9697   1.012   6.270   6.959
 2933SOL    HW1 9698   0.930   6.326   6.953
 2933SOL    HW2 9699   1.037   6.258   0.031
 2934SOL     OW 9700   3.579   4.377   0.831
 2934SOL    HW1 9701   3.497   4.331   0.865
 2934SOL    HW2 9702   3.660   4.323   0.855
 2935SOL     OW 9703   0.885   2.387   6.257
 2935SOL    HW1 9704   0.934   2.441   6.325
 2935SOL    HW2 9705   0.788   2.383   6.280
 2936SOL     OW 9706   4.924   6.551   1.803
 2936SOL    HW1 9707   4.837   6.585   1.837
 2936SOL    HW2 9708   4.967   6.621   1.746
 2937SOL     OW 9709   5.246   4.323   2.575
 2937SOL    HW1 9710   5.174   4.253   2.574
 2937SOL    HW2 9711   5.257   4.359   2.482
 2938SOL     OW 9712   0.741   5.958   5.983
 2938SOL    HW1 9713   0.701   5.999   6.066
 2938SOL    HW2 9714   0.779   6.031   5.925
 2939SOL     OW 9715   0.279   5.743   1.656
 2939SOL    HW1 9716   0.347   5.798   1.608
 2939SOL    HW2 9717   0.284   5.761   1.754
 2940SOL     OW 9718   4.427   6.811   3.867
 2940SOL    HW1 9719   4.389   6.774   3.951
 2940SOL    HW2 9720   4.363   6.876   3.827
 2941SOL     OW 9721   2.213   4.617   3.031
 2941SOL    HW1 9722   2.309   4.601   3.055
 2941SOL    HW2 9723   2.180   4.699   3.078
 2942SOL     OW 9724   3.665   1.570   1.034
 2942SOL    HW1 9725   3.584   1.616   0.999
 2942SOL    HW2 9726   3.704   1.624   1.110
 2943SOL     OW 9727   5.657   3.986   2.651
 2943SOL    HW1 9728   5.630   4.083   2.648
 2943SOL    HW2 9729   5.641   3.944   2.562
 2944SOL     OW 9730   2.073   5.622   2.368
 2944SOL    HW1 9731   2.094   5.707   2.415
 2944SOL    HW2 9732   1.974   5.607   2.369
 2945SOL     OW 9733   4.748   4.171   0.928
 2945SOL    HW1 9734   4.724   4.263   0.957
 2945SOL    HW2 9735   4.688   4.143   0.853
 2946SOL     OW 9736   3.833   3.607   4.826
 2946SOL    HW1 9737   3.783   3.629   4.742
 2946SOL    HW2 9738   3.929   3.630   4.814
 2947SOL     OW 9739   6.434   5.773   1.026
 2947SOL    HW1 9740   6.379   5.702   1.071
 2947SOL    HW2 9741   6.461   5.842   1.092
 2948SOL     OW 9742   6.799   3.782   2.387
 2948SOL    HW1 9743   6.875   3.717   2.382
 2948SOL    HW2 9744   6.834   3.874   2.406
 2949SOL     OW 9745   1.693   6.508   0.421
 2949SOL    HW1 9746   1.724   6.562   0.343
 2949SOL    HW2 9747   1.657   6.570   0.491
 2950SOL     OW 9748   6.251   5.631   2.384
 2950SOL    HW1 9749   6.233   5.672   2.473
 2950SOL    HW2 9750   6.275   5.702   2.318
 2951SOL     OW 9751   0.266   1.365   1.579
 2951SOL    HW1 9752   0.359   1.396   1.560
 2951SOL    HW2 9753   0.207   1.387   1.501
 2952SOL     OW 9754   0.072   1.454   5.441
 2952SOL    HW1 9755   0.096   1.524   5.509
 2952SOL    HW2 9756   7.024   1.396   5.477
 2953SOL     OW 9757   1.406   4.807   3.645
 2953SOL    HW1 9758   1.443   4.718   3.619
 2953SOL    HW2 9759   1.455   4.879   3.596
 2954SOL     OW 9760   0.150   3.979   6.472
 2954SOL    HW1 9761   0.168   4.049   6.403
 2954SOL    HW2 9762   0.059   3.993   6.511
 2955SOL     OW 9763   1.363   4.453   6.159
 2955SOL    HW1 9764   1.296   4.393   6.116
 2955SOL    HW2 9765   1.317   4.514   6.224
 2956SOL     OW 9766   5.171   4.638   4.115
 2956SOL    HW1 9767   5.251   4.591   4.151
 2956SOL    HW2 9768   5.088   4.586   4.137
 2957SOL     OW 9769   2.699   5.188   1.213
 2957SOL    HW1 9770   2.638   5.247   1.162
 2957SOL    HW2 9771   2.645   5.130   1.275
 2958SOL     OW 9772   2.002   4.515   2.853
 2958SOL    HW1 9773   2.080   4.559   2.898
 2958SOL    HW2 9774   2.033   4.473   2.767
 2959SOL     OW 9775   0.221   3.728   3.446
 2959SOL    HW1 9776   0.303   3.684   3.481
 2959SOL    HW2 9777   0.209   3.817   3.490
 2960SOL     OW 9778   5.173   0.111   1.107
 2960SOL    HW1 9779   5.208   0.202   1.129
 2960SOL    HW2 9780   5.073   0.114   1.107
 2961SOL     OW 9781   5.786   3.185   2.011
 2961SOL    HW1 9782   5.821   3.095   2.037
 2961SOL    HW2 9783   5.689   3.179   1.990
 2962SOL     OW 9784   6.940   0.487   3.801
 2962SOL    HW1 9785   6.846   0.520   3.788
 2962SOL    HW2 9786   6.978   0.527   3.884
 2963SOL     OW 9787   1.798   0.567   4.907
 2963SOL    HW1 9788   1.867   0.634   4.933
 2963SOL    HW2 9789   1.836   0.504   4.839
 2964SOL     OW 9790   1.676   0.923   6.257
 2964SOL    HW1 9791   1.733   0.883   6.185
 2964SOL    HW2 9792   1.591   0.958   6.217
 2965SOL     OW 9793   6.780   6.848   5.491
 2965SOL    HW1 9794   6.805   6.878   5.583
 2965SOL    HW2 9795   6.858   6.803   5.448
 2966SOL     OW 9796   2.466   6.178   2.053
 2966SOL    HW1 9797   2.501   6.269   2.031
 2966SOL    HW2 9798   2.544   6.116   2.069
 2967SOL     OW 9799   5.655   0.504   4.901
 2967SOL    HW1 9800   5.699   0.539   4.819
 2967SOL    HW2 9801   5.559   0.531   4.902
 2968SOL     OW 9802   0.923   3.780   1.338
 2968SOL    HW1 9803   0.962   3.798   1.428
 2968SOL    HW2 9804   0.961   3.695   1.301
 2969SOL     OW 9805   4.726   3.023   5.276
 2969SOL    HW1 9806   4.682   2.980   5.197
 2969SOL    HW2 9807   4.664   3.089   5.317
 2970SOL     OW 9808   2.497   2.421   5.333
 2970SOL    HW1 9809   2.482   2.377   5.422
 2970SOL    HW2 9810   2.571   2.487   5.341
 2971SOL     OW 9811   5.107   2.898   6.365
 2971SOL    HW1 9812   5.165   2.962   6.314
 2971SOL    HW2 9813   5.031   2.948   6.406
 2972SOL     OW 9814   6.750   5.100   5.983
 2972SOL    HW1 9815   6.674   5.072   6.041
 2972SOL    HW2 9816   6.722   5.177   5.925
 2973SOL     OW 9817   4.510   1.339   3.992
 2973SOL    HW1 9818   4.540   1.435   3.990
 2973SOL    HW2 9819   4.431   1.328   3.931
 2974SOL     OW 9820   4.483   6.905   2.225
 2974SOL    HW1 9821   4.575   6.922   2.260
 2974SOL    HW2 9822   4.477   6.812   2.190
 2975SOL     OW 9823   4.888   3.487   4.563
 2975SOL    HW1 9824   4.918   3.487   4.658
 2975SOL    HW2 9825   4.879   3.581   4.531
 2976SOL     OW 9826   4.193   1.115   2.052
 2976SOL    HW1 9827   4.221   1.147   1.961
 2976SOL    HW2 9828   4.267   1.063   2.094
 2977SOL     OW 9829   0.757   0.722   1.720
 2977SOL    HW1 9830   0.815   0.802   1.727
 2977SOL    HW2 9831   0.707   0.709   1.806
 2978SOL     OW 9832   4.430   5.466   6.746
 2978SOL    HW1 9833   4.444   5.531   6.821
 2978SOL    HW2 9834   4.349   5.411   6.763
 2979SOL     OW 9835   2.893   0.932   4.953
 2979SOL    HW1 9836   2.896   0.892   4.861
 2979SOL    HW2 9837   2.971   0.994   4.965
 2980SOL     OW 9838   2.879   3.496   4.361
 2980SOL    HW1 9839   2.808   3.428   4.385
 2980SOL    HW2 9840   2.955   3.450   4.317
 2981SOL     OW 9841   2.660   0.325   1.307
 2981SOL    HW1 9842   2.574   0.308   1.356
 2981SOL    HW2 9843   2.717   0.387   1.360
 2982SOL     OW 9844   2.140   0.458   0.923
 2982SOL    HW1 9845   2.099   0.522   0.858
 2982SOL    HW2 9846   2.156   0.504   1.010
 2983SOL     OW 9847   6.500   3.254   5.830
 2983SOL    HW1 9848   6.447   3.313   5.892
 2983SOL    HW2 9849   6.587   3.231   5.872
 2984SOL     OW 9850   0.670   5.583   1.325
 2984SOL    HW1 9851   0.663   5.503   1.385
 2984SOL    HW2 9852   0.751   5.636   1.350
 2985SOL     OW 9853   6.379   0.611   6.160
 2985SOL    HW1 9854   6.336   0.568   6.080
 2985SOL    HW2 9855   6.421   0.540   6.217
 2986SOL     OW 9856   3.636   3.480   2.190
 2986SOL    HW1 9857   3.672   3.524   2.272
 2986SOL    HW2 9858   3.711   3.454   2.130
 2987SOL     OW 9859   2.219   5.777   5.079
 2987SOL    HW1 9860   2.274   5.737   5.152
 2987SOL    HW2 9861   2.245   5.873   5.067
 2988SOL     OW 9862   0.123   1.506   6.377
 2988SOL    HW1 9863   0.183   1.440   6.423
 2988SOL    HW2 9864   0.175   1.553   6.306
 2989SOL     OW 9865   5.417   3.286   4.804
 2989SOL    HW1 9866   5.404   3.365   4.863
 2989SOL    HW2 9867   5.351   3.290   4.729
 2990SOL     OW 9868   5.374   2.155   4.402
 2990SOL    HW1 9869   5.410   2.219   4.334
 2990SOL    HW2 9870   5.339   2.207   4.481
 2991SOL     OW 9871   0.038   3.263   0.213
 2991SOL    HW1 9872   0.040   3.273   0.113
 2991SOL    HW2 9873   0.118   3.210   0.242
 2992SOL     OW 9874   0.557   3.982   4.984
 2992SOL    HW1 9875   0.555   4.068   4.932
 2992SOL    HW2 9876   0.650   3.964   5.016
 2993SOL     OW 9877   2.436   4.054   0.636
 2993SOL    HW1 9878   2.498   4.004   0.575
 2993SOL    HW2 9879   2.345   4.012   0.632
 2994SOL     OW 9880   3.244   6.108   5.344
 2994SOL    HW1 9881   3.179   6.074   5.276
 2994SOL    HW2 9882   3.264   6.036   5.410
 2995SOL     OW 9883   4.264   0.304   1.471
 2995SOL    HW1 9884   4.347   0.248   1.470
 2995SOL    HW2 9885   4.278   0.385   1.415
 2996SOL     OW 9886   6.891   0.533   4.088
 2996SOL    HW1 9887   6.809   0.589   4.098
 2996SOL    HW2 9888   6.868   0.449   4.040
 2997SOL     OW 9889   5.349   6.707   4.381
 2997SOL    HW1 9890   5.333   6.730   4.285
 2997SOL    HW2 9891   5.447   6.700   4.397
 2998SOL     OW 9892   3.042   0.763   1.708
 2998SOL    HW1 9893   3.135   0.758   1.670
 2998SOL    HW2 9894   3.047   0.754   1.808
 2999SOL     OW 9895   2.638   4.781   1.049
 2999SOL    HW1 9896   2.717   4.739   1.094
 2999SOL    HW2 9897   2.658   4.878   1.032
 3000SOL     OW 9898   2.928   4.172   5.494
 3000SOL    HW1 9899   3.009   4.130   5.451
 3000SOL    HW2 9900   2.921   4.139   5.588
 3001SOL     OW 9901   5.457   0.873   6.362
 3001SOL    HW1 9902   5.436   0.783   6.401
 3001SOL    HW2 9903   5.446   0.870   6.263
 3002SOL     OW 9904   1.516   2.104   1.639
 3002SOL    HW1 9905   1.533   2.194   1.680
 3002SOL    HW2 9906   1.424   2.072   1.664
 3003SOL     OW 9907   1.723   6.860   0.527
 3003SOL    HW1 9908   1.653   6.795   0.557
 3003SOL    HW2 9909   1.802   6.855   0.589
 3004SOL     OW 9910   2.541   6.709   3.504
 3004SOL    HW1 9911   2.494   6.700   3.592
 3004SOL    HW2 9912   2.531   6.803   3.470
 3005SOL     OW 9913   1.262   2.080   0.642
 3005SOL    HW1 9914   1.309   2.105   0.557
 3005SOL    HW2 9915   1.244   2.162   0.696
 3006SOL     OW 9916   5.052   1.552   6.139
 3006SOL    HW1 9917   5.101   1.555   6.051
 3006SOL    HW2 9918   5.104   1.603   6.208
 3007SOL     OW 9919   6.321   5.624   6.619
 3007SOL    HW1 9920   6.260   5.587   6.549
 3007SOL    HW2 9921   6.406   5.654   6.576
 3008SOL     OW 9922   4.420   3.516   5.582
 3008SOL    HW1 9923   4.510   3.559   5.591
 3008SOL    HW2 9924   4.349   3.584   5.595
 3009SOL     OW 9925   6.665   3.327   2.290
 3009SOL    HW1 9926   6.633   3.276   2.369
 3009SOL    HW2 9927   6.762   3.350   2.301
 3010SOL     OW 9928   4.585   5.669   1.824
 3010SOL    HW1 9929   4.580   5.605   1.748
 3010SOL    HW2 9930   4.493   5.688   1.857
 3011SOL     OW 9931   6.782   0.451   0.594
 3011SOL    HW1 9932   6.782   0.551   0.584
 3011SOL    HW2 9933   6.832   0.410   0.519
 3012SOL     OW 9934   1.866   1.596   4.730
 3012SOL    HW1 9935   1.952   1.557   4.761
 3012SOL    HW2 9936   1.840   1.671   4.791
 3013SOL     OW 9937   6.874   4.978   5.302
 3013SOL    HW1 9938   6.906   4.889   5.334
 3013SOL    HW2 9939   6.952   5.040   5.293
 3014SOL     OW 9940   5.510   0.561   6.224
 3014SOL    HW1 9941   5.517   0.462   6.209
 3014SOL    HW2 9942   5.492   0.580   6.320
 3015SOL     OW 9943   1.324   0.875   6.436
 3015SOL    HW1 9944   1.370   0.919   6.359
 3015SOL    HW2 9945   1.392   0.837   6.498
 3016SOL     OW 9946   2.236   6.622   4.308
 3016SOL    HW1 9947   2.276   6.588   4.222
 3016SOL    HW2 9948   2.301   6.608   4.382
 3017SOL     OW 9949   1.458   5.480   6.955
 3017SOL    HW1 9950   1.431   5.431   6.872
 3017SOL    HW2 9951   1.391   5.464   0.002
 3018SOL     OW 9952   3.542   1.047   1.660
 3018SOL    HW1 9953   3.585   1.056   1.570
 3018SOL    HW2 9954   3.612   1.027   1.729
 3019SOL     OW 9955   1.689   0.445   5.875
 3019SOL    HW1 9956   1.680   0.499   5.792
 3019SOL    HW2 9957   1.661   0.500   5.954
 3020SOL     OW 9958   6.009   4.593   0.016
 3020SOL    HW1 9959   5.956   4.509   0.025
 3020SOL    HW2 9960   6.091   4.588   0.073
 3021SOL     OW 9961   3.935   0.409   4.566
 3021SOL    HW1 9962   3.868   0.476   4.534
 3021SOL    HW2 9963   3.965   0.433   4.658
 3022SOL     OW 9964   4.480   5.965   3.783
 3022SOL    HW1 9965   4.462   6.015   3.698
 3022SOL    HW2 9966   4.480   5.867   3.765
 3023SOL     OW 9967   5.585   4.865   4.352
 3023SOL    HW1 9968   5.507   4.879   4.292
 3023SOL    HW2 9969   5.590   4.769   4.380
 3024SOL     OW 9970   0.304   0.996   0.626
 3024SOL    HW1 9971   0.276   1.091   0.638
 3024SOL    HW2 9972   0.342   0.983   0.534
 3025SOL     OW 9973   4.335   5.728   0.043
 3025SOL    HW1 9974   4.354   5.825   0.028
 3025SOL    HW2 9975   4.421   5.677   0.042
 3026SOL     OW 9976   0.480   0.302   2.058
 3026SOL    HW1 9977   0.389   0.340   2.076
 3026SOL    HW2 9978   0.545   0.342   2.122
 3027SOL     OW 9979   4.170   0.658   0.710
 3027SOL    HW1 9980   4.074   0.628   0.711
 3027SOL    HW2 9981   4.181   0.735   0.774
 3028SOL     OW 9982   3.393   3.318   5.413
 3028SOL    HW1 9983   3.341   3.271   5.483
 3028SOL    HW2 9984   3.407   3.257   5.335
 3029SOL     OW 9985   6.867   3.469   4.607
 3029SOL    HW1 9986   6.852   3.431   4.698
 3029SOL    HW2 9987   6.838   3.402   4.538
 3030SOL     OW 9988   2.492   2.403   6.420
 3030SOL    HW1 9989   2.491   2.400   6.520
 3030SOL    HW2 9990   2.401   2.379   6.385
 3031SOL     OW 9991   1.266   5.475   0.787
 3031SOL    HW1 9992   1.355   5.506   0.821
 3031SOL    HW2 9993   1.207   5.452   0.865
 3032SOL     OW 9994   2.594   6.936   3.358
 3032SOL    HW1 9995   2.692   6.927   3.343
 3032SOL    HW2 9996   2.567   0.007   3.349
 3033SOL     OW 9997   1.208   1.961   5.497
 3033SOL    HW1 9998   1.142   2.024   5.539
 3033SOL    HW2 9999   1.159   1.889   5.447
 3034SOL     OW10000   6.005   3.877   3.194
 3034SOL    HW110001   6.029   3.807   3.127
 3034SOL    HW210002   6.065   3.957   3.181
 3035SOL     OW10003   0.607   3.437   0.376
 3035SOL    HW110004   0.694   3.450   0.422
 3035SOL    HW210005   0.563   3.354   0.409
 3036SOL     OW10006   3.000   1.980   5.295
 3036SOL    HW110007   3.095   2.011   5.303
 3036SOL    HW210008   2.990   1.925   5.212
 3037SOL     OW10009   0.902   5.676   6.445
 3037SOL    HW110010   1.000   5.689   6.428
 3037SOL    HW210011   0.851   5.695   6.362
 3038SOL     OW10012   5.621   4.780   5.865
 3038SOL    HW110013   5.614   4.707   5.797
 3038SOL    HW210014   5.713   4.820   5.860
 3039SOL     OW10015   6.634   3.627   6.328
 3039SOL    HW110016   6.690   3.690   6.382
 3039SOL    HW210017   6.554   3.676   6.293
 3040SOL     OW10018   5.594   5.445   6.371
 3040SOL    HW110019   5.597   5.489   6.282
 3040SOL    HW210020   5.548   5.505   6.437
 3041SOL     OW10021   1.292   4.503   5.717
 3041SOL    HW110022   1.298   4.555   5.802
 3041SOL    HW210023   1.202   4.517   5.676
 3042SOL     OW10024   0.491   4.894   4.090
 3042SOL    HW110025   0.566   4.936   4.140
 3042SOL    HW210026   0.404   4.916   4.134
 3043SOL     OW10027   2.644   5.546   1.189
 3043SOL    HW110028   2.627   5.500   1.276
 3043SOL    HW210029   2.735   5.520   1.156
 3044SOL     OW10030   4.131   3.566   4.754
 3044SOL    HW110031   4.181   3.647   4.786
 3044SOL    HW210032   4.166   3.485   4.799
 3045SOL     OW10033   4.761   1.974   1.863
 3045SOL    HW110034   4.710   1.931   1.938
 3045SOL    HW210035   4.854   1.993   1.892
 3046SOL     OW10036   5.327   6.670   1.085
 3046SOL    HW110037   5.272   6.678   1.167
 3046SOL    HW210038   5.296   6.736   1.017
 3047SOL     OW10039   5.980   1.435   4.543
 3047SOL    HW110040   5.956   1.522   4.501
 3047SOL    HW210041   6.030   1.379   4.477
 3048SOL     OW10042   3.724   4.893   1.131
 3048SOL    HW110043   3.657   4.932   1.194
 3048SOL    HW210044   3.691   4.805   1.098
 3049SOL     OW10045   0.918   1.996   2.309
 3049SOL    HW110046   0.934   2.079   2.362
 3049SOL    HW210047   0.847   1.941   2.354
 3050SOL     OW10048   3.338   2.322   6.307
 3050SOL    HW110049   3.251   2.307   6.261
 3050SOL    HW210050   3.367   2.417   6.294
 3051SOL     OW10051   2.636   5.280   5.412
 3051SOL    HW110052   2.711   5.321   5.360
 3051SOL    HW210053   2.619   5.333   5.495
 3052SOL     OW10054   7.015   0.038   2.657
 3052SOL    HW110055   6.941   0.002   2.715
 3052SOL    HW210056   7.013   0.138   2.660
 3053SOL     OW10057   0.963   3.988   0.414
 3053SOL    HW110058   0.893   3.956   0.351
 3053SOL    HW210059   1.000   4.075   0.381
 3054SOL     OW10060   5.151   0.651   2.969
 3054SOL    HW110061   5.236   0.701   2.954
 3054SOL    HW210062   5.139   0.633   3.067
 3055SOL     OW10063   5.926   6.314   6.946
 3055SOL    HW110064   5.952   6.265   6.862
 3055SOL    HW210065   5.839   6.278   6.980
 3056SOL     OW10066   4.162   1.678   6.573
 3056SOL    HW110067   4.173   1.652   6.477
 3056SOL    HW210068   4.198   1.605   6.631
 3057SOL     OW10069   4.840   3.980   2.906
 3057SOL    HW110070   4.924   4.025   2.875
 3057SOL    HW210071   4.803   3.924   2.831
 3058SOL     OW10072   0.390   4.588   6.139
 3058SOL    HW110073   0.391   4.585   6.239
 3058SOL    HW210074   0.474   4.632   6.106
 3059SOL     OW10075   1.282   2.053   2.661
 3059SOL    HW110076   1.259   2.035   2.756
 3059SOL    HW210077   1.216   2.007   2.602
 3060SOL     OW10078   5.801   4.250   4.215
 3060SOL    HW110079   5.834   4.338   4.179
 3060SOL    HW210080   5.848   4.175   4.168
 3061SOL     OW10081   5.630   0.385   3.704
 3061SOL    HW110082   5.653   0.368   3.800
 3061SOL    HW210083   5.673   0.315   3.647
 3062SOL     OW10084   4.161   4.135   0.787
 3062SOL    HW110085   4.069   4.136   0.749
 3062SOL    HW210086   4.167   4.200   0.863
 3063SOL     OW10087   0.124   4.824   2.476
 3063SOL    HW110088   0.041   4.768   2.467
 3063SOL    HW210089   0.203   4.771   2.443
 3064SOL     OW10090   4.805   2.491   6.950
 3064SOL    HW110091   4.715   2.527   6.926
 3064SOL    HW210092   4.817   2.401   6.908
 3065SOL     OW10093   5.677   1.541   6.476
 3065SOL    HW110094   5.656   1.558   6.380
 3065SOL    HW210095   5.701   1.444   6.488
 3066SOL     OW10096   5.451   0.262   4.851
 3066SOL    HW110097   5.546   0.240   4.873
 3066SOL    HW210098   5.448   0.326   4.774
 3067SOL     OW10099   1.047   2.478   5.346
 3067SOL    HW110100   1.117   2.530   5.394
 3067SOL    HW210101   0.992   2.539   5.290
 3068SOL     OW10102   0.094   0.370   0.668
 3068SOL    HW110103   0.150   0.300   0.713
 3068SOL    HW210104   0.111   0.369   0.570
 3069SOL     OW10105   4.733   6.415   4.278
 3069SOL    HW110106   4.770   6.369   4.358
 3069SOL    HW210107   4.775   6.506   4.269
 3070SOL     OW10108   2.474   0.790   0.680
 3070SOL    HW110109   2.565   0.812   0.646
 3070SOL    HW210110   2.478   0.705   0.734
 3071SOL     OW10111   5.794   4.742   5.451
 3071SOL    HW110112   5.703   4.736   5.410
 3071SOL    HW210113   5.802   4.827   5.502
 3072SOL     OW10114   2.173   6.671   6.592
 3072SOL    HW110115   2.173   6.587   6.538
 3072SOL    HW210116   2.082   6.689   6.627
 3073SOL     OW10117   0.923   5.554   1.921
 3073SOL    HW110118   0.996   5.621   1.904
 3073SOL    HW210119   0.953   5.490   1.991
 3074SOL     OW10120   3.036   2.859   1.664
 3074SOL    HW110121   3.090   2.853   1.748
 3074SOL    HW210122   2.988   2.772   1.649
 3075SOL     OW10123   3.358   4.651   1.255
 3075SOL    HW110124   3.416   4.635   1.335
 3075SOL    HW210125   3.287   4.717   1.279
 3076SOL     OW10126   0.734   0.564   4.911
 3076SOL    HW110127   0.689   0.627   4.975
 3076SOL    HW210128   0.829   0.592   4.898
 3077SOL     OW10129   0.018   4.087   2.178
 3077SOL    HW110130   0.110   4.049   2.164
 3077SOL    HW210131   0.013   4.178   2.138
 3078SOL     OW10132   0.264   3.480   1.623
 3078SOL    HW110133   0.169   3.453   1.609
 3078SOL    HW210134   0.294   3.453   1.715
 3079SOL     OW10135   2.147   3.486   5.095
 3079SOL    HW110136   2.051   3.486   5.121
 3079SOL    HW210137   2.201   3.534   5.164
 3080SOL     OW10138   3.920   4.573   0.816
 3080SOL    HW110139   3.830   4.594   0.778
 3080SOL    HW210140   3.987   4.572   0.743
 3081SOL     OW10141   1.814   3.753   0.158
 3081SOL    HW110142   1.808   3.850   0.135
 3081SOL    HW210143   1.725   3.721   0.190
 3082SOL     OW10144   5.451   5.202   4.933
 3082SOL    HW110145   5.446   5.179   4.836
 3082SOL    HW210146   5.359   5.226   4.966
 3083SOL     OW10147   4.110   5.635   1.809
 3083SOL    HW110148   4.017   5.667   1.791
 3083SOL    HW210149   4.134   5.564   1.742
 3084SOL     OW10150   0.017   4.827   3.723
 3084SOL    HW110151   6.981   4.757   3.686
 3084SOL    HW210152   0.110   4.811   3.689
 3085SOL     OW10153   6.004   5.461   0.350
 3085SOL    HW110154   5.967   5.413   0.271
 3085SOL    HW210155   6.094   5.423   0.374
 3086SOL     OW10156   6.477   6.345   6.167
 3086SOL    HW110157   6.425   6.272   6.123
 3086SOL    HW210158   6.511   6.313   6.256
 3087SOL     OW10159   3.751   6.951   2.306
 3087SOL    HW110160   3.784   6.994   2.390
 3087SOL    HW210161   3.699   7.018   2.254
 3088SOL     OW10162   1.998   3.421   5.576
 3088SOL    HW110163   2.012   3.375   5.664
 3088SOL    HW210164   1.989   3.353   5.504
 3089SOL     OW10165   4.525   4.895   6.088
 3089SOL    HW110166   4.617   4.867   6.061
 3089SOL    HW210167   4.490   4.833   6.157
 3090SOL     OW10168   0.275   2.787   2.153
 3090SOL    HW110169   0.253   2.758   2.246
 3090SOL    HW210170   0.199   2.765   2.092
 3091SOL     OW10171   0.524   3.238   1.096
 3091SOL    HW110172   0.623   3.222   1.104
 3091SOL    HW210173   0.475   3.156   1.127
 3092SOL     OW10174   5.707   1.103   1.916
 3092SOL    HW110175   5.720   1.047   1.997
 3092SOL    HW210176   5.673   1.046   1.841
 3093SOL     OW10177   6.653   5.738   6.759
 3093SOL    HW110178   6.564   5.775   6.785
 3093SOL    HW210179   6.643   5.644   6.727
 3094SOL     OW10180   2.373   1.542   6.921
 3094SOL    HW110181   2.446   1.495   6.871
 3094SOL    HW210182   2.358   1.633   6.880
 3095SOL     OW10183   1.721   3.997   5.947
 3095SOL    HW110184   1.703   3.987   6.045
 3095SOL    HW210185   1.660   3.936   5.896
 3096SOL     OW10186   0.847   2.961   4.119
 3096SOL    HW110187   0.832   3.059   4.126
 3096SOL    HW210188   0.938   2.938   4.153
 3097SOL     OW10189   5.469   3.135   5.224
 3097SOL    HW110190   5.443   3.039   5.228
 3097SOL    HW210191   5.388   3.193   5.235
 3098SOL     OW10192   2.101   3.260   3.077
 3098SOL    HW110193   2.132   3.170   3.046
 3098SOL    HW210194   2.074   3.254   3.173
 3099SOL     OW10195   0.171   6.619   4.520
 3099SOL    HW110196   0.157   6.529   4.479
 3099SOL    HW210197   0.230   6.674   4.461
 3100SOL     OW10198   5.467   4.677   1.598
 3100SOL    HW110199   5.550   4.647   1.645
 3100SOL    HW210200   5.492   4.721   1.512
 3101SOL     OW10201   4.464   7.023   5.132
 3101SOL    HW110202   4.386   0.052   5.102
 3101SOL    HW210203   4.516   6.993   5.052
 3102SOL     OW10204   6.610   4.882   1.991
 3102SOL    HW110205   6.545   4.828   1.938
 3102SOL    HW210206   6.582   4.979   1.989
 3103SOL     OW10207   2.900   1.525   1.197
 3103SOL    HW110208   2.882   1.432   1.229
 3103SOL    HW210209   2.992   1.553   1.224
 3104SOL     OW10210   5.308   2.287   4.648
 3104SOL    HW110211   5.262   2.374   4.629
 3104SOL    HW210212   5.332   2.282   4.745
 3105SOL     OW10213   6.187   3.811   0.247
 3105SOL    HW110214   6.113   3.874   0.270
 3105SOL    HW210215   6.212   3.758   0.328
 3106SOL     OW10216   5.165   1.669   5.876
 3106SOL    HW110217   5.234   1.598   5.863
 3106SOL    HW210218   5.076   1.635   5.846
 3107SOL     OW10219   2.886   1.592   5.023
 3107SOL    HW110220   2.844   1.555   4.941
 3107SOL    HW210221   2.898   1.691   5.013
 3108SOL     OW10222   2.479   4.448   3.394
 3108SOL    HW110223   2.570   4.410   3.385
 3108SOL    HW210224   2.417   4.380   3.433
 3109SOL     OW10225   6.681   6.319   3.656
 3109SOL    HW110226   6.666   6.229   3.614
 3109SOL    HW210227   6.773   6.351   3.635
 3110SOL     OW10228   1.113   5.752   3.268
 3110SOL    HW110229   1.175   5.677   3.291
 3110SOL    HW210230   1.066   5.731   3.182
 3111SOL     OW10231   6.166   4.277   3.730
 3111SOL    HW110232   6.132   4.194   3.774
 3111SOL    HW210233   6.116   4.357   3.765
 3112SOL     OW10234   3.052   1.393   6.499
 3112SOL    HW110235   3.036   1.348   6.410
 3112SOL    HW210236   3.147   1.423   6.504
 3113SOL     OW10237   1.747   6.287   2.984
 3113SOL    HW110238   1.815   6.361   2.986
 3113SOL    HW210239   1.680   6.301   3.057
 3114SOL     OW10240   4.318   1.125   6.381
 3114SOL    HW110241   4.236   1.083   6.344
 3114SOL    HW210242   4.320   1.114   6.481
 3115SOL     OW10243   4.745   5.394   5.480
 3115SOL    HW110244   4.726   5.392   5.382
 3115SOL    HW210245   4.842   5.413   5.495
 3116SOL     OW10246   0.890   0.452   6.920
 3116SOL    HW110247   0.873   0.548   6.942
 3116SOL    HW210248   0.956   0.446   6.845
 3117SOL     OW10249   4.627   0.324   6.986
 3117SOL    HW110250   4.606   0.313   0.058
 3117SOL    HW210251   4.545   0.357   6.938
 3118SOL     OW10252   1.460   1.585   3.404
 3118SOL    HW110253   1.376   1.585   3.457
 3118SOL    HW210254   1.469   1.671   3.355
 3119SOL     OW10255   4.517   5.691   5.090
 3119SOL    HW110256   4.572   5.764   5.131
 3119SOL    HW210257   4.510   5.615   5.155
 3120SOL     OW10258   2.683   6.071   6.425
 3120SOL    HW110259   2.770   6.037   6.460
 3120SOL    HW210260   2.676   6.052   6.327
 3121SOL     OW10261   3.873   1.837   4.325
 3121SOL    HW110262   3.881   1.741   4.348
 3121SOL    HW210263   3.777   1.861   4.313
 3122SOL     OW10264   5.532   5.098   5.164
 3122SOL    HW110265   5.608   5.056   5.115
 3122SOL    HW210266   5.476   5.151   5.100
 3123SOL     OW10267   1.273   1.052   3.088
 3123SOL    HW110268   1.249   1.078   2.994
 3123SOL    HW210269   1.372   1.061   3.100
 3124SOL     OW10270   4.822   0.330   4.624
 3124SOL    HW110271   4.731   0.317   4.585
 3124SOL    HW210272   4.881   0.375   4.556
 3125SOL     OW10273   1.785   1.283   5.124
 3125SOL    HW110274   1.844   1.236   5.189
 3125SOL    HW210275   1.729   1.351   5.173
 3126SOL     OW10276   4.994   5.070   5.340
 3126SOL    HW110277   5.081   5.114   5.360
 3126SOL    HW210278   4.940   5.062   5.424
 3127SOL     OW10279   0.100   0.782   5.369
 3127SOL    HW110280   0.048   0.698   5.358
 3127SOL    HW210281   0.196   0.765   5.347
 3128SOL     OW10282   3.621   0.769   0.631
 3128SOL    HW110283   3.710   0.814   0.640
 3128SOL    HW210284   3.550   0.825   0.674
 3129SOL     OW10285   4.239   3.678   0.276
 3129SOL    HW110286   4.294   3.595   0.291
 3129SOL    HW210287   4.236   3.731   0.360
 3130SOL     OW10288   6.775   5.414   1.639
 3130SOL    HW110289   6.694   5.472   1.644
 3130SOL    HW210290   6.747   5.318   1.643
 3131SOL     OW10291   6.454   4.671   2.905
 3131SOL    HW110292   6.545   4.712   2.908
 3131SOL    HW210293   6.401   4.703   2.984
 3132SOL     OW10294   4.589   4.035   0.496
 3132SOL    HW110295   4.536   4.001   0.418
 3132SOL    HW210296   4.554   3.995   0.580
 3133SOL     OW10297   4.747   0.033   4.353
 3133SOL    HW110298   4.704   0.048   4.264
 3133SOL    HW210299   4.820   0.100   4.367
 3134SOL     OW10300   6.330   5.043   2.524
 3134SOL    HW110301   6.233   5.024   2.543
 3134SOL    HW210302   6.339   5.081   2.432
 3135SOL     OW10303   4.079   5.759   6.963
 3135SOL    HW110304   4.178   5.755   6.980
 3135SOL    HW210305   4.063   5.786   6.868
 3136SOL     OW10306   6.193   0.767   3.686
 3136SOL    HW110307   6.192   0.856   3.642
 3136SOL    HW210308   6.100   0.740   3.711
 3137SOL     OW10309   5.872   6.504   6.677
 3137SOL    HW110310   5.882   6.423   6.619
 3137SOL    HW210311   5.881   6.478   6.773
 3138SOL     OW10312   6.011   6.281   4.690
 3138SOL    HW110313   5.976   6.217   4.759
 3138SOL    HW210314   6.110   6.292   4.704
 3139SOL     OW10315   2.997   4.964   1.675
 3139SOL    HW110316   3.072   5.020   1.640
 3139SOL    HW210317   2.925   5.023   1.712
 3140SOL     OW10318   0.366   6.346   0.252
 3140SOL    HW110319   0.336   6.251   0.246
 3140SOL    HW210320   0.442   6.354   0.316
 3141SOL     OW10321   6.127   1.791   6.401
 3141SOL    HW110322   6.146   1.752   6.311
 3141SOL    HW210323   6.081   1.879   6.391
 3142SOL     OW10324   4.180   0.230   3.745
 3142SOL    HW110325   4.165   0.310   3.803
 3142SOL    HW210326   4.240   0.254   3.669
 3143SOL     OW10327   6.495   1.377   0.707
 3143SOL    HW110328   6.506   1.471   0.674
 3143SOL    HW210329   6.577   1.349   0.756
 3144SOL     OW10330   4.255   4.000   0.488
 3144SOL    HW110331   4.219   4.023   0.578
 3144SOL    HW210332   4.183   4.008   0.419
 3145SOL     OW10333   0.430   5.849   0.218
 3145SOL    HW110334   0.390   5.789   0.287
 3145SOL    HW210335   0.402   5.819   0.127
 3146SOL     OW10336   6.527   1.179   4.603
 3146SOL    HW110337   6.496   1.087   4.580
 3146SOL    HW210338   6.624   1.189   4.579
 3147SOL     OW10339   3.793   6.209   6.983
 3147SOL    HW110340   3.858   6.163   6.924
 3147SOL    HW210341   3.775   6.301   6.948
 3148SOL     OW10342   6.703   4.930   1.659
 3148SOL    HW110343   6.717   4.906   1.562
 3148SOL    HW210344   6.669   4.850   1.708
 3149SOL     OW10345   3.126   2.104   6.911
 3149SOL    HW110346   3.055   2.110   6.981
 3149SOL    HW210347   3.142   2.194   6.871
 3150SOL     OW10348   6.532   6.048   5.915
 3150SOL    HW110349   6.569   6.093   5.835
 3150SOL    HW210350   6.468   5.976   5.886
 3151SOL     OW10351   0.198   0.472   5.534
 3151SOL    HW110352   0.263   0.449   5.461
 3151SOL    HW210353   0.154   0.388   5.566
 3152SOL     OW10354   1.374   3.186   5.773
 3152SOL    HW110355   1.322   3.264   5.737
 3152SOL    HW210356   1.387   3.198   5.871
 3153SOL     OW10357   6.301   4.899   1.683
 3153SOL    HW110358   6.311   4.816   1.628
 3153SOL    HW210359   6.346   4.976   1.637
 3154SOL     OW10360   4.240   0.841   6.825
 3154SOL    HW110361   4.317   0.861   6.765
 3154SOL    HW210362   4.159   0.891   6.794
 3155SOL     OW10363   0.984   4.584   0.290
 3155SOL    HW110364   0.989   4.677   0.325
 3155SOL    HW210365   0.889   4.555   0.282
 3156SOL     OW10366   3.640   4.161   1.773
 3156SOL    HW110367   3.707   4.153   1.847
 3156SOL    HW210368   3.556   4.114   1.799
 3157SOL     OW10369   0.989   1.032   5.214
 3157SOL    HW110370   0.947   1.029   5.304
 3157SOL    HW210371   1.083   0.996   5.219
 3158SOL     OW10372   1.681   1.284   5.849
 3158SOL    HW110373   1.761   1.296   5.908
 3158SOL    HW210374   1.644   1.192   5.861
 3159SOL     OW10375   5.549   0.477   6.713
 3159SOL    HW110376   5.643   0.510   6.713
 3159SOL    HW210377   5.549   0.377   6.725
 3160SOL     OW10378   1.504   0.582   6.133
 3160SOL    HW110379   1.459   0.493   6.125
 3160SOL    HW210380   1.464   0.646   6.067
 3161SOL     OW10381   1.899   2.743   2.143
 3161SOL    HW110382   1.960   2.774   2.216
 3161SOL    HW210383   1.857   2.656   2.169
 3162SOL     OW10384   1.924   5.861   1.441
 3162SOL    HW110385   1.880   5.883   1.354
 3162SOL    HW210386   1.889   5.774   1.475
 3163SOL     OW10387   4.117   4.416   0.587
 3163SOL    HW110388   4.172   4.448   0.664
 3163SOL    HW210389   4.048   4.351   0.620
 3164SOL     OW10390   2.739   6.296   3.791
 3164SOL    HW110391   2.680   6.363   3.836
 3164SOL    HW210392   2.796   6.342   3.723
 3165SOL     OW10393   0.775   6.634   6.500
 3165SOL    HW110394   0.820   6.561   6.449
 3165SOL    HW210395   0.796   6.625   6.598
 3166SOL     OW10396   5.497   1.332   5.143
 3166SOL    HW110397   5.497   1.248   5.197
 3166SOL    HW210398   5.586   1.343   5.099
 3167SOL     OW10399   5.516   2.816   0.603
 3167SOL    HW110400   5.433   2.804   0.658
 3167SOL    HW210401   5.492   2.814   0.506
 3168SOL     OW10402   4.357   1.744   0.551
 3168SOL    HW110403   4.301   1.824   0.530
 3168SOL    HW210404   4.426   1.769   0.619
 3169SOL     OW10405   2.221   4.101   1.894
 3169SOL    HW110406   2.220   4.005   1.922
 3169SOL    HW210407   2.274   4.154   1.960
 3170SOL     OW10408   2.124   3.390   3.619
 3170SOL    HW110409   2.180   3.359   3.696
 3170SOL    HW210410   2.092   3.483   3.637
 3171SOL     OW10411   5.525   1.803   3.716
 3171SOL    HW110412   5.514   1.828   3.620
 3171SOL    HW210413   5.547   1.706   3.724
 3172SOL     OW10414   5.909   3.792   1.415
 3172SOL    HW110415   5.919   3.699   1.451
 3172SOL    HW210416   6.000   3.835   1.410
 3173SOL     OW10417   4.460   3.273   6.977
 3173SOL    HW110418   4.473   3.364   6.936
 3173SOL    HW210419   4.442   3.283   0.050
 3174SOL     OW10420   3.297   3.028   6.441
 3174SOL    HW110421   3.387   2.983   6.436
 3174SOL    HW210422   3.226   2.960   6.425
 3175SOL     OW10423   5.448   1.077   5.276
 3175SOL    HW110424   5.376   1.046   5.213
 3175SOL    HW210425   5.444   1.023   5.360
 3176SOL     OW10426   0.628   4.896   4.355
 3176SOL    HW110427   0.563   4.957   4.401
 3176SOL    HW210428   0.654   4.822   4.417
 3177SOL     OW10429   5.426   3.833   3.508
 3177SOL    HW110430   5.499   3.796   3.450
 3177SOL    HW210431   5.464   3.898   3.573
 3178SOL     OW10432   6.855   1.120   2.132
 3178SOL    HW110433   6.773   1.168   2.100
 3178SOL    HW210434   6.860   1.030   2.089
 3179SOL     OW10435   1.202   2.600   1.936
 3179SOL    HW110436   1.214   2.629   2.031
 3179SOL    HW210437   1.121   2.645   1.898
 3180SOL     OW10438   0.293   5.696   0.413
 3180SOL    HW110439   0.322   5.602   0.431
 3180SOL    HW210440   0.220   5.721   0.477
 3181SOL     OW10441   1.760   6.572   5.155
 3181SOL    HW110442   1.808   6.644   5.204
 3181SOL    HW210443   1.814   6.488   5.155
 3182SOL     OW10444   2.141   1.473   1.021
 3182SOL    HW110445   2.104   1.394   0.972
 3182SOL    HW210446   2.106   1.558   0.979
 3183SOL     OW10447   3.704   4.018   0.986
 3183SOL    HW110448   3.634   3.964   1.034
 3183SOL    HW210449   3.683   4.019   0.888
 3184SOL     OW10450   7.015   2.133   4.597
 3184SOL    HW110451   0.090   2.132   4.597
 3184SOL    HW210452   6.981   2.128   4.503
 3185SOL     OW10453   0.854   5.502   6.645
 3185SOL    HW110454   0.868   5.565   6.568
 3185SOL    HW210455   0.762   5.516   6.683
 3186SOL     OW10456   0.365   2.117   6.543
 3186SOL    HW110457   0.398   2.179   6.614
 3186SOL    HW210458   0.266   2.125   6.535
 3187SOL     OW10459   4.915   6.111   2.693
 3187SOL    HW110460   4.979   6.047   2.651
 3187SOL    HW210461   4.869   6.067   2.770
 3188SOL     OW10462   2.361   5.710   6.718
 3188SOL    HW110463   2.388   5.766   6.639
 3188SOL    HW210464   2.442   5.684   6.770
 3189SOL     OW10465   3.353   1.750   5.535
 3189SOL    HW110466   3.329   1.813   5.609
 3189SOL    HW210467   3.272   1.736   5.477
 3190SOL     OW10468   5.973   6.327   4.129
 3190SOL    HW110469   5.930   6.301   4.043
 3190SOL    HW210470   5.914   6.392   4.177
 3191SOL     OW10471   3.481   5.602   1.177
 3191SOL    HW110472   3.402   5.588   1.118
 3191SOL    HW210473   3.467   5.684   1.232
 3192SOL     OW10474   5.329   1.870   2.693
 3192SOL    HW110475   5.347   1.772   2.703
 3192SOL    HW210476   5.415   1.920   2.689
 3193SOL     OW10477   3.543   0.405   4.823
 3193SOL    HW110478   3.572   0.494   4.789
 3193SOL    HW210479   3.495   0.355   4.750
 3194SOL     OW10480   1.778   0.112   6.713
 3194SOL    HW110481   1.840   0.141   6.640
 3194SOL    HW210482   1.690   0.158   6.701
 3195SOL     OW10483   0.188   1.362   1.176
 3195SOL    HW110484   0.141   1.358   1.088
 3195SOL    HW210485   0.282   1.395   1.162
 3196SOL     OW10486   5.782   0.228   3.541
 3196SOL    HW110487   5.702   0.172   3.517
 3196SOL    HW210488   5.865   0.178   3.520
 3197SOL     OW10489   2.197   0.766   6.499
 3197SOL    HW110490   2.209   0.763   6.598
 3197SOL    HW210491   2.132   0.696   6.471
 3198SOL     OW10492   5.486   2.933   3.564
 3198SOL    HW110493   5.478   2.970   3.657
 3198SOL    HW210494   5.578   2.951   3.529
 3199SOL     OW10495   5.287   4.292   2.860
 3199SOL    HW110496   5.367   4.238   2.884
 3199SOL    HW210497   5.298   4.332   2.769
 3200SOL     OW10498   5.221   3.809   3.321
 3200SOL    HW110499   5.159   3.884   3.342
 3200SOL    HW210500   5.309   3.824   3.365
 3201SOL     OW10501   5.996   4.543   2.123
 3201SOL    HW110502   5.932   4.539   2.200
 3201SOL    HW210503   6.040   4.632   2.120
 3202SOL     OW10504   2.360   3.408   6.999
 3202SOL    HW110505   2.385   3.377   0.065
 3202SOL    HW210506   2.436   3.460   6.959
 3203SOL     OW10507   3.618   6.729   1.276
 3203SOL    HW110508   3.542   6.759   1.333
 3203SOL    HW210509   3.588   6.726   1.180
 3204SOL     OW10510   3.344   1.422   3.499
 3204SOL    HW110511   3.276   1.352   3.523
 3204SOL    HW210512   3.430   1.378   3.474
 3205SOL     OW10513   4.653   3.631   5.698
 3205SOL    HW110514   4.602   3.601   5.778
 3205SOL    HW210515   4.657   3.731   5.696
 3206SOL     OW10516   3.439   3.413   1.205
 3206SOL    HW110517   3.518   3.396   1.145
 3206SOL    HW210518   3.414   3.509   1.201
 3207SOL     OW10519   1.944   5.459   5.675
 3207SOL    HW110520   2.032   5.457   5.723
 3207SOL    HW210521   1.877   5.506   5.732
 3208SOL     OW10522   6.687   4.745   6.007
 3208SOL    HW110523   6.696   4.690   6.090
 3208SOL    HW210524   6.762   4.811   6.002
 3209SOL     OW10525   5.140   5.850   6.551
 3209SOL    HW110526   5.149   5.751   6.561
 3209SOL    HW210527   5.230   5.891   6.536
 3210SOL     OW10528   5.701   5.791   1.731
 3210SOL    HW110529   5.787   5.759   1.770
 3210SOL    HW210530   5.688   5.888   1.753
 3211SOL     OW10531   1.477   5.819   6.268
 3211SOL    HW110532   1.566   5.785   6.236
 3211SOL    HW210533   1.413   5.743   6.274
 3212SOL     OW10534   2.244   0.544   2.900
 3212SOL    HW110535   2.235   0.486   2.981
 3212SOL    HW210536   2.190   0.627   2.913
 3213SOL     OW10537   1.378   0.346   6.120
 3213SOL    HW110538   1.352   0.292   6.040
 3213SOL    HW210539   1.435   0.291   6.180
 3214SOL     OW10540   3.289   0.936   2.658
 3214SOL    HW110541   3.308   1.033   2.645
 3214SOL    HW210542   3.287   0.916   2.756
 3215SOL     OW10543   2.006   3.547   1.509
 3215SOL    HW110544   2.028   3.618   1.575
 3215SOL    HW210545   1.907   3.545   1.494
 3216SOL     OW10546   6.322   4.867   1.034
 3216SOL    HW110547   6.232   4.824   1.032
 3216SOL    HW210548   6.324   4.938   1.104
 3217SOL     OW10549   6.838   5.807   2.235
 3217SOL    HW110550   6.902   5.870   2.190
 3217SOL    HW210551   6.832   5.830   2.332
 3218SOL     OW10552   4.919   1.417   3.088
 3218SOL    HW110553   4.858   1.489   3.057
 3218SOL    HW210554   4.982   1.392   3.015
 3219SOL     OW10555   5.920   1.330   5.402
 3219SOL    HW110556   5.951   1.338   5.496
 3219SOL    HW210557   5.885   1.418   5.371
 3220SOL     OW10558   6.829   4.440   6.096
 3220SOL    HW110559   6.908   4.493   6.065
 3220SOL    HW210560   6.761   4.436   6.022
 3221SOL     OW10561   3.529   1.479   1.339
 3221SOL    HW110562   3.471   1.487   1.420
 3221SOL    HW210563   3.491   1.410   1.277
 3222SOL     OW10564   3.451   1.570   3.063
 3222SOL    HW110565   3.388   1.496   3.042
 3222SOL    HW210566   3.412   1.629   3.135
 3223SOL     OW10567   1.860   5.939   0.343
 3223SOL    HW110568   1.808   6.024   0.333
 3223SOL    HW210569   1.890   5.908   0.253
 3224SOL     OW10570   3.443   2.139   3.523
 3224SOL    HW110571   3.426   2.057   3.468
 3224SOL    HW210572   3.357   2.172   3.562
 3225SOL     OW10573   4.008   1.082   3.873
 3225SOL    HW110574   4.096   1.038   3.852
 3225SOL    HW210575   3.973   1.126   3.790
 3226SOL     OW10576   6.324   0.183   0.277
 3226SOL    HW110577   6.246   0.130   0.245
 3226SOL    HW210578   6.329   0.179   0.377
 3227SOL     OW10579   5.502   4.820   4.911
 3227SOL    HW110580   5.449   4.894   4.869
 3227SOL    HW210581   5.563   4.858   4.980
 3228SOL     OW10582   2.612   4.191   0.316
 3228SOL    HW110583   2.700   4.237   0.323
 3228SOL    HW210584   2.599   4.130   0.394
 3229SOL     OW10585   1.496   1.607   0.105
 3229SOL    HW110586   1.485   1.705   0.086
 3229SOL    HW210587   1.594   1.586   0.115
 3230SOL     OW10588   2.869   6.289   5.626
 3230SOL    HW110589   2.884   6.242   5.713
 3230SOL    HW210590   2.957   6.318   5.588
 3231SOL     OW10591   1.983   1.790   2.405
 3231SOL    HW110592   2.032   1.824   2.325
 3231SOL    HW210593   1.985   1.860   2.477
 3232SOL     OW10594   3.482   5.242   4.257
 3232SOL    HW110595   3.409   5.301   4.221
 3232SOL    HW210596   3.508   5.274   4.348
 3233SOL     OW10597   0.793   1.430   0.599
 3233SOL    HW110598   0.864   1.458   0.663
 3233SOL    HW210599   0.817   1.460   0.507
 3234SOL     OW10600   2.530   2.552   0.740
 3234SOL    HW110601   2.510   2.455   0.723
 3234SOL    HW210602   2.629   2.567   0.733
 3235SOL     OW10603   0.904   6.971   2.890
 3235SOL    HW110604   0.872   0.037   2.914
 3235SOL    HW210605   1.003   6.975   2.871
 3236SOL     OW10606   3.826   2.057   0.194
 3236SOL    HW110607   3.890   1.986   0.166
 3236SOL    HW210608   3.876   2.143   0.210
 3237SOL     OW10609   5.937   1.989   5.649
 3237SOL    HW110610   6.020   1.989   5.592
 3237SOL    HW210611   5.859   2.018   5.594
 3238SOL     OW10612   6.653   4.629   1.656
 3238SOL    HW110613   6.606   4.642   1.743
 3238SOL    HW210614   6.635   4.537   1.622
 3239SOL     OW10615   6.900   6.781   4.228
 3239SOL    HW110616   6.832   6.802   4.299
 3239SOL    HW210617   6.916   6.863   4.173
 3240SOL     OW10618   0.142   0.470   0.357
 3240SOL    HW110619   0.154   0.565   0.329
 3240SOL    HW210620   0.225   0.439   0.403
 3241SOL     OW10621   6.002   2.359   5.916
 3241SOL    HW110622   6.078   2.338   5.977
 3241SOL    HW210623   5.939   2.281   5.915
 3242SOL     OW10624   6.124   4.367   4.272
 3242SOL    HW110625   6.055   4.399   4.337
 3242SOL    HW210626   6.212   4.409   4.293
 3243SOL     OW10627   6.024   4.842   4.514
 3243SOL    HW110628   6.002   4.860   4.610
 3243SOL    HW210629   5.997   4.748   4.491
 3244SOL     OW10630   5.254   0.183   6.878
 3244SOL    HW110631   5.231   0.126   6.957
 3244SOL    HW210632   5.291   0.271   6.910
 3245SOL     OW10633   4.357   0.982   5.117
 3245SOL    HW110634   4.369   0.883   5.107
 3245SOL    HW210635   4.435   1.029   5.075
 3246SOL     OW10636   6.869   0.179   3.044
 3246SOL    HW110637   6.856   0.272   3.080
 3246SOL    HW210638   6.784   0.149   3.000
 3247SOL     OW10639   0.315   4.432   3.511
 3247SOL    HW110640   0.261   4.501   3.463
 3247SOL    HW210641   0.331   4.354   3.450
 3248SOL     OW10642   5.362   2.122   3.521
 3248SOL    HW110643   5.309   2.104   3.603
 3248SOL    HW210644   5.330   2.207   3.478
 3249SOL     OW10645   3.087   3.956   3.680
 3249SOL    HW110646   3.030   4.018   3.734
 3249SOL    HW210647   3.171   3.935   3.731
 3250SOL     OW10648   4.677   5.361   2.682
 3250SOL    HW110649   4.652   5.280   2.629
 3250SOL    HW210650   4.666   5.342   2.780
 3251SOL     OW10651   2.270   2.193   2.780
 3251SOL    HW110652   2.282   2.244   2.865
 3251SOL    HW210653   2.271   2.095   2.800
 3252SOL     OW10654   1.740   0.890   3.276
 3252SOL    HW110655   1.721   0.908   3.373
 3252SOL    HW210656   1.816   0.826   3.269
 3253SOL     OW10657   6.693   3.621   0.430
 3253SOL    HW110658   6.617   3.642   0.491
 3253SOL    HW210659   6.726   3.705   0.387
 3254SOL     OW10660   6.332   7.006   1.001
 3254SOL    HW110661   6.244   0.029   0.999
 3254SOL    HW210662   6.406   0.046   0.978
 3255SOL     OW10663   4.898   5.857   1.230
 3255SOL    HW110664   4.826   5.911   1.186
 3255SOL    HW210665   4.987   5.884   1.193
 3256SOL     OW10666   5.001   2.455   1.280
 3256SOL    HW110667   4.967   2.540   1.240
 3256SOL    HW210668   4.965   2.377   1.229
 3257SOL     OW10669   2.888   2.018   3.152
 3257SOL    HW110670   2.866   1.921   3.138
 3257SOL    HW210671   2.924   2.030   3.244
 3258SOL     OW10672   2.414   5.312   3.444
 3258SOL    HW110673   2.392   5.352   3.532
 3258SOL    HW210674   2.511   5.288   3.441
 3259SOL     OW10675   4.972   4.269   3.801
 3259SOL    HW110676   5.029   4.191   3.825
 3259SOL    HW210677   4.964   4.330   3.880
 3260SOL     OW10678   0.833   4.232   3.371
 3260SOL    HW110679   0.843   4.270   3.463
 3260SOL    HW210680   0.892   4.282   3.307
 3261SOL     OW10681   5.290   7.008   3.737
 3261SOL    HW110682   5.374   0.027   3.707
 3261SOL    HW210683   5.273   0.005   3.833
 3262SOL     OW10684   3.049   2.020   3.394
 3262SOL    HW110685   3.097   2.079   3.457
 3262SOL    HW210686   3.115   1.966   3.341
 3263SOL     OW10687   6.971   1.550   2.350
 3263SOL    HW110688   0.030   1.595   2.379
 3263SOL    HW210689   6.984   1.511   2.259
 3264SOL     OW10690   1.719   4.879   6.685
 3264SOL    HW110691   1.696   4.968   6.646
 3264SOL    HW210692   1.635   4.830   6.708
 3265SOL     OW10693   6.037   5.332   6.243
 3265SOL    HW110694   5.978   5.265   6.288
 3265SOL    HW210695   6.077   5.393   6.311
 3266SOL     OW10696   3.397   5.718   6.760
 3266SOL    HW110697   3.390   5.792   6.693
 3266SOL    HW210698   3.469   5.740   6.826
 3267SOL     OW10699   3.593   6.949   0.025
 3267SOL    HW110700   3.569   0.004   0.080
 3267SOL    HW210701   3.691   6.948   0.006
 3268SOL     OW10702   6.370   5.363   1.482
 3268SOL    HW110703   6.352   5.266   1.502
 3268SOL    HW210704   6.284   5.413   1.483
 3269SOL     OW10705   1.916   4.875   1.758
 3269SOL    HW110706   1.988   4.883   1.689
 3269SOL    HW210707   1.950   4.912   1.845
 3270SOL     OW10708   0.748   2.879   5.274
 3270SOL    HW110709   0.813   2.932   5.220
 3270SOL    HW210710   0.770   2.781   5.267
 3271SOL     OW10711   0.685   2.643   2.196
 3271SOL    HW110712   0.740   2.561   2.184
 3271SOL    HW210713   0.633   2.662   2.113
 3272SOL     OW10714   4.515   6.251   1.017
 3272SOL    HW110715   4.451   6.314   0.974
 3272SOL    HW210716   4.465   6.183   1.070
 3273SOL     OW10717   4.927   2.710   6.023
 3273SOL    HW110718   4.868   2.645   5.975
 3273SOL    HW210719   4.921   2.695   6.122
 3274SOL     OW10720   5.969   0.276   1.227
 3274SOL    HW110721   5.891   0.247   1.284
 3274SOL    HW210722   6.011   0.357   1.267
 3275SOL     OW10723   4.843   0.571   1.857
 3275SOL    HW110724   4.796   0.654   1.827
 3275SOL    HW210725   4.805   0.542   1.946
 3276SOL     OW10726   5.121   0.323   0.425
 3276SOL    HW110727   5.120   0.414   0.465
 3276SOL    HW210728   5.164   0.326   0.335
 3277SOL     OW10729   3.269   1.890   1.897
 3277SOL    HW110730   3.294   1.969   1.953
 3277SOL    HW210731   3.352   1.841   1.872
 3278SOL     OW10732   6.100   0.682   6.848
 3278SOL    HW110733   6.117   0.780   6.839
 3278SOL    HW210734   6.011   0.666   6.890
 3279SOL     OW10735   3.388   0.234   1.706
 3279SOL    HW110736   3.302   0.276   1.678
 3279SOL    HW210737   3.457   0.249   1.636
 3280SOL     OW10738   6.280   3.857   3.576
 3280SOL    HW110739   6.189   3.869   3.535
 3280SOL    HW210740   6.272   3.807   3.662
 3281SOL     OW10741   5.829   3.448   1.265
 3281SOL    HW110742   5.801   3.481   1.355
 3281SOL    HW210743   5.836   3.348   1.267
 3282SOL     OW10744   0.151   4.951   4.602
 3282SOL    HW110745   0.056   4.945   4.570
 3282SOL    HW210746   0.190   5.039   4.573
 3283SOL     OW10747   3.520   1.871   0.914
 3283SOL    HW110748   3.499   1.823   0.828
 3283SOL    HW210749   3.557   1.961   0.893
 3284SOL     OW10750   2.379   5.899   4.241
 3284SOL    HW110751   2.346   5.924   4.332
 3284SOL    HW210752   2.402   5.801   4.240
 3285SOL     OW10753   3.961   2.036   4.798
 3285SOL    HW110754   4.005   1.951   4.825
 3285SOL    HW210755   3.954   2.039   4.698
 3286SOL     OW10756   2.379   1.777   2.331
 3286SOL    HW110757   2.436   1.770   2.249
 3286SOL    HW210758   2.424   1.837   2.398
 3287SOL     OW10759   2.379   0.475   0.124
 3287SOL    HW110760   2.353   0.379   0.112
 3287SOL    HW210761   2.430   0.505   0.043
 3288SOL     OW10762   2.412   6.480   1.974
 3288SOL    HW110763   2.343   6.428   2.026
 3288SOL    HW210764   2.369   6.560   1.933
 3289SOL     OW10765   4.609   1.138   6.390
 3289SOL    HW110766   4.665   1.056   6.393
 3289SOL    HW210767   4.514   1.113   6.373
 3290SOL     OW10768   0.333   5.424   0.455
 3290SOL    HW110769   0.314   5.361   0.530
 3290SOL    HW210770   0.338   5.373   0.369
 3291SOL     OW10771   4.815   0.010   5.177
 3291SOL    HW110772   4.733   0.067   5.164
 3291SOL    HW210773   4.850   7.006   5.088
 3292SOL     OW10774   7.005   2.006   0.926
 3292SOL    HW110775   6.949   2.087   0.910
 3292SOL    HW210776   6.968   1.953   1.002
 3293SOL     OW10777   6.262   5.799   3.635
 3293SOL    HW110778   6.220   5.788   3.545
 3293SOL    HW210779   6.192   5.792   3.706
 3294SOL     OW10780   5.237   3.065   4.897
 3294SOL    HW110781   5.294   2.987   4.925
 3294SOL    HW210782   5.294   3.134   4.854
 3295SOL     OW10783   1.187   2.805   2.747
 3295SOL    HW110784   1.239   2.802   2.661
 3295SOL    HW210785   1.231   2.746   2.815
 3296SOL     OW10786   1.193   0.717   6.251
 3296SOL    HW110787   1.250   0.697   6.171
 3296SOL    HW210788   1.250   0.753   6.324
 3297SOL     OW10789   2.908   1.324   4.869
 3297SOL    HW110790   2.914   1.304   4.967
 3297SOL    HW210791   2.847   1.402   4.855
 3298SOL     OW10792   5.215   3.760   5.802
 3298SOL    HW110793   5.149   3.814   5.853
 3298SOL    HW210794   5.294   3.817   5.778
 3299SOL     OW10795   2.702   4.637   4.056
 3299SOL    HW110796   2.765   4.675   3.989
 3299SOL    HW210797   2.608   4.650   4.024
 3300SOL     OW10798   1.813   6.842   4.183
 3300SOL    HW110799   1.737   6.880   4.130
 3300SOL    HW210800   1.888   6.818   4.121
 3301SOL     OW10801   0.680   1.287   3.128
 3301SOL    HW110802   0.756   1.222   3.133
 3301SOL    HW210803   0.629   1.284   3.214
 3302SOL     OW10804   1.894   4.758   5.482
 3302SOL    HW110805   1.874   4.660   5.486
 3302SOL    HW210806   1.812   4.807   5.452
 3303SOL     OW10807   3.701   2.520   0.230
 3303SOL    HW110808   3.711   2.592   0.160
 3303SOL    HW210809   3.605   2.515   0.258
 3304SOL     OW10810   3.081   5.401   6.902
 3304SOL    HW110811   3.039   5.462   6.970
 3304SOL    HW210812   3.029   5.405   6.817
 3305SOL     OW10813   3.165   2.785   0.703
 3305SOL    HW110814   3.164   2.721   0.780
 3305SOL    HW210815   3.245   2.768   0.646
 3306SOL     OW10816   2.248   0.783   0.084
 3306SOL    HW110817   2.279   0.838   0.162
 3306SOL    HW210818   2.240   0.841   0.003
 3307SOL     OW10819   1.780   6.613   5.565
 3307SOL    HW110820   1.742   6.703   5.589
 3307SOL    HW210821   1.723   6.541   5.606
 3308SOL     OW10822   4.034   4.608   1.107
 3308SOL    HW110823   3.947   4.595   1.058
 3308SOL    HW210824   4.096   4.662   1.051
 3309SOL     OW10825   5.775   3.127   3.285
 3309SOL    HW110826   5.715   3.073   3.345
 3309SOL    HW210827   5.764   3.095   3.190
 3310SOL     OW10828   6.229   4.810   5.941
 3310SOL    HW110829   6.187   4.869   5.872
 3310SOL    HW210830   6.166   4.735   5.963
 3311SOL     OW10831   2.901   3.585   0.479
 3311SOL    HW110832   2.916   3.518   0.407
 3311SOL    HW210833   2.913   3.677   0.442
 3312SOL     OW10834   4.773   2.552   5.877
 3312SOL    HW110835   4.747   2.574   5.783
 3312SOL    HW210836   4.778   2.453   5.888
 3313SOL     OW10837   0.541   0.961   3.767
 3313SOL    HW110838   0.575   0.867   3.762
 3313SOL    HW210839   0.608   1.023   3.728
 3314SOL     OW10840   2.757   5.546   2.633
 3314SOL    HW110841   2.681   5.487   2.660
 3314SOL    HW210842   2.745   5.575   2.538
 3315SOL     OW10843   0.240   5.348   5.180
 3315SOL    HW110844   0.197   5.374   5.267
 3315SOL    HW210845   0.175   5.361   5.105
 3316SOL     OW10846   4.044   2.716   6.213
 3316SOL    HW110847   3.951   2.703   6.246
 3316SOL    HW210848   4.053   2.678   6.121
 3317SOL     OW10849   5.162   2.647   2.565
 3317SOL    HW110850   5.094   2.574   2.559
 3317SOL    HW210851   5.247   2.610   2.603
 3318SOL     OW10852   3.351   2.301   0.633
 3318SOL    HW110853   3.277   2.327   0.695
 3318SOL    HW210854   3.423   2.370   0.636
 3319SOL     OW10855   6.470   5.758   3.400
 3319SOL    HW110856   6.514   5.680   3.445
 3319SOL    HW210857   6.537   5.832   3.390
 3320SOL     OW10858   6.424   6.711   1.618
 3320SOL    HW110859   6.520   6.737   1.630
 3320SOL    HW210860   6.390   6.670   1.703
 3321SOL     OW10861   5.264   1.631   0.639
 3321SOL    HW110862   5.190   1.638   0.706
 3321SOL    HW210863   5.248   1.553   0.579
 3322SOL     OW10864   6.578   3.697   0.853
 3322SOL    HW110865   6.546   3.697   0.948
 3322SOL    HW210866   6.668   3.652   0.849
 3323SOL     OW10867   1.308   2.806   1.424
 3323SOL    HW110868   1.367   2.773   1.498
 3323SOL    HW210869   1.350   2.887   1.382
 3324SOL     OW10870   5.177   6.191   5.928
 3324SOL    HW110871   5.151   6.095   5.918
 3324SOL    HW210872   5.215   6.206   6.019
 3325SOL     OW10873   2.723   4.023   5.865
 3325SOL    HW110874   2.692   3.933   5.896
 3325SOL    HW210875   2.761   4.073   5.942
 3326SOL     OW10876   4.146   1.433   2.028
 3326SOL    HW110877   4.055   1.473   2.041
 3326SOL    HW210878   4.148   1.342   2.070
 3327SOL     OW10879   0.127   5.081   6.803
 3327SOL    HW110880   0.141   5.104   6.899
 3327SOL    HW210881   0.216   5.062   6.760
 3328SOL     OW10882   4.648   2.340   6.455
 3328SOL    HW110883   4.724   2.341   6.390
 3328SOL    HW210884   4.624   2.434   6.480
 3329SOL     OW10885   6.562   5.857   5.567
 3329SOL    HW110886   6.580   5.916   5.489
 3329SOL    HW210887   6.627   5.878   5.641
 3330SOL     OW10888   6.592   3.580   2.830
 3330SOL    HW110889   6.527   3.583   2.754
 3330SOL    HW210890   6.661   3.509   2.813
 3331SOL     OW10891   2.181   3.236   1.426
 3331SOL    HW110892   2.278   3.236   1.450
 3331SOL    HW210893   2.133   3.303   1.481
 3332SOL     OW10894   6.154   4.706   1.405
 3332SOL    HW110895   6.236   4.762   1.396
 3332SOL    HW210896   6.176   4.621   1.452
 3333SOL     OW10897   4.409   5.617   5.951
 3333SOL    HW110898   4.389   5.523   5.923
 3333SOL    HW210899   4.414   5.676   5.870
 3334SOL     OW10900   2.312   4.148   1.651
 3334SOL    HW110901   2.402   4.185   1.629
 3334SOL    HW210902   2.304   4.136   1.750
 3335SOL     OW10903   6.105   4.406   4.622
 3335SOL    HW110904   6.203   4.385   4.622
 3335SOL    HW210905   6.056   4.334   4.671
 3336SOL     OW10906   3.366   5.894   5.852
 3336SOL    HW110907   3.319   5.903   5.764
 3336SOL    HW210908   3.298   5.896   5.926
 3337SOL     OW10909   3.456   1.736   0.680
 3337SOL    HW110910   3.490   1.672   0.611
 3337SOL    HW210911   3.377   1.696   0.727
 3338SOL     OW10912   0.107   4.105   0.580
 3338SOL    HW110913   0.132   4.009   0.590
 3338SOL    HW210914   0.145   4.158   0.655
 3339SOL     OW10915   0.332   5.582   6.257
 3339SOL    HW110916   0.328   5.630   6.169
 3339SOL    HW210917   0.327   5.483   6.240
 3340SOL     OW10918   3.768   6.834   1.893
 3340SOL    HW110919   3.714   6.761   1.933
 3340SOL    HW210920   3.710   6.914   1.878
 3341SOL     OW10921   0.908   0.244   1.706
 3341SOL    HW110922   0.872   0.294   1.627
 3341SOL    HW210923   0.849   0.260   1.785
 3342SOL     OW10924   2.479   6.878   4.013
 3342SOL    HW110925   2.506   6.969   3.982
 3342SOL    HW210926   2.504   6.868   4.110
 3343SOL     OW10927   6.139   2.586   1.218
 3343SOL    HW110928   6.044   2.560   1.237
 3343SOL    HW210929   6.156   2.577   1.120
 3344SOL     OW10930   6.969   3.341   5.202
 3344SOL    HW110931   0.016   3.292   5.251
 3344SOL    HW210932   6.889   3.352   5.262
 3345SOL     OW10933   2.868   3.406   5.879
 3345SOL    HW110934   2.898   3.405   5.784
 3345SOL    HW210935   2.935   3.455   5.935
 3346SOL     OW10936   1.613   6.019   2.210
 3346SOL    HW110937   1.695   6.074   2.226
 3346SOL    HW210938   1.626   5.928   2.248
 3347SOL     OW10939   5.225   4.074   4.867
 3347SOL    HW110940   5.177   4.029   4.792
 3347SOL    HW210941   5.204   4.027   4.953
 3348SOL     OW10942   3.486   2.931   3.321
 3348SOL    HW110943   3.398   2.940   3.275
 3348SOL    HW210944   3.559   2.926   3.253
 3349SOL     OW10945   6.225   3.989   5.212
 3349SOL    HW110946   6.304   3.928   5.218
 3349SOL    HW210947   6.144   3.937   5.183
 3350SOL     OW10948   1.063   1.751   0.948
 3350SOL    HW110949   0.978   1.803   0.948
 3350SOL    HW210950   1.141   1.814   0.940
 3351SOL     OW10951   5.301   1.746   1.873
 3351SOL    HW110952   5.304   1.647   1.855
 3351SOL    HW210953   5.382   1.772   1.926
 3352SOL     OW10954   0.388   3.867   0.468
 3352SOL    HW110955   0.323   3.920   0.413
 3352SOL    HW210956   0.477   3.866   0.423
 3353SOL     OW10957   2.313   6.785   6.379
 3353SOL    HW110958   2.264   6.812   6.296
 3353SOL    HW210959   2.251   6.735   6.440
 3354SOL     OW10960   1.047   1.654   2.778
 3354SOL    HW110961   1.130   1.638   2.724
 3354SOL    HW210962   0.969   1.609   2.735
 3355SOL     OW10963   6.352   1.642   2.732
 3355SOL    HW110964   6.359   1.547   2.762
 3355SOL    HW210965   6.427   1.662   2.668
 3356SOL     OW10966   2.889   3.225   6.388
 3356SOL    HW110967   2.976   3.247   6.431
 3356SOL    HW210968   2.898   3.230   6.289
 3357SOL     OW10969   2.697   4.834   2.011
 3357SOL    HW110970   2.709   4.862   1.916
 3357SOL    HW210971   2.715   4.736   2.019
 3358SOL     OW10972   5.664   4.885   2.976
 3358SOL    HW110973   5.735   4.865   2.909
 3358SOL    HW210974   5.596   4.811   2.977
 3359SOL     OW10975   0.802   0.984   1.862
 3359SOL    HW110976   0.733   0.952   1.927
 3359SOL    HW210977   0.893   0.981   1.905
 3360SOL     OW10978   1.528   0.212   6.671
 3360SOL    HW110979   1.504   0.279   6.601
 3360SOL    HW210980   1.481   0.126   6.652
 3361SOL     OW10981   5.256   6.908   2.673
 3361SOL    HW110982   5.254   6.990   2.617
 3361SOL    HW210983   5.313   6.839   2.628
 3362SOL     OW10984   2.805   1.557   5.373
 3362SOL    HW110985   2.766   1.572   5.463
 3362SOL    HW210986   2.761   1.619   5.307
 3363SOL     OW10987   0.266   0.858   6.677
 3363SOL    HW110988   0.292   0.807   6.595
 3363SOL    HW210989   0.251   0.795   6.753
 3364SOL     OW10990   1.946   4.873   6.361
 3364SOL    HW110991   1.977   4.809   6.291
 3364SOL    HW210992   1.998   4.859   6.445
 3365SOL     OW10993   6.154   2.006   5.458
 3365SOL    HW110994   6.194   2.096   5.476
 3365SOL    HW210995   6.224   1.936   5.471
 3366SOL     OW10996   5.200   1.258   5.665
 3366SOL    HW110997   5.251   1.327   5.717
 3366SOL    HW210998   5.110   1.294   5.643
 3367SOL     OW10999   1.023   0.715   2.255
 3367SOL    HW111000   0.982   0.630   2.290
 3367SOL    HW211001   0.954   0.787   2.254
 3368SOL     OW11002   6.657   6.344   5.646
 3368SOL    HW111003   6.594   6.422   5.645
 3368SOL    HW211004   6.744   6.372   5.687
 3369SOL     OW11005   3.959   6.811   6.445
 3369SOL    HW111006   4.005   6.724   6.460
 3369SOL    HW211007   3.875   6.796   6.393
 3370SOL     OW11008   5.437   0.396   5.117
 3370SOL    HW111009   5.535   0.406   5.106
 3370SOL    HW211010   5.392   0.400   5.027
 3371SOL     OW11011   6.962   5.252   1.831
 3371SOL    HW111012   6.863   5.263   1.831
 3371SOL    HW211013   6.985   5.155   1.816
 3372SOL     OW11014   0.481   1.578   2.437
 3372SOL    HW111015   0.497   1.627   2.522
 3372SOL    HW211016   0.446   1.641   2.368
 3373SOL     OW11017   0.059   2.006   5.240
 3373SOL    HW111018   0.094   1.995   5.147
 3373SOL    HW211019   0.114   1.950   5.302
 3374SOL     OW11020   3.395   5.244   5.145
 3374SOL    HW111021   3.464   5.221   5.214
 3374SOL    HW211022   3.440   5.271   5.060
 3375SOL     OW11023   4.364   4.702   5.450
 3375SOL    HW111024   4.385   4.621   5.504
 3375SOL    HW211025   4.382   4.784   5.503
 3376SOL     OW11026   3.289   3.718   2.233
 3376SOL    HW111027   3.366   3.759   2.282
 3376SOL    HW211028   3.228   3.790   2.201
 3377SOL     OW11029   2.115   6.151   5.355
 3377SOL    HW111030   2.055   6.219   5.397
 3377SOL    HW211031   2.089   6.137   5.260
 3378SOL     OW11032   0.525   1.489   0.905
 3378SOL    HW111033   0.486   1.434   0.831
 3378SOL    HW211034   0.595   1.550   0.867
 3379SOL     OW11035   1.105   4.776   6.462
 3379SOL    HW111036   1.176   4.813   6.522
 3379SOL    HW211037   1.015   4.800   6.498
 3380SOL     OW11038   0.630   4.188   6.290
 3380SOL    HW111039   0.578   4.273   6.293
 3380SOL    HW211040   0.653   4.166   6.195
 3381SOL     OW11041   3.130   2.578   0.885
 3381SOL    HW111042   3.142   2.546   0.791
 3381SOL    HW211043   3.188   2.525   0.946
 3382SOL     OW11044   6.569   6.883   0.958
 3382SOL    HW111045   6.476   6.904   0.989
 3382SOL    HW211046   6.587   6.931   0.871
 3383SOL     OW11047   6.822   4.906   3.079
 3383SOL    HW111048   6.786   4.851   3.004
 3383SOL    HW211049   6.884   4.976   3.042
 3384SOL     OW11050   3.553   3.117   4.738
 3384SOL    HW111051   3.500   3.202   4.742
 3384SOL    HW211052   3.650   3.139   4.745
 3385SOL     OW11053   6.495   3.584   3.081
 3385SOL    HW111054   6.537   3.570   2.992
 3385SOL    HW211055   6.415   3.644   3.071
 3386SOL     OW11056   6.303   4.584   4.984
 3386SOL    HW111057   6.370   4.510   4.988
 3386SOL    HW211058   6.334   4.653   4.919
 3387SOL     OW11059   2.720   2.271   2.580
 3387SOL    HW111060   2.661   2.322   2.518
 3387SOL    HW211061   2.733   2.323   2.664
 3388SOL     OW11062   5.655   3.057   1.779
 3388SOL    HW111063   5.699   3.017   1.698
 3388SOL    HW211064   5.616   3.145   1.756
 3389SOL     OW11065   6.119   4.356   3.271
 3389SOL    HW111066   6.183   4.317   3.338
 3389SOL    HW211067   6.167   4.424   3.216
 3390SOL     OW11068   5.219   2.419   5.081
 3390SOL    HW111069   5.231   2.458   5.173
 3390SOL    HW211070   5.131   2.374   5.076
 3391SOL     OW11071   3.183   1.711   4.466
 3391SOL    HW111072   3.105   1.769   4.491
 3391SOL    HW211073   3.156   1.649   4.393
 3392SOL     OW11074   4.528   6.550   3.890
 3392SOL    HW111075   4.485   6.523   3.977
 3392SOL    HW211076   4.508   6.646   3.872
 3393SOL     OW11077   6.283   0.206   6.896
 3393SOL    HW111078   6.217   0.184   6.968
 3393SOL    HW211079   6.265   0.299   6.863
 3394SOL     OW11080   6.323   2.864   1.760
 3394SOL    HW111081   6.249   2.930   1.773
 3394SOL    HW211082   6.288   2.771   1.773
 3395SOL     OW11083   1.558   3.204   5.165
 3395SOL    HW111084   1.546   3.256   5.080
 3395SOL    HW211085   1.654   3.182   5.178
 3396SOL     OW11086   0.527   3.918   3.969
 3396SOL    HW111087   0.567   3.913   3.877
 3396SOL    HW211088   0.590   3.966   4.030
 3397SOL     OW11089   4.338   6.211   6.117
 3397SOL    HW111090   4.406   6.141   6.138
 3397SOL    HW211091   4.382   6.301   6.116
 3398SOL     OW11092   0.625   6.409   3.921
 3398SOL    HW111093   0.701   6.407   3.986
 3398SOL    HW211094   0.539   6.391   3.969
 3399SOL     OW11095   4.584   4.736   4.307
 3399SOL    HW111096   4.572   4.650   4.357
 3399SOL    HW211097   4.593   4.812   4.373
 3400SOL     OW11098   4.871   2.189   6.876
 3400SOL    HW111099   4.784   2.152   6.907
 3400SOL    HW211100   4.877   2.183   6.776
 3401SOL     OW11101   5.852   4.951   0.072
 3401SOL    HW111102   5.930   4.925   0.128
 3401SOL    HW211103   5.774   4.974   0.130
 3402SOL     OW11104   5.287   5.794   1.806
 3402SOL    HW111105   5.269   5.761   1.714
 3402SOL    HW211106   5.277   5.894   1.809
 3403SOL     OW11107   3.850   1.075   5.301
 3403SOL    HW111108   3.792   1.135   5.245
 3403SOL    HW211109   3.945   1.084   5.271
 3404SOL     OW11110   4.656   0.665   0.559
 3404SOL    HW111111   4.687   0.635   0.649
 3404SOL    HW211112   4.566   0.625   0.540
 3405SOL     OW11113   6.327   4.013   0.153
 3405SOL    HW111114   6.268   4.094   0.152
 3405SOL    HW211115   6.276   3.934   0.184
 3406SOL     OW11116   1.169   4.364   1.772
 3406SOL    HW111117   1.103   4.354   1.847
 3406SOL    HW211118   1.257   4.393   1.808
 3407SOL     OW11119   1.743   5.733   2.668
 3407SOL    HW111120   1.719   5.641   2.700
 3407SOL    HW211121   1.788   5.784   2.741
 3408SOL     OW11122   5.238   4.439   3.107
 3408SOL    HW111123   5.330   4.412   3.134
 3408SOL    HW211124   5.210   4.388   3.026
 3409SOL     OW11125   3.768   0.522   5.626
 3409SOL    HW111126   3.771   0.503   5.527
 3409SOL    HW211127   3.701   0.593   5.644
 3410SOL     OW11128   6.598   6.797   0.106
 3410SOL    HW111129   6.505   6.790   0.071
 3410SOL    HW211130   6.601   6.863   0.181
 3411SOL     OW11131   4.673   2.124   2.419
 3411SOL    HW111132   4.653   2.111   2.516
 3411SOL    HW211133   4.602   2.181   2.378
 3412SOL     OW11134   3.935   4.632   0.092
 3412SOL    HW111135   3.994   4.664   0.018
 3412SOL    HW211136   3.866   4.702   0.113
 3413SOL     OW11137   3.870   2.136   2.578
 3413SOL    HW111138   3.963   2.134   2.614
 3413SOL    HW211139   3.872   2.129   2.478
 3414SOL     OW11140   2.673   2.249   5.135
 3414SOL    HW111141   2.764   2.266   5.175
 3414SOL    HW211142   2.603   2.267   5.204
 3415SOL     OW11143   0.829   5.352   3.859
 3415SOL    HW111144   0.897   5.399   3.915
 3415SOL    HW211145   0.771   5.296   3.917
 3416SOL     OW11146   1.571   5.217   5.821
 3416SOL    HW111147   1.532   5.308   5.810
 3416SOL    HW211148   1.503   5.148   5.793
 3417SOL     OW11149   6.068   0.202   2.751
 3417SOL    HW111150   6.072   0.276   2.818
 3417SOL    HW211151   6.041   0.240   2.662
 3418SOL     OW11152   2.959   1.453   6.184
 3418SOL    HW111153   2.920   1.475   6.094
 3418SOL    HW211154   2.905   1.497   6.256
 3419SOL     OW11155   4.334   4.389   0.424
 3419SOL    HW111156   4.251   4.405   0.477
 3419SOL    HW211157   4.323   4.306   0.369
 3420SOL     OW11158   4.100   2.278   3.610
 3420SOL    HW111159   4.016   2.241   3.570
 3420SOL    HW211160   4.088   2.375   3.631
 3421SOL     OW11161   0.242   5.786   4.944
 3421SOL    HW111162   0.203   5.856   4.884
 3421SOL    HW211163   0.184   5.776   5.025
 3422SOL     OW11164   3.574   1.733   1.274
 3422SOL    HW111165   3.494   1.792   1.262
 3422SOL    HW211166   3.545   1.645   1.311
 3423SOL     OW11167   2.771   0.481   0.888
 3423SOL    HW111168   2.860   0.435   0.885
 3423SOL    HW211169   2.710   0.433   0.951
 3424SOL     OW11170   4.274   1.012   2.867
 3424SOL    HW111171   4.349   1.036   2.927
 3424SOL    HW211172   4.283   1.061   2.780
 3425SOL     OW11173   4.174   4.361   1.697
 3425SOL    HW111174   4.221   4.365   1.609
 3425SOL    HW211175   4.239   4.338   1.769
 3426SOL     OW11176   4.422   3.616   0.543
 3426SOL    HW111177   4.483   3.587   0.470
 3426SOL    HW211178   4.471   3.616   0.630
 3427SOL     OW11179   0.392   1.375   6.972
 3427SOL    HW111180   0.387   1.441   0.022
 3427SOL    HW211181   0.455   1.409   6.902
 3428SOL     OW11182   4.205   4.682   2.705
 3428SOL    HW111183   4.109   4.676   2.733
 3428SOL    HW211184   4.209   4.706   2.608
 3429SOL     OW11185   1.540   3.101   6.965
 3429SOL    HW111186   1.525   3.006   6.938
 3429SOL    HW211187   1.489   3.161   6.904
 3430SOL     OW11188   1.437   6.793   0.067
 3430SOL    HW111189   1.456   6.887   0.039
 3430SOL    HW211190   1.459   6.782   0.164
 3431SOL     OW11191   1.038   5.613   0.948
 3431SOL    HW111192   0.954   5.572   0.912
 3431SOL    HW211193   1.023   5.644   1.041
 3432SOL     OW11194   3.156   1.265   6.213
 3432SOL    HW111195   3.240   1.312   6.241
 3432SOL    HW211196   3.087   1.333   6.186
 3433SOL     OW11197   3.821   0.952   4.850
 3433SOL    HW111198   3.877   0.896   4.911
 3433SOL    HW211199   3.828   1.048   4.879
 3434SOL     OW11200   4.700   2.657   2.451
 3434SOL    HW111201   4.617   2.703   2.478
 3434SOL    HW211202   4.743   2.614   2.531
 3435SOL     OW11203   0.343   1.108   0.956
 3435SOL    HW111204   0.411   1.173   0.990
 3435SOL    HW211205   0.376   1.066   0.871
 3436SOL     OW11206   4.115   6.772   4.331
 3436SOL    HW111207   4.071   6.684   4.314
 3436SOL    HW211208   4.046   6.844   4.329
 3437SOL     OW11209   3.842   0.201   6.063
 3437SOL    HW111210   3.929   0.180   6.018
 3437SOL    HW211211   3.842   0.296   6.095
 3438SOL     OW11212   0.813   2.882   6.044
 3438SOL    HW111213   0.869   2.799   6.040
 3438SOL    HW211214   0.749   2.875   6.121
 3439SOL     OW11215   2.634   5.815   3.684
 3439SOL    HW111216   2.695   5.882   3.643
 3439SOL    HW211217   2.688   5.741   3.725
 3440SOL     OW11218   5.281   3.355   0.632
 3440SOL    HW111219   5.355   3.349   0.698
 3440SOL    HW211220   5.209   3.290   0.657
 3441SOL     OW11221   2.769   0.472   3.589
 3441SOL    HW111222   2.789   0.557   3.638
 3441SOL    HW211223   2.848   0.446   3.534
 3442SOL     OW11224   2.150   4.658   3.836
 3442SOL    HW111225   2.182   4.640   3.929
 3442SOL    HW211226   2.050   4.661   3.836
 3443SOL     OW11227   5.137   1.199   3.150
 3443SOL    HW111228   5.083   1.283   3.150
 3443SOL    HW211229   5.144   1.164   3.244
 3444SOL     OW11230   4.677   5.464   0.209
 3444SOL    HW111231   4.665   5.374   0.250
 3444SOL    HW211232   4.724   5.524   0.274
 3445SOL     OW11233   6.790   4.298   4.268
 3445SOL    HW111234   6.773   4.332   4.360
 3445SOL    HW211235   6.708   4.252   4.234
 3446SOL     OW11236   3.393   6.956   2.900
 3446SOL    HW111237   3.310   7.007   2.924
 3446SOL    HW211238   3.472   7.017   2.904
 3447SOL     OW11239   5.297   6.140   6.667
 3447SOL    HW111240   5.244   6.122   6.749
 3447SOL    HW211241   5.394   6.127   6.687
 3448SOL     OW11242   3.560   2.210   1.193
 3448SOL    HW111243   3.461   2.200   1.190
 3448SOL    HW211244   3.603   2.120   1.185
 3449SOL     OW11245   6.749   6.382   3.089
 3449SOL    HW111246   6.732   6.479   3.101
 3449SOL    HW211247   6.844   6.367   3.062
 3450SOL     OW11248   1.301   1.751   1.637
 3450SOL    HW111249   1.348   1.796   1.561
 3450SOL    HW211250   1.202   1.759   1.625
 3451SOL     OW11251   1.185   5.764   4.809
 3451SOL    HW111252   1.189   5.864   4.803
 3451SOL    HW211253   1.198   5.725   4.717
 3452SOL     OW11254   5.996   1.663   0.652
 3452SOL    HW111255   5.974   1.688   0.746
 3452SOL    HW211256   5.924   1.604   0.616
 3453SOL     OW11257   5.198   5.268   5.064
 3453SOL    HW111258   5.194   5.351   5.008
 3453SOL    HW211259   5.109   5.223   5.063
 3454SOL     OW11260   0.624   0.771   0.383
 3454SOL    HW111261   0.698   0.776   0.316
 3454SOL    HW211262   0.661   0.782   0.475
 3455SOL     OW11263   1.959   2.525   4.340
 3455SOL    HW111264   1.994   2.549   4.250
 3455SOL    HW211265   2.012   2.573   4.410
 3456SOL     OW11266   5.822   7.001   1.794
 3456SOL    HW111267   5.817   6.901   1.796
 3456SOL    HW211268   5.890   0.005   1.726
 3457SOL     OW11269   2.671   5.250   3.445
 3457SOL    HW111270   2.749   5.210   3.494
 3457SOL    HW211271   2.693   5.343   3.417
 3458SOL     OW11272   5.414   6.169   0.741
 3458SOL    HW111273   5.373   6.143   0.654
 3458SOL    HW211274   5.509   6.139   0.744
 3459SOL     OW11275   6.959   5.401   3.951
 3459SOL    HW111276   6.921   5.316   3.913
 3459SOL    HW211277   6.964   5.394   4.050
 3460SOL     OW11278   4.676   3.486   6.363
 3460SOL    HW111279   4.641   3.498   6.456
 3460SOL    HW211280   4.611   3.433   6.309
 3461SOL     OW11281   3.905   6.406   3.338
 3461SOL    HW111282   3.849   6.376   3.416
 3461SOL    HW211283   3.846   6.420   3.259
 3462SOL     OW11284   5.001   3.394   2.893
 3462SOL    HW111285   4.956   3.467   2.843
 3462SOL    HW211286   5.013   3.420   2.989
 3463SOL     OW11287   2.001   2.682   1.625
 3463SOL    HW111288   2.060   2.760   1.604
 3463SOL    HW211289   1.973   2.688   1.721
 3464SOL     OW11290   4.865   2.745   6.602
 3464SOL    HW111291   4.853   2.834   6.558
 3464SOL    HW211292   4.960   2.716   6.593
 3465SOL     OW11293   2.014   3.487   2.251
 3465SOL    HW111294   2.084   3.496   2.181
 3465SOL    HW211295   1.988   3.391   2.260
 3466SOL     OW11296   6.296   5.222   4.300
 3466SOL    HW111297   6.248   5.208   4.214
 3466SOL    HW211298   6.281   5.144   4.360
 3467SOL     OW11299   2.805   2.286   0.962
 3467SOL    HW111300   2.765   2.267   1.051
 3467SOL    HW211301   2.812   2.385   0.949
 3468SOL     OW11302   4.302   1.531   1.231
 3468SOL    HW111303   4.224   1.520   1.292
 3468SOL    HW211304   4.300   1.623   1.191
 3469SOL     OW11305   4.323   6.665   5.443
 3469SOL    HW111306   4.224   6.671   5.434
 3469SOL    HW211307   4.353   6.717   5.524
 3470SOL     OW11308   0.396   3.094   1.531
 3470SOL    HW111309   0.397   3.189   1.502
 3470SOL    HW211310   0.482   3.050   1.504
 3471SOL     OW11311   5.169   3.656   3.589
 3471SOL    HW111312   5.201   3.716   3.515
 3471SOL    HW211313   5.070   3.667   3.600
 3472SOL     OW11314   4.149   2.037   3.718
 3472SOL    HW111315   4.142   2.025   3.817
 3472SOL    HW211316   4.145   2.134   3.695
 3473SOL     OW11317   6.909   4.053   2.406
 3473SOL    HW111318   6.960   4.060   2.320
 3473SOL    HW211319   6.897   4.144   2.446
 3474SOL     OW11320   6.459   5.290   3.898
 3474SOL    HW111321   6.386   5.234   3.857
 3474SOL    HW211322   6.457   5.381   3.858
 3475SOL     OW11323   7.015   4.094   4.209
 3475SOL    HW111324   0.077   4.105   4.256
 3475SOL    HW211325   6.954   4.169   4.233
 3476SOL     OW11326   0.938   1.533   3.662
 3476SOL    HW111327   0.913   1.593   3.586
 3476SOL    HW211328   0.980   1.449   3.626
 3477SOL     OW11329   0.654   4.153   1.612
 3477SOL    HW111330   0.750   4.143   1.640
 3477SOL    HW211331   0.596   4.158   1.693
 3478SOL     OW11332   2.182   0.231   0.320
 3478SOL    HW111333   2.258   0.191   0.372
 3478SOL    HW211334   2.191   0.205   0.223
 3479SOL     OW11335   1.030   3.605   3.971
 3479SOL    HW111336   0.985   3.558   3.896
 3479SOL    HW211337   1.089   3.540   4.020
 3480SOL     OW11338   1.254   5.408   6.785
 3480SOL    HW111339   1.235   5.317   6.748
 3480SOL    HW211340   1.171   5.447   6.824
 3481SOL     OW11341   6.884   0.338   5.764
 3481SOL    HW111342   6.947   0.391   5.706
 3481SOL    HW211343   6.801   0.317   5.712
 3482SOL     OW11344   6.306   3.941   4.833
 3482SOL    HW111345   6.322   4.039   4.837
 3482SOL    HW211346   6.317   3.909   4.738
 3483SOL     OW11347   4.599   2.164   3.490
 3483SOL    HW111348   4.533   2.233   3.459
 3483SOL    HW211349   4.591   2.083   3.432
 3484SOL     OW11350   1.797   3.172   5.747
 3484SOL    HW111351   1.765   3.153   5.839
 3484SOL    HW211352   1.869   3.107   5.722
 3485SOL     OW11353   0.759   2.059   6.160
 3485SOL    HW111354   0.697   2.002   6.214
 3485SOL    HW211355   0.773   2.146   6.208
 3486SOL     OW11356   2.538   0.220   4.973
 3486SOL    HW111357   2.495   0.167   4.900
 3486SOL    HW211358   2.502   0.191   5.062
 3487SOL     OW11359   5.093   0.992   6.496
 3487SOL    HW111360   5.080   1.091   6.492
 3487SOL    HW211361   5.030   0.952   6.563
 3488SOL     OW11362   6.260   0.702   4.367
 3488SOL    HW111363   6.290   0.613   4.403
 3488SOL    HW211364   6.209   0.751   4.438
 3489SOL     OW11365   3.375   0.162   0.431
 3489SOL    HW111366   3.301   0.098   0.452
 3489SOL    HW211367   3.360   0.248   0.478
 3490SOL     OW11368   3.899   5.199   0.825
 3490SOL    HW111369   3.804   5.212   0.853
 3490SOL    HW211370   3.934   5.114   0.866
 3491SOL     OW11371   4.608   4.125   0.155
 3491SOL    HW111372   4.617   4.116   0.056
 3491SOL    HW211373   4.523   4.082   0.185
 3492SOL     OW11374   5.898   4.534   2.403
 3492SOL    HW111375   5.924   4.469   2.474
 3492SOL    HW211376   5.852   4.612   2.445
 3493SOL     OW11377   6.075   3.241   4.607
 3493SOL    HW111378   6.027   3.315   4.559
 3493SOL    HW211379   6.169   3.270   4.626
 3494SOL     OW11380   3.984   1.735   1.872
 3494SOL    HW111381   3.951   1.767   1.783
 3494SOL    HW211382   3.967   1.805   1.941
 3495SOL     OW11383   1.857   3.221   2.160
 3495SOL    HW111384   1.921   3.188   2.229
 3495SOL    HW211385   1.908   3.265   2.086
 3496SOL     OW11386   6.699   5.506   1.180
 3496SOL    HW111387   6.698   5.588   1.238
 3496SOL    HW211388   6.701   5.534   1.084
 3497SOL     OW11389   3.269   0.627   2.495
 3497SOL    HW111390   3.229   0.714   2.525
 3497SOL    HW211391   3.227   0.599   2.409
 3498SOL     OW11392   2.105   1.716   1.473
 3498SOL    HW111393   2.106   1.816   1.462
 3498SOL    HW211394   2.040   1.692   1.546
 3499SOL     OW11395   6.021   5.246   5.916
 3499SOL    HW111396   6.081   5.241   5.996
 3499SOL    HW211397   5.926   5.234   5.945
 3500SOL     OW11398   1.686   2.476   3.794
 3500SOL    HW111399   1.701   2.501   3.699
 3500SOL    HW211400   1.588   2.467   3.812
 3501SOL     OW11401   1.537   6.638   5.821
 3501SOL    HW111402   1.460   6.575   5.829
 3501SOL    HW211403   1.618   6.597   5.864
 3502SOL     OW11404   4.930   3.278   1.982
 3502SOL    HW111405   4.867   3.201   1.969
 3502SOL    HW211406   4.959   3.281   2.078
 3503SOL     OW11407   6.637   5.977   6.608
 3503SOL    HW111408   6.692   6.014   6.533
 3503SOL    HW211409   6.690   5.907   6.656
 3504SOL     OW11410   1.552   0.688   1.585
 3504SOL    HW111411   1.507   0.649   1.666
 3504SOL    HW211412   1.533   0.786   1.581
 3505SOL     OW11413   5.744   5.350   6.106
 3505SOL    HW111414   5.821   5.334   6.168
 3505SOL    HW211415   5.747   5.445   6.073
 3506SOL     OW11416   5.143   4.459   4.536
 3506SOL    HW111417   5.075   4.501   4.476
 3506SOL    HW211418   5.191   4.529   4.588
 3507SOL     OW11419   2.688   6.706   0.479
 3507SOL    HW111420   2.623   6.669   0.546
 3507SOL    HW211421   2.721   6.795   0.509
 3508SOL     OW11422   3.228   2.425   5.434
 3508SOL    HW111423   3.212   2.425   5.335
 3508SOL    HW211424   3.160   2.367   5.479
 3509SOL     OW11425   4.463   5.961   6.642
 3509SOL    HW111426   4.383   5.945   6.584
 3509SOL    HW211427   4.437   5.952   6.738
 3510SOL     OW11428   2.801   0.749   1.013
 3510SOL    HW111429   2.794   0.666   0.958
 3510SOL    HW211430   2.841   0.726   1.102
 3511SOL     OW11431   2.768   4.632   1.452
 3511SOL    HW111432   2.693   4.614   1.515
 3511SOL    HW211433   2.834   4.694   1.494
 3512SOL     OW11434   0.833   4.187   6.554
 3512SOL    HW111435   0.862   4.279   6.582
 3512SOL    HW211436   0.738   4.191   6.522
 3513SOL     OW11437   5.742   1.985   0.286
 3513SOL    HW111438   5.736   2.076   0.244
 3513SOL    HW211439   5.663   1.971   0.346
 3514SOL     OW11440   4.004   1.118   2.956
 3514SOL    HW111441   3.963   1.075   3.036
 3514SOL    HW211442   4.096   1.081   2.942
 3515SOL     OW11443   6.144   5.624   4.573
 3515SOL    HW111444   6.240   5.633   4.546
 3515SOL    HW211445   6.115   5.706   4.622
 3516SOL     OW11446   5.332   0.309   1.188
 3516SOL    HW111447   5.340   0.404   1.218
 3516SOL    HW211448   5.418   0.262   1.205
 3517SOL     OW11449   6.566   0.922   0.535
 3517SOL    HW111450   6.500   0.923   0.459
 3517SOL    HW211451   6.572   1.013   0.575
 3518SOL     OW11452   5.589   1.500   5.506
 3518SOL    HW111453   5.677   1.507   5.459
 3518SOL    HW211454   5.531   1.435   5.457
 3519SOL     OW11455   3.544   0.548   0.467
 3519SOL    HW111456   3.581   0.620   0.525
 3519SOL    HW211457   3.595   0.463   0.482
 3520SOL     OW11458   3.115   6.296   4.835
 3520SOL    HW111459   3.203   6.282   4.879
 3520SOL    HW211460   3.123   6.370   4.768
 3521SOL     OW11461   3.141   2.836   6.927
 3521SOL    HW111462   3.100   2.793   7.007
 3521SOL    HW211463   3.072   2.891   6.880
 3522SOL     OW11464   6.986   5.687   6.954
 3522SOL    HW111465   6.893   5.655   6.970
 3522SOL    HW211466   0.005   5.629   6.886
 3523SOL     OW11467   1.102   5.330   6.208
 3523SOL    HW111468   1.074   5.426   6.197
 3523SOL    HW211469   1.021   5.271   6.198
 3524SOL     OW11470   6.171   0.985   3.533
 3524SOL    HW111471   6.172   1.072   3.582
 3524SOL    HW211472   6.099   0.987   3.463
 3525SOL     OW11473   6.145   4.914   3.707
 3525SOL    HW111474   6.230   4.875   3.744
 3525SOL    HW211475   6.141   4.899   3.609
 3526SOL     OW11476   1.218   5.964   3.437
 3526SOL    HW111477   1.297   5.920   3.480
 3526SOL    HW211478   1.171   5.898   3.379
 3527SOL     OW11479   6.488   2.635   5.694
 3527SOL    HW111480   6.506   2.697   5.769
 3527SOL    HW211481   6.395   2.598   5.702
 3528SOL     OW11482   2.550   6.567   5.053
 3528SOL    HW111483   2.583   6.657   5.081
 3528SOL    HW211484   2.612   6.527   4.986
 3529SOL     OW11485   4.806   5.619   0.447
 3529SOL    HW111486   4.873   5.569   0.503
 3529SOL    HW211487   4.724   5.636   0.502
 3530SOL     OW11488   0.437   0.112   1.874
 3530SOL    HW111489   0.417   0.017   1.900
 3530SOL    HW211490   0.436   0.169   1.956
 3531SOL     OW11491   5.140   1.573   1.358
 3531SOL    HW111492   5.175   1.508   1.425
 3531SOL    HW211493   5.048   1.602   1.384
 3532SOL     OW11494   1.784   1.001   1.845
 3532SOL    HW111495   1.765   1.087   1.892
 3532SOL    HW211496   1.868   1.011   1.791
 3533SOL     OW11497   0.017   1.277   2.751
 3533SOL    HW111498   6.963   1.300   2.693
 3533SOL    HW211499   0.100   1.318   2.713
 3534SOL     OW11500   0.064   1.439   1.422
 3534SOL    HW111501   0.087   1.422   1.326
 3534SOL    HW211502   6.996   1.408   1.440
 3535SOL     OW11503   2.887   5.197   4.958
 3535SOL    HW111504   2.864   5.104   4.929
 3535SOL    HW211505   2.985   5.202   4.980
 3536SOL     OW11506   3.251   2.039   2.293
 3536SOL    HW111507   3.180   1.970   2.309
 3536SOL    HW211508   3.303   2.014   2.211
 3537SOL     OW11509   1.958   5.375   2.528
 3537SOL    HW111510   2.018   5.409   2.600
 3537SOL    HW211511   1.895   5.447   2.499
 3538SOL     OW11512   2.945   5.607   4.756
 3538SOL    HW111513   2.957   5.700   4.790
 3538SOL    HW211514   2.903   5.610   4.665
 3539SOL     OW11515   4.073   3.854   4.818
 3539SOL    HW111516   4.091   3.849   4.917
 3539SOL    HW211517   4.010   3.929   4.800
 3540SOL     OW11518   2.107   1.903   3.915
 3540SOL    HW111519   2.095   1.808   3.945
 3540SOL    HW211520   2.109   1.963   3.996
 3541SOL     OW11521   2.773   3.834   5.201
 3541SOL    HW111522   2.745   3.896   5.275
 3541SOL    HW211523   2.811   3.888   5.125
 3542SOL     OW11524   1.375   4.576   2.574
 3542SOL    HW111525   1.348   4.493   2.525
 3542SOL    HW211526   1.425   4.636   2.511
 3543SOL     OW11527   5.643   3.007   4.711
 3543SOL    HW111528   5.557   3.055   4.690
 3543SOL    HW211529   5.718   3.073   4.715
 3544SOL     OW11530   1.945   4.480   5.903
 3544SOL    HW111531   1.941   4.556   5.838
 3544SOL    HW211532   2.034   4.481   5.949
 3545SOL     OW11533   4.297   5.437   6.487
 3545SOL    HW111534   4.309   5.442   6.586
 3545SOL    HW211535   4.324   5.346   6.454
 3546SOL     OW11536   6.690   5.314   3.339
 3546SOL    HW111537   6.642   5.229   3.361
 3546SOL    HW211538   6.788   5.300   3.350
 3547SOL     OW11539   4.794   5.588   4.342
 3547SOL    HW111540   4.724   5.516   4.342
 3547SOL    HW211541   4.812   5.617   4.248
 3548SOL     OW11542   4.699   2.743   5.369
 3548SOL    HW111543   4.632   2.705   5.305
 3548SOL    HW211544   4.709   2.842   5.352
 3549SOL     OW11545   6.019   4.913   2.882
 3549SOL    HW111546   6.115   4.930   2.861
 3549SOL    HW211547   5.962   4.979   2.835
 3550SOL     OW11548   5.594   1.514   2.493
 3550SOL    HW111549   5.559   1.559   2.575
 3550SOL    HW211550   5.538   1.541   2.414
 3551SOL     OW11551   2.853   6.448   3.554
 3551SOL    HW111552   2.937   6.399   3.531
 3551SOL    HW211553   2.876   6.531   3.605
 3552SOL     OW11554   6.192   5.666   2.651
 3552SOL    HW111555   6.269   5.663   2.715
 3552SOL    HW211556   6.113   5.621   2.692
 3553SOL     OW11557   4.885   1.957   2.802
 3553SOL    HW111558   4.835   1.900   2.867
 3553SOL    HW211559   4.980   1.965   2.830
 3554SOL     OW11560   4.080   4.901   6.697
 3554SOL    HW111561   4.008   4.934   6.757
 3554SOL    HW211562   4.110   4.976   6.637
 3555SOL     OW11563   1.049   3.192   2.973
 3555SOL    HW111564   1.131   3.143   3.002
 3555SOL    HW211565   1.060   3.222   2.878
 3556SOL     OW11566   3.476   0.971   5.938
 3556SOL    HW111567   3.538   0.990   6.014
 3556SOL    HW211568   3.390   1.021   5.951
 3557SOL     OW11569   1.723   0.119   4.583
 3557SOL    HW111570   1.735   0.026   4.550
 3557SOL    HW211571   1.626   0.145   4.576
 3558SOL     OW11572   0.066   5.952   1.470
 3558SOL    HW111573   0.138   5.973   1.404
 3558SOL    HW211574   0.041   5.855   1.462
 3559SOL     OW11575   0.518   1.002   4.836
 3559SOL    HW111576   0.605   0.981   4.791
 3559SOL    HW211577   0.535   1.060   4.916
 3560SOL     OW11578   0.499   5.981   1.139
 3560SOL    HW111579   0.533   5.906   1.082
 3560SOL    HW211580   0.555   5.988   1.221
 3561SOL     OW11581   4.824   5.065   5.569
 3561SOL    HW111582   4.818   4.976   5.615
 3561SOL    HW211583   4.784   5.135   5.627
 3562SOL     OW11584   5.541   0.564   3.317
 3562SOL    HW111585   5.484   0.533   3.240
 3562SOL    HW211586   5.630   0.520   3.311
 3563SOL     OW11587   4.659   1.034   1.646
 3563SOL    HW111588   4.624   1.082   1.727
 3563SOL    HW211589   4.631   1.083   1.563
 3564SOL     OW11590   0.347   5.039   3.623
 3564SOL    HW111591   0.363   5.123   3.675
 3564SOL    HW211592   0.360   4.960   3.683
 3565SOL     OW11593   2.320   0.363   5.325
 3565SOL    HW111594   2.334   0.433   5.254
 3565SOL    HW211595   2.408   0.322   5.349
 3566SOL     OW11596   0.184   3.053   5.711
 3566SOL    HW111597   0.187   2.964   5.755
 3566SOL    HW211598   0.196   3.043   5.613
 3567SOL     OW11599   0.253   3.202   0.983
 3567SOL    HW111600   0.338   3.203   1.036
 3567SOL    HW211601   0.176   3.191   1.046
 3568SOL     OW11602   4.576   4.313   3.532
 3568SOL    HW111603   4.510   4.255   3.579
 3568SOL    HW211604   4.627   4.259   3.465
 3569SOL     OW11605   3.645   4.158   4.017
 3569SOL    HW111606   3.670   4.183   3.923
 3569SOL    HW211607   3.605   4.067   4.018
 3570SOL     OW11608   0.484   1.607   6.369
 3570SOL    HW111609   0.535   1.647   6.445
 3570SOL    HW211610   0.391   1.644   6.369
 3571SOL     OW11611   2.252   6.540   5.181
 3571SOL    HW111612   2.282   6.630   5.150
 3571SOL    HW211613   2.181   6.505   5.120
 3572SOL     OW11614   4.816   4.557   1.689
 3572SOL    HW111615   4.908   4.567   1.728
 3572SOL    HW211616   4.821   4.559   1.590
 3573SOL     OW11617   6.689   3.818   2.990
 3573SOL    HW111618   6.648   3.736   2.949
 3573SOL    HW211619   6.698   3.804   3.089
 3574SOL     OW11620   2.430   2.886   5.991
 3574SOL    HW111621   2.376   2.878   5.907
 3574SOL    HW211622   2.370   2.900   6.069
 3575SOL     OW11623   5.568   0.035   0.112
 3575SOL    HW111624   5.555   0.007   0.207
 3575SOL    HW211625   5.519   6.998   0.051
 3576SOL     OW11626   1.169   2.837   0.411
 3576SOL    HW111627   1.256   2.882   0.431
 3576SOL    HW211628   1.108   2.903   0.367
 3577SOL     OW11629   2.691   2.730   5.714
 3577SOL    HW111630   2.660   2.686   5.799
 3577SOL    HW211631   2.757   2.671   5.668
 3578SOL     OW11632   3.020   2.973   6.062
 3578SOL    HW111633   2.998   2.970   5.964
 3578SOL    HW211634   2.938   2.950   6.114
 3579SOL     OW11635   0.636   2.660   1.759
 3579SOL    HW111636   0.552   2.671   1.812
 3579SOL    HW211637   0.707   2.621   1.818
 3580SOL     OW11638   0.329   4.554   1.530
 3580SOL    HW111639   0.265   4.632   1.535
 3580SOL    HW211640   0.277   4.469   1.526
 3581SOL     OW11641   1.006   0.120   2.572
 3581SOL    HW111642   0.908   0.125   2.588
 3581SOL    HW211643   1.048   0.209   2.593
 3582SOL     OW11644   3.742   4.239   6.057
 3582SOL    HW111645   3.756   4.171   6.129
 3582SOL    HW211646   3.667   4.301   6.084
 3583SOL     OW11647   0.259   4.555   0.504
 3583SOL    HW111648   0.335   4.550   0.569
 3583SOL    HW211649   0.270   4.636   0.446
 3584SOL     OW11650   6.251   4.710   4.754
 3584SOL    HW111651   6.205   4.627   4.786
 3584SOL    HW211652   6.300   4.690   4.669
 3585SOL     OW11653   2.740   1.518   3.059
 3585SOL    HW111654   2.738   1.433   3.112
 3585SOL    HW211655   2.723   1.498   2.962
 3586SOL     OW11656   6.350   2.199   4.837
 3586SOL    HW111657   6.309   2.115   4.799
 3586SOL    HW211658   6.402   2.245   4.765
 3587SOL     OW11659   3.274   6.968   6.371
 3587SOL    HW111660   3.202   6.899   6.382
 3587SOL    HW211661   3.275   7.001   6.277
 3588SOL     OW11662   6.486   4.208   4.318
 3588SOL    HW111663   6.523   4.187   4.228
 3588SOL    HW211664   6.448   4.125   4.359
 3589SOL     OW11665   0.188   6.714   6.573
 3589SOL    HW111666   0.157   6.809   6.580
 3589SOL    HW211667   0.153   6.675   6.488
 3590SOL     OW11668   6.634   4.942   0.570
 3590SOL    HW111669   6.597   4.927   0.662
 3590SOL    HW211670   6.710   5.007   0.575
 3591SOL     OW11671   5.679   1.997   6.233
 3591SOL    HW111672   5.689   1.954   6.323
 3591SOL    HW211673   5.734   2.081   6.230
 3592SOL     OW11674   1.825   6.756   1.594
 3592SOL    HW111675   1.770   6.727   1.672
 3592SOL    HW211676   1.777   6.827   1.543
 3593SOL     OW11677   4.971   3.383   5.812
 3593SOL    HW111678   5.043   3.336   5.762
 3593SOL    HW211679   4.961   3.476   5.777
 3594SOL     OW11680   4.672   4.859   4.847
 3594SOL    HW111681   4.660   4.958   4.835
 3594SOL    HW211682   4.719   4.821   4.768
 3595SOL     OW11683   5.495   6.324   5.105
 3595SOL    HW111684   5.398   6.297   5.108
 3595SOL    HW211685   5.551   6.242   5.115
 3596SOL     OW11686   3.894   2.136   3.474
 3596SOL    HW111687   3.894   2.098   3.382
 3596SOL    HW211688   3.856   2.069   3.538
 3597SOL     OW11689   2.272   3.130   5.347
 3597SOL    HW111690   2.312   3.201   5.406
 3597SOL    HW211691   2.340   3.100   5.280
 3598SOL     OW11692   1.201   5.310   4.795
 3598SOL    HW111693   1.139   5.308   4.716
 3598SOL    HW211694   1.152   5.347   4.874
 3599SOL     OW11695   4.120   1.578   4.615
 3599SOL    HW111696   4.127   1.486   4.653
 3599SOL    HW211697   4.098   1.643   4.688
 3600SOL     OW11698   3.086   3.298   0.401
 3600SOL    HW111699   3.004   3.343   0.365
 3600SOL    HW211700   3.167   3.340   0.362
 3601SOL     OW11701   4.878   1.009   5.165
 3601SOL    HW111702   4.968   1.042   5.193
 3601SOL    HW211703   4.882   0.910   5.147
 3602SOL     OW11704   1.868   1.511   1.196
 3602SOL    HW111705   1.920   1.582   1.149
 3602SOL    HW211706   1.923   1.471   1.270
 3603SOL     OW11707   3.231   1.130   5.784
 3603SOL    HW111708   3.250   1.062   5.713
 3603SOL    HW211709   3.228   1.085   5.873
 3604SOL     OW11710   0.097   0.116   3.713
 3604SOL    HW111711   0.064   0.191   3.655
 3604SOL    HW211712   0.177   0.147   3.764
 3605SOL     OW11713   0.966   5.782   3.695
 3605SOL    HW111714   1.009   5.696   3.668
 3605SOL    HW211715   1.031   5.836   3.749
 3606SOL     OW11716   2.606   6.432   2.590
 3606SOL    HW111717   2.569   6.354   2.640
 3606SOL    HW211718   2.653   6.398   2.508
 3607SOL     OW11719   5.362   2.576   2.749
 3607SOL    HW111720   5.382   2.487   2.708
 3607SOL    HW211721   5.437   2.639   2.729
 3608SOL     OW11722   2.516   2.097   5.368
 3608SOL    HW111723   2.495   2.104   5.270
 3608SOL    HW211724   2.594   2.035   5.380
 3609SOL     OW11725   2.344   0.212   4.689
 3609SOL    HW111726   2.396   0.128   4.674
 3609SOL    HW211727   2.254   0.190   4.726
 3610SOL     OW11728   2.147   0.099   4.871
 3610SOL    HW111729   2.236   0.074   4.909
 3610SOL    HW211730   2.077   0.086   4.941
 3611SOL     OW11731   5.392   5.259   2.835
 3611SOL    HW111732   5.362   5.178   2.886
 3611SOL    HW211733   5.388   5.241   2.737
 3612SOL     OW11734   5.573   1.474   6.986
 3612SOL    HW111735   5.628   1.504   0.038
 3612SOL    HW211736   5.612   1.509   6.901
 3613SOL     OW11737   4.310   5.576   1.229
 3613SOL    HW111738   4.387   5.572   1.294
 3613SOL    HW211739   4.224   5.570   1.280
 3614SOL     OW11740   4.045   5.167   6.310
 3614SOL    HW111741   3.953   5.201   6.294
 3614SOL    HW211742   4.073   5.107   6.234
 3615SOL     OW11743   5.895   2.580   6.030
 3615SOL    HW111744   5.799   2.554   6.022
 3615SOL    HW211745   5.953   2.505   6.000
 3616SOL     OW11746   1.366   1.395   0.000
 3616SOL    HW111747   1.410   1.482   0.024
 3616SOL    HW211748   1.274   1.413   6.992
 3617SOL     OW11749   4.165   6.240   5.897
 3617SOL    HW111750   4.225   6.224   5.975
 3617SOL    HW211751   4.094   6.169   5.895
 3618SOL     OW11752   1.888   4.567   5.005
 3618SOL    HW111753   1.802   4.608   4.973
 3618SOL    HW211754   1.894   4.472   4.973
 3619SOL     OW11755   5.632   3.558   1.105
 3619SOL    HW111756   5.618   3.549   1.007
 3619SOL    HW211757   5.710   3.503   1.134
 3620SOL     OW11758   5.873   5.534   5.256
 3620SOL    HW111759   5.942   5.471   5.291
 3620SOL    HW211760   5.918   5.605   5.200
 3621SOL     OW11761   2.896   3.360   3.702
 3621SOL    HW111762   2.883   3.435   3.638
 3621SOL    HW211763   2.912   3.275   3.652
 3622SOL     OW11764   1.309   5.842   6.591
 3622SOL    HW111765   1.252   5.869   6.669
 3622SOL    HW211766   1.357   5.923   6.556
 3623SOL     OW11767   0.922   5.106   6.224
 3623SOL    HW111768   0.825   5.114   6.248
 3623SOL    HW211769   0.941   5.011   6.196
 3624SOL     OW11770   2.795   1.694   1.393
 3624SOL    HW111771   2.864   1.670   1.461
 3624SOL    HW211772   2.821   1.656   1.304
 3625SOL     OW11773   6.773   2.157   0.819
 3625SOL    HW111774   6.727   2.114   0.742
 3625SOL    HW211775   6.729   2.128   0.904
 3626SOL     OW11776   0.987   2.555   4.946
 3626SOL    HW111777   0.983   2.645   4.901
 3626SOL    HW211778   1.083   2.527   4.955
 3627SOL     OW11779   3.395   2.201   1.835
 3627SOL    HW111780   3.489   2.237   1.837
 3627SOL    HW211781   3.372   2.163   1.924
 3628SOL     OW11782   5.888   1.773   0.877
 3628SOL    HW111783   5.976   1.819   0.886
 3628SOL    HW211784   5.855   1.747   0.968
 3629SOL     OW11785   1.031   1.184   3.781
 3629SOL    HW111786   1.052   1.087   3.774
 3629SOL    HW211787   0.944   1.196   3.829
 3630SOL     OW11788   0.085   2.496   2.726
 3630SOL    HW111789   0.183   2.518   2.726
 3630SOL    HW211790   0.063   2.442   2.644
 3631SOL     OW11791   1.560   6.673   2.317
 3631SOL    HW111792   1.497   6.691   2.393
 3631SOL    HW211793   1.555   6.576   2.292
 3632SOL     OW11794   4.474   3.903   1.018
 3632SOL    HW111795   4.391   3.848   1.017
 3632SOL    HW211796   4.539   3.866   0.951
 3633SOL     OW11797   4.172   3.695   6.553
 3633SOL    HW111798   4.176   3.781   6.503
 3633SOL    HW211799   4.252   3.639   6.530
 3634SOL     OW11800   3.813   5.868   6.741
 3634SOL    HW111801   3.771   5.923   6.669
 3634SOL    HW211802   3.894   5.821   6.704
 3635SOL     OW11803   1.892   6.976   1.844
 3635SOL    HW111804   1.883   6.903   1.911
 3635SOL    HW211805   1.804   6.994   1.800
 3636SOL     OW11806   0.713   4.642   6.397
 3636SOL    HW111807   0.740   4.580   6.323
 3636SOL    HW211808   0.644   4.597   6.454
 3637SOL     OW11809   6.341   2.995   7.017
 3637SOL    HW111810   6.266   3.058   6.997
 3637SOL    HW211811   6.375   2.956   6.931
 3638SOL     OW11812   6.252   4.542   3.135
 3638SOL    HW111813   6.276   4.512   3.043
 3638SOL    HW211814   6.266   4.641   3.142
 3639SOL     OW11815   3.541   3.857   4.007
 3639SOL    HW111816   3.463   3.798   4.027
 3639SOL    HW211817   3.623   3.800   3.996
 3640SOL     OW11818   4.618   2.251   0.843
 3640SOL    HW111819   4.628   2.215   0.750
 3640SOL    HW211820   4.692   2.316   0.862
 3641SOL     OW11821   5.710   3.700   2.592
 3641SOL    HW111822   5.791   3.667   2.641
 3641SOL    HW211823   5.735   3.724   2.498
 3642SOL     OW11824   5.815   3.300   6.484
 3642SOL    HW111825   5.881   3.307   6.409
 3642SOL    HW211826   5.728   3.341   6.455
 3643SOL     OW11827   3.900   5.433   5.168
 3643SOL    HW111828   3.964   5.488   5.114
 3643SOL    HW211829   3.930   5.431   5.264
 3644SOL     OW11830   2.945   0.250   1.316
 3644SOL    HW111831   2.850   0.219   1.314
 3644SOL    HW211832   2.994   0.211   1.238
 3645SOL     OW11833   1.266   4.491   3.486
 3645SOL    HW111834   1.307   4.574   3.523
 3645SOL    HW211835   1.197   4.456   3.550
 3646SOL     OW11836   1.998   4.531   5.262
 3646SOL    HW111837   2.094   4.558   5.255
 3646SOL    HW211838   1.954   4.541   5.173
 3647SOL     OW11839   3.666   6.825   6.357
 3647SOL    HW111840   3.722   6.812   6.275
 3647SOL    HW211841   3.616   6.911   6.351
 3648SOL     OW11842   4.804   6.008   3.509
 3648SOL    HW111843   4.714   6.004   3.465
 3648SOL    HW211844   4.866   6.062   3.451
 3649SOL     OW11845   6.146   2.197   0.359
 3649SOL    HW111846   6.072   2.203   0.426
 3649SOL    HW211847   6.111   2.157   0.274
 3650SOL     OW11848   5.620   5.416   7.020
 3650SOL    HW111849   5.644   5.326   6.985
 3650SOL    HW211850   5.612   5.480   6.944
 3651SOL     OW11851   0.903   1.965   5.603
 3651SOL    HW111852   0.881   2.061   5.588
 3651SOL    HW211853   0.974   1.957   5.672
 3652SOL     OW11854   4.199   1.587   1.789
 3652SOL    HW111855   4.213   1.535   1.873
 3652SOL    HW211856   4.123   1.651   1.801
 3653SOL     OW11857   0.970   1.782   1.322
 3653SOL    HW111858   0.981   1.869   1.273
 3653SOL    HW211859   1.051   1.725   1.306
 3654SOL     OW11860   5.022   6.892   0.811
 3654SOL    HW111861   5.062   6.816   0.759
 3654SOL    HW211862   5.037   6.878   0.908
 3655SOL     OW11863   1.781   1.928   3.894
 3655SOL    HW111864   1.878   1.925   3.918
 3655SOL    HW211865   1.770   1.967   3.803
 3656SOL     OW11866   6.837   6.982   1.492
 3656SOL    HW111867   6.803   0.018   1.420
 3656SOL    HW211868   6.924   6.942   1.463
 3657SOL     OW11869   5.816   5.254   5.367
 3657SOL    HW111870   5.885   5.316   5.330
 3657SOL    HW211871   5.726   5.295   5.360
 3658SOL     OW11872   1.925   4.958   5.830
 3658SOL    HW111873   1.895   5.026   5.764
 3658SOL    HW211874   1.926   4.867   5.787
 3659SOL     OW11875   0.266   1.676   6.179
 3659SOL    HW111876   0.347   1.678   6.121
 3659SOL    HW211877   0.218   1.764   6.173
 3660SOL     OW11878   5.961   5.614   6.592
 3660SOL    HW111879   5.934   5.710   6.584
 3660SOL    HW211880   6.010   5.587   6.509
 3661SOL     OW11881   0.150   1.989   4.981
 3661SOL    HW111882   0.081   1.973   4.911
 3661SOL    HW211883   0.236   1.948   4.953
 3662SOL     OW11884   2.740   1.878   5.365
 3662SOL    HW111885   2.704   1.825   5.288
 3662SOL    HW211886   2.832   1.910   5.344
 3663SOL     OW11887   2.709   1.867   6.538
 3663SOL    HW111888   2.719   1.785   6.593
 3663SOL    HW211889   2.629   1.857   6.478
 3664SOL     OW11890   3.975   1.100   1.888
 3664SOL    HW111891   4.002   1.176   1.829
 3664SOL    HW211892   4.056   1.065   1.936
 3665SOL     OW11893   1.064   5.835   5.939
 3665SOL    HW111894   1.010   5.918   5.925
 3665SOL    HW211895   1.003   5.756   5.937
 3666SOL     OW11896   1.917   2.562   4.776
 3666SOL    HW111897   1.956   2.514   4.698
 3666SOL    HW211898   1.869   2.644   4.744
 3667SOL     OW11899   2.422   0.318   1.516
 3667SOL    HW111900   2.375   0.406   1.527
 3667SOL    HW211901   2.382   0.269   1.439
 3668SOL     OW11902   0.007   0.664   1.266
 3668SOL    HW111903   0.033   0.756   1.294
 3668SOL    HW211904   0.041   0.597   1.332
 3669SOL     OW11905   0.423   1.774   3.702
 3669SOL    HW111906   0.327   1.779   3.729
 3669SOL    HW211907   0.442   1.684   3.664
 3670SOL     OW11908   2.600   6.761   1.993
 3670SOL    HW111909   2.587   6.813   2.078
 3670SOL    HW211910   2.545   6.678   1.997
 3671SOL     OW11911   6.069   0.174   3.828
 3671SOL    HW111912   6.007   0.243   3.792
 3671SOL    HW211913   6.133   0.145   3.757
 3672SOL     OW11914   3.253   6.572   3.223
 3672SOL    HW111915   3.319   6.648   3.216
 3672SOL    HW211916   3.195   6.586   3.302
 3673SOL     OW11917   3.419   6.194   1.238
 3673SOL    HW111918   3.517   6.199   1.215
 3673SOL    HW211919   3.378   6.117   1.191
 3674SOL     OW11920   1.647   4.137   6.865
 3674SOL    HW111921   1.587   4.059   6.848
 3674SOL    HW211922   1.697   4.123   6.951
 3675SOL     OW11923   1.119   0.469   3.868
 3675SOL    HW111924   1.164   0.488   3.781
 3675SOL    HW211925   1.142   0.540   3.934
 3676SOL     OW11926   3.538   2.122   4.064
 3676SOL    HW111927   3.564   2.105   3.969
 3676SOL    HW211928   3.451   2.170   4.067
 3677SOL     OW11929   2.113   0.639   4.384
 3677SOL    HW111930   2.173   0.560   4.389
 3677SOL    HW211931   2.018   0.609   4.381
 3678SOL     OW11932   0.811   0.699   4.260
 3678SOL    HW111933   0.909   0.710   4.243
 3678SOL    HW211934   0.759   0.760   4.200
 3679SOL     OW11935   4.078   0.636   2.343
 3679SOL    HW111936   4.095   0.587   2.258
 3679SOL    HW211937   4.158   0.628   2.403
 3680SOL     OW11938   3.330   1.306   4.471
 3680SOL    HW111939   3.287   1.222   4.439
 3680SOL    HW211940   3.268   1.354   4.533
 3681SOL     OW11941   1.748   5.979   4.394
 3681SOL    HW111942   1.723   5.972   4.297
 3681SOL    HW211943   1.718   5.897   4.442
 3682SOL     OW11944   5.790   2.096   1.787
 3682SOL    HW111945   5.817   2.189   1.810
 3682SOL    HW211946   5.690   2.088   1.790
 3683SOL     OW11947   5.704   1.553   6.772
 3683SOL    HW111948   5.729   1.457   6.785
 3683SOL    HW211949   5.702   1.574   6.674
 3684SOL     OW11950   1.969   6.471   5.736
 3684SOL    HW111951   1.989   6.495   5.830
 3684SOL    HW211952   1.917   6.544   5.692
 3685SOL     OW11953   2.094   6.144   5.074
 3685SOL    HW111954   2.023   6.087   5.032
 3685SOL    HW211955   2.174   6.146   5.014
 3686SOL     OW11956   0.304   4.226   2.373
 3686SOL    HW111957   0.289   4.267   2.283
 3686SOL    HW211958   0.401   4.205   2.384
 3687SOL     OW11959   5.343   4.869   4.189
 3687SOL    HW111960   5.310   4.961   4.169
 3687SOL    HW211961   5.282   4.801   4.148
 3688SOL     OW11962   6.120   2.415   0.150
 3688SOL    HW111963   6.159   2.417   0.242
 3688SOL    HW211964   6.027   2.379   0.153
 3689SOL     OW11965   1.182   6.852   5.671
 3689SOL    HW111966   1.126   6.893   5.598
 3689SOL    HW211967   1.175   6.753   5.666
 3690SOL     OW11968   5.234   5.702   1.531
 3690SOL    HW111969   5.154   5.679   1.476
 3690SOL    HW211970   5.312   5.645   1.502
 3691SOL     OW11971   1.614   2.579   0.627
 3691SOL    HW111972   1.612   2.525   0.711
 3691SOL    HW211973   1.698   2.633   0.623
 3692SOL     OW11974   0.980   3.250   5.596
 3692SOL    HW111975   1.053   3.316   5.611
 3692SOL    HW211976   0.974   3.188   5.675
 3693SOL     OW11977   6.436   1.428   2.048
 3693SOL    HW111978   6.484   1.416   2.136
 3693SOL    HW211979   6.351   1.376   2.050
 3694SOL     OW11980   6.531   0.073   2.663
 3694SOL    HW111981   6.463   0.019   2.613
 3694SOL    HW211982   6.619   0.066   2.617
 3695SOL     OW11983   5.422   3.474   2.946
 3695SOL    HW111984   5.401   3.376   2.946
 3695SOL    HW211985   5.368   3.520   3.016
 3696SOL     OW11986   4.286   0.475   4.668
 3696SOL    HW111987   4.201   0.503   4.713
 3696SOL    HW211988   4.323   0.552   4.617
 3697SOL     OW11989   6.824   6.335   2.707
 3697SOL    HW111990   6.729   6.337   2.679
 3697SOL    HW211991   6.841   6.407   2.774
 3698SOL     OW11992   1.517   7.019   2.651
 3698SOL    HW111993   1.543   0.048   2.731
 3698SOL    HW211994   1.494   0.055   2.575
 3699SOL     OW11995   2.666   2.306   3.441
 3699SOL    HW111996   2.700   2.212   3.444
 3699SOL    HW211997   2.614   2.325   3.524
 3700SOL     OW11998   1.007   5.294   4.559
 3700SOL    HW111999   1.049   5.300   4.468
 3700SOL    HW212000   0.990   5.199   4.582
 3701SOL     OW12001   1.446   0.549   2.114
 3701SOL    HW112002   1.532   0.501   2.098
 3701SOL    HW212003   1.462   0.627   2.175
 3702SOL     OW12004   5.887   4.610   3.196
 3702SOL    HW112005   5.952   4.548   3.239
 3702SOL    HW212006   5.804   4.560   3.170
 3703SOL     OW12007   1.245   1.604   3.808
 3703SOL    HW112008   1.252   1.639   3.715
 3703SOL    HW212009   1.158   1.634   3.848
 3704SOL     OW12010   6.580   1.599   0.535
 3704SOL    HW112011   6.567   1.697   0.527
 3704SOL    HW212012   6.639   1.566   0.461
 3705SOL     OW12013   5.030   4.362   3.371
 3705SOL    HW112014   4.979   4.416   3.305
 3705SOL    HW212015   4.980   4.357   3.457
 3706SOL     OW12016   1.177   4.433   0.086
 3706SOL    HW112017   1.164   4.471   7.019
 3706SOL    HW212018   1.191   4.507   0.151
 3707SOL     OW12019   1.550   5.319   3.577
 3707SOL    HW112020   1.617   5.313   3.650
 3707SOL    HW212021   1.535   5.228   3.538
 3708SOL     OW12022   2.173   6.173   1.383
 3708SOL    HW112023   2.149   6.117   1.304
 3708SOL    HW212024   2.209   6.261   1.353
 3709SOL     OW12025   1.292   1.676   2.128
 3709SOL    HW112026   1.205   1.726   2.126
 3709SOL    HW212027   1.346   1.706   2.206
 3710SOL     OW12028   0.537   4.160   5.406
 3710SOL    HW112029   0.571   4.070   5.379
 3710SOL    HW212030   0.603   4.231   5.381
 3711SOL     OW12031   1.180   5.718   4.552
 3711SOL    HW112032   1.126   5.635   4.537
 3711SOL    HW212033   1.147   5.791   4.492
 3712SOL     OW12034   1.571   5.240   4.473
 3712SOL    HW112035   1.632   5.192   4.536
 3712SOL    HW212036   1.476   5.224   4.501
 3713SOL     OW12037   6.075   0.389   4.100
 3713SOL    HW112038   6.167   0.426   4.115
 3713SOL    HW212039   6.081   0.295   4.068
 3714SOL     OW12040   0.768   4.517   0.679
 3714SOL    HW112041   0.818   4.603   0.687
 3714SOL    HW212042   0.824   4.442   0.714
 3715SOL     OW12043   5.887   5.551   3.791
 3715SOL    HW112044   5.826   5.472   3.800
 3715SOL    HW212045   5.841   5.624   3.742
 3716SOL     OW12046   4.986   5.453   4.547
 3716SOL    HW112047   4.915   5.502   4.495
 3716SOL    HW212048   5.075   5.470   4.505
 3717SOL     OW12049   4.551   0.766   0.976
 3717SOL    HW112050   4.633   0.712   0.956
 3717SOL    HW212051   4.576   0.845   1.032
 3718SOL     OW12052   6.479   6.558   6.000
 3718SOL    HW112053   6.498   6.481   6.061
 3718SOL    HW212054   6.515   6.642   6.042
 3719SOL     OW12055   3.666   3.970   0.129
 3719SOL    HW112056   3.651   4.066   0.150
 3719SOL    HW212057   3.594   3.915   0.172
 3720SOL     OW12058   0.197   3.464   1.270
 3720SOL    HW112059   0.110   3.500   1.304
 3720SOL    HW212060   0.253   3.538   1.234
 3721SOL     OW12061   6.935   6.404   5.804
 3721SOL    HW112062   7.012   6.361   5.851
 3721SOL    HW212063   6.902   6.482   5.858
 3722SOL     OW12064   5.365   6.577   3.014
 3722SOL    HW112065   5.369   6.500   3.078
 3722SOL    HW212066   5.424   6.559   2.936
 3723SOL     OW12067   4.561   3.501   0.289
 3723SOL    HW112068   4.645   3.456   0.320
 3723SOL    HW212069   4.498   3.432   0.253
 3724SOL     OW12070   0.970   4.938   4.491
 3724SOL    HW112071   0.922   4.851   4.498
 3724SOL    HW212072   0.958   4.990   4.575
 3725SOL     OW12073   1.425   5.866   0.084
 3725SOL    HW112074   1.438   5.910   0.173
 3725SOL    HW212075   1.350   5.800   0.090
 3726SOL     OW12076   5.998   3.823   5.108
 3726SOL    HW112077   5.975   3.726   5.103
 3726SOL    HW212078   5.997   3.862   5.015
 3727SOL     OW12079   6.868   3.433   3.728
 3727SOL    HW112080   6.955   3.482   3.727
 3727SOL    HW212081   6.878   3.346   3.680
 3728SOL     OW12082   3.039   2.788   0.462
 3728SOL    HW112083   2.955   2.842   0.457
 3728SOL    HW212084   3.070   2.785   0.557
 3729SOL     OW12085   0.966   0.088   5.931
 3729SOL    HW112086   0.916   0.158   5.880
 3729SOL    HW212087   1.064   0.102   5.918
 3730SOL     OW12088   4.838   5.788   4.723
 3730SOL    HW112089   4.891   5.800   4.640
 3730SOL    HW212090   4.791   5.873   4.746
 3731SOL     OW12091   0.329   2.105   0.031
 3731SOL    HW112092   0.241   2.149   0.050
 3731SOL    HW212093   0.403   2.169   0.051
 3732SOL     OW12094   3.340   2.480   6.906
 3732SOL    HW112095   3.299   2.423   6.834
 3732SOL    HW212096   3.271   2.504   6.973
 3733SOL     OW12097   1.699   0.122   3.445
 3733SOL    HW112098   1.658   0.055   3.383
 3733SOL    HW212099   1.798   0.121   3.434
 3734SOL     OW12100   4.184   6.876   0.802
 3734SOL    HW112101   4.153   6.918   0.716
 3734SOL    HW212102   4.257   6.931   0.842
 3735SOL     OW12103   4.523   6.931   2.899
 3735SOL    HW112104   4.574   7.002   2.852
 3735SOL    HW212105   4.566   6.912   2.987
 3736SOL     OW12106   6.759   0.721   0.582
 3736SOL    HW112107   6.704   0.784   0.528
 3736SOL    HW212108   6.746   0.741   0.679
 3737SOL     OW12109   6.670   2.369   2.427
 3737SOL    HW112110   6.648   2.274   2.409
 3737SOL    HW212111   6.621   2.400   2.510
 3738SOL     OW12112   6.766   6.559   1.265
 3738SOL    HW112113   6.800   6.538   1.356
 3738SOL    HW212114   6.727   6.651   1.263
 3739SOL     OW12115   3.335   3.574   0.420
 3739SOL    HW112116   3.298   3.500   0.363
 3739SOL    HW212117   3.309   3.662   0.380
 3740SOL     OW12118   5.037   5.430   6.448
 3740SOL    HW112119   5.030   5.363   6.522
 3740SOL    HW212120   4.946   5.450   6.413
 3741SOL     OW12121   5.310   3.042   0.238
 3741SOL    HW112122   5.300   2.954   0.192
 3741SOL    HW212123   5.277   3.035   0.332
 3742SOL     OW12124   3.590   5.301   0.800
 3742SOL    HW112125   3.611   5.389   0.758
 3742SOL    HW212126   3.619   5.227   0.739
 3743SOL     OW12127   3.627   3.080   1.149
 3743SOL    HW112128   3.540   3.037   1.126
 3743SOL    HW212129   3.620   3.122   1.240
 3744SOL     OW12130   0.357   6.697   2.396
 3744SOL    HW112131   0.388   6.773   2.339
 3744SOL    HW212132   0.377   6.717   2.492
 3745SOL     OW12133   4.876   3.773   2.264
 3745SOL    HW112134   4.805   3.704   2.248
 3745SOL    HW212135   4.858   3.852   2.205
 3746SOL     OW12136   6.059   0.305   4.426
 3746SOL    HW112137   6.054   0.216   4.471
 3746SOL    HW212138   6.134   0.303   4.359
 3747SOL     OW12139   3.487   6.645   5.746
 3747SOL    HW112140   3.468   6.699   5.664
 3747SOL    HW212141   3.421   6.670   5.818
 3748SOL     OW12142   4.976   1.589   2.643
 3748SOL    HW112143   5.037   1.628   2.574
 3748SOL    HW212144   4.889   1.564   2.600
 3749SOL     OW12145   7.006   6.556   2.122
 3749SOL    HW112146   0.051   6.509   2.068
 3749SOL    HW212147   0.016   6.578   2.212
 3750SOL     OW12148   5.394   4.313   0.595
 3750SOL    HW112149   5.464   4.270   0.653
 3750SOL    HW212150   5.314   4.335   0.651
 3751SOL     OW12151   1.883   3.805   2.516
 3751SOL    HW112152   1.896   3.843   2.608
 3751SOL    HW212153   1.971   3.779   2.478
 3752SOL     OW12154   0.802   6.322   6.281
 3752SOL    HW112155   0.884   6.367   6.317
 3752SOL    HW212156   0.729   6.326   6.350
 3753SOL     OW12157   6.719   0.046   5.025
 3753SOL    HW112158   6.657   6.992   5.014
 3753SOL    HW212159   6.794   0.039   4.959
 3754SOL     OW12160   6.691   6.789   1.602
 3754SOL    HW112161   6.694   6.817   1.698
 3754SOL    HW212162   6.718   6.865   1.544
 3755SOL     OW12163   5.162   2.847   3.195
 3755SOL    HW112164   5.254   2.854   3.235
 3755SOL    HW212165   5.137   2.751   3.186
 3756SOL     OW12166   3.358   0.579   6.348
 3756SOL    HW112167   3.308   0.631   6.279
 3756SOL    HW212168   3.388   0.492   6.310
 3757SOL     OW12169   3.516   5.451   6.531
 3757SOL    HW112170   3.514   5.356   6.560
 3757SOL    HW212171   3.503   5.510   6.611
 3758SOL     OW12172   0.907   0.883   3.944
 3758SOL    HW112173   0.961   0.961   3.977
 3758SOL    HW212174   0.828   0.870   4.004
 3759SOL     OW12175   4.481   4.337   6.879
 3759SOL    HW112176   4.550   4.279   6.922
 3759SOL    HW212177   4.511   4.363   6.787
 3760SOL     OW12178   1.983   2.446   5.228
 3760SOL    HW112179   1.948   2.497   5.306
 3760SOL    HW212180   2.023   2.509   5.162
 3761SOL     OW12181   6.944   6.388   3.683
 3761SOL    HW112182   6.984   6.393   3.774
 3761SOL    HW212183   6.987   6.314   3.631
 3762SOL     OW12184   0.670   3.724   6.941
 3762SOL    HW112185   0.750   3.784   6.942
 3762SOL    HW212186   0.700   3.629   6.943
 3763SOL     OW12187   6.282   3.774   5.981
 3763SOL    HW112188   6.222   3.701   5.949
 3763SOL    HW212189   6.332   3.814   5.904
 3764SOL     OW12190   2.225   6.758   3.494
 3764SOL    HW112191   2.178   6.721   3.573
 3764SOL    HW212192   2.202   6.704   3.413
 3765SOL     OW12193   5.692   1.330   4.445
 3765SOL    HW112194   5.738   1.291   4.525
 3765SOL    HW212195   5.698   1.430   4.449
 3766SOL     OW12196   1.833   0.267   5.257
 3766SOL    HW112197   1.738   0.268   5.226
 3766SOL    HW212198   1.870   0.359   5.254
 3767SOL     OW12199   1.930   4.965   1.391
 3767SOL    HW112200   1.937   4.889   1.456
 3767SOL    HW212201   2.020   4.981   1.350
 3768SOL     OW12202   4.597   6.721   0.881
 3768SOL    HW112203   4.509   6.677   0.863
 3768SOL    HW212204   4.641   6.743   0.794
 3769SOL     OW12205   4.644   6.403   5.090
 3769SOL    HW112206   4.584   6.476   5.058
 3769SOL    HW212207   4.627   6.386   5.188
 3770SOL     OW12208   2.043   1.921   0.294
 3770SOL    HW112209   2.047   1.874   0.206
 3770SOL    HW212210   1.949   1.949   0.312
 3771SOL     OW12211   4.921   1.541   5.809
 3771SOL    HW112212   4.971   1.470   5.759
 3771SOL    HW212213   4.830   1.551   5.771
 3772SOL     OW12214   4.992   1.207   2.654
 3772SOL    HW112215   5.033   1.173   2.739
 3772SOL    HW212216   5.032   1.158   2.576
 3773SOL     OW12217   6.754   2.842   6.801
 3773SOL    HW112218   6.824   2.773   6.783
 3773SOL    HW212219   6.750   2.861   6.899
 3774SOL     OW12220   0.545   1.229   1.990
 3774SOL    HW112221   0.510   1.323   1.999
 3774SOL    HW212222   0.554   1.206   1.894
 3775SOL     OW12223   5.533   3.444   3.534
 3775SOL    HW112224   5.543   3.541   3.511
 3775SOL    HW212225   5.611   3.415   3.590
 3776SOL     OW12226   2.861   3.414   0.254
 3776SOL    HW112227   2.847   3.356   0.174
 3776SOL    HW212228   2.800   3.384   0.328
 3777SOL     OW12229   2.139   4.302   3.814
 3777SOL    HW112230   2.138   4.320   3.716
 3777SOL    HW212231   2.083   4.370   3.862
 3778SOL     OW12232   2.166   6.601   2.149
 3778SOL    HW112233   2.149   6.673   2.216
 3778SOL    HW212234   2.210   6.524   2.194
 3779SOL     OW12235   2.987   5.357   6.054
 3779SOL    HW112236   2.928   5.402   5.987
 3779SOL    HW212237   3.060   5.308   6.007
 3780SOL     OW12238   2.806   6.974   4.745
 3780SOL    HW112239   2.758   6.889   4.765
 3780SOL    HW212240   2.887   6.981   4.803
 3781SOL     OW12241   2.826   5.460   4.958
 3781SOL    HW112242   2.841   5.361   4.967
 3781SOL    HW212243   2.833   5.486   4.862
 3782SOL     OW12244   2.044   2.151   3.064
 3782SOL    HW112245   2.007   2.188   2.979
 3782SOL    HW212246   1.987   2.075   3.096
 3783SOL     OW12247   4.486   5.624   5.409
 3783SOL    HW112248   4.511   5.545   5.353
 3783SOL    HW212249   4.387   5.638   5.404
 3784SOL     OW12250   5.213   1.431   3.354
 3784SOL    HW112251   5.130   1.435   3.410
 3784SOL    HW212252   5.235   1.336   3.334
 3785SOL     OW12253   1.603   1.469   1.492
 3785SOL    HW112254   1.626   1.546   1.432
 3785SOL    HW212255   1.624   1.383   1.445
 3786SOL     OW12256   3.345   5.422   3.112
 3786SOL    HW112257   3.250   5.425   3.142
 3786SOL    HW212258   3.367   5.331   3.077
 3787SOL     OW12259   3.919   1.721   3.962
 3787SOL    HW112260   3.955   1.682   4.047
 3787SOL    HW212261   3.838   1.775   3.981
 3788SOL     OW12262   5.696   2.787   2.078
 3788SOL    HW112263   5.634   2.864   2.065
 3788SOL    HW212264   5.707   2.768   2.175
 3789SOL     OW12265   1.530   5.200   3.087
 3789SOL    HW112266   1.582   5.276   3.127
 3789SOL    HW212267   1.459   5.236   3.026
 3790SOL     OW12268   2.067   3.510   3.944
 3790SOL    HW112269   2.077   3.503   4.043
 3790SOL    HW212270   2.032   3.601   3.920
 3791SOL     OW12271   4.807   0.416   2.088
 3791SOL    HW112272   4.761   0.346   2.141
 3791SOL    HW212273   4.899   0.385   2.065
 3792SOL     OW12274   0.056   6.830   5.465
 3792SOL    HW112275   0.027   6.907   5.409
 3792SOL    HW212276   0.130   6.858   5.526
 3793SOL     OW12277   2.254   0.197   2.685
 3793SOL    HW112278   2.292   0.107   2.665
 3793SOL    HW212279   2.317   0.268   2.653
 3794SOL     OW12280   4.083   6.661   2.154
 3794SOL    HW112281   4.066   6.700   2.063
 3794SOL    HW212282   4.031   6.575   2.163
 3795SOL     OW12283   5.423   7.018   6.660
 3795SOL    HW112284   5.482   7.012   6.580
 3795SOL    HW212285   5.339   0.043   6.637
 3796SOL     OW12286   1.277   3.042   1.906
 3796SOL    HW112287   1.325   2.996   1.980
 3796SOL    HW212288   1.304   3.001   1.818
 3797SOL     OW12289   0.400   4.860   2.675
 3797SOL    HW112290   0.417   4.851   2.577
 3797SOL    HW212291   0.433   4.949   2.707
 3798SOL     OW12292   1.776   4.724   2.416
 3798SOL    HW112293   1.816   4.769   2.496
 3798SOL    HW212294   1.849   4.683   2.362
 3799SOL     OW12295   1.831   7.020   5.417
 3799SOL    HW112296   1.754   0.051   5.384
 3799SOL    HW212297   1.850   0.019   5.512
 3800SOL     OW12298   4.949   3.210   4.654
 3800SOL    HW112299   4.874   3.272   4.632
 3800SOL    HW212300   4.931   3.120   4.614
 3801SOL     OW12301   0.311   6.739   6.089
 3801SOL    HW112302   0.237   6.711   6.028
 3801SOL    HW212303   0.335   6.665   6.151
 3802SOL     OW12304   1.482   2.493   5.384
 3802SOL    HW112305   1.548   2.568   5.391
 3802SOL    HW212306   1.518   2.412   5.431
 3803SOL     OW12307   3.814   1.334   1.061
 3803SOL    HW112308   3.912   1.351   1.070
 3803SOL    HW212309   3.766   1.421   1.054
 3804SOL     OW12310   5.004   2.282   5.017
 3804SOL    HW112311   4.944   2.212   5.054
 3804SOL    HW212312   4.975   2.306   4.924
 3805SOL     OW12313   2.057   4.084   1.573
 3805SOL    HW112314   2.151   4.116   1.587
 3805SOL    HW212315   2.022   4.046   1.659
 3806SOL     OW12316   2.312   1.660   0.740
 3806SOL    HW112317   2.277   1.724   0.671
 3806SOL    HW212318   2.249   1.655   0.817
 3807SOL     OW12319   1.668   6.789   3.446
 3807SOL    HW112320   1.611   6.717   3.486
 3807SOL    HW212321   1.763   6.775   3.475
 3808SOL     OW12322   3.362   0.267   1.339
 3808SOL    HW112323   3.385   0.205   1.264
 3808SOL    HW212324   3.444   0.285   1.394
 3809SOL     OW12325   4.360   0.615   6.182
 3809SOL    HW112326   4.266   0.603   6.150
 3809SOL    HW212327   4.409   0.675   6.118
 3810SOL     OW12328   2.586   3.220   5.397
 3810SOL    HW112329   2.686   3.222   5.386
 3810SOL    HW212330   2.547   3.156   5.331
 3811SOL     OW12331   0.907   5.628   5.944
 3811SOL    HW112332   0.820   5.578   5.941
 3811SOL    HW212333   0.960   5.600   6.024
 3812SOL     OW12334   5.729   1.384   5.045
 3812SOL    HW112335   5.774   1.458   5.096
 3812SOL    HW212336   5.798   1.332   4.994
 3813SOL     OW12337   3.514   4.955   1.287
 3813SOL    HW112338   3.439   4.904   1.328
 3813SOL    HW212339   3.564   5.005   1.358
 3814SOL     OW12340   0.868   6.699   2.046
 3814SOL    HW112341   0.820   6.694   2.134
 3814SOL    HW212342   0.924   6.616   2.035
 3815SOL     OW12343   5.269   2.221   1.528
 3815SOL    HW112344   5.217   2.237   1.444
 3815SOL    HW212345   5.207   2.227   1.607
 3816SOL     OW12346   0.750   6.496   1.117
 3816SOL    HW112347   0.716   6.431   1.185
 3816SOL    HW212348   0.806   6.447   1.050
 3817SOL     OW12349   5.177   2.081   5.466
 3817SOL    HW112350   5.150   2.021   5.541
 3817SOL    HW212351   5.220   2.028   5.393
 3818SOL     OW12352   5.088   5.254   2.165
 3818SOL    HW112353   4.991   5.274   2.151
 3818SOL    HW212354   5.137   5.340   2.179
 3819SOL     OW12355   5.265   4.485   6.496
 3819SOL    HW112356   5.180   4.436   6.478
 3819SOL    HW212357   5.340   4.439   6.448
 3820SOL     OW12358   5.377   6.423   4.024
 3820SOL    HW112359   5.295   6.460   4.068
 3820SOL    HW212360   5.355   6.335   3.982
 3821SOL     OW12361   0.952   4.252   1.954
 3821SOL    HW112362   0.867   4.202   1.970
 3821SOL    HW212363   1.005   4.255   2.039
 3822SOL     OW12364   2.560   5.192   1.724
 3822SOL    HW112365   2.528   5.267   1.666
 3822SOL    HW212366   2.487   5.163   1.785
 3823SOL     OW12367   3.447   2.565   5.335
 3823SOL    HW112368   3.378   2.614   5.282
 3823SOL    HW212369   3.402   2.500   5.396
 3824SOL     OW12370   0.288   2.252   6.757
 3824SOL    HW112371   0.207   2.197   6.737
 3824SOL    HW212372   0.273   2.304   6.841
 3825SOL     OW12373   6.582   6.762   6.156
 3825SOL    HW112374   6.664   6.719   6.195
 3825SOL    HW212375   6.513   6.773   6.227
 3826SOL     OW12376   6.711   2.403   1.541
 3826SOL    HW112377   6.645   2.466   1.583
 3826SOL    HW212378   6.701   2.312   1.582
 3827SOL     OW12379   4.380   3.299   0.202
 3827SOL    HW112380   4.435   3.228   0.245
 3827SOL    HW212381   4.285   3.291   0.234
 3828SOL     OW12382   3.749   1.150   2.452
 3828SOL    HW112383   3.749   1.227   2.516
 3828SOL    HW212384   3.840   1.139   2.413
 3829SOL     OW12385   1.924   5.192   3.727
 3829SOL    HW112386   1.860   5.268   3.732
 3829SOL    HW212387   1.879   5.112   3.689
 3830SOL     OW12388   3.002   0.512   4.551
 3830SOL    HW112389   2.957   0.455   4.620
 3830SOL    HW212390   3.005   0.607   4.582
 3831SOL     OW12391   3.711   1.435   1.871
 3831SOL    HW112392   3.668   1.523   1.849
 3831SOL    HW212393   3.783   1.450   1.939
 3832SOL     OW12394   6.252   0.269   2.972
 3832SOL    HW112395   6.190   0.196   3.001
 3832SOL    HW212396   6.343   0.232   2.955
 3833SOL     OW12397   1.060   4.995   6.836
 3833SOL    HW112398   0.967   4.959   6.831
 3833SOL    HW212399   1.125   4.919   6.838
 3834SOL     OW12400   2.241   2.415   0.535
 3834SOL    HW112401   2.221   2.439   0.630
 3834SOL    HW212402   2.167   2.357   0.499
 3835SOL     OW12403   3.498   5.907   5.097
 3835SOL    HW112404   3.404   5.880   5.118
 3835SOL    HW212405   3.538   5.840   5.034
 3836SOL     OW12406   1.084   3.316   5.955
 3836SOL    HW112407   1.058   3.394   5.898
 3836SOL    HW212408   1.184   3.308   5.957
 3837SOL     OW12409   3.616   3.615   0.142
 3837SOL    HW112410   3.596   3.533   0.196
 3837SOL    HW212411   3.587   3.600   0.048
 3838SOL     OW12412   6.303   3.736   5.413
 3838SOL    HW112413   6.328   3.826   5.448
 3838SOL    HW212414   6.206   3.718   5.433
 3839SOL     OW12415   6.235   6.507   6.193
 3839SOL    HW112416   6.320   6.455   6.207
 3839SOL    HW212417   6.208   6.548   6.280
 3840SOL     OW12418   1.906   0.772   3.696
 3840SOL    HW112419   1.998   0.741   3.720
 3840SOL    HW212420   1.889   0.861   3.737
 3841SOL     OW12421   0.320   3.846   5.020
 3841SOL    HW112422   0.413   3.883   5.011
 3841SOL    HW212423   0.281   3.832   4.930
 3842SOL     OW12424   1.205   5.178   6.673
 3842SOL    HW112425   1.169   5.126   6.750
 3842SOL    HW212426   1.131   5.200   6.610
 3843SOL     OW12427   5.894   4.243   0.869
 3843SOL    HW112428   5.961   4.210   0.936
 3843SOL    HW212429   5.900   4.187   0.786
 3844SOL     OW12430   2.139   4.569   6.566
 3844SOL    HW112431   2.212   4.627   6.531
 3844SOL    HW212432   2.176   4.504   6.633
 3845SOL     OW12433   3.514   3.612   3.793
 3845SOL    HW112434   3.511   3.527   3.848
 3845SOL    HW212435   3.450   3.604   3.717
 3846SOL     OW12436   0.041   4.508   3.392
 3846SOL    HW112437   0.020   4.449   3.470
 3846SOL    HW212438   0.033   4.455   3.307
 3847SOL     OW12439   0.827   0.245   0.597
 3847SOL    HW112440   0.806   0.150   0.619
 3847SOL    HW212441   0.888   0.249   0.518
 3848SOL     OW12442   2.921   4.936   0.386
 3848SOL    HW112443   2.873   4.925   0.473
 3848SOL    HW212444   2.857   4.923   0.311
 3849SOL     OW12445   1.976   2.338   5.997
 3849SOL    HW112446   2.036   2.280   6.054
 3849SOL    HW212447   2.016   2.347   5.906
 3850SOL     OW12448   2.382   3.627   1.630
 3850SOL    HW112449   2.399   3.720   1.662
 3850SOL    HW212450   2.346   3.572   1.706
 3851SOL     OW12451   2.488   2.313   1.403
 3851SOL    HW112452   2.527   2.269   1.322
 3851SOL    HW212453   2.557   2.372   1.445
 3852SOL     OW12454   4.614   0.816   5.268
 3852SOL    HW112455   4.548   0.825   5.343
 3852SOL    HW212456   4.640   0.908   5.236
 3853SOL     OW12457   1.385   2.857   2.109
 3853SOL    HW112458   1.406   2.863   2.207
 3853SOL    HW212459   1.464   2.821   2.060
 3854SOL     OW12460   1.274   2.727   4.283
 3854SOL    HW112461   1.288   2.640   4.237
 3854SOL    HW212462   1.182   2.730   4.322
 3855SOL     OW12463   6.950   2.072   5.677
 3855SOL    HW112464   7.023   2.119   5.629
 3855SOL    HW212465   6.971   2.068   5.775
 3856SOL     OW12466   0.987   6.271   5.198
 3856SOL    HW112467   0.972   6.319   5.285
 3856SOL    HW212468   1.068   6.309   5.153
 3857SOL     OW12469   0.816   6.792   5.644
 3857SOL    HW112470   0.867   6.817   5.726
 3857SOL    HW212471   0.849   6.846   5.567
 3858SOL     OW12472   2.166   5.433   0.286
 3858SOL    HW112473   2.239   5.368   0.306
 3858SOL    HW212474   2.139   5.481   0.369
 3859SOL     OW12475   7.021   2.267   2.288
 3859SOL    HW112476   0.008   2.320   2.204
 3859SOL    HW212477   0.052   2.184   2.283
 3860SOL     OW12478   2.422   6.420   4.737
 3860SOL    HW112479   2.341   6.362   4.744
 3860SOL    HW212480   2.419   6.490   4.808
 3861SOL     OW12481   4.265   4.551   0.791
 3861SOL    HW112482   4.313   4.502   0.864
 3861SOL    HW212483   4.248   4.646   0.820
 3862SOL     OW12484   1.131   4.955   6.023
 3862SOL    HW112485   1.038   4.965   5.987
 3862SOL    HW212486   1.129   4.901   6.107
 3863SOL     OW12487   3.511   3.051   0.282
 3863SOL    HW112488   3.515   3.028   0.379
 3863SOL    HW212489   3.445   2.991   0.236
 3864SOL     OW12490   3.418   1.827   6.890
 3864SOL    HW112491   3.319   1.824   6.892
 3864SOL    HW212492   3.454   1.814   6.983
 3865SOL     OW12493   4.271   0.726   2.521
 3865SOL    HW112494   4.232   0.818   2.521
 3865SOL    HW212495   4.232   0.673   2.597
 3866SOL     OW12496   4.013   6.469   6.277
 3866SOL    HW112497   4.031   6.521   6.194
 3866SOL    HW212498   3.991   6.374   6.253
 3867SOL     OW12499   1.416   3.561   4.107
 3867SOL    HW112500   1.495   3.500   4.116
 3867SOL    HW212501   1.332   3.508   4.121
 3868SOL     OW12502   1.701   5.406   3.203
 3868SOL    HW112503   1.653   5.488   3.171
 3868SOL    HW212504   1.752   5.428   3.287
 3869SOL     OW12505   1.338   2.391   3.600
 3869SOL    HW112506   1.272   2.318   3.615
 3869SOL    HW212507   1.343   2.450   3.680
 3870SOL     OW12508   3.543   4.623   0.232
 3870SOL    HW112509   3.599   4.694   0.275
 3870SOL    HW212510   3.491   4.575   0.303
 3871SOL     OW12511   2.960   1.920   4.465
 3871SOL    HW112512   2.982   2.016   4.483
 3871SOL    HW212513   2.865   1.902   4.492
 3872SOL     OW12514   3.930   3.216   0.592
 3872SOL    HW112515   3.998   3.146   0.611
 3872SOL    HW212516   3.838   3.179   0.605
 3873SOL     OW12517   5.116   4.312   1.667
 3873SOL    HW112518   5.161   4.226   1.642
 3873SOL    HW212519   5.151   4.386   1.608
 3874SOL     OW12520   4.899   6.156   6.242
 3874SOL    HW112521   4.846   6.084   6.287
 3874SOL    HW212522   4.913   6.232   6.304
 3875SOL     OW12523   1.963   3.877   0.481
 3875SOL    HW112524   1.906   3.919   0.551
 3875SOL    HW212525   1.927   3.787   0.458
 3876SOL     OW12526   5.059   4.423   2.365
 3876SOL    HW112527   5.033   4.392   2.274
 3876SOL    HW212528   5.101   4.514   2.359
 3877SOL     OW12529   5.422   1.169   2.701
 3877SOL    HW112530   5.397   1.258   2.739
 3877SOL    HW212531   5.414   1.171   2.602
 3878SOL     OW12532   4.145   5.951   4.851
 3878SOL    HW112533   4.163   5.855   4.873
 3878SOL    HW212534   4.213   6.008   4.898
 3879SOL     OW12535   3.252   5.504   1.017
 3879SOL    HW112536   3.176   5.568   1.025
 3879SOL    HW212537   3.248   5.458   0.928
 3880SOL     OW12538   5.367   2.762   4.077
 3880SOL    HW112539   5.301   2.835   4.099
 3880SOL    HW212540   5.460   2.794   4.095
 3881SOL     OW12541   1.438   5.039   1.541
 3881SOL    HW112542   1.424   5.134   1.569
 3881SOL    HW212543   1.429   4.979   1.620
 3882SOL     OW12544   1.040   6.410   6.428
 3882SOL    HW112545   1.106   6.355   6.376
 3882SOL    HW212546   1.038   6.380   6.523
 3883SOL     OW12547   3.343   1.441   6.247
 3883SOL    HW112548   3.390   1.424   6.161
 3883SOL    HW212549   3.387   1.518   6.294
 3884SOL     OW12550   1.433   4.795   5.501
 3884SOL    HW112551   1.379   4.752   5.428
 3884SOL    HW212552   1.372   4.843   5.564
 3885SOL     OW12553   7.015   1.751   5.585
 3885SOL    HW112554   7.015   1.759   5.684
 3885SOL    HW212555   6.936   1.799   5.547
 3886SOL     OW12556   0.293   5.703   5.444
 3886SOL    HW112557   0.297   5.605   5.425
 3886SOL    HW212558   0.285   5.753   5.358
 3887SOL     OW12559   4.935   3.218   5.441
 3887SOL    HW112560   4.871   3.213   5.364
 3887SOL    HW212561   4.903   3.157   5.514
 3888SOL     OW12562   5.198   2.244   1.955
 3888SOL    HW112563   5.128   2.310   1.981
 3888SOL    HW212564   5.247   2.277   1.875
 3889SOL     OW12565   0.109   5.625   0.172
 3889SOL    HW112566   0.150   5.663   0.256
 3889SOL    HW212567   0.050   5.693   0.130
 3890SOL     OW12568   6.423   3.683   2.634
 3890SOL    HW112569   6.424   3.778   2.665
 3890SOL    HW212570   6.443   3.679   2.536
 3891SOL     OW12571   5.864   5.136   6.452
 3891SOL    HW112572   5.770   5.102   6.443
 3891SOL    HW212573   5.865   5.212   6.517
 3892SOL     OW12574   5.724   5.800   3.774
 3892SOL    HW112575   5.641   5.788   3.829
 3892SOL    HW212576   5.747   5.897   3.769
 3893SOL     OW12577   3.435   6.406   4.368
 3893SOL    HW112578   3.417   6.373   4.461
 3893SOL    HW212579   3.528   6.380   4.341
 3894SOL     OW12580   4.859   5.334   6.846
 3894SOL    HW112581   4.942   5.318   6.792
 3894SOL    HW212582   4.783   5.355   6.784
 3895SOL     OW12583   1.766   1.968   6.016
 3895SOL    HW112584   1.703   1.892   6.024
 3895SOL    HW212585   1.727   2.049   6.059
 3896SOL     OW12586   6.632   2.036   6.482
 3896SOL    HW112587   6.677   1.947   6.496
 3896SOL    HW212588   6.691   2.094   6.426
 3897SOL     OW12589   3.436   6.449   3.020
 3897SOL    HW112590   3.401   6.362   2.984
 3897SOL    HW212591   3.384   6.474   3.101
 3898SOL     OW12592   3.373   3.348   4.736
 3898SOL    HW112593   3.330   3.297   4.661
 3898SOL    HW212594   3.412   3.433   4.701
 3899SOL     OW12595   5.022   1.801   4.814
 3899SOL    HW112596   4.996   1.855   4.894
 3899SOL    HW212597   5.055   1.712   4.844
 3900SOL     OW12598   6.708   2.668   4.599
 3900SOL    HW112599   6.641   2.680   4.526
 3900SOL    HW212600   6.742   2.574   4.597
 3901SOL     OW12601   2.595   5.626   5.032
 3901SOL    HW112602   2.644   5.707   5.062
 3901SOL    HW212603   2.659   5.563   4.988
 3902SOL     OW12604   4.203   4.748   2.451
 3902SOL    HW112605   4.156   4.836   2.461
 3902SOL    HW212606   4.196   4.717   2.357
 3903SOL     OW12607   5.058   2.625   5.753
 3903SOL    HW112608   5.145   2.672   5.768
 3903SOL    HW212609   5.003   2.629   5.836
 3904SOL     OW12610   2.433   6.041   0.963
 3904SOL    HW112611   2.426   6.012   1.058
 3904SOL    HW212612   2.401   5.968   0.903
 3905SOL     OW12613   6.520   0.379   6.244
 3905SOL    HW112614   6.550   0.380   6.149
 3905SOL    HW212615   6.586   0.429   6.301
 3906SOL     OW12616   0.646   5.555   4.510
 3906SOL    HW112617   0.573   5.612   4.472
 3906SOL    HW212618   0.690   5.603   4.586
 3907SOL     OW12619   0.611   1.352   5.338
 3907SOL    HW112620   0.563   1.432   5.373
 3907SOL    HW212621   0.562   1.269   5.364
 3908SOL     OW12622   2.314   0.819   4.510
 3908SOL    HW112623   2.282   0.815   4.605
 3908SOL    HW212624   2.255   0.762   4.453
 3909SOL     OW12625   5.114   2.700   1.078
 3909SOL    HW112626   5.167   2.664   1.001
 3909SOL    HW212627   5.107   2.799   1.070
 3910SOL     OW12628   3.376   1.882   1.138
 3910SOL    HW112629   3.350   1.979   1.148
 3910SOL    HW212630   3.445   1.874   1.066
 3911SOL     OW12631   0.027   0.451   1.445
 3911SOL    HW112632   0.042   0.361   1.485
 3911SOL    HW212633   6.954   0.467   1.434
 3912SOL     OW12634   4.019   3.476   6.922
 3912SOL    HW112635   4.071   3.392   6.907
 3912SOL    HW212636   3.997   3.485   7.019
 3913SOL     OW12637   4.058   5.499   1.354
 3913SOL    HW112638   4.025   5.471   1.264
 3913SOL    HW212639   4.026   5.592   1.373
 3914SOL     OW12640   6.685   1.881   0.366
 3914SOL    HW112641   6.596   1.922   0.348
 3914SOL    HW212642   6.757   1.937   0.326
 3915SOL     OW12643   5.787   0.290   5.473
 3915SOL    HW112644   5.737   0.376   5.487
 3915SOL    HW212645   5.754   0.246   5.389
 3916SOL     OW12646   1.955   2.322   2.825
 3916SOL    HW112647   1.907   2.271   2.754
 3916SOL    HW212648   1.892   2.387   2.867
 3917SOL     OW12649   3.755   4.810   1.632
 3917SOL    HW112650   3.691   4.886   1.641
 3917SOL    HW212651   3.728   4.737   1.695
 3918SOL     OW12652   4.949   0.624   0.031
 3918SOL    HW112653   4.907   0.552   7.000
 3918SOL    HW212654   4.900   0.631   0.118
 3919SOL     OW12655   4.661   6.288   3.392
 3919SOL    HW112656   4.662   6.348   3.313
 3919SOL    HW212657   4.752   6.249   3.406
 3920SOL     OW12658   3.190   1.324   5.604
 3920SOL    HW112659   3.198   1.258   5.680
 3920SOL    HW212660   3.112   1.300   5.547
 3921SOL     OW12661   1.372   2.956   6.294
 3921SOL    HW112662   1.306   2.973   6.367
 3921SOL    HW212663   1.322   2.934   6.210
 3922SOL     OW12664   4.881   3.655   3.336
 3922SOL    HW112665   4.853   3.743   3.299
 3922SOL    HW212666   4.877   3.658   3.436
 3923SOL     OW12667   5.234   1.393   1.561
 3923SOL    HW112668   5.294   1.401   1.641
 3923SOL    HW212669   5.259   1.311   1.510
 3924SOL     OW12670   5.257   5.100   4.098
 3924SOL    HW112671   5.189   5.168   4.125
 3924SOL    HW212672   5.224   5.050   4.017
 3925SOL     OW12673   4.879   5.623   1.067
 3925SOL    HW112674   4.888   5.592   0.973
 3925SOL    HW212675   4.886   5.722   1.071
 3926SOL     OW12676   0.717   5.461   5.198
 3926SOL    HW112677   0.770   5.402   5.258
 3926SOL    HW212678   0.637   5.412   5.164
 3927SOL     OW12679   5.290   1.430   5.852
 3927SOL    HW112680   5.387   1.417   5.834
 3927SOL    HW212681   5.262   1.373   5.930
 3928SOL     OW12682   3.629   5.746   2.786
 3928SOL    HW112683   3.665   5.703   2.704
 3928SOL    HW212684   3.655   5.692   2.866
 3929SOL     OW12685   1.213   1.611   6.002
 3929SOL    HW112686   1.302   1.570   6.022
 3929SOL    HW212687   1.194   1.603   5.904
 3930SOL     OW12688   1.526   4.550   3.887
 3930SOL    HW112689   1.561   4.478   3.947
 3930SOL    HW212690   1.598   4.618   3.873
 3931SOL     OW12691   0.985   2.135   0.298
 3931SOL    HW112692   0.928   2.104   0.375
 3931SOL    HW212693   1.047   2.061   0.271
 3932SOL     OW12694   2.590   4.717   2.997
 3932SOL    HW112695   2.636   4.690   2.913
 3932SOL    HW212696   2.544   4.638   3.037
 3933SOL     OW12697   1.961   6.118   1.536
 3933SOL    HW112698   2.025   6.162   1.473
 3933SOL    HW212699   1.951   6.021   1.512
 3934SOL     OW12700   2.433   0.082   1.071
 3934SOL    HW112701   2.407   0.105   1.165
 3934SOL    HW212702   2.355   0.045   1.022
 3935SOL     OW12703   0.506   3.463   5.158
 3935SOL    HW112704   0.471   3.538   5.214
 3935SOL    HW212705   0.605   3.468   5.152
 3936SOL     OW12706   0.186   4.063   5.044
 3936SOL    HW112707   0.238   3.977   5.038
 3936SOL    HW212708   0.247   4.136   5.077
 3937SOL     OW12709   0.685   6.057   0.622
 3937SOL    HW112710   0.777   6.022   0.605
 3937SOL    HW212711   0.691   6.147   0.666
 3938SOL     OW12712   0.756   3.461   0.751
 3938SOL    HW112713   0.720   3.523   0.681
 3938SOL    HW212714   0.848   3.490   0.778
 3939SOL     OW12715   1.563   6.968   3.277
 3939SOL    HW112716   1.510   6.926   3.204
 3939SOL    HW212717   1.589   6.899   3.344
 3940SOL     OW12718   3.118   5.603   6.648
 3940SOL    HW112719   3.167   5.572   6.566
 3940SOL    HW212720   3.162   5.686   6.683
 3941SOL     OW12721   5.129   5.987   2.574
 3941SOL    HW112722   5.111   5.921   2.647
 3941SOL    HW212723   5.143   5.938   2.488
 3942SOL     OW12724   7.022   6.245   6.273
 3942SOL    HW112725   6.947   6.299   6.311
 3942SOL    HW212726   7.001   6.220   6.179
 3943SOL     OW12727   2.361   3.319   0.227
 3943SOL    HW112728   2.411   3.249   0.278
 3943SOL    HW212729   2.281   3.347   0.279
 3944SOL     OW12730   3.904   3.017   6.422
 3944SOL    HW112731   3.876   3.108   6.451
 3944SOL    HW212732   3.997   3.021   6.386
 3945SOL     OW12733   5.607   0.647   3.613
 3945SOL    HW112734   5.595   0.644   3.514
 3945SOL    HW212735   5.619   0.554   3.648
 3946SOL     OW12736   0.862   3.626   0.312
 3946SOL    HW112737   0.778   3.667   0.277
 3946SOL    HW212738   0.941   3.674   0.275
 3947SOL     OW12739   5.519   6.128   2.034
 3947SOL    HW112740   5.514   6.227   2.047
 3947SOL    HW212741   5.443   6.084   2.082
 3948SOL     OW12742   1.692   2.577   4.996
 3948SOL    HW112743   1.649   2.489   4.981
 3948SOL    HW212744   1.789   2.571   4.973
 3949SOL     OW12745   6.576   0.301   2.470
 3949SOL    HW112746   6.569   0.350   2.557
 3949SOL    HW212747   6.547   0.206   2.482
 3950SOL     OW12748   3.011   4.454   1.701
 3950SOL    HW112749   2.974   4.400   1.625
 3950SOL    HW212750   2.938   4.478   1.764
 3951SOL     OW12751   0.277   2.674   4.705
 3951SOL    HW112752   0.225   2.760   4.710
 3951SOL    HW212753   0.352   2.684   4.640
 3952SOL     OW12754   5.670   3.894   0.072
 3952SOL    HW112755   5.690   3.973   0.130
 3952SOL    HW212756   5.751   3.836   0.066
 3953SOL     OW12757   2.954   3.779   6.013
 3953SOL    HW112758   2.966   3.794   6.111
 3953SOL    HW212759   2.857   3.787   5.989
 3954SOL     OW12760   0.658   3.211   5.117
 3954SOL    HW112761   0.602   3.128   5.126
 3954SOL    HW212762   0.604   3.291   5.144
 3955SOL     OW12763   5.991   3.481   0.337
 3955SOL    HW112764   5.902   3.464   0.295
 3955SOL    HW212765   6.059   3.419   0.297
 3956SOL     OW12766   6.478   3.544   5.433
 3956SOL    HW112767   6.412   3.472   5.453
 3956SOL    HW212768   6.430   3.631   5.419
 3957SOL     OW12769   0.746   2.094   1.957
 3957SOL    HW112770   0.762   2.014   1.899
 3957SOL    HW212771   0.822   2.104   2.021
 3958SOL     OW12772   5.362   0.244   0.547
 3958SOL    HW112773   5.285   0.290   0.504
 3958SOL    HW212774   5.344   0.232   0.645
 3959SOL     OW12775   2.471   5.420   1.608
 3959SOL    HW112776   2.530   5.416   1.528
 3959SOL    HW212777   2.503   5.492   1.670
 3960SOL     OW12778   5.139   3.371   1.006
 3960SOL    HW112779   5.066   3.339   1.067
 3960SOL    HW212780   5.176   3.293   0.955
 3961SOL     OW12781   6.333   0.225   1.647
 3961SOL    HW112782   6.343   0.164   1.726
 3961SOL    HW212783   6.237   0.250   1.636
 3962SOL     OW12784   0.668   6.347   5.934
 3962SOL    HW112785   0.637   6.398   6.014
 3962SOL    HW212786   0.695   6.412   5.862
 3963SOL     OW12787   4.873   4.404   3.589
 3963SOL    HW112788   4.776   4.389   3.566
 3963SOL    HW212789   4.898   4.345   3.665
 3964SOL     OW12790   5.536   6.109   0.038
 3964SOL    HW112791   5.513   6.030   0.095
 3964SOL    HW212792   5.486   6.189   0.069
 3965SOL     OW12793   3.438   3.710   0.889
 3965SOL    HW112794   3.489   3.648   0.948
 3965SOL    HW212795   3.384   3.658   0.823
 3966SOL     OW12796   6.252   4.240   5.448
 3966SOL    HW112797   6.242   4.339   5.441
 3966SOL    HW212798   6.164   4.196   5.431
 3967SOL     OW12799   1.722   6.623   0.159
 3967SOL    HW112800   1.690   6.707   0.202
 3967SOL    HW212801   1.662   6.600   0.082
 3968SOL     OW12802   5.149   2.129   1.219
 3968SOL    HW112803   5.236   2.093   1.252
 3968SOL    HW212804   5.080   2.118   1.291
 3969SOL     OW12805   0.243   5.691   1.070
 3969SOL    HW112806   0.340   5.681   1.093
 3969SOL    HW212807   0.195   5.606   1.091
 3970SOL     OW12808   5.095   4.352   4.119
 3970SOL    HW112809   5.018   4.396   4.073
 3970SOL    HW212810   5.174   4.352   4.058
 3971SOL     OW12811   0.017   5.900   3.975
 3971SOL    HW112812   7.017   5.943   4.062
 3971SOL    HW212813   6.960   5.873   3.926
 3972SOL     OW12814   0.543   0.252   6.680
 3972SOL    HW112815   0.628   0.266   6.630
 3972SOL    HW212816   0.546   0.164   6.727
 3973SOL     OW12817   3.333   2.908   3.565
 3973SOL    HW112818   3.389   2.955   3.496
 3973SOL    HW212819   3.289   2.829   3.523
 3974SOL     OW12820   5.535   1.275   6.661
 3974SOL    HW112821   5.528   1.214   6.740
 3974SOL    HW212822   5.546   1.221   6.578
 3975SOL     OW12823   0.193   6.073   5.329
 3975SOL    HW112824   0.280   6.105   5.367
 3975SOL    HW212825   0.192   6.088   5.230
 3976SOL     OW12826   0.630   2.827   6.788
 3976SOL    HW112827   0.624   2.856   6.884
 3976SOL    HW212828   0.595   2.734   6.779
 3977SOL     OW12829   3.237   5.954   4.740
 3977SOL    HW112830   3.301   5.879   4.729
 3977SOL    HW212831   3.180   5.962   4.658
 3978SOL     OW12832   6.529   3.977   6.765
 3978SOL    HW112833   6.527   4.044   6.838
 3978SOL    HW212834   6.560   3.889   6.801
 3979SOL     OW12835   1.390   6.829   3.114
 3979SOL    HW112836   1.384   6.740   3.160
 3979SOL    HW212837   1.302   6.875   3.118
 3980SOL     OW12838   4.858   3.898   4.079
 3980SOL    HW112839   4.932   3.840   4.046
 3980SOL    HW212840   4.796   3.920   4.003
 3981SOL     OW12841   6.915   1.546   6.038
 3981SOL    HW112842   6.868   1.484   6.101
 3981SOL    HW212843   7.005   1.509   6.016
 3982SOL     OW12844   2.200   3.157   3.979
 3982SOL    HW112845   2.278   3.217   3.963
 3982SOL    HW212846   2.165   3.124   3.891
 3983SOL     OW12847   2.901   6.860   4.113
 3983SOL    HW112848   2.857   6.776   4.082
 3983SOL    HW212849   2.909   6.924   4.037
 3984SOL     OW12850   1.777   6.470   1.750
 3984SOL    HW112851   1.841   6.463   1.826
 3984SOL    HW212852   1.712   6.544   1.768
 3985SOL     OW12853   2.254   3.109   1.726
 3985SOL    HW112854   2.349   3.136   1.710
 3985SOL    HW212855   2.193   3.183   1.697
 3986SOL     OW12856   1.402   2.009   2.107
 3986SOL    HW112857   1.446   2.005   2.017
 3986SOL    HW212858   1.413   1.921   2.153
 3987SOL     OW12859   1.616   3.972   5.576
 3987SOL    HW112860   1.556   3.927   5.642
 3987SOL    HW212861   1.571   4.053   5.539
 3988SOL     OW12862   5.039   0.729   0.484
 3988SOL    HW112863   4.985   0.721   0.400
 3988SOL    HW212864   5.119   0.670   0.478
 3989SOL     OW12865   4.290   1.149   5.688
 3989SOL    HW112866   4.284   1.063   5.738
 3989SOL    HW212867   4.298   1.225   5.753
 3990SOL     OW12868   0.681   2.043   3.610
 3990SOL    HW112869   0.589   2.058   3.573
 3990SOL    HW212870   0.710   2.124   3.661
 3991SOL     OW12871   0.868   1.498   3.933
 3991SOL    HW112872   0.880   1.479   3.835
 3991SOL    HW212873   0.770   1.507   3.953
 3992SOL     OW12874   6.212   3.748   6.991
 3992SOL    HW112875   6.136   3.794   6.944
 3992SOL    HW212876   6.191   3.744   0.064
 3993SOL     OW12877   1.727   0.781   3.963
 3993SOL    HW112878   1.674   0.837   3.900
 3993SOL    HW212879   1.825   0.795   3.947
 3994SOL     OW12880   2.701   2.030   2.913
 3994SOL    HW112881   2.781   2.016   2.971
 3994SOL    HW212882   2.688   2.127   2.896
 3995SOL     OW12883   1.536   3.368   2.045
 3995SOL    HW112884   1.596   3.444   2.071
 3995SOL    HW212885   1.586   3.282   2.057
 3996SOL     OW12886   5.774   6.227   4.553
 3996SOL    HW112887   5.700   6.208   4.617
 3996SOL    HW212888   5.853   6.265   4.602
 3997SOL     OW12889   4.967   3.654   2.712
 3997SOL    HW112890   4.938   3.724   2.646
 3997SOL    HW212891   4.991   3.570   2.663
 3998SOL     OW12892   4.803   1.936   3.088
 3998SOL    HW112893   4.789   2.029   3.055
 3998SOL    HW212894   4.890   1.931   3.137
 3999SOL     OW12895   4.229   3.274   1.253
 3999SOL    HW112896   4.158   3.323   1.303
 3999SOL    HW212897   4.186   3.207   1.192
 4000SOL     OW12898   2.817   5.196   2.483
 4000SOL    HW112899   2.853   5.279   2.440
 4000SOL    HW212900   2.822   5.120   2.419
 4001SOL     OW12901   0.094   5.356   4.347
 4001SOL    HW112902   0.125   5.430   4.287
 4001SOL    HW212903   7.022   5.338   4.331
 4002SOL     OW12904   3.984   3.952   4.057
 4002SOL    HW112905   3.904   3.974   4.113
 4002SOL    HW212906   4.042   4.033   4.048
 4003SOL     OW12907   1.540   0.707   4.987
 4003SOL    HW112908   1.612   0.650   4.948
 4003SOL    HW212909   1.571   0.802   4.992
 4004SOL     OW12910   1.162   3.433   4.128
 4004SOL    HW112911   1.166   3.336   4.105
 4004SOL    HW212912   1.125   3.443   4.221
 4005SOL     OW12913   4.852   3.505   0.090
 4005SOL    HW112914   4.919   3.567   0.131
 4005SOL    HW212915   4.761   3.526   0.125
 4006SOL     OW12916   6.843   5.536   2.143
 4006SOL    HW112917   6.803   5.522   2.052
 4006SOL    HW212918   6.831   5.632   2.170
 4007SOL     OW12919   0.230   0.429   2.118
 4007SOL    HW112920   0.246   0.433   2.217
 4007SOL    HW212921   0.138   0.460   2.098
 4008SOL     OW12922   2.976   1.064   1.070
 4008SOL    HW112923   2.918   1.015   1.006
 4008SOL    HW212924   3.031   0.999   1.122
 4009SOL     OW12925   4.858   2.400   0.862
 4009SOL    HW112926   4.905   2.330   0.916
 4009SOL    HW212927   4.926   2.456   0.814
 4010SOL     OW12928   2.172   5.501   1.462
 4010SOL    HW112929   2.211   5.528   1.374
 4010SOL    HW212930   2.072   5.507   1.457
 4011SOL     OW12931   5.443   6.105   5.788
 4011SOL    HW112932   5.359   6.119   5.736
 4011SOL    HW212933   5.454   6.179   5.854
 4012SOL     OW12934   5.032   6.556   2.687
 4012SOL    HW112935   4.968   6.632   2.675
 4012SOL    HW212936   5.005   6.481   2.626
 4013SOL     OW12937   0.269   1.103   5.968
 4013SOL    HW112938   0.279   1.170   6.042
 4013SOL    HW212939   0.199   1.037   5.993
 4014SOL     OW12940   3.067   5.086   2.030
 4014SOL    HW112941   2.995   5.070   2.098
 4014SOL    HW212942   3.135   5.013   2.036
 4015SOL     OW12943   4.353   5.294   6.251
 4015SOL    HW112944   4.276   5.320   6.193
 4015SOL    HW212945   4.412   5.230   6.202
 4016SOL     OW12946   5.278   5.016   4.747
 4016SOL    HW112947   5.189   4.992   4.708
 4016SOL    HW212948   5.332   5.066   4.679
 4017SOL     OW12949   1.086   4.567   5.995
 4017SOL    HW112950   1.038   4.608   5.918
 4017SOL    HW212951   1.176   4.610   6.005
 4018SOL     OW12952   4.113   6.135   1.243
 4018SOL    HW112953   4.172   6.082   1.182
 4018SOL    HW212954   4.156   6.224   1.262
 4019SOL     OW12955   5.726   4.314   2.026
 4019SOL    HW112956   5.627   4.321   2.010
 4019SOL    HW212957   5.743   4.306   2.125
 4020SOL     OW12958   6.828   5.160   4.556
 4020SOL    HW112959   6.742   5.195   4.519
 4020SOL    HW212960   6.871   5.229   4.614
 4021SOL     OW12961   4.726   4.230   6.083
 4021SOL    HW112962   4.723   4.322   6.122
 4021SOL    HW212963   4.694   4.164   6.151
 4022SOL     OW12964   3.185   6.999   1.458
 4022SOL    HW112965   3.168   0.070   1.477
 4022SOL    HW212966   3.170   6.945   1.541
 4023SOL     OW12967   0.391   1.434   4.185
 4023SOL    HW112968   0.300   1.462   4.152
 4023SOL    HW212969   0.380   1.372   4.262
 4024SOL     OW12970   0.540   6.794   4.603
 4024SOL    HW112971   0.568   6.705   4.640
 4024SOL    HW212972   0.617   6.834   4.553
 4025SOL     OW12973   7.015   5.679   3.176
 4025SOL    HW112974   6.944   5.741   3.143
 4025SOL    HW212975   6.974   5.596   3.212
 4026SOL     OW12976   0.360   0.144   3.823
 4026SOL    HW112977   0.392   0.055   3.855
 4026SOL    HW212978   0.415   0.174   3.745
 4027SOL     OW12979   3.209   4.617   5.676
 4027SOL    HW112980   3.122   4.606   5.628
 4027SOL    HW212981   3.276   4.552   5.640
 4028SOL     OW12982   4.725   0.836   3.481
 4028SOL    HW112983   4.725   0.936   3.493
 4028SOL    HW212984   4.662   0.811   3.407
 4029SOL     OW12985   1.885   6.241   0.043
 4029SOL    HW112986   1.786   6.244   0.057
 4029SOL    HW212987   1.931   6.236   0.131
 4030SOL     OW12988   0.528   1.678   2.691
 4030SOL    HW112989   0.519   1.776   2.708
 4030SOL    HW212990   0.481   1.628   2.763
 4031SOL     OW12991   5.961   6.199   0.206
 4031SOL    HW112992   5.911   6.161   0.128
 4031SOL    HW212993   6.046   6.241   0.173
 4032SOL     OW12994   4.654   0.591   2.595
 4032SOL    HW112995   4.733   0.537   2.566
 4032SOL    HW212996   4.599   0.536   2.659
 4033SOL     OW12997   1.882   2.305   2.487
 4033SOL    HW112998   1.940   2.231   2.523
 4033SOL    HW212999   1.939   2.384   2.465
 4034SOL     OW13000   0.422   3.124   5.392
 4034SOL    HW113001   0.517   3.137   5.419
 4034SOL    HW213002   0.391   3.034   5.422
 4035SOL     OW13003   4.513   2.133   1.760
 4035SOL    HW113004   4.549   2.226   1.761
 4035SOL    HW213005   4.588   2.068   1.770
 4036SOL     OW13006   3.126   5.774   3.508
 4036SOL    HW113007   3.115   5.871   3.530
 4036SOL    HW213008   3.214   5.759   3.463
 4037SOL     OW13009   2.566   1.936   5.852
 4037SOL    HW113010   2.511   1.868   5.804
 4037SOL    HW213011   2.647   1.959   5.797
 4038SOL     OW13012   3.517   4.770   5.980
 4038SOL    HW113013   3.603   4.750   5.932
 4038SOL    HW213014   3.499   4.868   5.977
 4039SOL     OW13015   5.650   5.135   1.082
 4039SOL    HW113016   5.622   5.169   1.171
 4039SOL    HW213017   5.704   5.051   1.093
 4040SOL     OW13018   2.850   6.667   4.961
 4040SOL    HW113019   2.938   6.712   4.941
 4040SOL    HW213020   2.866   6.570   4.978
 4041SOL     OW13021   2.266   6.707   1.241
 4041SOL    HW113022   2.357   6.715   1.281
 4041SOL    HW213023   2.266   6.747   1.149
 4042SOL     OW13024   6.545   1.409   3.007
 4042SOL    HW113025   6.601   1.492   3.005
 4042SOL    HW213026   6.584   1.344   3.072
 4043SOL     OW13027   5.455   3.449   6.133
 4043SOL    HW113028   5.405   3.421   6.051
 4043SOL    HW213029   5.404   3.522   6.179
 4044SOL     OW13030   4.871   4.521   3.202
 4044SOL    HW113031   4.779   4.487   3.218
 4044SOL    HW213032   4.871   4.581   3.121
 4045SOL     OW13033   5.164   1.195   5.234
 4045SOL    HW113034   5.111   1.279   5.224
 4045SOL    HW213035   5.201   1.168   5.145
 4046SOL     OW13036   5.975   1.737   2.942
 4046SOL    HW113037   5.908   1.798   2.984
 4046SOL    HW213038   6.028   1.690   3.013
 4047SOL     OW13039   2.708   3.078   6.804
 4047SOL    HW113040   2.695   3.144   6.731
 4047SOL    HW213041   2.640   3.004   6.794
 4048SOL     OW13042   4.477   2.289   2.151
 4048SOL    HW113043   4.565   2.330   2.177
 4048SOL    HW213044   4.409   2.314   2.220
 4049SOL     OW13045   3.922   4.556   0.394
 4049SOL    HW113046   3.932   4.563   0.295
 4049SOL    HW213047   4.012   4.543   0.436
 4050SOL     OW13048   1.202   5.334   2.442
 4050SOL    HW113049   1.168   5.287   2.523
 4050SOL    HW213050   1.201   5.272   2.364
 4051SOL     OW13051   5.760   1.210   4.665
 4051SOL    HW113052   5.776   1.268   4.745
 4051SOL    HW213053   5.763   1.114   4.692
 4052SOL     OW13054   6.121   1.920   3.210
 4052SOL    HW113055   6.169   1.855   3.269
 4052SOL    HW213056   6.157   1.913   3.117
 4053SOL     OW13057   1.328   5.398   4.373
 4053SOL    HW113058   1.327   5.310   4.422
 4053SOL    HW213059   1.235   5.425   4.351
 4054SOL     OW13060   3.943   4.017   1.213
 4054SOL    HW113061   3.869   4.052   1.270
 4054SOL    HW213062   3.973   3.928   1.247
 4055SOL     OW13063   1.170   4.453   0.467
 4055SOL    HW113064   1.086   4.489   0.426
 4055SOL    HW213065   1.246   4.515   0.446
 4056SOL     OW13066   5.228   3.580   0.458
 4056SOL    HW113067   5.306   3.642   0.462
 4056SOL    HW213068   5.246   3.500   0.516
 4057SOL     OW13069   0.518   3.990   0.100
 4057SOL    HW113070   0.468   3.910   0.066
 4057SOL    HW213071   0.528   4.056   0.025
 4058SOL     OW13072   2.519   0.647   5.506
 4058SOL    HW113073   2.575   0.684   5.432
 4058SOL    HW213074   2.428   0.689   5.503
 4059SOL     OW13075   0.124   1.778   3.699
 4059SOL    HW113076   0.121   1.819   3.608
 4059SOL    HW213077   0.093   1.844   3.767
 4060SOL     OW13078   6.302   6.374   4.963
 4060SOL    HW113079   6.215   6.403   5.003
 4060SOL    HW213080   6.367   6.352   5.036
 4061SOL     OW13081   1.330   5.313   0.546
 4061SOL    HW113082   1.350   5.376   0.621
 4061SOL    HW213083   1.379   5.227   0.561
 4062SOL     OW13084   1.636   2.675   1.211
 4062SOL    HW113085   1.664   2.700   1.119
 4062SOL    HW213086   1.717   2.649   1.264
 4063SOL     OW13087   4.222   0.503   0.159
 4063SOL    HW113088   4.187   0.428   0.102
 4063SOL    HW213089   4.235   0.584   0.102
 4064SOL     OW13090   1.853   1.683   5.598
 4064SOL    HW113091   1.849   1.760   5.662
 4064SOL    HW213092   1.760   1.657   5.572
 4065SOL     OW13093   2.762   6.489   0.847
 4065SOL    HW113094   2.810   6.575   0.864
 4065SOL    HW213095   2.693   6.474   0.918
 4066SOL     OW13096   0.637   3.818   3.458
 4066SOL    HW113097   0.618   3.908   3.419
 4066SOL    HW213098   0.734   3.796   3.444
 4067SOL     OW13099   5.044   5.105   0.443
 4067SOL    HW113100   5.084   5.039   0.506
 4067SOL    HW213101   5.012   5.185   0.493
 4068SOL     OW13102   2.376   2.704   4.859
 4068SOL    HW113103   2.413   2.663   4.942
 4068SOL    HW213104   2.429   2.786   4.835
 4069SOL     OW13105   4.566   6.917   6.275
 4069SOL    HW113106   4.644   6.943   6.218
 4069SOL    HW213107   4.567   6.971   6.359
 4070SOL     OW13108   1.210   3.217   3.273
 4070SOL    HW113109   1.222   3.171   3.185
 4070SOL    HW213110   1.286   3.280   3.288
 4071SOL     OW13111   1.311   0.490   3.645
 4071SOL    HW113112   1.365   0.409   3.625
 4071SOL    HW213113   1.307   0.549   3.564
 4072SOL     OW13114   2.362   5.622   2.960
 4072SOL    HW113115   2.335   5.666   3.046
 4072SOL    HW213116   2.449   5.574   2.973
 4073SOL     OW13117   3.324   4.724   0.141
 4073SOL    HW113118   3.396   4.678   0.193
 4073SOL    HW213119   3.296   4.807   0.190
 4074SOL     OW13120   1.867   5.286   3.004
 4074SOL    HW113121   1.825   5.264   2.917
 4074SOL    HW213122   1.798   5.320   3.067
 4075SOL     OW13123   6.774   1.226   1.051
 4075SOL    HW113124   6.728   1.154   1.103
 4075SOL    HW213125   6.828   1.185   0.978
 4076SOL     OW13126   2.337   4.120   5.401
 4076SOL    HW113127   2.342   4.137   5.302
 4076SOL    HW213128   2.429   4.109   5.437
 4077SOL     OW13129   2.796   0.558   1.950
 4077SOL    HW113130   2.718   0.498   1.969
 4077SOL    HW213131   2.880   0.505   1.953
 4078SOL     OW13132   3.188   5.028   2.674
 4078SOL    HW113133   3.150   4.961   2.610
 4078SOL    HW213134   3.118   5.054   2.740
 4079SOL     OW13135   1.078   2.306   4.128
 4079SOL    HW113136   1.165   2.262   4.150
 4079SOL    HW213137   1.004   2.256   4.172
 4080SOL     OW13138   6.283   1.873   5.052
 4080SOL    HW113139   6.198   1.888   5.003
 4080SOL    HW213140   6.351   1.832   4.991
 4081SOL     OW13141   1.457   3.523   3.799
 4081SOL    HW113142   1.439   3.576   3.882
 4081SOL    HW213143   1.400   3.557   3.725
 4082SOL     OW13144   1.017   3.322   1.071
 4082SOL    HW113145   0.990   3.282   0.983
 4082SOL    HW213146   0.941   3.316   1.135
 4083SOL     OW13147   5.686   2.751   4.562
 4083SOL    HW113148   5.608   2.690   4.575
 4083SOL    HW213149   5.662   2.843   4.595
 4084SOL     OW13150   0.593   1.714   4.051
 4084SOL    HW113151   0.576   1.630   3.999
 4084SOL    HW213152   0.595   1.692   4.149
 4085SOL     OW13153   2.986   5.980   0.601
 4085SOL    HW113154   2.968   6.026   0.688
 4085SOL    HW213155   2.960   5.883   0.609
 4086SOL     OW13156   1.131   5.146   0.486
 4086SOL    HW113157   1.091   5.109   0.570
 4086SOL    HW213158   1.207   5.207   0.509
 4087SOL     OW13159   1.626   1.648   2.820
 4087SOL    HW113160   1.574   1.583   2.876
 4087SOL    HW213161   1.579   1.736   2.819
 4088SOL     OW13162   6.773   1.854   1.155
 4088SOL    HW113163   6.697   1.794   1.180
 4088SOL    HW213164   6.858   1.816   1.191
 4089SOL     OW13165   0.998   0.885   4.950
 4089SOL    HW113166   1.012   0.922   5.041
 4089SOL    HW213167   1.008   0.785   4.952
 4090SOL     OW13168   1.995   4.307   5.683
 4090SOL    HW113169   1.960   4.352   5.765
 4090SOL    HW213170   1.957   4.214   5.677
 4091SOL     OW13171   4.949   6.152   0.415
 4091SOL    HW113172   4.962   6.072   0.472
 4091SOL    HW213173   4.851   6.166   0.399
 4092SOL     OW13174   0.140   2.934   4.735
 4092SOL    HW113175   0.060   2.926   4.794
 4092SOL    HW213176   0.110   2.941   4.640
 4093SOL     OW13177   5.820   0.771   4.175
 4093SOL    HW113178   5.758   0.839   4.135
 4093SOL    HW213179   5.814   0.686   4.123
 4094SOL     OW13180   2.500   4.345   5.235
 4094SOL    HW113181   2.589   4.358   5.279
 4094SOL    HW213182   2.493   4.251   5.202
 4095SOL     OW13183   1.415   3.501   6.693
 4095SOL    HW113184   1.339   3.525   6.753
 4095SOL    HW213185   1.501   3.506   6.745
 4096SOL     OW13186   4.180   4.740   1.431
 4096SOL    HW113187   4.140   4.831   1.445
 4096SOL    HW213188   4.267   4.735   1.479
 4097SOL     OW13189   3.350   3.777   5.078
 4097SOL    HW113190   3.381   3.684   5.059
 4097SOL    HW213191   3.295   3.777   5.161
 4098SOL     OW13192   0.302   2.112   3.075
 4098SOL    HW113193   0.320   2.053   3.154
 4098SOL    HW213194   0.215   2.086   3.033
 4099SOL     OW13195   4.201   6.234   1.922
 4099SOL    HW113196   4.177   6.183   2.005
 4099SOL    HW213197   4.172   6.183   1.841
 4100SOL     OW13198   4.032   5.577   3.614
 4100SOL    HW113199   3.937   5.547   3.626
 4100SOL    HW213200   4.085   5.553   3.696
 4101SOL     OW13201   5.199   1.250   6.101
 4101SOL    HW113202   5.260   1.209   6.169
 4101SOL    HW213203   5.107   1.258   6.140
 4102SOL     OW13204   6.057   1.291   0.571
 4102SOL    HW113205   6.075   1.306   0.474
 4102SOL    HW213206   6.069   1.194   0.593
 4103SOL     OW13207   0.667   0.253   2.302
 4103SOL    HW113208   0.635   0.347   2.293
 4103SOL    HW213209   0.624   0.209   2.380
 4104SOL     OW13210   1.703   4.804   2.998
 4104SOL    HW113211   1.708   4.900   2.973
 4104SOL    HW213212   1.785   4.779   3.050
 4105SOL     OW13213   4.758   4.758   6.976
 4105SOL    HW113214   4.786   4.778   6.882
 4105SOL    HW213215   4.721   4.665   6.980
 4106SOL     OW13216   6.704   3.906   5.062
 4106SOL    HW113217   6.693   3.991   5.012
 4106SOL    HW213218   6.790   3.862   5.034
 4107SOL     OW13219   0.355   0.459   1.078
 4107SOL    HW113220   0.294   0.477   1.000
 4107SOL    HW213221   0.385   0.546   1.117
 4108SOL     OW13222   6.467   3.849   5.789
 4108SOL    HW113223   6.522   3.767   5.804
 4108SOL    HW213224   6.493   3.892   5.703
 4109SOL     OW13225   3.414   5.960   3.867
 4109SOL    HW113226   3.442   5.866   3.850
 4109SOL    HW213227   3.377   6.000   3.783
 4110SOL     OW13228   5.090   3.592   6.034
 4110SOL    HW113229   5.022   3.664   6.019
 4110SOL    HW213230   5.098   3.536   5.952
 4111SOL     OW13231   4.413   3.240   6.598
 4111SOL    HW113232   4.490   3.302   6.605
 4111SOL    HW213233   4.445   3.145   6.606
 4112SOL     OW13234   3.467   1.452   4.093
 4112SOL    HW113235   3.554   1.425   4.052
 4112SOL    HW213236   3.454   1.551   4.085
 4113SOL     OW13237   3.365   5.060   4.642
 4113SOL    HW113238   3.396   5.121   4.569
 4113SOL    HW213239   3.266   5.067   4.652
 4114SOL     OW13240   2.966   1.936   2.412
 4114SOL    HW113241   2.924   2.004   2.473
 4114SOL    HW213242   3.037   1.887   2.462
 4115SOL     OW13243   5.008   4.706   1.810
 4115SOL    HW113244   4.945   4.770   1.854
 4115SOL    HW213245   5.096   4.750   1.794
 4116SOL     OW13246   3.225   1.229   2.096
 4116SOL    HW113247   3.204   1.181   2.181
 4116SOL    HW213248   3.285   1.173   2.040
 4117SOL     OW13249   1.423   5.977   1.061
 4117SOL    HW113250   1.343   5.928   1.028
 4117SOL    HW213251   1.477   5.918   1.120
 4118SOL     OW13252   1.919   6.383   0.643
 4118SOL    HW113253   1.951   6.378   0.548
 4118SOL    HW213254   1.968   6.316   0.699
 4119SOL     OW13255   3.989   0.676   3.620
 4119SOL    HW113256   3.959   0.762   3.662
 4119SOL    HW213257   4.088   0.678   3.606
 4120SOL     OW13258   3.876   0.482   2.017
 4120SOL    HW113259   3.804   0.547   1.992
 4120SOL    HW213260   3.866   0.399   1.963
 4121SOL     OW13261   6.546   3.088   5.175
 4121SOL    HW113262   6.522   3.170   5.123
 4121SOL    HW213263   6.555   3.010   5.113
 4122SOL     OW13264   1.482   5.917   6.008
 4122SOL    HW113265   1.454   5.876   6.094
 4122SOL    HW213266   1.447   6.010   6.001
 4123SOL     OW13267   5.231   4.065   6.266
 4123SOL    HW113268   5.176   4.142   6.234
 4123SOL    HW213269   5.313   4.099   6.312
 4124SOL     OW13270   5.442   0.147   3.926
 4124SOL    HW113271   5.420   0.092   4.006
 4124SOL    HW213272   5.514   0.103   3.873
 4125SOL     OW13273   4.554   1.208   1.090
 4125SOL    HW113274   4.535   1.249   1.000
 4125SOL    HW213275   4.522   1.270   1.162
 4126SOL     OW13276   2.204   4.289   4.422
 4126SOL    HW113277   2.275   4.339   4.473
 4126SOL    HW213278   2.218   4.302   4.324
 4127SOL     OW13279   6.115   3.593   5.871
 4127SOL    HW113280   6.061   3.637   5.799
 4127SOL    HW213281   6.061   3.519   5.912
 4128SOL     OW13282   0.927   2.362   2.697
 4128SOL    HW113283   0.988   2.387   2.772
 4128SOL    HW213284   0.840   2.411   2.707
 4129SOL     OW13285   5.623   2.408   5.984
 4129SOL    HW113286   5.558   2.406   5.908
 4129SOL    HW213287   5.696   2.343   5.967
 4130SOL     OW13288   5.986   3.944   0.768
 4130SOL    HW113289   6.003   3.891   0.851
 4130SOL    HW213290   6.073   3.977   0.731
 4131SOL     OW13291   6.404   4.797   3.756
 4131SOL    HW113292   6.413   4.703   3.788
 4131SOL    HW213293   6.423   4.800   3.658
 4132SOL     OW13294   4.995   2.489   3.549
 4132SOL    HW113295   4.908   2.450   3.521
 4132SOL    HW213296   5.035   2.541   3.474
 4133SOL     OW13297   3.334   1.264   1.205
 4133SOL    HW113298   3.411   1.203   1.186
 4133SOL    HW213299   3.293   1.240   1.293
 4134SOL     OW13300   1.101   1.449   6.953
 4134SOL    HW113301   1.127   1.538   6.916
 4134SOL    HW213302   1.078   1.387   6.878
 4135SOL     OW13303   1.423   0.888   1.770
 4135SOL    HW113304   1.490   0.865   1.840
 4135SOL    HW213305   1.334   0.851   1.795
 4136SOL     OW13306   0.491   2.229   3.518
 4136SOL    HW113307   0.467   2.261   3.426
 4136SOL    HW213308   0.485   2.304   3.582
 4137SOL     OW13309   3.169   4.611   6.151
 4137SOL    HW113310   3.229   4.572   6.222
 4137SOL    HW213311   3.225   4.660   6.084
 4138SOL     OW13312   4.278   4.792   3.156
 4138SOL    HW113313   4.362   4.831   3.193
 4138SOL    HW213314   4.252   4.842   3.073
 4139SOL     OW13315   2.192   1.567   0.162
 4139SOL    HW113316   2.122   1.524   0.104
 4139SOL    HW213317   2.230   1.646   0.114
 4140SOL     OW13318   5.037   1.444   5.260
 4140SOL    HW113319   5.000   1.531   5.293
 4140SOL    HW213320   4.978   1.408   5.188
 4141SOL     OW13321   5.271   5.809   0.602
 4141SOL    HW113322   5.288   5.889   0.544
 4141SOL    HW213323   5.331   5.734   0.575
 4142SOL     OW13324   6.220   3.868   1.421
 4142SOL    HW113325   6.224   3.921   1.506
 4142SOL    HW213326   6.268   3.781   1.434
 4143SOL     OW13327   7.005   2.776   0.899
 4143SOL    HW113328   6.934   2.749   0.966
 4143SOL    HW213329   6.966   2.843   0.835
 4144SOL     OW13330   4.871   0.824   2.789
 4144SOL    HW113331   4.910   0.874   2.867
 4144SOL    HW213332   4.772   0.820   2.798
 4145SOL     OW13333   1.831   6.751   2.343
 4145SOL    HW113334   1.753   6.689   2.338
 4145SOL    HW213335   1.806   6.832   2.397
 4146SOL     OW13336   5.254   6.811   0.384
 4146SOL    HW113337   5.180   6.763   0.336
 4146SOL    HW213338   5.297   6.876   0.321
 4147SOL     OW13339   3.511   1.955   5.434
 4147SOL    HW113340   3.478   1.868   5.472
 4147SOL    HW213341   3.545   2.013   5.508
 4148SOL     OW13342   6.698   0.586   3.392
 4148SOL    HW113343   6.699   0.663   3.455
 4148SOL    HW213344   6.610   0.585   3.343
 4149SOL     OW13345   5.693   3.969   1.898
 4149SOL    HW113346   5.706   3.894   1.833
 4149SOL    HW213347   5.687   4.056   1.848
 4150SOL     OW13348   5.429   0.631   6.502
 4150SOL    HW113349   5.475   0.572   6.568
 4150SOL    HW213350   5.336   0.651   6.533
 4151SOL     OW13351   0.841   4.813   0.675
 4151SOL    HW113352   0.792   4.899   0.656
 4151SOL    HW213353   0.833   4.791   0.772
 4152SOL     OW13354   3.749   4.299   1.405
 4152SOL    HW113355   3.793   4.343   1.484
 4152SOL    HW213356   3.738   4.202   1.424
 4153SOL     OW13357   6.453   4.685   5.846
 4153SOL    HW113358   6.518   4.715   5.916
 4153SOL    HW213359   6.363   4.722   5.865
 4154SOL     OW13360   5.436   2.700   6.065
 4154SOL    HW113361   5.356   2.641   6.053
 4154SOL    HW213362   5.451   2.752   5.981
 4155SOL     OW13363   0.968   3.458   1.476
 4155SOL    HW113364   0.946   3.530   1.542
 4155SOL    HW213365   1.053   3.481   1.429
 4156SOL     OW13366   5.908   6.744   5.452
 4156SOL    HW113367   6.001   6.780   5.461
 4156SOL    HW213368   5.855   6.770   5.533
 4157SOL     OW13369   3.496   0.893   5.150
 4157SOL    HW113370   3.422   0.942   5.196
 4157SOL    HW213371   3.582   0.941   5.165
 4158SOL     OW13372   1.001   6.433   3.635
 4158SOL    HW113373   0.978   6.432   3.732
 4158SOL    HW213374   0.951   6.508   3.590
 4159SOL     OW13375   1.281   2.745   5.147
 4159SOL    HW113376   1.376   2.768   5.127
 4159SOL    HW213377   1.244   2.808   5.215
 4160SOL     OW13378   1.245   1.077   1.134
 4160SOL    HW113379   1.263   1.038   1.224
 4160SOL    HW213380   1.194   1.010   1.079
 4161SOL     OW13381   6.349   1.757   0.566
 4161SOL    HW113382   6.331   1.666   0.603
 4161SOL    HW213383   6.264   1.800   0.539
 4162SOL     OW13384   6.127   0.075   5.429
 4162SOL    HW113385   6.131   0.157   5.371
 4162SOL    HW213386   6.177   0.001   5.385
 4163SOL     OW13387   5.503   1.314   4.147
 4163SOL    HW113388   5.456   1.268   4.223
 4163SOL    HW213389   5.556   1.391   4.182
 4164SOL     OW13390   2.007   0.607   6.358
 4164SOL    HW113391   2.062   0.675   6.311
 4164SOL    HW213392   1.918   0.600   6.314
 4165SOL     OW13393   4.249   6.643   2.670
 4165SOL    HW113394   4.266   6.679   2.578
 4165SOL    HW213395   4.324   6.669   2.730
 4166SOL     OW13396   5.964   2.590   0.714
 4166SOL    HW113397   5.864   2.591   0.714
 4166SOL    HW213398   5.998   2.672   0.669
 4167SOL     OW13399   2.174   2.866   1.544
 4167SOL    HW113400   2.196   2.888   1.449
 4167SOL    HW213401   2.148   2.950   1.592
 4168SOL     OW13402   1.510   5.503   1.158
 4168SOL    HW113403   1.557   5.417   1.176
 4168SOL    HW213404   1.540   5.541   1.071
 4169SOL     OW13405   5.969   3.453   4.494
 4169SOL    HW113406   5.905   3.495   4.559
 4169SOL    HW213407   6.010   3.523   4.436
 4170SOL     OW13408   4.462   2.674   5.215
 4170SOL    HW113409   4.368   2.702   5.232
 4170SOL    HW213410   4.463   2.579   5.186
 4171SOL     OW13411   5.664   3.700   1.702
 4171SOL    HW113412   5.568   3.690   1.729
 4171SOL    HW213413   5.673   3.684   1.604
 4172SOL     OW13414   1.462   1.958   0.321
 4172SOL    HW113415   1.493   1.925   0.232
 4172SOL    HW213416   1.491   2.052   0.334
 4173SOL     OW13417   5.384   3.535   4.914
 4173SOL    HW113418   5.323   3.591   4.857
 4173SOL    HW213419   5.364   3.553   5.010
 4174SOL     OW13420   4.672   1.224   4.407
 4174SOL    HW113421   4.647   1.128   4.420
 4174SOL    HW213422   4.604   1.268   4.349
 4175SOL     OW13423   2.826   0.628   2.694
 4175SOL    HW113424   2.877   0.576   2.626
 4175SOL    HW213425   2.771   0.566   2.750
 4176SOL     OW13426   5.985   6.509   2.854
 4176SOL    HW113427   5.944   6.479   2.940
 4176SOL    HW213428   6.012   6.429   2.800
 4177SOL     OW13429   0.095   6.117   2.917
 4177SOL    HW113430   0.172   6.053   2.915
 4177SOL    HW213431   0.021   6.079   2.972
 4178SOL     OW13432   3.901   2.161   5.546
 4178SOL    HW113433   3.899   2.072   5.501
 4178SOL    HW213434   3.968   2.160   5.620
 4179SOL     OW13435   5.283   3.040   5.799
 4179SOL    HW113436   5.320   2.948   5.814
 4179SOL    HW213437   5.248   3.047   5.705
 4180SOL     OW13438   4.274   3.796   1.739
 4180SOL    HW113439   4.249   3.890   1.717
 4180SOL    HW213440   4.366   3.777   1.703
 4181SOL     OW13441   0.507   0.820   7.000
 4181SOL    HW113442   0.515   0.763   0.057
 4181SOL    HW213443   0.475   0.911   0.001
 4182SOL     OW13444   5.370   0.858   3.027
 4182SOL    HW113445   5.390   0.955   3.014
 4182SOL    HW213446   5.431   0.804   2.968
 4183SOL     OW13447   1.413   1.952   1.442
 4183SOL    HW113448   1.485   1.994   1.497
 4183SOL    HW213449   1.333   2.012   1.439
 4184SOL     OW13450   4.189   5.521   0.222
 4184SOL    HW113451   4.240   5.560   0.146
 4184SOL    HW213452   4.137   5.593   0.268
 4185SOL     OW13453   0.206   0.551   4.013
 4185SOL    HW113454   0.301   0.548   4.043
 4185SOL    HW213455   0.166   0.459   4.020
 4186SOL     OW13456   2.816   4.152   0.741
 4186SOL    HW113457   2.818   4.061   0.783
 4186SOL    HW213458   2.755   4.211   0.793
 4187SOL     OW13459   3.996   3.826   6.816
 4187SOL    HW113460   3.902   3.846   6.845
 4187SOL    HW213461   4.060   3.860   6.885
 4188SOL     OW13462   4.957   6.536   4.510
 4188SOL    HW113463   5.034   6.593   4.536
 4188SOL    HW213464   4.897   6.587   4.448
 4189SOL     OW13465   2.136   2.489   3.806
 4189SOL    HW113466   2.073   2.430   3.755
 4189SOL    HW213467   2.213   2.434   3.838
 4190SOL     OW13468   3.137   0.407   1.212
 4190SOL    HW113469   3.216   0.370   1.261
 4190SOL    HW213470   3.054   0.363   1.246
 4191SOL     OW13471   6.535   1.475   2.327
 4191SOL    HW113472   6.511   1.559   2.376
 4191SOL    HW213473   6.621   1.438   2.363
 4192SOL     OW13474   6.291   1.625   3.322
 4192SOL    HW113475   6.337   1.713   3.323
 4192SOL    HW213476   6.326   1.567   3.396
 4193SOL     OW13477   1.525   0.051   2.139
 4193SOL    HW113478   1.580   6.994   2.127
 4193SOL    HW213479   1.429   0.030   2.120
 4194SOL     OW13480   0.458   0.863   4.474
 4194SOL    HW113481   0.443   0.934   4.543
 4194SOL    HW213482   0.473   0.775   4.518
 4195SOL     OW13483   4.720   0.802   1.809
 4195SOL    HW113484   4.682   0.787   1.901
 4195SOL    HW213485   4.687   0.889   1.774
 4196SOL     OW13486   4.626   2.648   3.612
 4196SOL    HW113487   4.586   2.559   3.637
 4196SOL    HW213488   4.644   2.649   3.513
 4197SOL     OW13489   4.505   4.540   3.899
 4197SOL    HW113490   4.544   4.481   3.970
 4197SOL    HW213491   4.443   4.606   3.940
 4198SOL     OW13492   5.728   3.593   5.596
 4198SOL    HW113493   5.649   3.622   5.543
 4198SOL    HW213494   5.698   3.552   5.683
 4199SOL     OW13495   3.048   4.027   5.734
 4199SOL    HW113496   2.997   3.954   5.689
 4199SOL    HW213497   3.116   3.988   5.795
 4200SOL     OW13498   2.230   0.128   6.566
 4200SOL    HW113499   2.250   0.035   6.595
 4200SOL    HW213500   2.299   0.190   6.604
 4201SOL     OW13501   5.620   6.123   4.180
 4201SOL    HW113502   5.597   6.220   4.183
 4201SOL    HW213503   5.717   6.111   4.200
 4202SOL     OW13504   5.362   4.496   4.280
 4202SOL    HW113505   5.348   4.559   4.357
 4202SOL    HW213506   5.356   4.402   4.312
 4203SOL     OW13507   5.638   5.909   3.292
 4203SOL    HW113508   5.598   5.889   3.203
 4203SOL    HW213509   5.573   5.887   3.364
 4204SOL     OW13510   3.314   3.180   1.154
 4204SOL    HW113511   3.360   3.266   1.178
 4204SOL    HW213512   3.303   3.174   1.055
 4205SOL     OW13513   2.848   5.321   2.891
 4205SOL    HW113514   2.812   5.382   2.821
 4205SOL    HW213515   2.788   5.322   2.971
 4206SOL     OW13516   5.701   6.905   4.229
 4206SOL    HW113517   5.718   6.895   4.327
 4206SOL    HW213518   5.766   6.971   4.191
 4207SOL     OW13519   1.171   0.935   1.482
 4207SOL    HW113520   1.230   1.016   1.475
 4207SOL    HW213521   1.169   0.903   1.576
 4208SOL     OW13522   0.620   3.507   1.171
 4208SOL    HW113523   0.551   3.440   1.142
 4208SOL    HW213524   0.654   3.556   1.091
 4209SOL     OW13525   3.112   0.468   4.839
 4209SOL    HW113526   3.102   0.368   4.846
 4209SOL    HW213527   3.040   0.512   4.892
 4210SOL     OW13528   4.939   2.637   0.683
 4210SOL    HW113529   4.930   2.709   0.752
 4210SOL    HW213530   4.857   2.635   0.627
 4211SOL     OW13531   4.712   4.131   3.345
 4211SOL    HW113532   4.687   4.039   3.316
 4211SOL    HW213533   4.756   4.180   3.269
 4212SOL     OW13534   6.341   6.986   2.499
 4212SOL    HW113535   6.266   6.997   2.434
 4212SOL    HW213536   6.335   6.896   2.543
 4213SOL     OW13537   1.245   0.770   2.478
 4213SOL    HW113538   1.280   0.734   2.391
 4213SOL    HW213539   1.145   0.765   2.478
 4214SOL     OW13540   1.617   3.256   4.393
 4214SOL    HW113541   1.576   3.178   4.441
 4214SOL    HW213542   1.651   3.322   4.460
 4215SOL     OW13543   0.827   5.430   4.706
 4215SOL    HW113544   0.878   5.370   4.644
 4215SOL    HW213545   0.890   5.492   4.753
 4216SOL     OW13546   1.637   3.376   5.631
 4216SOL    HW113547   1.703   3.451   5.639
 4216SOL    HW213548   1.682   3.290   5.656
 4217SOL     OW13549   0.086   0.307   3.520
 4217SOL    HW113550   0.179   0.342   3.510
 4217SOL    HW213551   0.021   0.376   3.486
 4218SOL     OW13552   3.808   6.626   2.734
 4218SOL    HW113553   3.870   6.661   2.804
 4218SOL    HW213554   3.720   6.604   2.775
 4219SOL     OW13555   4.456   6.448   3.641
 4219SOL    HW113556   4.492   6.468   3.733
 4219SOL    HW213557   4.515   6.380   3.597
 4220SOL     OW13558   0.506   3.538   3.048
 4220SOL    HW113559   0.485   3.496   3.137
 4220SOL    HW213560   0.512   3.466   2.978
 4221SOL     OW13561   5.152   5.927   5.874
 4221SOL    HW113562   5.147   5.841   5.923
 4221SOL    HW213563   5.181   5.911   5.780
 4222SOL     OW13564   4.334   2.616   0.308
 4222SOL    HW113565   4.406   2.646   0.245
 4222SOL    HW213566   4.368   2.617   0.401
 4223SOL     OW13567   3.772   4.086   2.649
 4223SOL    HW113568   3.703   4.114   2.715
 4223SOL    HW213569   3.769   4.148   2.570
 4224SOL     OW13570   4.264   2.208   4.957
 4224SOL    HW113571   4.357   2.184   4.929
 4224SOL    HW213572   4.263   2.301   4.992
 4225SOL     OW13573   5.746   0.602   4.663
 4225SOL    HW113574   5.689   0.681   4.641
 4225SOL    HW213575   5.755   0.543   4.583
 4226SOL     OW13576   1.654   1.425   3.476
 4226SOL    HW113577   1.580   1.487   3.452
 4226SOL    HW213578   1.618   1.353   3.537
 4227SOL     OW13579   6.170   4.171   0.427
 4227SOL    HW113580   6.267   4.154   0.442
 4227SOL    HW213581   6.129   4.205   0.512
 4228SOL     OW13582   6.254   5.381   2.150
 4228SOL    HW113583   6.190   5.454   2.174
 4228SOL    HW213584   6.345   5.421   2.133
 4229SOL     OW13585   4.762   4.853   5.740
 4229SOL    HW113586   4.683   4.912   5.758
 4229SOL    HW213587   4.747   4.762   5.778
 4230SOL     OW13588   3.209   7.025   4.472
 4230SOL    HW113589   3.147   0.027   4.398
 4230SOL    HW213590   3.304   0.017   4.445
 4231SOL     OW13591   4.040   6.711   5.468
 4231SOL    HW113592   4.025   6.772   5.546
 4231SOL    HW213593   3.952   6.682   5.430
 4232SOL     OW13594   2.221   3.946   2.126
 4232SOL    HW113595   2.182   3.868   2.076
 4232SOL    HW213596   2.320   3.937   2.129
 4233SOL     OW13597   5.904   6.809   1.098
 4233SOL    HW113598   5.902   6.781   1.002
 4233SOL    HW213599   5.862   6.738   1.155
 4234SOL     OW13600   3.031   3.745   5.573
 4234SOL    HW113601   3.029   3.752   5.473
 4234SOL    HW213602   3.111   3.691   5.601
 4235SOL     OW13603   6.782   3.671   5.540
 4235SOL    HW113604   6.688   3.701   5.523
 4235SOL    HW213605   6.786   3.571   5.534
 4236SOL     OW13606   1.467   3.972   5.056
 4236SOL    HW113607   1.438   3.912   4.982
 4236SOL    HW213608   1.547   3.933   5.103
 4237SOL     OW13609   5.715   4.257   4.763
 4237SOL    HW113610   5.652   4.327   4.796
 4237SOL    HW213611   5.669   4.168   4.766
 4238SOL     OW13612   4.421   5.105   3.812
 4238SOL    HW113613   4.330   5.113   3.770
 4238SOL    HW213614   4.433   5.012   3.847
 4239SOL     OW13615   4.907   5.649   5.668
 4239SOL    HW113616   4.862   5.641   5.757
 4239SOL    HW213617   4.839   5.668   5.597
 4240SOL     OW13618   2.812   4.686   6.430
 4240SOL    HW113619   2.823   4.741   6.513
 4240SOL    HW213620   2.731   4.716   6.380
 4241SOL     OW13621   3.580   0.768   6.954
 4241SOL    HW113622   3.574   0.738   0.024
 4241SOL    HW213623   3.616   0.693   6.898
 4242SOL     OW13624   1.541   0.107   2.412
 4242SOL    HW113625   1.477   0.176   2.379
 4242SOL    HW213626   1.603   0.081   2.338
 4243SOL     OW13627   1.819   3.009   3.172
 4243SOL    HW113628   1.859   2.940   3.233
 4243SOL    HW213629   1.725   3.026   3.199
 4244SOL     OW13630   3.835   6.099   1.659
 4244SOL    HW113631   3.815   6.045   1.578
 4244SOL    HW213632   3.795   6.056   1.740
 4245SOL     OW13633   6.625   3.381   1.842
 4245SOL    HW113634   6.641   3.283   1.852
 4245SOL    HW213635   6.624   3.405   1.745
 4246SOL     OW13636   4.476   2.441   3.694
 4246SOL    HW113637   4.407   2.435   3.766
 4246SOL    HW213638   4.434   2.416   3.606
 4247SOL     OW13639   1.688   4.692   6.431
 4247SOL    HW113640   1.752   4.624   6.468
 4247SOL    HW213641   1.739   4.765   6.386
 4248SOL     OW13642   1.691   0.521   3.242
 4248SOL    HW113643   1.735   0.503   3.154
 4248SOL    HW213644   1.755   0.571   3.301
 4249SOL     OW13645   6.250   6.863   5.346
 4249SOL    HW113646   6.330   6.847   5.402
 4249SOL    HW213647   6.238   6.787   5.282
 4250SOL     OW13648   6.593   5.612   3.949
 4250SOL    HW113649   6.667   5.606   4.016
 4250SOL    HW213650   6.524   5.678   3.981
 4251SOL     OW13651   6.154   2.430   5.518
 4251SOL    HW113652   6.196   2.514   5.483
 4251SOL    HW213653   6.209   2.351   5.491
 4252SOL     OW13654   0.104   6.302   6.884
 4252SOL    HW113655   0.097   6.217   6.937
 4252SOL    HW213656   0.062   6.377   6.935
 4253SOL     OW13657   4.793   5.598   2.933
 4253SOL    HW113658   4.762   5.504   2.944
 4253SOL    HW213659   4.713   5.659   2.933
 4254SOL     OW13660   2.073   3.284   6.406
 4254SOL    HW113661   2.148   3.296   6.471
 4254SOL    HW213662   1.991   3.328   6.443
 4255SOL     OW13663   1.151   3.498   3.383
 4255SOL    HW113664   1.071   3.552   3.360
 4255SOL    HW213665   1.141   3.405   3.346
 4256SOL     OW13666   0.757   6.042   1.596
 4256SOL    HW113667   0.673   6.063   1.646
 4256SOL    HW213668   0.835   6.047   1.658
 4257SOL     OW13669   6.605   7.002   4.103
 4257SOL    HW113670   6.685   7.019   4.159
 4257SOL    HW213671   6.603   0.043   4.027
 4258SOL     OW13672   3.067   5.773   0.802
 4258SOL    HW113673   3.083   5.854   0.859
 4258SOL    HW213674   3.003   5.711   0.848
 4259SOL     OW13675   1.019   0.580   0.723
 4259SOL    HW113676   1.055   0.668   0.756
 4259SOL    HW213677   1.089   0.510   0.734
 4260SOL     OW13678   5.290   1.349   4.913
 4260SOL    HW113679   5.384   1.375   4.893
 4260SOL    HW213680   5.289   1.282   4.988
 4261SOL     OW13681   2.846   6.203   4.406
 4261SOL    HW113682   2.793   6.282   4.437
 4261SOL    HW213683   2.884   6.221   4.316
 4262SOL     OW13684   2.503   4.422   6.470
 4262SOL    HW113685   2.579   4.422   6.535
 4262SOL    HW213686   2.533   4.385   6.382
 4263SOL     OW13687   1.890   1.786   3.548
 4263SOL    HW113688   1.839   1.706   3.579
 4263SOL    HW213689   1.944   1.763   3.467
 4264SOL     OW13690   4.971   1.873   5.080
 4264SOL    HW113691   4.917   1.949   5.045
 4264SOL    HW213692   4.911   1.794   5.097
 4265SOL     OW13693   2.195   6.918   6.128
 4265SOL    HW113694   2.226   6.993   6.186
 4265SOL    HW213695   2.242   6.923   6.040
 4266SOL     OW13696   1.680   5.292   1.734
 4266SOL    HW113697   1.726   5.265   1.649
 4266SOL    HW213698   1.747   5.334   1.795
 4267SOL     OW13699   1.351   4.424   4.726
 4267SOL    HW113700   1.309   4.419   4.635
 4267SOL    HW213701   1.370   4.332   4.759
 4268SOL     OW13702   1.189   3.844   6.689
 4268SOL    HW113703   1.107   3.796   6.657
 4268SOL    HW213704   1.185   3.940   6.659
 4269SOL     OW13705   2.524   1.183   5.371
 4269SOL    HW113706   2.570   1.095   5.355
 4269SOL    HW213707   2.531   1.239   5.289
 4270SOL     OW13708   3.634   3.370   0.300
 4270SOL    HW113709   3.618   3.300   0.369
 4270SOL    HW213710   3.709   3.342   0.240
 4271SOL     OW13711   6.845   1.231   1.723
 4271SOL    HW113712   6.845   1.302   1.652
 4271SOL    HW213713   6.813   1.270   1.809
 4272SOL     OW13714   0.187   1.125   6.653
 4272SOL    HW113715   0.184   1.173   6.741
 4272SOL    HW213716   0.214   1.030   6.667
 4273SOL     OW13717   3.407   6.299   4.618
 4273SOL    HW113718   3.321   6.258   4.646
 4273SOL    HW213719   3.444   6.353   4.693
 4274SOL     OW13720   6.867   1.763   2.481
 4274SOL    HW113721   6.895   1.675   2.443
 4274SOL    HW213722   6.772   1.757   2.513
 4275SOL     OW13723   0.177   2.392   3.367
 4275SOL    HW113724   0.254   2.358   3.313
 4275SOL    HW213725   0.212   2.441   3.447
 4276SOL     OW13726   2.425   6.016   3.390
 4276SOL    HW113727   2.495   6.049   3.453
 4276SOL    HW213728   2.464   5.945   3.331
 4277SOL     OW13729   6.496   5.461   2.836
 4277SOL    HW113730   6.399   5.484   2.843
 4277SOL    HW213731   6.512   5.416   2.748
 4278SOL     OW13732   1.139   6.763   1.725
 4278SOL    HW113733   1.123   6.797   1.632
 4278SOL    HW213734   1.171   6.839   1.783
 4279SOL     OW13735   1.289   1.754   4.116
 4279SOL    HW113736   1.303   1.809   4.034
 4279SOL    HW213737   1.191   1.740   4.131
 4280SOL     OW13738   2.124   6.438   6.469
 4280SOL    HW113739   2.203   6.415   6.412
 4280SOL    HW213740   2.046   6.460   6.411
 4281SOL     OW13741   5.357   6.079   3.102
 4281SOL    HW113742   5.400   5.993   3.073
 4281SOL    HW213743   5.261   6.062   3.124
 4282SOL     OW13744   4.654   5.077   1.403
 4282SOL    HW113745   4.728   5.127   1.357
 4282SOL    HW213746   4.609   5.137   1.469
 4283SOL     OW13747   4.925   1.441   4.163
 4283SOL    HW113748   4.940   1.352   4.206
 4283SOL    HW213749   4.889   1.505   4.230
 4284SOL     OW13750   4.766   5.459   6.354
 4284SOL    HW113751   4.759   5.373   6.304
 4284SOL    HW213752   4.680   5.509   6.348
 4285SOL     OW13753   3.275   1.421   5.920
 4285SOL    HW113754   3.339   1.494   5.895
 4285SOL    HW213755   3.288   1.343   5.859
 4286SOL     OW13756   6.019   0.366   6.634
 4286SOL    HW113757   5.966   0.327   6.559
 4286SOL    HW213758   6.114   0.337   6.627
 4287SOL     OW13759   3.711   0.724   1.076
 4287SOL    HW113760   3.783   0.729   1.145
 4287SOL    HW213761   3.622   0.736   1.120
 4288SOL     OW13762   0.029   5.990   2.180
 4288SOL    HW113763   0.112   6.013   2.231
 4288SOL    HW213764   6.998   6.072   2.170
 4289SOL     OW13765   0.598   4.665   4.768
 4289SOL    HW113766   0.511   4.692   4.808
 4289SOL    HW213767   0.666   4.652   4.840
 4290SOL     OW13768   0.250   1.045   3.038
 4290SOL    HW113769   0.267   1.134   3.081
 4290SOL    HW213770   0.277   1.048   2.942
 4291SOL     OW13771   4.234   4.065   5.762
 4291SOL    HW113772   4.178   3.989   5.793
 4291SOL    HW213773   4.178   4.127   5.706
 4292SOL     OW13774   6.060   1.511   1.760
 4292SOL    HW113775   6.036   1.426   1.807
 4292SOL    HW213776   5.981   1.572   1.759
 4293SOL     OW13777   3.973   2.787   0.220
 4293SOL    HW113778   3.941   2.802   0.314
 4293SOL    HW213779   3.895   2.764   0.162
 4294SOL     OW13780   2.389   1.783   6.781
 4294SOL    HW113781   2.357   1.858   6.724
 4294SOL    HW213782   2.459   1.816   6.844
 4295SOL     OW13783   4.352   5.868   2.835
 4295SOL    HW113784   4.415   5.828   2.767
 4295SOL    HW213785   4.381   5.961   2.857
 4296SOL     OW13786   2.891   6.470   2.955
 4296SOL    HW113787   2.857   6.397   2.895
 4296SOL    HW213788   2.831   6.478   3.035
 4297SOL     OW13789   5.236   5.552   0.372
 4297SOL    HW113790   5.306   5.539   0.441
 4297SOL    HW213791   5.268   5.516   0.284
 4298SOL     OW13792   2.073   0.202   0.852
 4298SOL    HW113793   2.103   0.290   0.888
 4298SOL    HW213794   2.011   0.216   0.775
 4299SOL     OW13795   0.835   2.514   6.724
 4299SOL    HW113796   0.882   2.428   6.748
 4299SOL    HW213797   0.779   2.543   6.801
 4300SOL     OW13798   3.213   0.411   1.525
 4300SOL    HW113799   3.140   0.460   1.478
 4300SOL    HW213800   3.277   0.375   1.457
 4301SOL     OW13801   2.444   6.235   0.330
 4301SOL    HW113802   2.402   6.260   0.243
 4301SOL    HW213803   2.515   6.300   0.354
 4302SOL     OW13804   2.526   5.095   5.640
 4302SOL    HW113805   2.531   5.032   5.562
 4302SOL    HW213806   2.504   5.043   5.723
 4303SOL     OW13807   5.114   5.590   3.429
 4303SOL    HW113808   5.127   5.688   3.444
 4303SOL    HW213809   5.043   5.556   3.490
 4304SOL     OW13810   3.444   3.841   1.573
 4304SOL    HW113811   3.398   3.778   1.635
 4304SOL    HW213812   3.393   3.848   1.487
 4305SOL     OW13813   1.023   6.315   5.592
 4305SOL    HW113814   0.943   6.263   5.622
 4305SOL    HW213815   0.995   6.379   5.520
 4306SOL     OW13816   5.460   4.200   4.978
 4306SOL    HW113817   5.408   4.263   5.036
 4306SOL    HW213818   5.398   4.150   4.918
 4307SOL     OW13819   0.486   0.810   5.776
 4307SOL    HW113820   0.575   0.825   5.819
 4307SOL    HW213821   0.464   0.889   5.718
 4308SOL     OW13822   4.886   6.108   6.561
 4308SOL    HW113823   4.891   6.192   6.614
 4308SOL    HW213824   4.906   6.030   6.620
 4309SOL     OW13825   1.031   1.145   0.324
 4309SOL    HW113826   1.096   1.209   0.364
 4309SOL    HW213827   1.066   1.113   0.236
 4310SOL     OW13828   6.238   2.422   2.734
 4310SOL    HW113829   6.249   2.366   2.817
 4310SOL    HW213830   6.238   2.363   2.654
 4311SOL     OW13831   0.488   6.790   1.575
 4311SOL    HW113832   0.564   6.810   1.512
 4311SOL    HW213833   0.454   6.697   1.557
 4312SOL     OW13834   6.787   4.956   2.375
 4312SOL    HW113835   6.767   4.870   2.327
 4312SOL    HW213836   6.878   4.952   2.415
 4313SOL     OW13837   0.225   2.990   6.302
 4313SOL    HW113838   0.322   3.009   6.320
 4313SOL    HW213839   0.214   2.962   6.207
 4314SOL     OW13840   0.874   1.035   6.044
 4314SOL    HW113841   0.953   1.087   6.076
 4314SOL    HW213842   0.790   1.081   6.071
 4315SOL     OW13843   2.570   0.852   4.954
 4315SOL    HW113844   2.540   0.923   4.891
 4315SOL    HW213845   2.652   0.808   4.918
 4316SOL     OW13846   4.824   5.998   1.488
 4316SOL    HW113847   4.883   5.984   1.568
 4316SOL    HW213848   4.840   5.924   1.422
 4317SOL     OW13849   4.738   0.803   5.686
 4317SOL    HW113850   4.827   0.797   5.640
 4317SOL    HW213851   4.680   0.869   5.638
 4318SOL     OW13852   0.825   6.715   4.245
 4318SOL    HW113853   0.819   6.712   4.145
 4318SOL    HW213854   0.886   6.642   4.276
 4319SOL     OW13855   1.310   4.260   2.615
 4319SOL    HW113856   1.299   4.194   2.689
 4319SOL    HW213857   1.221   4.297   2.590
 4320SOL     OW13858   3.632   0.055   0.504
 4320SOL    HW113859   3.627   7.014   0.579
 4320SOL    HW213860   3.540   0.076   0.472
 4321SOL     OW13861   6.797   6.890   3.056
 4321SOL    HW113862   6.729   6.962   3.073
 4321SOL    HW213863   6.881   6.911   3.105
 4322SOL     OW13864   1.738   2.793   4.772
 4322SOL    HW113865   1.653   2.791   4.826
 4322SOL    HW213866   1.774   2.886   4.771
 4323SOL     OW13867   4.458   4.561   0.194
 4323SOL    HW113868   4.368   4.563   0.151
 4323SOL    HW213869   4.451   4.522   0.286
 4324SOL     OW13870   0.909   4.699   5.836
 4324SOL    HW113871   0.895   4.785   5.885
 4324SOL    HW213872   0.896   4.714   5.738
 4325SOL     OW13873   1.942   0.241   2.526
 4325SOL    HW113874   1.904   0.190   2.448
 4325SOL    HW213875   2.016   0.188   2.567
 4326SOL     OW13876   5.096   1.867   1.730
 4326SOL    HW113877   5.183   1.827   1.760
 4326SOL    HW213878   5.052   1.913   1.807
 4327SOL     OW13879   2.813   6.001   3.608
 4327SOL    HW113880   2.841   5.962   3.520
 4327SOL    HW213881   2.753   6.079   3.592
 4328SOL     OW13882   6.796   0.120   4.245
 4328SOL    HW113883   6.879   0.176   4.235
 4328SOL    HW213884   6.742   0.154   4.322
 4329SOL     OW13885   6.789   2.038   6.973
 4329SOL    HW113886   6.829   1.987   6.897
 4329SOL    HW213887   6.695   2.062   6.950
 4330SOL     OW13888   3.019   5.366   4.246
 4330SOL    HW113889   3.070   5.415   4.175
 4330SOL    HW213890   2.927   5.404   4.254
 4331SOL     OW13891   5.674   1.572   2.160
 4331SOL    HW113892   5.730   1.637   2.212
 4331SOL    HW213893   5.606   1.622   2.106
 4332SOL     OW13894   1.390   5.410   1.996
 4332SOL    HW113895   1.354   5.500   2.020
 4332SOL    HW213896   1.468   5.422   1.933
 4333SOL     OW13897   4.660   2.499   6.193
 4333SOL    HW113898   4.654   2.597   6.215
 4333SOL    HW213899   4.755   2.469   6.201
 4334SOL     OW13900   0.078   2.931   4.463
 4334SOL    HW113901   0.037   2.846   4.431
 4334SOL    HW213902   0.072   3.000   4.390
 4335SOL     OW13903   2.767   3.871   1.697
 4335SOL    HW113904   2.711   3.825   1.627
 4335SOL    HW213905   2.864   3.853   1.679
 4336SOL     OW13906   2.448   6.020   5.181
 4336SOL    HW113907   2.468   6.080   5.258
 4336SOL    HW213908   2.421   6.075   5.102
 4337SOL     OW13909   1.189   5.278   3.733
 4337SOL    HW113910   1.150   5.200   3.782
 4337SOL    HW213911   1.153   5.280   3.640
 4338SOL     OW13912   3.287   1.993   5.674
 4338SOL    HW113913   3.203   2.044   5.691
 4338SOL    HW213914   3.352   2.051   5.626
 4339SOL     OW13915   3.936   4.591   6.131
 4339SOL    HW113916   3.901   4.650   6.204
 4339SOL    HW213917   3.948   4.644   6.047
 4340SOL     OW13918   6.194   4.009   1.666
 4340SOL    HW113919   6.263   4.014   1.738
 4340SOL    HW213920   6.121   3.946   1.694
 4341SOL     OW13921   6.184   6.153   1.759
 4341SOL    HW113922   6.238   6.173   1.840
 4341SOL    HW213923   6.244   6.124   1.685
 4342SOL     OW13924   4.911   3.861   2.518
 4342SOL    HW113925   4.880   3.846   2.424
 4342SOL    HW213926   5.011   3.849   2.522
 4343SOL     OW13927   4.064   6.506   5.898
 4343SOL    HW113928   4.075   6.407   5.901
 4343SOL    HW213929   4.053   6.535   5.803
 4344SOL     OW13930   0.237   3.860   3.216
 4344SOL    HW113931   0.303   3.827   3.149
 4344SOL    HW213932   0.232   3.796   3.292
 4345SOL     OW13933   3.192   3.313   2.588
 4345SOL    HW113934   3.252   3.320   2.508
 4345SOL    HW213935   3.097   3.304   2.557
 4346SOL     OW13936   1.059   2.966   2.298
 4346SOL    HW113937   0.968   2.946   2.260
 4346SOL    HW213938   1.101   3.038   2.244
 4347SOL     OW13939   6.770   5.600   0.354
 4347SOL    HW113940   6.765   5.530   0.425
 4347SOL    HW213941   6.707   5.576   0.279
 4348SOL     OW13942   5.749   5.056   4.453
 4348SOL    HW113943   5.675   4.998   4.419
 4348SOL    HW213944   5.745   5.059   4.553
 4349SOL     OW13945   0.202   3.377   4.252
 4349SOL    HW113946   0.147   3.310   4.302
 4349SOL    HW213947   0.288   3.334   4.223
 4350SOL     OW13948   3.565   1.351   4.358
 4350SOL    HW113949   3.480   1.348   4.411
 4350SOL    HW213950   3.545   1.384   4.265
 4351SOL     OW13951   0.812   5.782   0.692
 4351SOL    HW113952   0.782   5.786   0.597
 4351SOL    HW213953   0.788   5.693   0.732
 4352SOL     OW13954   3.564   5.132   1.529
 4352SOL    HW113955   3.588   5.126   1.626
 4352SOL    HW213956   3.465   5.126   1.519
 4353SOL     OW13957   2.598   2.734   1.287
 4353SOL    HW113958   2.680   2.676   1.295
 4353SOL    HW213959   2.624   2.829   1.301
 4354SOL     OW13960   5.893   6.936   3.292
 4354SOL    HW113961   5.869   6.879   3.371
 4354SOL    HW213962   5.958   6.886   3.234
 4355SOL     OW13963   2.128   5.413   2.776
 4355SOL    HW113964   2.155   5.439   2.868
 4355SOL    HW213965   2.186   5.339   2.743
 4356SOL     OW13966   6.273   2.700   5.505
 4356SOL    HW113967   6.361   2.733   5.539
 4356SOL    HW213968   6.263   2.724   5.409
 4357SOL     OW13969   5.650   0.492   2.043
 4357SOL    HW113970   5.708   0.463   2.119
 4357SOL    HW213971   5.568   0.538   2.078
 4358SOL     OW13972   2.986   0.210   0.326
 4358SOL    HW113973   2.907   0.155   0.302
 4358SOL    HW213974   3.064   0.150   0.346
 4359SOL     OW13975   3.071   1.722   0.663
 4359SOL    HW113976   3.086   1.626   0.641
 4359SOL    HW213977   3.040   1.730   0.758
 4360SOL     OW13978   2.045   4.434   4.630
 4360SOL    HW113979   2.104   4.398   4.559
 4360SOL    HW213980   2.014   4.526   4.605
 4361SOL     OW13981   6.924   1.840   0.576
 4361SOL    HW113982   6.891   1.767   0.636
 4361SOL    HW213983   6.854   1.911   0.569
 4362SOL     OW13984   1.131   5.332   3.462
 4362SOL    HW113985   1.059   5.399   3.483
 4362SOL    HW213986   1.186   5.365   3.385
 4363SOL     OW13987   4.113   0.939   2.480
 4363SOL    HW113988   4.070   0.972   2.396
 4363SOL    HW213989   4.042   0.922   2.549
 4364SOL     OW13990   3.967   3.046   2.599
 4364SOL    HW113991   4.006   3.110   2.665
 4364SOL    HW213992   3.876   3.078   2.572
 4365SOL     OW13993   2.042   1.415   1.369
 4365SOL    HW113994   2.053   1.499   1.421
 4365SOL    HW213995   2.088   1.340   1.416
 4366SOL     OW13996   4.607   7.002   4.891
 4366SOL    HW113997   4.511   7.007   4.864
 4366SOL    HW213998   4.659   6.956   4.819
 4367SOL     OW13999   3.102   5.874   3.201
 4367SOL    HW114000   3.182   5.820   3.175
 4367SOL    HW214001   3.131   5.967   3.226
 4368SOL     OW14002   4.757   4.133   3.942
 4368SOL    HW114003   4.727   4.219   3.901
 4368SOL    HW214004   4.726   4.130   4.037
 4369SOL     OW14005   4.946   4.040   3.497
 4369SOL    HW114006   4.934   4.014   3.592
 4369SOL    HW214007   4.860   4.081   3.463
 4370SOL     OW14008   3.737   4.438   1.678
 4370SOL    HW114009   3.721   4.355   1.733
 4370SOL    HW214010   3.694   4.516   1.723
 4371SOL     OW14011   2.199   1.100   1.772
 4371SOL    HW114012   2.161   1.164   1.706
 4371SOL    HW214013   2.186   1.006   1.739
 4372SOL     OW14014   1.593   3.347   4.921
 4372SOL    HW114015   1.655   3.385   4.853
 4372SOL    HW214016   1.519   3.412   4.938
 4373SOL     OW14017   3.019   1.044   6.368
 4373SOL    HW114018   3.031   0.978   6.442
 4373SOL    HW214019   3.107   1.061   6.324
 4374SOL     OW14020   2.583   6.905   1.182
 4374SOL    HW114021   2.515   6.960   1.134
 4374SOL    HW214022   2.630   6.962   1.250
 4375SOL     OW14023   4.637   1.976   4.685
 4375SOL    HW114024   4.679   1.886   4.691
 4375SOL    HW214025   4.705   2.046   4.706
 4376SOL     OW14026   2.294   6.006   6.693
 4376SOL    HW114027   2.232   5.928   6.703
 4376SOL    HW214028   2.245   6.091   6.711
 4377SOL     OW14029   5.514   0.266   6.211
 4377SOL    HW114030   5.534   0.176   6.170
 4377SOL    HW214031   5.550   0.268   6.304
 4378SOL     OW14032   2.672   5.781   2.022
 4378SOL    HW114033   2.608   5.790   1.946
 4378SOL    HW214034   2.700   5.686   2.030
 4379SOL     OW14035   1.208   0.453   1.430
 4379SOL    HW114036   1.135   0.422   1.370
 4379SOL    HW214037   1.169   0.497   1.510
 4380SOL     OW14038   1.811   5.100   4.568
 4380SOL    HW114039   1.904   5.129   4.593
 4380SOL    HW214040   1.772   5.047   4.643
 4381SOL     OW14041   4.872   6.410   5.341
 4381SOL    HW114042   4.906   6.416   5.247
 4381SOL    HW214043   4.805   6.481   5.357
 4382SOL     OW14044   5.045   3.499   3.162
 4382SOL    HW114045   5.143   3.517   3.171
 4382SOL    HW214046   4.995   3.564   3.219
 4383SOL     OW14047   1.262   2.033   0.028
 4383SOL    HW114048   1.206   2.020   6.971
 4383SOL    HW214049   1.215   1.993   0.107
 4384SOL     OW14050   3.815   6.596   1.407
 4384SOL    HW114051   3.821   6.497   1.393
 4384SOL    HW214052   3.754   6.636   1.339
 4385SOL     OW14053   6.178   1.306   2.314
 4385SOL    HW114054   6.138   1.253   2.389
 4385SOL    HW214055   6.146   1.400   2.319
 4386SOL     OW14056   1.269   3.681   6.885
 4386SOL    HW114057   1.244   3.745   6.813
 4386SOL    HW214058   1.189   3.627   6.911
 4387SOL     OW14059   6.755   3.129   1.817
 4387SOL    HW114060   6.853   3.122   1.797
 4387SOL    HW214061   6.735   3.084   1.904
 4388SOL     OW14062   2.973   1.352   5.377
 4388SOL    HW114063   2.913   1.433   5.379
 4388SOL    HW214064   2.940   1.285   5.443
 4389SOL     OW14065   5.330   2.064   2.134
 4389SOL    HW114066   5.239   2.025   2.152
 4389SOL    HW214067   5.326   2.119   2.050
 4390SOL     OW14068   4.512   2.609   1.554
 4390SOL    HW114069   4.521   2.681   1.623
 4390SOL    HW214070   4.416   2.602   1.526
 4391SOL     OW14071   0.615   5.802   0.972
 4391SOL    HW114072   0.574   5.724   1.020
 4391SOL    HW214073   0.573   5.812   0.882
 4392SOL     OW14074   5.852   3.774   4.299
 4392SOL    HW114075   5.873   3.684   4.260
 4392SOL    HW214076   5.755   3.778   4.324
 4393SOL     OW14077   4.581   5.852   4.009
 4393SOL    HW114078   4.526   5.893   3.936
 4393SOL    HW214079   4.658   5.803   3.968
 4394SOL     OW14080   4.638   1.076   2.358
 4394SOL    HW114081   4.671   1.110   2.446
 4394SOL    HW214082   4.706   1.014   2.319
 4395SOL     OW14083   4.720   1.964   1.466
 4395SOL    HW114084   4.622   1.962   1.489
 4395SOL    HW214085   4.764   1.882   1.503
 4396SOL     OW14086   1.431   0.963   4.076
 4396SOL    HW114087   1.396   1.054   4.100
 4396SOL    HW214088   1.449   0.911   4.160
 4397SOL     OW14089   6.420   0.205   6.394
 4397SOL    HW114090   6.470   0.251   6.321
 4397SOL    HW214091   6.374   0.273   6.450
 4398SOL     OW14092   6.752   4.668   4.140
 4398SOL    HW114093   6.798   4.750   4.105
 4398SOL    HW214094   6.821   4.600   4.165
 4399SOL     OW14095   2.975   1.292   1.542
 4399SOL    HW114096   2.974   1.251   1.451
 4399SOL    HW214097   2.890   1.270   1.590
 4400SOL     OW14098   3.686   5.564   4.310
 4400SOL    HW114099   3.722   5.633   4.373
 4400SOL    HW214100   3.593   5.589   4.282
 4401SOL     OW14101   5.458   6.927   4.099
 4401SOL    HW114102   5.414   6.989   4.164
 4401SOL    HW214103   5.550   6.907   4.130
 4402SOL     OW14104   6.692   0.881   3.242
 4402SOL    HW114105   6.624   0.954   3.254
 4402SOL    HW214106   6.763   0.889   3.311
 4403SOL     OW14107   0.766   6.615   2.630
 4403SOL    HW114108   0.733   6.569   2.713
 4403SOL    HW214109   0.852   6.574   2.602
 4404SOL     OW14110   1.645   4.142   3.632
 4404SOL    HW114111   1.607   4.228   3.667
 4404SOL    HW214112   1.694   4.096   3.706
 4405SOL     OW14113   3.636   4.440   6.219
 4405SOL    HW114114   3.733   4.447   6.242
 4405SOL    HW214115   3.592   4.529   6.231
 4406SOL     OW14116   5.507   3.566   1.377
 4406SOL    HW114117   5.435   3.500   1.397
 4406SOL    HW214118   5.535   3.557   1.281
 4407SOL     OW14119   6.994   6.482   0.007
 4407SOL    HW114120   6.944   6.427   0.074
 4407SOL    HW214121   6.957   6.575   0.007
 4408SOL     OW14122   4.971   6.529   0.557
 4408SOL    HW114123   5.013   6.479   0.481
 4408SOL    HW214124   5.015   6.503   0.642
 4409SOL     OW14125   2.390   1.187   2.365
 4409SOL    HW114126   2.311   1.129   2.341
 4409SOL    HW214127   2.441   1.210   2.282
 4410SOL     OW14128   2.791   5.544   2.021
 4410SOL    HW114129   2.891   5.546   2.014
 4410SOL    HW214130   2.761   5.450   2.040
 4411SOL     OW14131   3.695   3.134   2.539
 4411SOL    HW114132   3.615   3.105   2.590
 4411SOL    HW214133   3.673   3.135   2.441
 4412SOL     OW14134   3.282   1.943   6.418
 4412SOL    HW114135   3.287   1.947   6.318
 4412SOL    HW214136   3.375   1.947   6.456
 4413SOL     OW14137   4.099   5.313   4.589
 4413SOL    HW114138   4.044   5.335   4.508
 4413SOL    HW214139   4.045   5.255   4.650
 4414SOL     OW14140   3.545   5.721   2.023
 4414SOL    HW114141   3.534   5.634   1.976
 4414SOL    HW214142   3.550   5.706   2.122
 4415SOL     OW14143   4.351   2.381   0.838
 4415SOL    HW114144   4.443   2.341   0.831
 4415SOL    HW214145   4.340   2.424   0.927
 4416SOL     OW14146   3.882   1.197   3.663
 4416SOL    HW114147   3.880   1.127   3.593
 4416SOL    HW214148   3.794   1.199   3.711
 4417SOL     OW14149   0.679   0.579   1.004
 4417SOL    HW114150   0.650   0.496   1.052
 4417SOL    HW214151   0.720   0.554   0.916
 4418SOL     OW14152   3.971   0.400   3.623
 4418SOL    HW114153   4.027   0.369   3.701
 4418SOL    HW214154   3.977   0.499   3.615
 4419SOL     OW14155   0.082   5.163   0.455
 4419SOL    HW114156   0.153   5.169   0.525
 4419SOL    HW214157   0.104   5.227   0.381
 4420SOL     OW14158   4.273   0.745   6.427
 4420SOL    HW114159   4.292   0.678   6.356
 4420SOL    HW214160   4.182   0.785   6.412
 4421SOL     OW14161   1.609   1.806   3.268
 4421SOL    HW114162   1.688   1.866   3.276
 4421SOL    HW214163   1.527   1.861   3.252
 4422SOL     OW14164   2.107   3.780   5.786
 4422SOL    HW114165   2.184   3.843   5.777
 4422SOL    HW214166   2.062   3.769   5.698
 4423SOL     OW14167   6.994   1.167   6.533
 4423SOL    HW114168   0.056   1.155   6.582
 4423SOL    HW214169   6.922   1.115   6.580
 4424SOL     OW14170   0.047   6.208   3.552
 4424SOL    HW114171   0.087   6.182   3.465
 4424SOL    HW214172   0.051   6.131   3.615
 4425SOL     OW14173   4.296   4.182   0.223
 4425SOL    HW114174   4.300   4.158   0.126
 4425SOL    HW214175   4.306   4.099   0.278
 4426SOL     OW14176   1.020   0.326   5.162
 4426SOL    HW114177   1.016   0.410   5.216
 4426SOL    HW214178   0.939   0.320   5.103
 4427SOL     OW14179   1.363   6.568   3.182
 4427SOL    HW114180   1.290   6.507   3.214
 4427SOL    HW214181   1.446   6.515   3.165
 4428SOL     OW14182   2.863   5.835   3.359
 4428SOL    HW114183   2.931   5.853   3.288
 4428SOL    HW214184   2.891   5.755   3.412
 4429SOL     OW14185   3.692   0.462   3.013
 4429SOL    HW114186   3.600   0.499   3.004
 4429SOL    HW214187   3.717   0.412   2.930
 4430SOL     OW14188   1.839   0.801   1.633
 4430SOL    HW114189   1.792   0.713   1.638
 4430SOL    HW214190   1.771   0.875   1.629
 4431SOL     OW14191   1.529   2.208   3.478
 4431SOL    HW114192   1.466   2.285   3.490
 4431SOL    HW214193   1.487   2.124   3.513
 4432SOL     OW14194   2.932   3.720   3.820
 4432SOL    HW114195   2.996   3.796   3.821
 4432SOL    HW214196   2.982   3.634   3.826
 4433SOL     OW14197   6.958   0.547   3.435
 4433SOL    HW114198   6.862   0.576   3.436
 4433SOL    HW214199   7.017   0.626   3.447
 4434SOL     OW14200   5.100   2.095   4.203
 4434SOL    HW114201   5.174   2.049   4.153
 4434SOL    HW214202   5.129   2.188   4.227
 4435SOL     OW14203   3.565   3.111   2.298
 4435SOL    HW114204   3.632   3.102   2.224
 4435SOL    HW214205   3.484   3.056   2.277
 4436SOL     OW14206   4.835   0.641   0.325
 4436SOL    HW114207   4.786   0.650   0.412
 4436SOL    HW214208   4.771   0.613   0.254
 4437SOL     OW14209   3.418   0.274   4.621
 4437SOL    HW114210   3.363   0.356   4.609
 4437SOL    HW214211   3.420   0.223   4.535
 4438SOL     OW14212   3.569   3.757   6.193
 4438SOL    HW114213   3.596   3.696   6.268
 4438SOL    HW214214   3.609   3.725   6.108
 4439SOL     OW14215   2.765   4.946   2.371
 4439SOL    HW114216   2.752   4.982   2.278
 4439SOL    HW214217   2.690   4.883   2.393
 4440SOL     OW14218   6.678   0.270   6.533
 4440SOL    HW114219   6.691   0.364   6.502
 4440SOL    HW214220   6.582   0.244   6.523
 4441SOL     OW14221   5.660   2.374   3.711
 4441SOL    HW114222   5.631   2.428   3.790
 4441SOL    HW214223   5.675   2.280   3.739
 4442SOL     OW14224   2.083   6.305   2.353
 4442SOL    HW114225   2.115   6.301   2.447
 4442SOL    HW214226   1.990   6.343   2.351
 4443SOL     OW14227   2.252   1.598   5.781
 4443SOL    HW114228   2.247   1.684   5.832
 4443SOL    HW214229   2.347   1.580   5.755
 4444SOL     OW14230   5.300   0.765   2.732
 4444SOL    HW114231   5.383   0.806   2.696
 4444SOL    HW214232   5.314   0.667   2.747
 4445SOL     OW14233   1.772   1.504   6.295
 4445SOL    HW114234   1.720   1.548   6.222
 4445SOL    HW214235   1.779   1.406   6.277
 4446SOL     OW14236   6.140   5.912   4.106
 4446SOL    HW114237   6.144   6.005   4.144
 4446SOL    HW214238   6.056   5.867   4.136
 4447SOL     OW14239   4.961   3.516   4.841
 4447SOL    HW114240   4.961   3.429   4.890
 4447SOL    HW214241   4.893   3.577   4.881
 4448SOL     OW14242   2.815   2.862   6.213
 4448SOL    HW114243   2.749   2.795   6.248
 4448SOL    HW214244   2.898   2.860   6.269
 4449SOL     OW14245   0.813   1.388   5.154
 4449SOL    HW114246   0.736   1.372   5.214
 4449SOL    HW214247   0.783   1.385   5.059
 4450SOL     OW14248   4.139   3.697   3.398
 4450SOL    HW114249   4.081   3.770   3.362
 4450SOL    HW214250   4.106   3.671   3.489
 4451SOL     OW14251   6.613   4.339   1.633
 4451SOL    HW114252   6.612   4.364   1.729
 4451SOL    HW214253   6.534   4.280   1.613
 4452SOL     OW14254   6.285   5.002   6.146
 4452SOL    HW114255   6.234   4.979   6.229
 4452SOL    HW214256   6.250   4.948   6.070
 4453SOL     OW14257   5.512   2.125   1.493
 4453SOL    HW114258   5.584   2.193   1.481
 4453SOL    HW214259   5.424   2.170   1.505
 4454SOL     OW14260   5.462   3.099   1.379
 4454SOL    HW114261   5.514   3.014   1.368
 4454SOL    HW214262   5.385   3.083   1.441
 4455SOL     OW14263   4.402   1.852   1.386
 4455SOL    HW114264   4.427   1.942   1.422
 4455SOL    HW214265   4.481   1.811   1.340
 4456SOL     OW14266   1.519   5.593   3.137
 4456SOL    HW114267   1.560   5.681   3.161
 4456SOL    HW214268   1.461   5.604   3.057
 4457SOL     OW14269   4.918   1.947   6.576
 4457SOL    HW114270   4.827   1.947   6.534
 4457SOL    HW214271   4.985   1.912   6.510
 4458SOL     OW14272   3.503   1.867   6.591
 4458SOL    HW114273   3.538   1.810   6.517
 4458SOL    HW214274   3.510   1.818   6.677
 4459SOL     OW14275   4.982   5.965   5.435
 4459SOL    HW114276   4.918   5.899   5.396
 4459SOL    HW214277   5.042   5.918   5.500
 4460SOL     OW14278   1.481   1.430   6.085
 4460SOL    HW114279   1.540   1.508   6.106
 4460SOL    HW214280   1.465   1.377   6.169
 4461SOL     OW14281   2.538   0.329   2.284
 4461SOL    HW114282   2.534   0.422   2.320
 4461SOL    HW214283   2.522   0.264   2.357
 4462SOL     OW14284   7.015   5.672   1.305
 4462SOL    HW114285   0.083   5.649   1.335
 4462SOL    HW214286   7.018   5.750   1.243
 4463SOL     OW14287   1.348   3.292   6.025
 4463SOL    HW114288   1.401   3.361   5.977
 4463SOL    HW214289   1.376   3.287   6.120
 4464SOL     OW14290   6.080   3.135   6.907
 4464SOL    HW114291   6.044   3.182   6.826
 4464SOL    HW214292   6.023   3.054   6.926
 4465SOL     OW14293   1.713   5.668   1.767
 4465SOL    HW114294   1.771   5.743   1.798
 4465SOL    HW214295   1.729   5.587   1.824
 4466SOL     OW14296   0.749   2.222   3.811
 4466SOL    HW114297   0.757   2.320   3.828
 4466SOL    HW214298   0.664   2.188   3.849
 4467SOL     OW14299   1.151   6.922   3.131
 4467SOL    HW114300   1.164   6.967   3.220
 4467SOL    HW214301   1.156   6.991   3.058
 4468SOL     OW14302   1.035   2.600   0.341
 4468SOL    HW114303   1.095   2.520   0.344
 4468SOL    HW214304   1.089   2.682   0.362
 4469SOL     OW14305   4.345   0.147   0.058
 4469SOL    HW114306   4.277   0.159   0.130
 4469SOL    HW214307   4.427   0.103   0.096
 4470SOL     OW14308   4.542   5.161   1.006
 4470SOL    HW114309   4.532   5.255   0.973
 4470SOL    HW214310   4.498   5.152   1.096
 4471SOL     OW14311   6.509   3.504   0.198
 4471SOL    HW114312   6.598   3.532   0.232
 4471SOL    HW214313   6.487   3.556   0.115
 4472SOL     OW14314   2.072   4.776   1.547
 4472SOL    HW114315   2.060   4.681   1.519
 4472SOL    HW214316   2.155   4.784   1.603
 4473SOL     OW14317   0.857   0.156   5.552
 4473SOL    HW114318   0.839   0.233   5.491
 4473SOL    HW214319   0.861   0.188   5.646
 4474SOL     OW14320   5.851   0.998   3.658
 4474SOL    HW114321   5.842   0.899   3.661
 4474SOL    HW214322   5.761   1.039   3.646
 4475SOL     OW14323   1.374   4.008   6.852
 4475SOL    HW114324   1.340   4.076   6.918
 4475SOL    HW214325   1.303   3.988   6.785
 4476SOL     OW14326   4.873   6.353   2.557
 4476SOL    HW114327   4.892   6.271   2.610
 4476SOL    HW214328   4.906   6.342   2.464
 4477SOL     OW14329   1.594   1.091   6.933
 4477SOL    HW114330   1.508   1.108   6.886
 4477SOL    HW214331   1.585   1.117   0.004
 4478SOL     OW14332   1.727   5.354   2.137
 4478SOL    HW114333   1.669   5.384   2.212
 4478SOL    HW214334   1.807   5.306   2.173
 4479SOL     OW14335   0.408   0.101   5.460
 4479SOL    HW114336   0.381   0.010   5.428
 4479SOL    HW214337   0.464   0.091   5.543
 4480SOL     OW14338   1.231   4.607   3.862
 4480SOL    HW114339   1.319   4.562   3.874
 4480SOL    HW214340   1.246   4.701   3.830
 4481SOL     OW14341   1.031   0.030   3.881
 4481SOL    HW114342   1.097   0.099   3.850
 4481SOL    HW214343   0.939   0.069   3.878
 4482SOL     OW14344   0.574   4.519   4.027
 4482SOL    HW114345   0.505   4.588   4.004
 4482SOL    HW214346   0.541   4.428   4.003
 4483SOL     OW14347   5.337   2.319   2.284
 4483SOL    HW114348   5.348   2.231   2.239
 4483SOL    HW214349   5.255   2.318   2.341
 4484SOL     OW14350   4.223   2.535   5.987
 4484SOL    HW114351   4.156   2.587   5.933
 4484SOL    HW214352   4.279   2.599   6.041
 4485SOL     OW14353   4.669   1.137   6.774
 4485SOL    HW114354   4.612   1.215   6.750
 4485SOL    HW214355   4.629   1.054   6.736
 4486SOL     OW14356   6.507   2.508   3.989
 4486SOL    HW114357   6.474   2.435   4.048
 4486SOL    HW214358   6.556   2.468   3.911
 4487SOL     OW14359   3.276   3.009   6.171
 4487SOL    HW114360   3.182   3.002   6.136
 4487SOL    HW214361   3.274   3.045   6.264
 4488SOL     OW14362   0.123   1.353   5.735
 4488SOL    HW114363   0.170   1.419   5.676
 4488SOL    HW214364   0.124   1.388   5.829
 4489SOL     OW14365   6.733   0.667   3.087
 4489SOL    HW114366   6.665   0.690   3.017
 4489SOL    HW214367   6.719   0.725   3.167
 4490SOL     OW14368   6.665   2.355   3.397
 4490SOL    HW114369   6.728   2.432   3.386
 4490SOL    HW214370   6.681   2.288   3.325
 4491SOL     OW14371   1.657   2.952   2.560
 4491SOL    HW114372   1.676   3.047   2.584
 4491SOL    HW214373   1.719   2.892   2.610
 4492SOL     OW14374   4.034   3.418   6.577
 4492SOL    HW114375   4.120   3.380   6.542
 4492SOL    HW214376   3.961   3.351   6.561
 4493SOL     OW14377   5.946   5.253   3.571
 4493SOL    HW114378   5.924   5.329   3.509
 4493SOL    HW214379   5.992   5.289   3.652
 4494SOL     OW14380   6.232   3.740   3.813
 4494SOL    HW114381   6.264   3.817   3.868
 4494SOL    HW214382   6.187   3.673   3.872
 4495SOL     OW14383   4.622   6.310   1.706
 4495SOL    HW114384   4.536   6.362   1.710
 4495SOL    HW214385   4.643   6.273   1.796
 4496SOL     OW14386   5.084   4.486   5.641
 4496SOL    HW114387   5.131   4.404   5.676
 4496SOL    HW214388   4.985   4.471   5.644
 4497SOL     OW14389   6.682   5.360   0.488
 4497SOL    HW114390   6.683   5.299   0.409
 4497SOL    HW214391   6.589   5.363   0.526
 4498SOL     OW14392   0.044   4.133   6.830
 4498SOL    HW114393   0.128   4.082   6.846
 4498SOL    HW214394   0.065   4.231   6.822
 4499SOL     OW14395   6.704   3.058   6.650
 4499SOL    HW114396   6.613   3.095   6.628
 4499SOL    HW214397   6.695   2.989   6.721
 4500SOL     OW14398   3.490   3.855   4.609
 4500SOL    HW114399   3.587   3.881   4.613
 4500SOL    HW214400   3.444   3.887   4.692
 4501SOL     OW14401   1.082   4.640   4.988
 4501SOL    HW114402   1.112   4.545   4.981
 4501SOL    HW214403   0.999   4.644   5.045
 4502SOL     OW14404   6.633   2.966   0.013
 4502SOL    HW114405   6.544   3.009   0.028
 4502SOL    HW214406   6.704   3.036   0.015
 4503SOL     OW14407   1.334   1.793   3.131
 4503SOL    HW114408   1.367   1.712   3.083
 4503SOL    HW214409   1.391   1.872   3.107
 4504SOL     OW14410   5.032   2.674   4.784
 4504SOL    HW114411   5.082   2.759   4.769
 4504SOL    HW214412   4.948   2.692   4.834
 4505SOL     OW14413   1.760   5.151   5.990
 4505SOL    HW114414   1.693   5.171   5.919
 4505SOL    HW214415   1.845   5.118   5.947
 4506SOL     OW14416   3.911   0.251   5.225
 4506SOL    HW114417   4.011   0.264   5.225
 4506SOL    HW214418   3.891   0.154   5.227
 4507SOL     OW14419   6.238   4.427   1.127
 4507SOL    HW114420   6.329   4.436   1.085
 4507SOL    HW214421   6.179   4.500   1.093
 4508SOL     OW14422   1.261   4.307   0.933
 4508SOL    HW114423   1.176   4.334   0.979
 4508SOL    HW214424   1.261   4.342   0.840
 4509SOL     OW14425   1.308   1.998   3.937
 4509SOL    HW114426   1.357   2.010   3.850
 4509SOL    HW214427   1.210   2.009   3.921
 4510SOL     OW14428   3.779   6.517   4.964
 4510SOL    HW114429   3.776   6.467   5.051
 4510SOL    HW214430   3.863   6.494   4.915
 4511SOL     OW14431   6.305   2.921   6.718
 4511SOL    HW114432   6.206   2.915   6.710
 4511SOL    HW214433   6.341   2.833   6.751
 4512SOL     OW14434   2.923   4.634   0.297
 4512SOL    HW114435   2.882   4.725   0.302
 4512SOL    HW214436   3.002   4.636   0.236
 4513SOL     OW14437   5.221   0.997   2.011
 4513SOL    HW114438   5.158   1.023   1.937
 4513SOL    HW214439   5.274   0.918   1.982
 4514SOL     OW14440   3.659   1.604   5.208
 4514SOL    HW114441   3.572   1.587   5.162
 4514SOL    HW214442   3.660   1.558   5.297
 4515SOL     OW14443   0.513   5.213   1.266
 4515SOL    HW114444   0.552   5.256   1.347
 4515SOL    HW214445   0.585   5.198   1.198
 4516SOL     OW14446   0.957   6.918   4.854
 4516SOL    HW114447   0.970   6.897   4.757
 4516SOL    HW214448   0.961   7.017   4.867
 4517SOL     OW14449   3.630   0.288   5.068
 4517SOL    HW114450   3.591   0.330   4.986
 4517SOL    HW214451   3.654   0.193   5.049
 4518SOL     OW14452   1.107   1.225   4.441
 4518SOL    HW114453   1.101   1.128   4.418
 4518SOL    HW214454   1.116   1.278   4.357
 4519SOL     OW14455   6.135   2.460   4.586
 4519SOL    HW114456   6.189   2.384   4.549
 4519SOL    HW214457   6.181   2.499   4.665
 4520SOL     OW14458   0.513   4.692   3.197
 4520SOL    HW114459   0.542   4.761   3.131
 4520SOL    HW214460   0.569   4.610   3.186
 4521SOL     OW14461   5.798   2.185   5.937
 4521SOL    HW114462   5.842   2.135   6.011
 4521SOL    HW214463   5.769   2.121   5.866
 4522SOL     OW14464   5.862   0.662   3.722
 4522SOL    HW114465   5.868   0.649   3.821
 4522SOL    HW214466   5.768   0.650   3.692
 4523SOL     OW14467   3.675   3.441   6.779
 4523SOL    HW114468   3.587   3.397   6.797
 4523SOL    HW214469   3.749   3.386   6.817
 4524SOL     OW14470   6.129   0.249   5.141
 4524SOL    HW114471   6.106   0.162   5.098
 4524SOL    HW214472   6.063   0.319   5.113
 4525SOL     OW14473   6.404   1.489   5.438
 4525SOL    HW114474   6.398   1.393   5.413
 4525SOL    HW214475   6.343   1.543   5.379
 4526SOL     OW14476   3.840   0.817   0.359
 4526SOL    HW114477   3.901   0.745   0.326
 4526SOL    HW214478   3.812   0.797   0.453
 4527SOL     OW14479   3.786   1.417   3.317
 4527SOL    HW114480   3.871   1.376   3.351
 4527SOL    HW214481   3.791   1.516   3.324
 4528SOL     OW14482   6.027   0.779   6.391
 4528SOL    HW114483   5.949   0.719   6.372
 4528SOL    HW214484   5.994   0.863   6.433
 4529SOL     OW14485   3.652   6.678   3.312
 4529SOL    HW114486   3.601   6.652   3.394
 4529SOL    HW214487   3.710   6.603   3.283
 4530SOL     OW14488   0.511   2.940   5.130
 4530SOL    HW114489   0.572   2.873   5.172
 4530SOL    HW214490   0.417   2.906   5.135
 4531SOL     OW14491   0.058   3.284   3.450
 4531SOL    HW114492   0.047   3.379   3.479
 4531SOL    HW214493   7.007   3.229   3.484
 4532SOL     OW14494   6.316   2.271   0.571
 4532SOL    HW114495   6.232   2.294   0.620
 4532SOL    HW214496   6.294   2.251   0.476
 4533SOL     OW14497   2.864   5.980   2.919
 4533SOL    HW114498   2.887   5.884   2.906
 4533SOL    HW214499   2.787   5.988   2.983
 4534SOL     OW14500   6.077   4.126   5.902
 4534SOL    HW114501   6.149   4.176   5.854
 4534SOL    HW214502   6.078   4.151   5.999
 4535SOL     OW14503   4.806   2.901   2.784
 4535SOL    HW114504   4.810   2.998   2.810
 4535SOL    HW214505   4.896   2.870   2.755
 4536SOL     OW14506   6.857   1.336   4.528
 4536SOL    HW114507   6.789   1.394   4.572
 4536SOL    HW214508   6.943   1.341   4.580
 4537SOL     OW14509   3.986   3.112   5.959
 4537SOL    HW114510   4.070   3.098   5.906
 4537SOL    HW214511   3.908   3.083   5.904
 4538SOL     OW14512   3.099   0.994   2.225
 4538SOL    HW114513   3.054   0.966   2.140
 4538SOL    HW214514   3.134   0.913   2.272
 4539SOL     OW14515   1.124   1.908   2.514
 4539SOL    HW114516   1.058   1.887   2.442
 4539SOL    HW214517   1.168   1.823   2.545
 4540SOL     OW14518   3.035   3.186   4.758
 4540SOL    HW114519   2.938   3.162   4.763
 4540SOL    HW214520   3.047   3.261   4.693
 4541SOL     OW14521   5.745   1.543   1.365
 4541SOL    HW114522   5.707   1.598   1.291
 4541SOL    HW214523   5.800   1.469   1.327
 4542SOL     OW14524   4.477   0.379   3.847
 4542SOL    HW114525   4.426   0.375   3.761
 4542SOL    HW214526   4.437   0.448   3.907
 4543SOL     OW14527   5.612   1.805   1.910
 4543SOL    HW114528   5.685   1.853   1.959
 4543SOL    HW214529   5.576   1.863   1.837
 4544SOL     OW14530   3.619   4.946   6.661
 4544SOL    HW114531   3.665   4.883   6.724
 4544SOL    HW214532   3.688   4.993   6.605
 4545SOL     OW14533   4.172   2.273   5.538
 4545SOL    HW114534   4.122   2.229   5.612
 4545SOL    HW214535   4.221   2.353   5.573
 4546SOL     OW14536   0.929   6.636   6.121
 4546SOL    HW114537   0.834   6.607   6.118
 4546SOL    HW214538   0.955   6.658   6.215
 4547SOL     OW14539   4.841   2.333   1.485
 4547SOL    HW114540   4.923   2.358   1.433
 4547SOL    HW214541   4.761   2.341   1.426
 4548SOL     OW14542   1.364   3.124   3.747
 4548SOL    HW114543   1.314   3.208   3.766
 4548SOL    HW214544   1.448   3.123   3.801
 4549SOL     OW14545   5.266   2.228   2.869
 4549SOL    HW114546   5.334   2.238   2.941
 4549SOL    HW214547   5.221   2.139   2.878
 4550SOL     OW14548   1.274   6.059   4.507
 4550SOL    HW114549   1.341   6.133   4.514
 4550SOL    HW214550   1.215   6.074   4.427
 4551SOL     OW14551   0.639   2.622   5.948
 4551SOL    HW114552   0.683   2.666   6.026
 4551SOL    HW214553   0.657   2.675   5.865
 4552SOL     OW14554   7.004   3.063   4.173
 4552SOL    HW114555   7.012   3.105   4.264
 4552SOL    HW214556   7.004   3.135   4.103
 4553SOL     OW14557   4.843   4.936   0.367
 4553SOL    HW114558   4.896   5.020   0.358
 4553SOL    HW214559   4.762   4.953   0.423
 4554SOL     OW14560   5.679   0.026   2.888
 4554SOL    HW114561   5.695   0.021   2.789
 4554SOL    HW214562   5.709   0.114   2.922
 4555SOL     OW14563   5.335   1.654   0.125
 4555SOL    HW114564   5.329   1.589   0.048
 4555SOL    HW214565   5.423   1.643   0.171
 4556SOL     OW14566   4.562   1.453   4.244
 4556SOL    HW114567   4.483   1.483   4.298
 4556SOL    HW214568   4.530   1.407   4.161
 4557SOL     OW14569   5.319   0.427   5.876
 4557SOL    HW114570   5.293   0.399   5.783
 4557SOL    HW214571   5.246   0.482   5.916
 4558SOL     OW14572   6.471   2.884   5.911
 4558SOL    HW114573   6.437   2.805   5.962
 4558SOL    HW214574   6.425   2.967   5.944
 4559SOL     OW14575   1.034   6.648   1.122
 4559SOL    HW114576   1.034   6.748   1.127
 4559SOL    HW214577   0.940   6.615   1.112
 4560SOL     OW14578   4.913   3.111   3.135
 4560SOL    HW114579   5.009   3.140   3.136
 4560SOL    HW214580   4.897   3.049   3.212
 4561SOL     OW14581   3.006   0.334   6.245
 4561SOL    HW114582   3.083   0.349   6.183
 4561SOL    HW214583   2.937   0.277   6.199
 4562SOL     OW14584   3.248   5.163   5.830
 4562SOL    HW114585   3.178   5.092   5.830
 4562SOL    HW214586   3.268   5.191   5.924
 4563SOL     OW14587   5.553   2.116   6.536
 4563SOL    HW114588   5.515   2.195   6.489
 4563SOL    HW214589   5.552   2.131   6.635
 4564SOL     OW14590   1.674   5.870   6.910
 4564SOL    HW114591   1.651   5.854   7.006
 4564SOL    HW214592   1.665   5.967   6.889
 4565SOL     OW14593   1.888   0.477   4.350
 4565SOL    HW114594   1.872   0.383   4.318
 4565SOL    HW214595   1.847   0.541   4.285
 4566SOL     OW14596   0.636   1.930   0.350
 4566SOL    HW114597   0.655   1.866   0.275
 4566SOL    HW214598   0.571   1.889   0.413
 4567SOL     OW14599   6.701   1.027   0.814
 4567SOL    HW114600   6.602   1.038   0.822
 4567SOL    HW214601   6.735   0.972   0.890
 4568SOL     OW14602   3.369   4.945   4.938
 4568SOL    HW114603   3.292   4.891   4.971
 4568SOL    HW214604   3.346   4.988   4.851
 4569SOL     OW14605   0.276   2.082   4.618
 4569SOL    HW114606   0.295   2.157   4.554
 4569SOL    HW214607   0.332   2.092   4.699
 4570SOL     OW14608   0.016   5.027   4.170
 4570SOL    HW114609   0.010   5.124   4.144
 4570SOL    HW214610   6.989   5.013   4.255
 4571SOL     OW14611   3.393   3.165   4.510
 4571SOL    HW114612   3.338   3.097   4.461
 4571SOL    HW214613   3.459   3.119   4.568
 4572SOL     OW14614   2.252   6.427   1.631
 4572SOL    HW114615   2.158   6.395   1.616
 4572SOL    HW214616   2.251   6.501   1.698
 4573SOL     OW14617   5.664   6.949   0.884
 4573SOL    HW114618   5.648   6.943   0.785
 4573SOL    HW214619   5.660   6.857   0.924
 4574SOL     OW14620   1.114   4.552   2.638
 4574SOL    HW114621   1.209   4.570   2.612
 4574SOL    HW214622   1.082   4.469   2.591
 4575SOL     OW14623   6.609   0.238   2.115
 4575SOL    HW114624   6.674   0.179   2.067
 4575SOL    HW214625   6.578   0.193   2.199
 4576SOL     OW14626   3.263   5.813   5.145
 4576SOL    HW114627   3.218   5.726   5.123
 4576SOL    HW214628   3.200   5.872   5.195
 4577SOL     OW14629   0.872   2.745   3.670
 4577SOL    HW114630   0.810   2.785   3.738
 4577SOL    HW214631   0.894   2.652   3.697
 4578SOL     OW14632   0.237   3.990   3.546
 4578SOL    HW114633   0.178   4.051   3.494
 4578SOL    HW214634   0.316   4.041   3.580
 4579SOL     OW14635   5.583   1.895   4.242
 4579SOL    HW114636   5.643   1.974   4.246
 4579SOL    HW214637   5.508   1.906   4.307
 4580SOL     OW14638   6.862   5.408   0.737
 4580SOL    HW114639   6.787   5.393   0.672
 4580SOL    HW214640   6.868   5.331   0.800
 4581SOL     OW14641   3.761   5.746   3.072
 4581SOL    HW114642   3.753   5.810   3.149
 4581SOL    HW214643   3.711   5.662   3.094
 4582SOL     OW14644   4.526   6.648   2.770
 4582SOL    HW114645   4.581   6.592   2.708
 4582SOL    HW214646   4.567   6.739   2.777
 4583SOL     OW14647   4.930   2.088   5.263
 4583SOL    HW114648   4.846   2.077   5.210
 4583SOL    HW214649   4.998   2.022   5.232
 4584SOL     OW14650   0.606   4.623   5.315
 4584SOL    HW114651   0.559   4.700   5.273
 4584SOL    HW214652   0.538   4.560   5.354
 4585SOL     OW14653   3.967   6.402   2.986
 4585SOL    HW114654   3.952   6.307   3.011
 4585SOL    HW214655   4.007   6.407   2.894
 4586SOL     OW14656   3.412   5.951   2.083
 4586SOL    HW114657   3.378   5.908   2.166
 4586SOL    HW214658   3.501   5.913   2.059
 4587SOL     OW14659   2.028   4.336   0.991
 4587SOL    HW114660   1.956   4.399   0.962
 4587SOL    HW214661   2.065   4.365   1.079
 4588SOL     OW14662   4.531   4.087   5.308
 4588SOL    HW114663   4.582   4.005   5.336
 4588SOL    HW214664   4.434   4.065   5.299
 4589SOL     OW14665   7.006   1.728   4.045
 4589SOL    HW114666   6.964   1.786   4.115
 4589SOL    HW214667   6.955   1.736   3.960
 4590SOL     OW14668   4.973   5.827   2.720
 4590SOL    HW114669   4.925   5.862   2.800
 4590SOL    HW214670   4.920   5.752   2.680
 4591SOL     OW14671   6.015   5.807   5.181
 4591SOL    HW114672   6.075   5.737   5.220
 4591SOL    HW214673   6.044   5.897   5.211
 4592SOL     OW14674   3.095   2.178   5.763
 4592SOL    HW114675   3.159   2.235   5.815
 4592SOL    HW214676   3.078   2.219   5.674
 4593SOL     OW14677   3.588   6.457   2.079
 4593SOL    HW114678   3.543   6.545   2.061
 4593SOL    HW214679   3.521   6.390   2.110
 4594SOL     OW14680   2.774   1.277   2.393
 4594SOL    HW114681   2.788   1.227   2.307
 4594SOL    HW214682   2.861   1.313   2.425
 4595SOL     OW14683   4.519   2.289   5.928
 4595SOL    HW114684   4.507   2.206   5.874
 4595SOL    HW214685   4.452   2.290   6.002
 4596SOL     OW14686   6.128   6.947   1.901
 4596SOL    HW114687   6.113   6.924   1.805
 4596SOL    HW214688   6.187   0.002   1.907
 4597SOL     OW14689   6.306   4.631   6.933
 4597SOL    HW114690   6.314   4.603   0.004
 4597SOL    HW214691   6.345   4.561   6.874
 4598SOL     OW14692   3.275   4.965   0.281
 4598SOL    HW114693   3.275   4.923   0.372
 4598SOL    HW214694   3.182   4.989   0.255
 4599SOL     OW14695   1.479   5.059   0.517
 4599SOL    HW114696   1.535   5.074   0.436
 4599SOL    HW214697   1.407   4.993   0.496
 4600SOL     OW14698   3.473   5.426   1.379
 4600SOL    HW114699   3.500   5.330   1.371
 4600SOL    HW214700   3.471   5.467   1.288
 4601SOL     OW14701   1.895   5.994   4.952
 4601SOL    HW114702   1.871   6.015   4.857
 4601SOL    HW214703   1.844   5.914   4.982
 4602SOL     OW14704   2.083   0.628   1.151
 4602SOL    HW114705   2.040   0.601   1.237
 4602SOL    HW214706   2.105   0.726   1.154
 4603SOL     OW14707   3.378   0.144   2.228
 4603SOL    HW114708   3.337   0.168   2.140
 4603SOL    HW214709   3.450   0.210   2.250
 4604SOL     OW14710   2.973   6.908   2.234
 4604SOL    HW114711   2.895   6.846   2.233
 4604SOL    HW214712   2.957   6.982   2.299
 4605SOL     OW14713   5.174   0.357   5.636
 4605SOL    HW114714   5.169   0.270   5.587
 4605SOL    HW214715   5.217   0.426   5.577
 4606SOL     OW14716   6.929   6.534   5.252
 4606SOL    HW114717   6.921   6.510   5.349
 4606SOL    HW214718   6.847   6.581   5.222
 4607SOL     OW14719   2.571   1.771   1.103
 4607SOL    HW114720   2.546   1.819   1.187
 4607SOL    HW214721   2.497   1.710   1.075
 4608SOL     OW14722   1.495   3.453   5.884
 4608SOL    HW114723   1.549   3.528   5.921
 4608SOL    HW214724   1.543   3.411   5.807
 4609SOL     OW14725   4.308   6.853   6.169
 4609SOL    HW114726   4.349   6.888   6.085
 4609SOL    HW214727   4.377   6.853   6.242
 4610SOL     OW14728   0.600   3.299   6.656
 4610SOL    HW114729   0.695   3.286   6.629
 4610SOL    HW214730   0.558   3.370   6.599
 4611SOL     OW14731   0.973   3.794   0.102
 4611SOL    HW114732   1.064   3.810   0.141
 4611SOL    HW214733   0.974   3.821   0.005
 4612SOL     OW14734   2.204   0.161   6.285
 4612SOL    HW114735   2.231   0.135   6.378
 4612SOL    HW214736   2.244   0.250   6.263
 4613SOL     OW14737   2.964   5.776   2.094
 4613SOL    HW114738   2.961   5.858   2.152
 4613SOL    HW214739   2.905   5.790   2.015
 4614SOL     OW14740   2.098   5.634   0.093
 4614SOL    HW114741   2.107   5.538   0.119
 4614SOL    HW214742   2.187   5.668   0.061
 4615SOL     OW14743   0.146   2.304   0.072
 4615SOL    HW114744   0.073   2.284   0.006
 4615SOL    HW214745   0.106   2.330   0.160
 4616SOL     OW14746   5.465   1.063   6.832
 4616SOL    HW114747   5.537   0.995   6.819
 4616SOL    HW214748   5.384   1.037   6.779
 4617SOL     OW14749   0.167   3.106   1.993
 4617SOL    HW114750   0.251   3.077   1.949
 4617SOL    HW214751   0.187   3.140   2.085
 4618SOL     OW14752   0.985   1.857   6.040
 4618SOL    HW114753   0.910   1.922   6.055
 4618SOL    HW214754   1.002   1.807   6.125
 4619SOL     OW14755   3.266   1.051   4.078
 4619SOL    HW114756   3.344   1.021   4.022
 4619SOL    HW214757   3.232   0.975   4.133
 4620SOL     OW14758   2.114   4.396   6.320
 4620SOL    HW114759   2.162   4.316   6.282
 4620SOL    HW214760   2.166   4.434   6.396
 4621SOL     OW14761   0.273   5.953   5.997
 4621SOL    HW114762   0.341   6.024   6.016
 4621SOL    HW214763   0.234   5.968   5.906
 4622SOL     OW14764   2.393   3.380   1.216
 4622SOL    HW114765   2.295   3.371   1.232
 4622SOL    HW214766   2.414   3.473   1.186
 4623SOL     OW14767   5.964   4.355   1.910
 4623SOL    HW114768   5.999   4.439   1.953
 4623SOL    HW214769   5.887   4.321   1.963
 4624SOL     OW14770   4.977   0.096   5.427
 4624SOL    HW114771   4.919   0.146   5.492
 4624SOL    HW214772   4.923   0.073   5.346
 4625SOL     OW14773   0.819   3.005   6.613
 4625SOL    HW114774   0.853   2.935   6.551
 4625SOL    HW214775   0.747   2.967   6.670
 4626SOL     OW14776   6.102   5.058   1.819
 4626SOL    HW114777   6.168   4.998   1.775
 4626SOL    HW214778   6.047   5.006   1.884
 4627SOL     OW14779   2.267   0.972   6.035
 4627SOL    HW114780   2.295   0.912   5.960
 4627SOL    HW214781   2.271   0.921   6.121
 4628SOL     OW14782   6.798   4.197   1.896
 4628SOL    HW114783   6.744   4.143   1.831
 4628SOL    HW214784   6.764   4.291   1.899
 4629SOL     OW14785   3.226   5.091   5.287
 4629SOL    HW114786   3.163   5.140   5.348
 4629SOL    HW214787   3.282   5.156   5.237
 4630SOL     OW14788   2.083   0.257   2.918
 4630SOL    HW114789   2.150   0.244   2.844
 4630SOL    HW214790   2.128   0.243   3.006
 4631SOL     OW14791   2.511   0.260   2.564
 4631SOL    HW114792   2.565   0.200   2.623
 4631SOL    HW214793   2.515   0.353   2.598
 4632SOL     OW14794   5.156   4.947   3.914
 4632SOL    HW114795   5.160   4.848   3.907
 4632SOL    HW214796   5.100   4.983   3.839
 4633SOL     OW14797   5.943   2.488   5.674
 4633SOL    HW114798   5.962   2.456   5.767
 4633SOL    HW214799   6.016   2.457   5.613
 4634SOL     OW14800   3.209   4.447   0.920
 4634SOL    HW114801   3.133   4.404   0.872
 4634SOL    HW214802   3.198   4.434   1.018
 4635SOL     OW14803   5.189   4.111   1.174
 4635SOL    HW114804   5.278   4.135   1.133
 4635SOL    HW214805   5.177   4.012   1.171
 4636SOL     OW14806   1.744   5.408   0.846
 4636SOL    HW114807   1.713   5.315   0.828
 4636SOL    HW214808   1.818   5.406   0.913
 4637SOL     OW14809   1.483   0.841   5.410
 4637SOL    HW114810   1.574   0.864   5.376
 4637SOL    HW214811   1.483   0.746   5.443
 4638SOL     OW14812   5.270   3.612   6.268
 4638SOL    HW114813   5.200   3.603   6.197
 4638SOL    HW214814   5.234   3.666   6.344
 4639SOL     OW14815   6.925   3.785   5.351
 4639SOL    HW114816   6.867   3.752   5.425
 4639SOL    HW214817   6.898   3.742   5.265
 4640SOL     OW14818   5.592   4.242   2.583
 4640SOL    HW114819   5.572   4.340   2.582
 4640SOL    HW214820   5.541   4.198   2.509
 4641SOL     OW14821   2.525   4.666   5.378
 4641SOL    HW114822   2.510   4.614   5.462
 4641SOL    HW214823   2.487   4.758   5.389
 4642SOL     OW14824   5.608   5.792   4.377
 4642SOL    HW114825   5.558   5.747   4.303
 4642SOL    HW214826   5.661   5.724   4.427
 4643SOL     OW14827   3.605   2.916   1.463
 4643SOL    HW114828   3.551   2.880   1.387
 4643SOL    HW214829   3.595   3.016   1.467
 4644SOL     OW14830   2.296   5.055   5.077
 4644SOL    HW114831   2.284   5.105   4.992
 4644SOL    HW214832   2.385   5.079   5.118
 4645SOL     OW14833   1.763   5.758   5.047
 4645SOL    HW114834   1.785   5.666   5.016
 4645SOL    HW214835   1.729   5.755   5.141
 4646SOL     OW14836   3.857   0.217   1.938
 4646SOL    HW114837   3.786   0.166   1.987
 4646SOL    HW214838   3.938   0.159   1.927
 4647SOL     OW14839   6.584   0.408   4.755
 4647SOL    HW114840   6.598   0.380   4.850
 4647SOL    HW214841   6.672   0.411   4.708
 4648SOL     OW14842   2.317   5.175   2.694
 4648SOL    HW114843   2.295   5.112   2.769
 4648SOL    HW214844   2.410   5.155   2.661
 4649SOL     OW14845   5.658   0.060   6.053
 4649SOL    HW114846   5.686   6.994   6.084
 4649SOL    HW214847   5.736   0.121   6.055
 4650SOL     OW14848   6.754   4.644   2.024
 4650SOL    HW114849   6.705   4.730   2.010
 4650SOL    HW214850   6.845   4.651   1.983
 4651SOL     OW14851   0.120   2.008   1.599
 4651SOL    HW114852   0.067   1.928   1.572
 4651SOL    HW214853   0.162   2.049   1.517
 4652SOL     OW14854   0.163   6.260   5.905
 4652SOL    HW114855   0.091   6.223   5.965
 4652SOL    HW214856   0.226   6.315   5.959
 4653SOL     OW14857   0.724   5.812   6.706
 4653SOL    HW114858   0.750   5.760   6.624
 4653SOL    HW214859   0.782   5.893   6.713
 4654SOL     OW14860   1.073   1.317   6.553
 4654SOL    HW114861   1.054   1.342   6.458
 4654SOL    HW214862   0.999   1.259   6.588
 4655SOL     OW14863   0.488   5.400   3.338
 4655SOL    HW114864   0.416   5.357   3.393
 4655SOL    HW214865   0.563   5.335   3.325
 4656SOL     OW14866   1.889   6.757   3.157
 4656SOL    HW114867   1.922   6.838   3.109
 4656SOL    HW214868   1.798   6.733   3.122
 4657SOL     OW14869   5.870   0.262   6.865
 4657SOL    HW114870   5.874   0.319   6.947
 4657SOL    HW214871   5.925   0.304   6.793
 4658SOL     OW14872   5.336   0.947   3.404
 4658SOL    HW114873   5.309   0.860   3.363
 4658SOL    HW214874   5.374   0.930   3.494
 4659SOL     OW14875   2.225   2.355   4.185
 4659SOL    HW114876   2.162   2.293   4.232
 4659SOL    HW214877   2.306   2.368   4.242
 4660SOL     OW14878   6.702   0.697   5.824
 4660SOL    HW114879   6.802   0.709   5.830
 4660SOL    HW214880   6.681   0.614   5.773
 4661SOL     OW14881   4.125   3.313   3.374
 4661SOL    HW114882   4.190   3.263   3.317
 4661SOL    HW214883   4.112   3.405   3.335
 4662SOL     OW14884   5.255   0.506   4.886
 4662SOL    HW114885   5.209   0.428   4.928
 4662SOL    HW214886   5.243   0.502   4.786
 4663SOL     OW14887   0.203   1.708   2.497
 4663SOL    HW114888   0.163   1.751   2.578
 4663SOL    HW214889   0.188   1.766   2.417
 4664SOL     OW14890   3.542   2.304   6.896
 4664SOL    HW114891   3.468   2.372   6.897
 4664SOL    HW214892   3.506   2.217   6.862
 4665SOL     OW14893   5.421   0.789   0.181
 4665SOL    HW114894   5.483   0.713   0.159
 4665SOL    HW214895   5.332   0.772   0.139
 4666SOL     OW14896   2.170   1.104   0.486
 4666SOL    HW114897   2.225   1.165   0.542
 4666SOL    HW214898   2.191   1.117   0.390
 4667SOL     OW14899   0.687   5.433   5.963
 4667SOL    HW114900   0.614   5.392   5.908
 4667SOL    HW214901   0.659   5.433   6.059
 4668SOL     OW14902   5.919   1.920   4.624
 4668SOL    HW114903   5.920   1.937   4.525
 4668SOL    HW214904   5.936   2.005   4.673
 4669SOL     OW14905   3.007   0.256   0.601
 4669SOL    HW114906   3.032   0.302   0.516
 4669SOL    HW214907   2.957   0.172   0.580
 4670SOL     OW14908   2.009   1.082   4.392
 4670SOL    HW114909   2.040   1.048   4.481
 4670SOL    HW214910   2.005   1.006   4.327
 4671SOL     OW14911   5.754   3.449   0.872
 4671SOL    HW114912   5.789   3.364   0.913
 4671SOL    HW214913   5.714   3.428   0.783
 4672SOL     OW14914   2.432   3.650   5.854
 4672SOL    HW114915   2.354   3.703   5.823
 4672SOL    HW214916   2.439   3.566   5.800
 4673SOL     OW14917   3.478   0.486   2.594
 4673SOL    HW114918   3.491   0.402   2.543
 4673SOL    HW214919   3.389   0.526   2.571
 4674SOL     OW14920   4.408   6.474   6.101
 4674SOL    HW114921   4.336   6.502   6.165
 4674SOL    HW214922   4.496   6.510   6.133
 4675SOL     OW14923   1.458   4.016   6.386
 4675SOL    HW114924   1.490   4.110   6.387
 4675SOL    HW214925   1.444   3.985   6.292
 4676SOL     OW14926   1.198   5.738   3.957
 4676SOL    HW114927   1.222   5.814   3.897
 4676SOL    HW214928   1.215   5.651   3.909
 4677SOL     OW14929   1.105   3.459   0.547
 4677SOL    HW114930   1.098   3.558   0.561
 4677SOL    HW214931   1.111   3.413   0.635
 4678SOL     OW14932   2.387   4.470   2.321
 4678SOL    HW114933   2.328   4.548   2.300
 4678SOL    HW214934   2.357   4.427   2.407
 4679SOL     OW14935   4.500   0.157   1.537
 4679SOL    HW114936   4.484   0.101   1.618
 4679SOL    HW214937   4.563   0.109   1.476
 4680SOL     OW14938   2.309   0.890   0.969
 4680SOL    HW114939   2.339   0.810   1.023
 4680SOL    HW214940   2.305   0.865   0.872
 4681SOL     OW14941   4.964   5.300   1.526
 4681SOL    HW114942   4.889   5.344   1.577
 4681SOL    HW214943   5.049   5.349   1.545
 4682SOL     OW14944   3.752   4.209   6.937
 4682SOL    HW114945   3.839   4.234   6.895
 4682SOL    HW214946   3.706   4.291   6.969
 4683SOL     OW14947   6.174   4.841   4.226
 4683SOL    HW114948   6.077   4.833   4.252
 4683SOL    HW214949   6.211   4.750   4.208
 4684SOL     OW14950   5.501   0.014   0.389
 4684SOL    HW114951   5.419   0.041   0.439
 4684SOL    HW214952   5.582   0.046   0.438
 4685SOL     OW14953   3.141   4.034   5.364
 4685SOL    HW114954   3.115   4.090   5.285
 4685SOL    HW214955   3.170   3.944   5.333
 4686SOL     OW14956   3.397   5.785   0.427
 4686SOL    HW114957   3.337   5.777   0.348
 4686SOL    HW214958   3.349   5.757   0.509
 4687SOL     OW14959   2.996   0.719   3.110
 4687SOL    HW114960   2.931   0.649   3.140
 4687SOL    HW214961   2.950   0.783   3.049
 4688SOL     OW14962   5.829   3.432   5.396
 4688SOL    HW114963   5.793   3.463   5.308
 4688SOL    HW214964   5.795   3.492   5.468
 4689SOL     OW14965   5.830   0.805   2.389
 4689SOL    HW114966   5.818   0.846   2.479
 4689SOL    HW214967   5.897   0.731   2.395
 4690SOL     OW14968   2.035   2.389   0.978
 4690SOL    HW114969   2.120   2.382   1.031
 4690SOL    HW214970   1.958   2.366   1.037
 4691SOL     OW14971   6.560   3.971   1.452
 4691SOL    HW114972   6.539   3.884   1.496
 4691SOL    HW214973   6.494   4.040   1.481
 4692SOL     OW14974   5.494   3.250   2.203
 4692SOL    HW114975   5.415   3.254   2.142
 4692SOL    HW214976   5.489   3.326   2.268
 4693SOL     OW14977   1.662   1.040   3.593
 4693SOL    HW114978   1.606   0.973   3.640
 4693SOL    HW214979   1.614   1.128   3.589
 4694SOL     OW14980   1.948   0.818   0.353
 4694SOL    HW114981   1.988   0.735   0.391
 4694SOL    HW214982   1.954   0.815   0.253
 4695SOL     OW14983   1.552   6.193   1.696
 4695SOL    HW114984   1.571   6.261   1.767
 4695SOL    HW214985   1.530   6.240   1.610
 4696SOL     OW14986   2.143   5.369   6.030
 4696SOL    HW114987   2.209   5.296   6.011
 4696SOL    HW214988   2.062   5.330   6.073
 4697SOL     OW14989   4.150   5.288   1.500
 4697SOL    HW114990   4.115   5.372   1.458
 4697SOL    HW214991   4.157   5.300   1.599
 4698SOL     OW14992   5.054   1.251   3.676
 4698SOL    HW114993   5.147   1.227   3.706
 4698SOL    HW214994   5.028   1.338   3.717
 4699SOL     OW14995   1.771   6.950   2.504
 4699SOL    HW114996   1.691   6.979   2.556
 4699SOL    HW214997   1.793   7.018   2.435
 4700SOL     OW14998   5.966   1.887   2.213
 4700SOL    HW114999   5.937   1.971   2.260
 4700SOL    HW215000   5.925   1.808   2.258
 4701SOL     OW15001   2.850   2.269   1.710
 4701SOL    HW115002   2.883   2.187   1.756
 4701SOL    HW215003   2.871   2.349   1.767
 4702SOL     OW15004   5.194   5.035   6.739
 4702SOL    HW115005   5.138   4.952   6.742
 4702SOL    HW215006   5.287   5.012   6.712
 4703SOL     OW15007   0.960   5.557   3.515
 4703SOL    HW115008   0.935   5.630   3.451
 4703SOL    HW215009   0.880   5.499   3.531
 4704SOL     OW15010   1.301   5.302   5.143
 4704SOL    HW115011   1.289   5.235   5.216
 4704SOL    HW215012   1.378   5.362   5.164
 4705SOL     OW15013   3.518   1.978   1.612
 4705SOL    HW115014   3.482   1.921   1.539
 4705SOL    HW215015   3.441   2.023   1.660
 4706SOL     OW15016   2.548   1.360   0.407
 4706SOL    HW115017   2.627   1.378   0.465
 4706SOL    HW215018   2.465   1.389   0.454
 4707SOL     OW15019   1.451   6.372   1.992
 4707SOL    HW115020   1.418   6.457   1.952
 4707SOL    HW215021   1.484   6.389   2.085
 4708SOL     OW15022   0.986   2.405   4.473
 4708SOL    HW115023   1.053   2.347   4.519
 4708SOL    HW215024   1.030   2.487   4.437
 4709SOL     OW15025   4.895   3.809   5.252
 4709SOL    HW115026   4.841   3.761   5.183
 4709SOL    HW215027   4.960   3.745   5.294
 4710SOL     OW15028   6.455   5.813   4.917
 4710SOL    HW115029   6.514   5.742   4.879
 4710SOL    HW215030   6.479   5.830   5.012
 4711SOL     OW15031   5.066   4.084   2.820
 4711SOL    HW115032   5.125   4.163   2.831
 4711SOL    HW215033   5.117   4.001   2.842
 4712SOL     OW15034   4.802   4.442   5.597
 4712SOL    HW115035   4.770   4.415   5.688
 4712SOL    HW215036   4.783   4.368   5.532
 4713SOL     OW15037   6.190   3.963   1.190
 4713SOL    HW115038   6.194   3.923   1.282
 4713SOL    HW215039   6.283   3.981   1.158
 4714SOL     OW15040   4.805   1.638   6.500
 4714SOL    HW115041   4.882   1.654   6.562
 4714SOL    HW215042   4.722   1.624   6.554
 4715SOL     OW15043   6.185   1.239   2.037
 4715SOL    HW115044   6.162   1.143   2.027
 4715SOL    HW215045   6.171   1.267   2.132
 4716SOL     OW15046   3.861   5.011   6.050
 4716SOL    HW115047   3.869   4.929   5.994
 4716SOL    HW215048   3.782   5.003   6.111
 4717SOL     OW15049   2.792   4.937   5.505
 4717SOL    HW115050   2.804   5.001   5.429
 4717SOL    HW215051   2.768   4.847   5.469
 4718SOL     OW15052   4.814   4.459   0.954
 4718SOL    HW115053   4.899   4.478   1.003
 4718SOL    HW215054   4.779   4.543   0.913
 4719SOL     OW15055   0.485   4.116   3.618
 4719SOL    HW115056   0.533   4.045   3.671
 4719SOL    HW215057   0.498   4.099   3.521
 4720SOL     OW15058   2.278   3.581   6.708
 4720SOL    HW115059   2.254   3.599   6.613
 4720SOL    HW215060   2.204   3.531   6.753
 4721SOL     OW15061   6.492   2.758   2.683
 4721SOL    HW115062   6.580   2.798   2.658
 4721SOL    HW215063   6.424   2.830   2.697
 4722SOL     OW15064   1.313   5.321   0.118
 4722SOL    HW115065   1.247   5.248   0.133
 4722SOL    HW215066   1.307   5.387   0.194
 4723SOL     OW15067   4.036   4.043   0.272
 4723SOL    HW115068   3.966   4.100   0.315
 4723SOL    HW215069   3.992   3.972   0.217
 4724SOL     OW15070   0.590   6.518   4.642
 4724SOL    HW115071   0.534   6.529   4.725
 4724SOL    HW215072   0.615   6.422   4.631
 4725SOL     OW15073   5.271   5.678   0.956
 4725SOL    HW115074   5.231   5.763   0.921
 4725SOL    HW215075   5.295   5.619   0.879
 4726SOL     OW15076   1.219   3.431   5.689
 4726SOL    HW115077   1.163   3.498   5.737
 4726SOL    HW215078   1.295   3.477   5.643
 4727SOL     OW15079   0.306   5.094   1.396
 4727SOL    HW115080   0.376   5.117   1.329
 4727SOL    HW215081   0.310   5.159   1.472
 4728SOL     OW15082   6.744   1.825   4.843
 4728SOL    HW115083   6.699   1.829   4.753
 4728SOL    HW215084   6.710   1.745   4.893
 4729SOL     OW15085   5.681   1.405   1.917
 4729SOL    HW115086   5.699   1.308   1.898
 4729SOL    HW215087   5.674   1.418   2.016
 4730SOL     OW15088   2.965   6.899   4.544
 4730SOL    HW115089   3.048   6.952   4.526
 4730SOL    HW215090   2.912   6.944   4.615
 4731SOL     OW15091   3.165   6.458   0.485
 4731SOL    HW115092   3.126   6.366   0.494
 4731SOL    HW215093   3.217   6.464   0.400
 4732SOL     OW15094   0.542   5.090   4.545
 4732SOL    HW115095   0.580   5.182   4.548
 4732SOL    HW215096   0.573   5.038   4.624
 4733SOL     OW15097   1.880   3.637   3.355
 4733SOL    HW115098   1.877   3.543   3.387
 4733SOL    HW215099   1.807   3.651   3.287
 4734SOL     OW15100   4.654   3.371   6.699
 4734SOL    HW115101   4.746   3.389   6.733
 4734SOL    HW215102   4.589   3.430   6.748
 4735SOL     OW15103   7.024   0.276   5.004
 4735SOL    HW115104   0.018   0.178   5.015
 4735SOL    HW215105   7.016   0.298   4.907
 4736SOL     OW15106   6.516   1.852   3.675
 4736SOL    HW115107   6.505   1.899   3.763
 4736SOL    HW215108   6.473   1.906   3.603
 4737SOL     OW15109   2.181   5.037   0.191
 4737SOL    HW115110   2.141   4.993   0.271
 4737SOL    HW215111   2.123   5.113   0.162
 4738SOL     OW15112   1.494   6.575   3.511
 4738SOL    HW115113   1.555   6.515   3.459
 4738SOL    HW215114   1.422   6.610   3.451
 4739SOL     OW15115   6.055   2.977   3.366
 4739SOL    HW115116   5.964   3.016   3.352
 4739SOL    HW215117   6.079   2.984   3.463
 4740SOL     OW15118   1.158   0.839   1.750
 4740SOL    HW115119   1.104   0.875   1.827
 4740SOL    HW215120   1.130   0.745   1.731
 4741SOL     OW15121   4.423   4.521   1.846
 4741SOL    HW115122   4.441   4.425   1.822
 4741SOL    HW215123   4.456   4.539   1.938
 4742SOL     OW15124   2.334   6.008   2.252
 4742SOL    HW115125   2.358   6.059   2.170
 4742SOL    HW215126   2.417   5.967   2.290
 4743SOL     OW15127   2.443   2.534   0.374
 4743SOL    HW115128   2.474   2.620   0.414
 4743SOL    HW215129   2.365   2.500   0.426
 4744SOL     OW15130   1.766   3.095   4.791
 4744SOL    HW115131   1.711   3.179   4.794
 4744SOL    HW215132   1.825   3.091   4.871
 4745SOL     OW15133   3.000   5.906   4.949
 4745SOL    HW115134   3.015   5.822   5.002
 4745SOL    HW215135   3.086   5.935   4.908
 4746SOL     OW15136   6.188   0.415   0.640
 4746SOL    HW115137   6.243   0.369   0.709
 4746SOL    HW215138   6.096   0.432   0.675
 4747SOL     OW15139   6.518   2.577   1.603
 4747SOL    HW115140   6.437   2.587   1.545
 4747SOL    HW215141   6.539   2.665   1.646
 4748SOL     OW15142   1.844   0.883   1.270
 4748SOL    HW115143   1.930   0.869   1.221
 4748SOL    HW215144   1.844   0.972   1.314
 4749SOL     OW15145   1.761   0.092   6.385
 4749SOL    HW115146   1.762   7.017   6.390
 4749SOL    HW215147   1.835   0.129   6.440
 4750SOL     OW15148   0.086   1.679   4.600
 4750SOL    HW115149   0.067   1.637   4.689
 4750SOL    HW215150   0.183   1.702   4.595
 4751SOL     OW15151   1.137   3.335   6.601
 4751SOL    HW115152   1.145   3.431   6.572
 4751SOL    HW215153   1.197   3.319   6.680
 4752SOL     OW15154   2.932   6.331   1.658
 4752SOL    HW115155   2.851   6.376   1.696
 4752SOL    HW215156   2.930   6.338   1.558
 4753SOL     OW15157   6.955   6.926   4.549
 4753SOL    HW115158   6.875   6.907   4.493
 4753SOL    HW215159   0.013   6.902   4.499
 4754SOL     OW15160   0.832   7.017   5.178
 4754SOL    HW115161   0.925   0.023   5.200
 4754SOL    HW215162   0.766   0.040   5.235
 4755SOL     OW15163   2.538   1.922   0.675
 4755SOL    HW115164   2.464   1.876   0.626
 4755SOL    HW215165   2.608   1.952   0.610
 4756SOL     OW15166   5.349   2.931   1.134
 4756SOL    HW115167   5.314   2.927   1.228
 4756SOL    HW215168   5.449   2.927   1.135
 4757SOL     OW15169   2.129   1.989   1.514
 4757SOL    HW115170   2.049   2.047   1.499
 4757SOL    HW215171   2.209   2.046   1.532
 4758SOL     OW15172   5.122   4.376   5.078
 4758SOL    HW115173   5.139   4.362   4.980
 4758SOL    HW215174   5.209   4.392   5.125
 4759SOL     OW15175   6.046   4.930   5.477
 4759SOL    HW115176   6.035   4.831   5.484
 4759SOL    HW215177   6.037   4.958   5.381
 4760SOL     OW15178   1.431   2.254   0.895
 4760SOL    HW115179   1.370   2.219   0.966
 4760SOL    HW215180   1.477   2.178   0.849
 4761SOL     OW15181   1.153   6.086   5.665
 4761SOL    HW115182   1.187   6.050   5.579
 4761SOL    HW215183   1.102   6.170   5.648
 4762SOL     OW15184   3.015   6.572   2.394
 4762SOL    HW115185   3.110   6.592   2.372
 4762SOL    HW215186   3.010   6.508   2.471
 4763SOL     OW15187   5.889   5.222   4.670
 4763SOL    HW115188   5.925   5.260   4.585
 4763SOL    HW215189   5.903   5.288   4.744
 4764SOL     OW15190   4.122   3.310   4.978
 4764SOL    HW115191   4.190   3.242   4.954
 4764SOL    HW215192   4.157   3.367   5.053
 4765SOL     OW15193   6.351   5.112   5.023
 4765SOL    HW115194   6.334   5.043   5.094
 4765SOL    HW215195   6.270   5.120   4.965
 4766SOL     OW15196   2.970   0.482   3.421
 4766SOL    HW115197   2.931   0.476   3.329
 4766SOL    HW215198   3.052   0.426   3.426
 4767SOL     OW15199   4.511   5.521   6.278
 4767SOL    HW115200   4.532   5.470   6.194
 4767SOL    HW215201   4.443   5.471   6.332
 4768SOL     OW15202   0.119   0.928   5.059
 4768SOL    HW115203   0.199   0.868   5.063
 4768SOL    HW215204   0.086   0.935   4.965
 4769SOL     OW15205   3.420   6.917   1.348
 4769SOL    HW115206   3.474   6.896   1.429
 4769SOL    HW215207   3.329   6.949   1.375
 4770SOL     OW15208   2.597   0.327   3.800
 4770SOL    HW115209   2.633   0.383   3.875
 4770SOL    HW215210   2.638   0.356   3.714
 4771SOL     OW15211   4.030   4.234   5.659
 4771SOL    HW115212   3.978   4.294   5.720
 4771SOL    HW215213   4.075   4.290   5.589
 4772SOL     OW15214   2.174   2.479   1.566
 4772SOL    HW115215   2.154   2.475   1.468
 4772SOL    HW215216   2.123   2.556   1.607
 4773SOL     OW15217   6.381   6.093   3.912
 4773SOL    HW115218   6.329   6.120   3.831
 4773SOL    HW215219   6.366   6.161   3.984
 4774SOL     OW15220   0.921   4.320   0.745
 4774SOL    HW115221   1.015   4.338   0.774
 4774SOL    HW215222   0.865   4.302   0.826
 4775SOL     OW15223   3.251   0.656   2.010
 4775SOL    HW115224   3.300   0.596   2.074
 4775SOL    HW215225   3.315   0.723   1.972
 4776SOL     OW15226   3.583   5.361   1.755
 4776SOL    HW115227   3.517   5.428   1.722
 4776SOL    HW215228   3.536   5.286   1.800
 4777SOL     OW15229   2.889   4.293   1.497
 4777SOL    HW115230   2.828   4.284   1.418
 4777SOL    HW215231   2.864   4.225   1.565
 4778SOL     OW15232   4.932   3.843   1.844
 4778SOL    HW115233   4.885   3.841   1.932
 4778SOL    HW215234   4.880   3.899   1.780
 4779SOL     OW15235   5.291   0.729   3.258
 4779SOL    HW115236   5.299   0.780   3.172
 4779SOL    HW215237   5.322   0.635   3.244
 4780SOL     OW15238   1.728   6.389   5.913
 4780SOL    HW115239   1.763   6.323   5.847
 4780SOL    HW215240   1.804   6.445   5.948
 4781SOL     OW15241   2.345   5.535   2.567
 4781SOL    HW115242   2.332   5.474   2.488
 4781SOL    HW215243   2.270   5.521   2.632
 4782SOL     OW15244   5.450   6.175   6.267
 4782SOL    HW115245   5.360   6.151   6.232
 4782SOL    HW215246   5.441   6.243   6.340
 4783SOL     OW15247   6.266   4.479   1.529
 4783SOL    HW115248   6.190   4.414   1.540
 4783SOL    HW215249   6.328   4.445   1.458
 4784SOL     OW15250   6.061   4.717   5.095
 4784SOL    HW115251   6.007   4.644   5.136
 4784SOL    HW215252   6.151   4.681   5.068
 4785SOL     OW15253   6.239   0.331   0.913
 4785SOL    HW115254   6.317   0.275   0.887
 4785SOL    HW215255   6.255   0.371   1.004
 4786SOL     OW15256   1.393   3.165   2.287
 4786SOL    HW115257   1.433   3.256   2.289
 4786SOL    HW215258   1.315   3.163   2.225
 4787SOL     OW15259   3.440   2.037   2.067
 4787SOL    HW115260   3.453   1.958   2.126
 4787SOL    HW215261   3.524   2.091   2.064
 4788SOL     OW15262   1.103   5.558   4.340
 4788SOL    HW115263   1.028   5.527   4.282
 4788SOL    HW215264   1.137   5.646   4.306
 4789SOL     OW15265   6.129   0.076   0.832
 4789SOL    HW115266   6.048   0.044   0.881
 4789SOL    HW215267   6.151   0.169   0.862
 4790SOL     OW15268   4.811   1.064   0.273
 4790SOL    HW115269   4.760   1.021   0.347
 4790SOL    HW215270   4.764   1.048   0.186
 4791SOL     OW15271   4.696   0.129   2.852
 4791SOL    HW115272   4.673   0.167   2.762
 4791SOL    HW215273   4.670   0.195   2.923
 4792SOL     OW15274   2.392   2.417   1.828
 4792SOL    HW115275   2.364   2.354   1.901
 4792SOL    HW215276   2.317   2.430   1.764
 4793SOL     OW15277   1.246   6.955   5.941
 4793SOL    HW115278   1.196   6.925   5.859
 4793SOL    HW215279   1.259   6.877   6.002
 4794SOL     OW15280   3.685   0.696   2.094
 4794SOL    HW115281   3.773   0.705   2.140
 4794SOL    HW215282   3.611   0.699   2.161
 4795SOL     OW15283   6.419   2.990   4.544
 4795SOL    HW115284   6.361   2.933   4.602
 4795SOL    HW215285   6.362   3.048   4.486
 4796SOL     OW15286   6.011   3.849   1.009
 4796SOL    HW115287   6.077   3.884   1.076
 4796SOL    HW215288   6.002   3.750   1.020
 4797SOL     OW15289   0.483   4.854   5.236
 4797SOL    HW115290   0.424   4.934   5.251
 4797SOL    HW215291   0.439   4.792   5.171
 4798SOL     OW15292   6.936   4.019   4.670
 4798SOL    HW115293   6.954   4.087   4.741
 4798SOL    HW215294   7.019   3.967   4.652
 4799SOL     OW15295   3.940   1.299   4.990
 4799SOL    HW115296   3.988   1.368   5.044
 4799SOL    HW215297   3.847   1.329   4.971
 4800SOL     OW15298   1.722   1.531   4.307
 4800SOL    HW115299   1.641   1.499   4.356
 4800SOL    HW215300   1.695   1.605   4.245
 4801SOL     OW15301   0.728   2.686   0.942
 4801SOL    HW115302   0.655   2.747   0.909
 4801SOL    HW215303   0.753   2.622   0.870
 4802SOL     OW15304   2.537   0.584   2.328
 4802SOL    HW115305   2.540   0.626   2.237
 4802SOL    HW215306   2.543   0.655   2.398
 4803SOL     OW15307   1.336   6.927   0.473
 4803SOL    HW115308   1.332   6.831   0.446
 4803SOL    HW215309   1.267   6.946   0.542
 4804SOL     OW15310   4.110   5.316   0.066
 4804SOL    HW115311   4.145   5.387   0.127
 4804SOL    HW215312   4.012   5.304   0.081
 4805SOL     OW15313   0.901   2.059   0.891
 4805SOL    HW115314   0.961   2.021   0.821
 4805SOL    HW215315   0.953   2.121   0.950
 4806SOL     OW15316   0.639   2.946   3.022
 4806SOL    HW115317   0.618   2.979   2.930
 4806SOL    HW215318   0.737   2.926   3.029
 4807SOL     OW15319   0.029   6.354   0.904
 4807SOL    HW115320   0.071   6.437   0.940
 4807SOL    HW215321   6.975   6.377   0.848
 4808SOL     OW15322   4.908   3.263   1.106
 4808SOL    HW115323   4.829   3.298   1.057
 4808SOL    HW215324   4.891   3.168   1.134
 4809SOL     OW15325   4.403   6.009   6.924
 4809SOL    HW115326   4.323   6.068   6.934
 4809SOL    HW215327   4.485   6.058   6.956
 4810SOL     OW15328   0.876   0.693   1.177
 4810SOL    HW115329   0.795   0.692   1.118
 4810SOL    HW215330   0.848   0.710   1.271
 4811SOL     OW15331   4.662   6.044   2.540
 4811SOL    HW115332   4.675   5.957   2.587
 4811SOL    HW215333   4.751   6.085   2.519
 4812SOL     OW15334   6.606   5.322   4.413
 4812SOL    HW115335   6.598   5.307   4.315
 4812SOL    HW215336   6.631   5.417   4.431
 4813SOL     OW15337   5.712   2.710   2.339
 4813SOL    HW115338   5.757   2.638   2.393
 4813SOL    HW215339   5.622   2.729   2.378
 4814SOL     OW15340   7.016   3.103   1.719
 4814SOL    HW115341   7.008   3.199   1.693
 4814SOL    HW215342   0.058   3.094   1.793
 4815SOL     OW15343   4.209   6.330   2.429
 4815SOL    HW115344   4.267   6.251   2.407
 4815SOL    HW215345   4.266   6.411   2.441
 4816SOL     OW15346   5.353   5.705   3.202
 4816SOL    HW115347   5.295   5.702   3.121
 4816SOL    HW215348   5.313   5.648   3.274
 4817SOL     OW15349   6.874   1.394   6.844
 4817SOL    HW115350   6.952   1.419   6.787
 4817SOL    HW215351   6.904   1.379   6.938
 4818SOL     OW15352   0.516   6.697   4.149
 4818SOL    HW115353   0.597   6.711   4.094
 4818SOL    HW215354   0.438   6.674   4.090
 4819SOL     OW15355   1.490   2.996   0.633
 4819SOL    HW115356   1.572   2.999   0.691
 4819SOL    HW215357   1.477   2.904   0.597
 4820SOL     OW15358   0.562   3.093   2.421
 4820SOL    HW115359   0.618   3.017   2.452
 4820SOL    HW215360   0.492   3.059   2.358
 4821SOL     OW15361   6.783   5.803   3.085
 4821SOL    HW115362   6.733   5.750   3.016
 4821SOL    HW215363   6.793   5.897   3.053
 4822SOL     OW15364   1.836   3.729   4.693
 4822SOL    HW115365   1.932   3.742   4.671
 4822SOL    HW215366   1.781   3.738   4.611
 4823SOL     OW15367   1.566   3.142   1.752
 4823SOL    HW115368   1.575   3.132   1.851
 4823SOL    HW215369   1.631   3.211   1.720
 4824SOL     OW15370   5.937   1.312   6.193
 4824SOL    HW115371   6.036   1.310   6.183
 4824SOL    HW215372   5.899   1.389   6.142
 4825SOL     OW15373   1.388   6.755   3.908
 4825SOL    HW115374   1.323   6.695   3.861
 4825SOL    HW215375   1.481   6.730   3.881
 4826SOL     OW15376   4.123   0.546   1.651
 4826SOL    HW115377   4.220   0.558   1.627
 4826SOL    HW215378   4.098   0.450   1.639
 4827SOL     OW15379   0.165   1.986   0.741
 4827SOL    HW115380   0.145   1.941   0.654
 4827SOL    HW215381   0.094   1.964   0.807
 4828SOL     OW15382   4.936   1.191   4.292
 4828SOL    HW115383   4.843   1.207   4.326
 4828SOL    HW215384   4.980   1.119   4.345
 4829SOL     OW15385   4.145   6.770   4.826
 4829SOL    HW115386   4.065   6.763   4.885
 4829SOL    HW215387   4.117   6.798   4.734
 4830SOL     OW15388   2.803   6.170   3.274
 4830SOL    HW115389   2.894   6.207   3.256
 4830SOL    HW215390   2.779   6.106   3.201
 4831SOL     OW15391   3.118   4.358   5.419
 4831SOL    HW115392   3.113   4.374   5.320
 4831SOL    HW215393   3.041   4.302   5.448
 4832SOL     OW15394   3.445   3.908   4.358
 4832SOL    HW115395   3.500   3.832   4.322
 4832SOL    HW215396   3.450   3.908   4.458
 4833SOL     OW15397   6.390   3.565   4.499
 4833SOL    HW115398   6.327   3.635   4.532
 4833SOL    HW215399   6.478   3.608   4.477
 4834SOL     OW15400   1.403   4.866   1.333
 4834SOL    HW115401   1.318   4.856   1.281
 4834SOL    HW215402   1.387   4.927   1.411
 4835SOL     OW15403   6.802   2.556   5.650
 4835SOL    HW115404   6.802   2.528   5.554
 4835SOL    HW215405   6.710   2.584   5.676
 4836SOL     OW15406   4.670   1.625   5.758
 4836SOL    HW115407   4.622   1.575   5.830
 4836SOL    HW215408   4.606   1.643   5.682
 4837SOL     OW15409   0.361   3.574   3.792
 4837SOL    HW115410   0.423   3.650   3.774
 4837SOL    HW215411   0.350   3.562   3.891
 4838SOL     OW15412   2.690   3.755   5.942
 4838SOL    HW115413   2.750   3.733   5.865
 4838SOL    HW215414   2.598   3.721   5.923
 4839SOL     OW15415   2.353   1.231   0.654
 4839SOL    HW115416   2.370   1.226   0.752
 4839SOL    HW215417   2.347   1.327   0.626
 4840SOL     OW15418   6.153   4.120   4.142
 4840SOL    HW115419   6.151   4.147   4.045
 4840SOL    HW215420   6.125   4.197   4.199
 4841SOL     OW15421   3.333   6.261   3.382
 4841SOL    HW115422   3.341   6.185   3.317
 4841SOL    HW215423   3.417   6.314   3.383
 4842SOL     OW15424   3.759   5.580   3.339
 4842SOL    HW115425   3.848   5.544   3.310
 4842SOL    HW215426   3.725   5.526   3.415
 4843SOL     OW15427   0.034   1.625   0.306
 4843SOL    HW115428   6.962   1.603   0.318
 4843SOL    HW215429   0.042   1.718   0.269
 4844SOL     OW15430   2.059   5.628   5.232
 4844SOL    HW115431   2.120   5.695   5.189
 4844SOL    HW215432   2.110   5.571   5.295
 4845SOL     OW15433   4.843   3.959   4.951
 4845SOL    HW115434   4.791   3.881   4.917
 4845SOL    HW215435   4.848   3.956   5.051
 4846SOL     OW15436   6.654   3.643   4.455
 4846SOL    HW115437   6.651   3.737   4.487
 4846SOL    HW215438   6.748   3.609   4.459
 4847SOL     OW15439   2.794   6.384   5.941
 4847SOL    HW115440   2.750   6.446   5.876
 4847SOL    HW215441   2.840   6.438   6.011
 4848SOL     OW15442   3.944   1.094   4.159
 4848SOL    HW115443   3.850   1.096   4.192
 4848SOL    HW215444   3.944   1.115   4.061
 4849SOL     OW15445   2.205   6.454   1.333
 4849SOL    HW115446   2.215   6.544   1.289
 4849SOL    HW215447   2.262   6.450   1.415
 4850SOL     OW15448   3.949   0.270   0.778
 4850SOL    HW115449   3.925   0.214   0.699
 4850SOL    HW215450   4.019   0.224   0.832
 4851SOL     OW15451   3.594   4.634   6.531
 4851SOL    HW115452   3.498   4.613   6.549
 4851SOL    HW215453   3.651   4.563   6.571
 4852SOL     OW15454   5.827   5.066   5.573
 4852SOL    HW115455   5.917   5.032   5.546
 4852SOL    HW215456   5.808   5.151   5.524
 4853SOL     OW15457   4.089   6.949   2.535
 4853SOL    HW115458   4.037   6.864   2.523
 4853SOL    HW215459   4.186   6.929   2.538
 4854SOL     OW15460   5.428   6.407   2.010
 4854SOL    HW115461   5.336   6.379   2.039
 4854SOL    HW215462   5.433   6.405   1.910
 4855SOL     OW15463   4.986   4.991   5.901
 4855SOL    HW115464   4.917   4.950   5.842
 4855SOL    HW215465   5.035   5.063   5.851
 4856SOL     OW15466   0.675   3.737   2.832
 4856SOL    HW115467   0.770   3.706   2.843
 4856SOL    HW215468   0.615   3.658   2.824
 4857SOL     OW15469   2.456   2.546   5.070
 4857SOL    HW115470   2.464   2.629   5.125
 4857SOL    HW215471   2.438   2.468   5.131
 4858SOL     OW15472   1.403   6.377   4.783
 4858SOL    HW115473   1.399   6.278   4.773
 4858SOL    HW215474   1.442   6.399   4.873
 4859SOL     OW15475   0.032   6.373   2.565
 4859SOL    HW115476   0.109   6.374   2.628
 4859SOL    HW215477   6.972   6.365   2.616
 4860SOL     OW15478   4.434   5.460   1.656
 4860SOL    HW115479   4.362   5.399   1.691
 4860SOL    HW215480   4.453   5.438   1.560
 4861SOL     OW15481   0.441   3.959   6.206
 4861SOL    HW115482   0.417   3.886   6.142
 4861SOL    HW215483   0.539   3.977   6.201
 4862SOL     OW15484   2.124   5.700   4.401
 4862SOL    HW115485   2.103   5.769   4.471
 4862SOL    HW215486   2.076   5.615   4.423
 4863SOL     OW15487   5.128   2.587   2.887
 4863SOL    HW115488   5.118   2.679   2.925
 4863SOL    HW215489   5.218   2.579   2.843
 4864SOL     OW15490   1.756   1.353   0.980
 4864SOL    HW115491   1.760   1.415   1.059
 4864SOL    HW215492   1.722   1.264   1.009
 4865SOL     OW15493   3.794   6.059   5.395
 4865SOL    HW115494   3.760   6.152   5.391
 4865SOL    HW215495   3.885   6.058   5.437
 4866SOL     OW15496   0.130   4.505   1.822
 4866SOL    HW115497   0.222   4.495   1.862
 4866SOL    HW215498   0.138   4.547   1.732
 4867SOL     OW15499   5.186   5.331   3.618
 4867SOL    HW115500   5.222   5.355   3.708
 4867SOL    HW215501   5.101   5.382   3.602
 4868SOL     OW15502   1.621   6.679   1.823
 4868SOL    HW115503   1.609   6.749   1.893
 4868SOL    HW215504   1.557   6.695   1.748
 4869SOL     OW15505   6.096   1.592   1.109
 4869SOL    HW115506   6.116   1.556   1.018
 4869SOL    HW215507   6.165   1.559   1.174
 4870SOL     OW15508   6.747   0.142   0.975
 4870SOL    HW115509   6.837   0.106   0.996
 4870SOL    HW215510   6.756   0.233   0.933
 4871SOL     OW15511   1.225   2.993   4.491
 4871SOL    HW115512   1.252   3.038   4.576
 4871SOL    HW215513   1.130   2.963   4.497
 4872SOL     OW15514   0.667   0.509   4.042
 4872SOL    HW115515   0.743   0.506   3.978
 4872SOL    HW215516   0.685   0.580   4.111
 4873SOL     OW15517   1.170   6.051   4.785
 4873SOL    HW115518   1.077   6.086   4.792
 4873SOL    HW215519   1.200   6.055   4.690
 4874SOL     OW15520   5.421   3.046   3.819
 4874SOL    HW115521   5.327   3.036   3.853
 4874SOL    HW215522   5.473   3.103   3.883
 4875SOL     OW15523   6.322   2.858   6.369
 4875SOL    HW115524   6.422   2.855   6.372
 4875SOL    HW215525   6.287   2.869   6.462
 4876SOL     OW15526   0.270   1.569   0.153
 4876SOL    HW115527   0.332   1.648   0.146
 4876SOL    HW215528   0.180   1.600   0.182
 4877SOL     OW15529   6.511   1.410   1.191
 4877SOL    HW115530   6.591   1.449   1.146
 4877SOL    HW215531   6.541   1.349   1.264
 4878SOL     OW15532   6.768   2.625   1.931
 4878SOL    HW115533   6.793   2.647   2.025
 4878SOL    HW215534   6.823   2.679   1.868
 4879SOL     OW15535   4.486   6.106   3.517
 4879SOL    HW115536   4.548   6.164   3.464
 4879SOL    HW215537   4.398   6.151   3.526
 4880SOL     OW15538   6.179   2.392   6.130
 4880SOL    HW115539   6.255   2.422   6.188
 4880SOL    HW215540   6.092   2.414   6.175
 4881SOL     OW15541   2.904   5.426   6.663
 4881SOL    HW115542   2.968   5.501   6.648
 4881SOL    HW215543   2.816   5.448   6.620
 4882SOL     OW15544   4.997   0.021   6.315
 4882SOL    HW115545   5.090   0.002   6.345
 4882SOL    HW215546   4.986   7.019   6.220
 4883SOL     OW15547   6.226   5.313   0.467
 4883SOL    HW115548   6.254   5.402   0.503
 4883SOL    HW215549   6.306   5.260   0.440
 4884SOL     OW15550   3.767   6.514   2.321
 4884SOL    HW115551   3.853   6.474   2.290
 4884SOL    HW215552   3.703   6.518   2.245
 4885SOL     OW15553   2.085   6.791   2.933
 4885SOL    HW115554   2.131   6.880   2.930
 4885SOL    HW215555   2.150   6.722   2.964
 4886SOL     OW15556   6.205   0.935   6.240
 4886SOL    HW115557   6.153   0.883   6.308
 4886SOL    HW215558   6.156   0.935   6.153
 4887SOL     OW15559   0.444   1.704   5.466
 4887SOL    HW115560   0.442   1.666   5.374
 4887SOL    HW215561   0.518   1.771   5.473
 4888SOL     OW15562   3.133   5.337   1.639
 4888SOL    HW115563   3.043   5.316   1.679
 4888SOL    HW215564   3.177   5.409   1.693
 4889SOL     OW15565   1.200   2.920   6.509
 4889SOL    HW115566   1.239   2.844   6.560
 4889SOL    HW215567   1.101   2.908   6.501
 4890SOL     OW15568   1.264   0.105   4.659
 4890SOL    HW115569   1.327   0.073   4.589
 4890SOL    HW215570   1.195   0.035   4.677
 4891SOL     OW15571   1.634   3.836   1.102
 4891SOL    HW115572   1.577   3.911   1.068
 4891SOL    HW215573   1.730   3.864   1.103
 4892SOL     OW15574   2.190   5.885   1.463
 4892SOL    HW115575   2.091   5.871   1.464
 4892SOL    HW215576   2.211   5.982   1.451
 4893SOL     OW15577   1.053   3.213   6.357
 4893SOL    HW115578   1.085   3.242   6.447
 4893SOL    HW215579   1.058   3.291   6.294
 4894SOL     OW15580   1.852   1.414   3.313
 4894SOL    HW115581   1.823   1.466   3.232
 4894SOL    HW215582   1.776   1.410   3.378
 4895SOL     OW15583   5.708   4.136   0.186
 4895SOL    HW115584   5.728   4.086   0.270
 4895SOL    HW215585   5.613   4.166   0.186
 4896SOL     OW15586   4.557   5.859   3.375
 4896SOL    HW115587   4.501   5.777   3.367
 4896SOL    HW215588   4.508   5.929   3.427
 4897SOL     OW15589   3.165   5.774   6.052
 4897SOL    HW115590   3.133   5.729   5.968
 4897SOL    HW215591   3.221   5.711   6.105
 4898SOL     OW15592   5.927   2.429   4.821
 4898SOL    HW115593   5.991   2.390   4.886
 4898SOL    HW215594   5.861   2.486   4.870
 4899SOL     OW15595   5.424   4.161   4.567
 4899SOL    HW115596   5.324   4.153   4.571
 4899SOL    HW215597   5.454   4.233   4.630
 4900SOL     OW15598   0.942   6.729   5.316
 4900SOL    HW115599   0.971   6.815   5.358
 4900SOL    HW215600   0.857   6.744   5.265
 4901SOL     OW15601   0.676   6.446   3.259
 4901SOL    HW115602   0.648   6.380   3.189
 4901SOL    HW215603   0.675   6.538   3.220
 4902SOL     OW15604   3.109   4.773   1.967
 4902SOL    HW115605   3.103   4.712   1.888
 4902SOL    HW215606   3.043   4.744   2.036
 4903SOL     OW15607   5.552   5.905   5.924
 4903SOL    HW115608   5.497   5.974   5.877
 4903SOL    HW215609   5.563   5.825   5.865
 4904SOL     OW15610   3.623   6.282   3.532
 4904SOL    HW115611   3.595   6.243   3.620
 4904SOL    HW215612   3.607   6.215   3.460
 4905SOL     OW15613   6.424   3.397   3.252
 4905SOL    HW115614   6.476   3.472   3.211
 4905SOL    HW215615   6.465   3.309   3.226
 4906SOL     OW15616   5.166   0.379   1.461
 4906SOL    HW115617   5.107   0.417   1.532
 4906SOL    HW215618   5.124   0.396   1.371
 4907SOL     OW15619   2.166   1.877   2.198
 4907SOL    HW115620   2.195   1.859   2.104
 4907SOL    HW215621   2.240   1.850   2.261
 4908SOL     OW15622   3.691   5.705   6.930
 4908SOL    HW115623   3.724   5.767   6.859
 4908SOL    HW215624   3.765   5.643   6.956
 4909SOL     OW15625   5.927   0.107   5.637
 4909SOL    HW115626   5.867   0.174   5.594
 4909SOL    HW215627   6.002   0.085   5.574
 4910SOL     OW15628   5.861   0.259   6.435
 4910SOL    HW115629   5.774   0.237   6.479
 4910SOL    HW215630   5.844   0.304   6.348
 4911SOL     OW15631   0.602   2.836   6.230
 4911SOL    HW115632   0.557   2.925   6.236
 4911SOL    HW215633   0.561   2.774   6.298
 4912SOL     OW15634   2.618   2.415   2.099
 4912SOL    HW115635   2.715   2.396   2.119
 4912SOL    HW215636   2.612   2.486   2.030
 4913SOL     OW15637   2.956   3.314   2.393
 4913SOL    HW115638   2.910   3.322   2.482
 4913SOL    HW215639   3.024   3.387   2.384
 4914SOL     OW15640   1.543   6.471   2.569
 4914SOL    HW115641   1.460   6.430   2.609
 4914SOL    HW215642   1.534   6.570   2.569
 4915SOL     OW15643   3.079   5.627   3.046
 4915SOL    HW115644   3.048   5.705   3.102
 4915SOL    HW215645   3.174   5.641   3.020
 4916SOL     OW15646   1.935   1.544   2.459
 4916SOL    HW115647   1.949   1.639   2.432
 4916SOL    HW215648   1.861   1.539   2.526
 4917SOL     OW15649   2.289   5.472   6.590
 4917SOL    HW115650   2.322   5.391   6.637
 4917SOL    HW215651   2.302   5.552   6.649
 4918SOL     OW15652   2.153   0.735   3.436
 4918SOL    HW115653   2.135   0.662   3.502
 4918SOL    HW215654   2.248   0.730   3.405
 4919SOL     OW15655   2.724   3.020   1.601
 4919SOL    HW115656   2.749   2.936   1.649
 4919SOL    HW215657   2.683   3.085   1.665
 4920SOL     OW15658   4.197   0.837   0.499
 4920SOL    HW115659   4.143   0.773   0.445
 4920SOL    HW215660   4.195   0.809   0.595
 4921SOL     OW15661   1.448   4.443   1.823
 4921SOL    HW115662   1.455   4.516   1.891
 4921SOL    HW215663   1.513   4.370   1.846
 4922SOL     OW15664   0.877   2.708   5.583
 4922SOL    HW115665   0.782   2.736   5.600
 4922SOL    HW215666   0.922   2.776   5.526
 4923SOL     OW15667   3.170   2.134   0.499
 4923SOL    HW115668   3.234   2.193   0.548
 4923SOL    HW215669   3.103   2.097   0.563
 4924SOL     OW15670   0.338   3.835   4.509
 4924SOL    HW115671   0.293   3.770   4.449
 4924SOL    HW215672   0.429   3.800   4.534
 4925SOL     OW15673   4.801   5.849   6.350
 4925SOL    HW115674   4.802   5.810   6.258
 4925SOL    HW215675   4.894   5.876   6.376
 4926SOL     OW15676   3.964   2.554   1.583
 4926SOL    HW115677   3.901   2.627   1.609
 4926SOL    HW215678   3.917   2.465   1.589
 4927SOL     OW15679   3.846   3.888   2.959
 4927SOL    HW115680   3.811   3.976   2.993
 4927SOL    HW215681   3.875   3.832   3.036
 4928SOL     OW15682   0.535   6.376   0.463
 4928SOL    HW115683   0.539   6.427   0.549
 4928SOL    HW215684   0.466   6.304   0.469
 4929SOL     OW15685   0.883   5.153   4.343
 4929SOL    HW115686   0.897   5.060   4.379
 4929SOL    HW215687   0.814   5.200   4.398
 4930SOL     OW15688   6.874   2.544   0.578
 4930SOL    HW115689   6.870   2.618   0.511
 4930SOL    HW215690   6.843   2.578   0.667
 4931SOL     OW15691   6.993   0.507   0.999
 4931SOL    HW115692   0.050   0.530   0.947
 4931SOL    HW215693   7.003   0.540   1.093
 4932SOL     OW15694   4.262   2.090   1.146
 4932SOL    HW115695   4.276   2.125   1.239
 4932SOL    HW215696   4.192   2.144   1.101
 4933SOL     OW15697   2.900   0.986   5.223
 4933SOL    HW115698   2.876   0.972   5.127
 4933SOL    HW215699   2.941   0.903   5.259
 4934SOL     OW15700   1.313   5.756   5.305
 4934SOL    HW115701   1.331   5.748   5.207
 4934SOL    HW215702   1.399   5.770   5.354
 4935SOL     OW15703   1.672   1.139   0.180
 4935SOL    HW115704   1.769   1.154   0.158
 4935SOL    HW215705   1.665   1.065   0.246
 4936SOL     OW15706   4.566   5.817   1.292
 4936SOL    HW115707   4.624   5.880   1.241
 4936SOL    HW215708   4.507   5.868   1.354
 4937SOL     OW15709   1.200   2.955   5.810
 4937SOL    HW115710   1.249   3.040   5.793
 4937SOL    HW215711   1.104   2.975   5.829
 4938SOL     OW15712   3.295   4.929   1.799
 4938SOL    HW115713   3.336   4.906   1.887
 4938SOL    HW215714   3.214   4.872   1.784
 4939SOL     OW15715   0.948   1.629   1.848
 4939SOL    HW115716   0.875   1.590   1.792
 4939SOL    HW215717   1.014   1.557   1.871
 4940SOL     OW15718   0.190   1.846   5.404
 4940SOL    HW115719   0.277   1.813   5.440
 4940SOL    HW215720   0.116   1.820   5.466
 4941SOL     OW15721   4.448   2.217   5.442
 4941SOL    HW115722   4.361   2.244   5.484
 4941SOL    HW215723   4.523   2.245   5.502
 4942SOL     OW15724   0.033   1.522   3.678
 4942SOL    HW115725   0.083   1.609   3.684
 4942SOL    HW215726   0.007   1.505   3.584
 4943SOL     OW15727   4.917   2.730   6.912
 4943SOL    HW115728   5.002   2.758   6.867
 4943SOL    HW215729   4.905   2.632   6.903
 4944SOL     OW15730   0.769   5.021   0.141
 4944SOL    HW115731   0.676   5.008   0.173
 4944SOL    HW215732   0.827   5.050   0.217
 4945SOL     OW15733   2.075   0.521   5.535
 4945SOL    HW115734   2.100   0.544   5.441
 4945SOL    HW215735   2.012   0.444   5.535
 4946SOL     OW15736   2.994   5.149   0.162
 4946SOL    HW115737   3.086   5.186   0.177
 4946SOL    HW215738   2.930   5.194   0.224
 4947SOL     OW15739   1.511   0.678   1.302
 4947SOL    HW115740   1.541   0.594   1.256
 4947SOL    HW215741   1.527   0.670   1.401
 4948SOL     OW15742   1.854   2.453   2.166
 4948SOL    HW115743   1.754   2.462   2.168
 4948SOL    HW215744   1.878   2.364   2.127
 4949SOL     OW15745   6.842   4.331   6.512
 4949SOL    HW115746   6.786   4.359   6.590
 4949SOL    HW215747   6.878   4.239   6.529
 4950SOL     OW15748   3.508   4.417   5.885
 4950SOL    HW115749   3.527   4.365   5.968
 4950SOL    HW215750   3.445   4.364   5.827
 4951SOL     OW15751   5.169   5.861   2.987
 4951SOL    HW115752   5.238   5.842   2.917
 4951SOL    HW215753   5.107   5.783   2.995
 4952SOL     OW15754   0.340   0.310   6.507
 4952SOL    HW115755   0.391   0.289   6.591
 4952SOL    HW215756   0.353   0.236   6.441
 4953SOL     OW15757   0.909   2.330   4.798
 4953SOL    HW115758   0.976   2.391   4.839
 4953SOL    HW215759   0.926   2.323   4.700
 4954SOL     OW15760   3.031   3.947   4.634
 4954SOL    HW115761   3.003   3.889   4.558
 4954SOL    HW215762   3.110   4.002   4.607
 4955SOL     OW15763   4.108   5.575   5.642
 4955SOL    HW115764   4.094   5.484   5.681
 4955SOL    HW215765   4.020   5.616   5.620
 4956SOL     OW15766   2.959   0.230   5.191
 4956SOL    HW115767   2.923   0.286   5.266
 4956SOL    HW215768   3.059   0.235   5.192
 4957SOL     OW15769   5.582   4.696   6.160
 4957SOL    HW115770   5.637   4.614   6.177
 4957SOL    HW215771   5.599   4.730   6.067
 4958SOL     OW15772   4.197   6.019   0.505
 4958SOL    HW115773   4.138   5.958   0.557
 4958SOL    HW215774   4.291   5.984   0.507
 4959SOL     OW15775   0.531   2.166   2.943
 4959SOL    HW115776   0.449   2.128   2.985
 4959SOL    HW215777   0.604   2.169   3.012
 4960SOL     OW15778   4.959   5.061   3.748
 4960SOL    HW115779   4.969   5.066   3.648
 4960SOL    HW215780   4.867   5.029   3.770
 4961SOL     OW15781   3.353   1.884   1.408
 4961SOL    HW115782   3.270   1.936   1.427
 4961SOL    HW215783   3.357   1.863   1.310
 4962SOL     OW15784   1.460   4.216   0.623
 4962SOL    HW115785   1.409   4.293   0.662
 4962SOL    HW215786   1.550   4.211   0.667
 4963SOL     OW15787   0.715   3.855   6.236
 4963SOL    HW115788   0.755   3.910   6.310
 4963SOL    HW215789   0.736   3.899   6.148
 4964SOL     OW15790   2.423   6.588   4.500
 4964SOL    HW115791   2.518   6.556   4.504
 4964SOL    HW215792   2.381   6.579   4.590
 4965SOL     OW15793   1.620   6.049   2.888
 4965SOL    HW115794   1.685   6.117   2.920
 4965SOL    HW215795   1.666   5.961   2.876
 4966SOL     OW15796   3.089   6.669   4.267
 4966SOL    HW115797   3.013   6.697   4.208
 4966SOL    HW215798   3.168   6.727   4.249
 4967SOL     OW15799   4.364   4.776   4.913
 4967SOL    HW115800   4.457   4.782   4.876
 4967SOL    HW215801   4.343   4.681   4.935
 4968SOL     OW15802   6.990   2.894   3.188
 4968SOL    HW115803   0.012   2.966   3.137
 4968SOL    HW215804   6.900   2.927   3.216
 4969SOL     OW15805   0.430   5.648   4.350
 4969SOL    HW115806   0.507   5.650   4.287
 4969SOL    HW215807   0.346   5.626   4.299
 4970SOL     OW15808   1.254   1.631   1.293
 4970SOL    HW115809   1.252   1.606   1.196
 4970SOL    HW215810   1.335   1.685   1.312
 4971SOL     OW15811   6.791   5.915   2.508
 4971SOL    HW115812   6.813   5.863   2.591
 4971SOL    HW215813   6.862   5.984   2.493
 4972SOL     OW15814   0.312   4.273   0.705
 4972SOL    HW115815   0.351   4.314   0.788
 4972SOL    HW215816   0.244   4.335   0.667
 4973SOL     OW15817   6.415   1.031   0.888
 4973SOL    HW115818   6.390   1.118   0.931
 4973SOL    HW215819   6.369   0.956   0.936
 4974SOL     OW15820   3.656   6.352   5.173
 4974SOL    HW115821   3.655   6.262   5.130
 4974SOL    HW215822   3.597   6.351   5.254
 4975SOL     OW15823   5.115   4.808   1.112
 4975SOL    HW115824   5.191   4.859   1.070
 4975SOL    HW215825   5.084   4.737   1.049
 4976SOL     OW15826   2.207   6.887   3.203
 4976SOL    HW115827   2.299   6.850   3.191
 4976SOL    HW215828   2.141   6.812   3.206
 4977SOL     OW15829   1.532   4.217   5.828
 4977SOL    HW115830   1.566   4.309   5.851
 4977SOL    HW215831   1.610   4.158   5.807
 4978SOL     OW15832   5.508   4.689   4.684
 4978SOL    HW115833   5.493   4.754   4.759
 4978SOL    HW215834   5.439   4.704   4.613
 4979SOL     OW15835   2.268   6.893   5.853
 4979SOL    HW115836   2.219   6.972   5.816
 4979SOL    HW215837   2.246   6.812   5.799
 4980SOL     OW15838   5.212   3.339   3.891
 4980SOL    HW115839   5.246   3.358   3.800
 4980SOL    HW215840   5.200   3.240   3.903
 4981SOL     OW15841   3.066   4.906   2.469
 4981SOL    HW115842   2.985   4.964   2.461
 4981SOL    HW215843   3.058   4.829   2.405
 4982SOL     OW15844   3.803   1.873   5.712
 4982SOL    HW115845   3.809   1.883   5.811
 4982SOL    HW215846   3.805   1.776   5.688
 4983SOL     OW15847   5.842   5.502   3.040
 4983SOL    HW115848   5.917   5.566   3.047
 4983SOL    HW215849   5.878   5.409   3.033
 4984SOL     OW15850   4.837   3.865   3.178
 4984SOL    HW115851   4.779   3.880   3.098
 4984SOL    HW215852   4.905   3.938   3.184
 4985SOL     OW15853   5.459   0.363   2.511
 4985SOL    HW115854   5.432   0.423   2.586
 4985SOL    HW215855   5.545   0.318   2.534
 4986SOL     OW15856   1.021   5.033   1.754
 4986SOL    HW115857   1.058   4.944   1.729
 4986SOL    HW215858   0.959   5.023   1.832
 4987SOL     OW15859   0.568   1.168   2.590
 4987SOL    HW115860   0.510   1.086   2.581
 4987SOL    HW215861   0.558   1.205   2.682
 4988SOL     OW15862   6.504   5.924   3.722
 4988SOL    HW115863   6.423   5.891   3.673
 4988SOL    HW215864   6.475   5.992   3.789
 4989SOL     OW15865   4.629   0.418   3.448
 4989SOL    HW115866   4.566   0.472   3.392
 4989SOL    HW215867   4.703   0.384   3.390
 4990SOL     OW15868   4.435   2.494   4.857
 4990SOL    HW115869   4.428   2.463   4.762
 4990SOL    HW215870   4.347   2.480   4.904
 4991SOL     OW15871   1.358   4.648   5.964
 4991SOL    HW115872   1.369   4.574   6.031
 4991SOL    HW215873   1.447   4.678   5.932
 4992SOL     OW15874   0.718   3.511   3.846
 4992SOL    HW115875   0.647   3.465   3.899
 4992SOL    HW215876   0.736   3.601   3.884
 4993SOL     OW15877   3.270   6.437   3.922
 4993SOL    HW115878   3.177   6.424   3.957
 4993SOL    HW215879   3.317   6.349   3.919
 4994SOL     OW15880   3.411   4.597   5.447
 4994SOL    HW115881   3.349   4.585   5.370
 4994SOL    HW215882   3.506   4.584   5.416
 4995SOL     OW15883   0.160   0.571   5.988
 4995SOL    HW115884   0.142   0.477   5.962
 4995SOL    HW215885   0.138   0.585   6.085
 4996SOL     OW15886   6.779   1.514   4.212
 4996SOL    HW115887   6.842   1.515   4.289
 4996SOL    HW215888   6.685   1.525   4.246
 4997SOL     OW15889   4.109   1.795   1.359
 4997SOL    HW115890   4.209   1.803   1.359
 4997SOL    HW215891   4.076   1.786   1.265
 4998SOL     OW15892   0.718   3.486   3.569
 4998SOL    HW115893   0.702   3.481   3.668
 4998SOL    HW215894   0.779   3.563   3.549
 4999SOL     OW15895   0.709   3.007   4.426
 4999SOL    HW115896   0.630   2.981   4.370
 4999SOL    HW215897   0.762   3.077   4.378
 5000SOL     OW15898   3.335   5.811   3.090
 5000SOL    HW115899   3.407   5.746   3.116
 5000SOL    HW215900   3.343   5.831   2.992
 5001SOL     OW15901   0.491   5.782   3.318
 5001SOL    HW115902   0.563   5.795   3.250
 5001SOL    HW215903   0.417   5.727   3.280
 5002SOL     OW15904   1.212   3.810   3.916
 5002SOL    HW115905   1.254   3.863   3.990
 5002SOL    HW215906   1.158   3.736   3.954
 5003SOL     OW15907   4.279   0.668   3.626
 5003SOL    HW115908   4.312   0.734   3.558
 5003SOL    HW215909   4.333   0.677   3.709
 5004SOL     OW15910   3.258   5.138   6.846
 5004SOL    HW115911   3.192   5.209   6.823
 5004SOL    HW215912   3.248   5.113   6.942
 5005SOL     OW15913   3.107   2.478   0.011
 5005SOL    HW115914   3.063   2.419   0.079
 5005SOL    HW215915   3.050   2.481   6.953
 5006SOL     OW15916   4.662   1.573   1.540
 5006SOL    HW115917   4.567   1.593   1.564
 5006SOL    HW215918   4.722   1.601   1.615
 5007SOL     OW15919   5.812   6.314   2.101
 5007SOL    HW115920   5.763   6.326   2.015
 5007SOL    HW215921   5.876   6.237   2.093
 5008SOL     OW15922   5.271   6.499   2.305
 5008SOL    HW115923   5.295   6.468   2.397
 5008SOL    HW215924   5.345   6.556   2.268
 5009SOL     OW15925   6.582   2.129   0.613
 5009SOL    HW115926   6.513   2.099   0.678
 5009SOL    HW215927   6.566   2.225   0.588
 5010SOL     OW15928   3.389   3.689   1.218
 5010SOL    HW115929   3.328   3.731   1.285
 5010SOL    HW215930   3.431   3.760   1.162
 5011SOL     OW15931   2.241   3.177   6.909
 5011SOL    HW115932   2.152   3.169   6.955
 5011SOL    HW215933   2.289   3.258   6.944
 5012SOL     OW15934   6.054   1.627   5.862
 5012SOL    HW115935   5.998   1.702   5.827
 5012SOL    HW215936   6.149   1.640   5.834
 5013SOL     OW15937   5.802   6.893   5.684
 5013SOL    HW115938   5.846   6.982   5.670
 5013SOL    HW215939   5.840   6.850   5.766
 5014SOL     OW15940   6.331   3.253   1.638
 5014SOL    HW115941   6.350   3.228   1.733
 5014SOL    HW215942   6.403   3.216   1.579
 5015SOL     OW15943   5.720   6.645   3.831
 5015SOL    HW115944   5.750   6.736   3.803
 5015SOL    HW215945   5.628   6.650   3.869
 5016SOL     OW15946   1.916   3.622   5.901
 5016SOL    HW115947   1.995   3.682   5.886
 5016SOL    HW215948   1.943   3.527   5.884
 5017SOL     OW15949   0.404   3.420   1.844
 5017SOL    HW115950   0.446   3.380   1.925
 5017SOL    HW215951   0.472   3.472   1.793
 5018SOL     OW15952   1.304   0.389   0.542
 5018SOL    HW115953   1.307   0.370   0.640
 5018SOL    HW215954   1.210   0.380   0.509
 5019SOL     OW15955   1.698   5.436   5.069
 5019SOL    HW115956   1.711   5.407   5.164
 5019SOL    HW215957   1.787   5.460   5.029
 5020SOL     OW15958   2.435   6.874   4.298
 5020SOL    HW115959   2.513   6.899   4.356
 5020SOL    HW215960   2.375   6.812   4.348
 5021SOL     OW15961   1.881   1.032   0.500
 5021SOL    HW115962   1.968   1.056   0.543
 5021SOL    HW215963   1.888   0.943   0.455
 5022SOL     OW15964   6.754   3.021   1.452
 5022SOL    HW115965   6.700   2.979   1.525
 5022SOL    HW215966   6.816   2.953   1.413
 5023SOL     OW15967   6.896   4.290   2.606
 5023SOL    HW115968   6.994   4.311   2.612
 5023SOL    HW215969   6.872   4.225   2.679
 5024SOL     OW15970   4.549   3.742   1.705
 5024SOL    HW115971   4.627   3.701   1.752
 5024SOL    HW215972   4.548   3.711   1.610
 5025SOL     OW15973   4.166   1.300   4.132
 5025SOL    HW115974   4.119   1.221   4.172
 5025SOL    HW215975   4.230   1.269   4.062
 5026SOL     OW15976   4.340   7.005   4.798
 5026SOL    HW115977   4.295   0.056   4.752
 5026SOL    HW215978   4.272   6.945   4.839
 5027SOL     OW15979   5.253   6.923   0.099
 5027SOL    HW115980   5.237   7.015   0.135
 5027SOL    HW215981   5.168   6.885   0.064
 5028SOL     OW15982   6.496   1.714   2.472
 5028SOL    HW115983   6.442   1.789   2.433
 5028SOL    HW215984   6.562   1.751   2.538
 5029SOL     OW15985   6.208   1.952   2.944
 5029SOL    HW115986   6.144   1.923   2.873
 5029SOL    HW215987   6.296   1.907   2.930
 5030SOL     OW15988   0.111   4.649   6.780
 5030SOL    HW115989   0.071   4.631   6.869
 5030SOL    HW215990   0.155   4.565   6.746
 5031SOL     OW15991   6.806   6.682   6.358
 5031SOL    HW115992   6.899   6.654   6.378
 5031SOL    HW215993   6.785   6.768   6.404
 5032SOL     OW15994   2.514   3.502   5.359
 5032SOL    HW115995   2.599   3.550   5.336
 5032SOL    HW215996   2.533   3.404   5.367
 5033SOL     OW15997   2.074   0.572   6.990
 5033SOL    HW115998   2.146   0.622   0.014
 5033SOL    HW215999   1.992   0.568   0.022
 5034SOL     OW16000   4.305   6.529   4.563
 5034SOL    HW116001   4.283   6.457   4.630
 5034SOL    HW216002   4.343   6.488   4.481
 5035SOL     OW16003   1.677   3.683   3.843
 5035SOL    HW116004   1.634   3.594   3.824
 5035SOL    HW216005   1.613   3.756   3.820
 5036SOL     OW16006   6.738   2.269   5.339
 5036SOL    HW116007   6.725   2.240   5.434
 5036SOL    HW216008   6.730   2.368   5.333
 5037SOL     OW16009   4.449   4.161   1.113
 5037SOL    HW116010   4.462   4.064   1.091
 5037SOL    HW216011   4.429   4.171   1.210
 5038SOL     OW16012   3.739   3.674   4.040
 5038SOL    HW116013   3.730   3.576   4.024
 5038SOL    HW216014   3.818   3.709   3.988
 5039SOL     OW16015   0.951   3.304   6.901
 5039SOL    HW116016   0.982   3.249   6.823
 5039SOL    HW216017   0.928   3.244   6.977
 5040SOL     OW16018   0.224   0.131   5.938
 5040SOL    HW116019   0.218   0.058   6.005
 5040SOL    HW216020   0.142   0.189   5.943
 5041SOL     OW16021   6.770   3.539   2.038
 5041SOL    HW116022   6.704   3.602   2.079
 5041SOL    HW216023   6.723   3.475   1.977
 5042SOL     OW16024   0.457   2.450   6.087
 5042SOL    HW116025   0.373   2.501   6.106
 5042SOL    HW216026   0.524   2.510   6.043
 5043SOL     OW16027   4.291   6.477   1.007
 5043SOL    HW116028   4.196   6.489   1.036
 5043SOL    HW216029   4.306   6.526   0.921
 5044SOL     OW16030   5.960   4.854   0.779
 5044SOL    HW116031   5.972   4.942   0.823
 5044SOL    HW216032   5.919   4.867   0.688
 5045SOL     OW16033   6.274   3.515   6.427
 5045SOL    HW116034   6.196   3.565   6.463
 5045SOL    HW216035   6.271   3.516   6.327
 5046SOL     OW16036   3.518   3.602   3.187
 5046SOL    HW116037   3.470   3.690   3.194
 5046SOL    HW216038   3.578   3.602   3.107
 5047SOL     OW16039   0.957   3.743   3.177
 5047SOL    HW116040   0.898   3.824   3.182
 5047SOL    HW216041   0.901   3.663   3.153
 5048SOL     OW16042   1.908   1.339   5.670
 5048SOL    HW116043   1.861   1.369   5.753
 5048SOL    HW216044   1.987   1.397   5.652
 5049SOL     OW16045   5.021   1.246   6.489
 5049SOL    HW116046   5.108   1.295   6.494
 5049SOL    HW216047   4.955   1.300   6.436
 5050SOL     OW16048   1.795   0.442   1.283
 5050SOL    HW116049   1.801   0.357   1.336
 5050SOL    HW216050   1.780   0.421   1.187
 5051SOL     OW16051   3.980   5.112   1.192
 5051SOL    HW116052   4.073   5.140   1.218
 5051SOL    HW216053   3.984   5.066   1.103
 5052SOL     OW16054   2.665   0.957   5.670
 5052SOL    HW116055   2.743   0.909   5.710
 5052SOL    HW216056   2.622   0.898   5.601
 5053SOL     OW16057   0.151   6.829   1.974
 5053SOL    HW116058   0.075   6.846   1.912
 5053SOL    HW216059   0.174   6.913   2.023
 5054SOL     OW16060   3.941   5.004   4.007
 5054SOL    HW116061   3.860   5.015   4.064
 5054SOL    HW216062   4.005   5.079   4.025
 5055SOL     OW16063   6.432   3.151   6.627
 5055SOL    HW116064   6.374   3.166   6.547
 5055SOL    HW216065   6.395   3.076   6.681
 5056SOL     OW16066   5.156   4.342   4.821
 5056SOL    HW116067   5.163   4.243   4.807
 5056SOL    HW216068   5.165   4.388   4.733
 5057SOL     OW16069   1.014   6.181   2.530
 5057SOL    HW116070   0.920   6.211   2.548
 5057SOL    HW216071   1.060   6.164   2.618
 5058SOL     OW16072   3.094   4.885   5.400
 5058SOL    HW116073   3.158   4.955   5.368
 5058SOL    HW216074   3.023   4.927   5.456
 5059SOL     OW16075   0.724   0.232   1.928
 5059SOL    HW116076   0.756   0.152   1.978
 5059SOL    HW216077   0.626   0.244   1.943
 5060SOL     OW16078   6.377   1.854   5.491
 5060SOL    HW116079   6.475   1.851   5.512
 5060SOL    HW216080   6.351   1.771   5.442
 5061SOL     OW16081   5.427   4.184   0.188
 5061SOL    HW116082   5.372   4.218   0.112
 5061SOL    HW216083   5.405   4.235   0.271
 5062SOL     OW16084   0.676   0.323   1.244
 5062SOL    HW116085   0.614   0.394   1.278
 5062SOL    HW216086   0.680   0.247   1.309
 5063SOL     OW16087   1.206   6.512   1.607
 5063SOL    HW116088   1.171   6.593   1.653
 5063SOL    HW216089   1.198   6.523   1.508
 5064SOL     OW16090   4.870   3.154   6.797
 5064SOL    HW116091   4.938   3.153   6.724
 5064SOL    HW216092   4.869   3.244   6.840
 5065SOL     OW16093   2.139   6.248   5.713
 5065SOL    HW116094   2.075   6.325   5.708
 5065SOL    HW216095   2.225   6.274   5.670
 5066SOL     OW16096   5.024   4.888   1.350
 5066SOL    HW116097   5.046   4.851   1.260
 5066SOL    HW216098   4.965   4.823   1.399
 5067SOL     OW16099   4.689   0.907   0.467
 5067SOL    HW116100   4.716   0.969   0.540
 5067SOL    HW216101   4.692   0.813   0.500
 5068SOL     OW16102   2.883   4.883   1.452
 5068SOL    HW116103   2.939   4.921   1.525
 5068SOL    HW216104   2.913   4.919   1.364
 5069SOL     OW16105   0.975   4.821   3.465
 5069SOL    HW116106   0.936   4.730   3.482
 5069SOL    HW216107   1.054   4.835   3.523
 5070SOL     OW16108   5.179   2.940   4.181
 5070SOL    HW116109   5.220   3.031   4.172
 5070SOL    HW216110   5.085   2.943   4.147
 5071SOL     OW16111   4.332   1.141   6.658
 5071SOL    HW116112   4.404   1.072   6.666
 5071SOL    HW216113   4.283   1.148   6.745
 5072SOL     OW16114   1.466   4.281   1.267
 5072SOL    HW116115   1.486   4.314   1.359
 5072SOL    HW216116   1.415   4.195   1.272
 5073SOL     OW16117   3.912   1.627   3.706
 5073SOL    HW116118   3.819   1.590   3.710
 5073SOL    HW216119   3.931   1.677   3.791
 5074SOL     OW16120   3.175   4.301   6.036
 5074SOL    HW116121   3.130   4.322   6.124
 5074SOL    HW216122   3.116   4.332   5.961
 5075SOL     OW16123   0.134   5.492   4.591
 5075SOL    HW116124   0.212   5.450   4.639
 5075SOL    HW216125   0.110   5.436   4.512
 5076SOL     OW16126   3.397   0.084   1.156
 5076SOL    HW116127   3.446   0.060   1.072
 5076SOL    HW216128   3.402   0.007   1.220
 5077SOL     OW16129   0.249   2.314   2.546
 5077SOL    HW116130   0.335   2.340   2.502
 5077SOL    HW216131   0.186   2.278   2.477
 5078SOL     OW16132   1.315   1.188   3.451
 5078SOL    HW116133   1.342   1.225   3.539
 5078SOL    HW216134   1.255   1.109   3.465
 5079SOL     OW16135   3.882   5.139   5.240
 5079SOL    HW116136   3.868   5.236   5.223
 5079SOL    HW216137   3.853   5.086   5.160
 5080SOL     OW16138   5.720   6.552   5.427
 5080SOL    HW116139   5.790   6.622   5.420
 5080SOL    HW216140   5.715   6.502   5.340
 5081SOL     OW16141   3.314   3.771   3.309
 5081SOL    HW116142   3.325   3.773   3.408
 5081SOL    HW216143   3.229   3.723   3.286
 5082SOL     OW16144   5.984   6.004   4.813
 5082SOL    HW116145   6.046   5.987   4.889
 5082SOL    HW216146   5.915   5.932   4.808
 5083SOL     OW16147   1.860   5.397   1.897
 5083SOL    HW116148   1.956   5.394   1.922
 5083SOL    HW216149   1.804   5.370   1.975
 5084SOL     OW16150   1.988   6.097   3.872
 5084SOL    HW116151   2.025   6.074   3.962
 5084SOL    HW216152   1.891   6.120   3.880
 5085SOL     OW16153   6.346   2.707   6.145
 5085SOL    HW116154   6.259   2.698   6.097
 5085SOL    HW216155   6.331   2.754   6.232
 5086SOL     OW16156   6.733   5.220   3.644
 5086SOL    HW116157   6.778   5.273   3.572
 5086SOL    HW216158   6.634   5.225   3.634
 5087SOL     OW16159   0.295   5.548   5.756
 5087SOL    HW116160   0.282   5.642   5.725
 5087SOL    HW216161   0.250   5.536   5.844
 5088SOL     OW16162   5.605   0.205   6.716
 5088SOL    HW116163   5.552   0.123   6.737
 5088SOL    HW216164   5.685   0.210   6.777
 5089SOL     OW16165   5.290   3.417   3.642
 5089SOL    HW116166   5.381   3.455   3.626
 5089SOL    HW216167   5.221   3.490   3.631
 5090SOL     OW16168   1.708   4.913   1.122
 5090SOL    HW116169   1.750   4.883   1.036
 5090SOL    HW216170   1.773   4.901   1.197
 5091SOL     OW16171   1.681   5.489   2.742
 5091SOL    HW116172   1.750   5.427   2.706
 5091SOL    HW216173   1.596   5.440   2.757
 5092SOL     OW16174   3.585   2.555   1.728
 5092SOL    HW116175   3.651   2.630   1.726
 5092SOL    HW216176   3.617   2.483   1.789
 5093SOL     OW16177   0.640   2.224   1.584
 5093SOL    HW116178   0.726   2.242   1.536
 5093SOL    HW216179   0.637   2.277   1.668
 5094SOL     OW16180   6.947   0.135   6.468
 5094SOL    HW116181   7.002   0.208   6.510
 5094SOL    HW216182   6.857   0.132   6.511
 5095SOL     OW16183   2.758   6.820   5.425
 5095SOL    HW116184   2.741   6.876   5.344
 5095SOL    HW216185   2.849   6.840   5.461
 5096SOL     OW16186   4.046   4.863   1.812
 5096SOL    HW116187   4.084   4.771   1.798
 5096SOL    HW216188   3.970   4.877   1.749
 5097SOL     OW16189   0.933   0.310   6.332
 5097SOL    HW116190   0.911   0.229   6.279
 5097SOL    HW216191   1.009   0.360   6.289
 5098SOL     OW16192   0.476   2.365   2.723
 5098SOL    HW116193   0.393   2.321   2.691
 5098SOL    HW216194   0.525   2.303   2.785
 5099SOL     OW16195   0.652   0.087   4.525
 5099SOL    HW116196   0.693   0.172   4.492
 5099SOL    HW216197   0.552   0.098   4.528
 5100SOL     OW16198   5.234   6.839   6.046
 5100SOL    HW116199   5.176   6.866   5.969
 5100SOL    HW216200   5.330   6.845   6.020
 5101SOL     OW16201   4.473   5.963   0.472
 5101SOL    HW116202   4.546   6.027   0.496
 5101SOL    HW216203   4.509   5.893   0.411
 5102SOL     OW16204   3.540   6.588   5.126
 5102SOL    HW116205   3.508   6.634   5.209
 5102SOL    HW216206   3.595   6.508   5.152
 5103SOL     OW16207   0.877   0.690   4.533
 5103SOL    HW116208   0.859   0.705   4.435
 5103SOL    HW216209   0.956   0.630   4.544
 5104SOL     OW16210   1.298   6.955   1.096
 5104SOL    HW116211   1.365   6.893   1.139
 5104SOL    HW216212   1.305   0.020   1.137
 5105SOL     OW16213   2.686   3.275   6.577
 5105SOL    HW116214   2.611   3.280   6.511
 5105SOL    HW216215   2.766   3.235   6.534
 5106SOL     OW16216   3.009   0.320   2.260
 5106SOL    HW116217   2.972   0.254   2.195
 5106SOL    HW216218   3.082   0.277   2.313
 5107SOL     OW16219   1.648   6.832   5.661
 5107SOL    HW116220   1.600   6.828   5.573
 5107SOL    HW216221   1.599   6.776   5.727
 5108SOL     OW16222   3.132   3.558   3.746
 5108SOL    HW116223   3.141   3.461   3.772
 5108SOL    HW216224   3.080   3.564   3.661
 5109SOL     OW16225   0.040   1.134   1.309
 5109SOL    HW116226   0.075   1.210   1.254
 5109SOL    HW216227   7.000   1.168   1.376
 5110SOL     OW16228   2.291   5.985   5.511
 5110SOL    HW116229   2.225   6.037   5.457
 5110SOL    HW216230   2.248   5.901   5.544
 5111SOL     OW16231   1.661   0.875   0.347
 5111SOL    HW116232   1.758   0.852   0.340
 5111SOL    HW216233   1.633   0.876   0.443
 5112SOL     OW16234   0.172   6.605   3.525
 5112SOL    HW116235   0.156   6.609   3.426
 5112SOL    HW216236   0.112   6.669   3.572
 5113SOL     OW16237   1.042   6.882   6.545
 5113SOL    HW116238   0.965   6.945   6.539
 5113SOL    HW216239   1.061   6.862   6.642
 5114SOL     OW16240   4.365   4.952   0.324
 5114SOL    HW116241   4.325   4.989   0.241
 5114SOL    HW216242   4.300   4.890   0.368
 5115SOL     OW16243   2.053   3.733   5.520
 5115SOL    HW116244   2.062   3.696   5.427
 5115SOL    HW216245   2.089   3.826   5.523
 5116SOL     OW16246   0.305   3.696   1.223
 5116SOL    HW116247   0.368   3.773   1.210
 5116SOL    HW216248   0.216   3.731   1.253
 5117SOL     OW16249   2.614   4.682   4.312
 5117SOL    HW116250   2.560   4.598   4.308
 5117SOL    HW216251   2.683   4.681   4.240
 5118SOL     OW16252   4.516   6.561   1.240
 5118SOL    HW116253   4.455   6.481   1.244
 5118SOL    HW216254   4.599   6.537   1.190
 5119SOL     OW16255   5.997   0.308   2.471
 5119SOL    HW116256   6.049   0.393   2.480
 5119SOL    HW216257   6.047   0.244   2.413
 5120SOL     OW16258   4.533   1.132   2.704
 5120SOL    HW116259   4.601   1.188   2.656
 5120SOL    HW216260   4.462   1.102   2.640
 5121SOL     OW16261   0.615   3.864   5.371
 5121SOL    HW116262   0.574   3.860   5.462
 5121SOL    HW216263   0.549   3.829   5.303
 5122SOL     OW16264   1.506   6.478   3.836
 5122SOL    HW116265   1.499   6.533   3.752
 5122SOL    HW216266   1.603   6.469   3.861
 5123SOL     OW16267   5.537   4.532   2.196
 5123SOL    HW116268   5.570   4.550   2.104
 5123SOL    HW216269   5.559   4.609   2.255
 5124SOL     OW16270   2.801   6.095   6.745
 5124SOL    HW116271   2.702   6.084   6.749
 5124SOL    HW216272   2.823   6.175   6.689
 5125SOL     OW16273   6.795   2.364   5.932
 5125SOL    HW116274   6.853   2.432   5.977
 5125SOL    HW216275   6.814   2.364   5.834
 5126SOL     OW16276   4.968   3.499   6.332
 5126SOL    HW116277   5.019   3.478   6.248
 5126SOL    HW216278   4.870   3.491   6.315
 5127SOL     OW16279   5.580   2.917   6.725
 5127SOL    HW116280   5.507   2.964   6.775
 5127SOL    HW216281   5.660   2.976   6.719
 5128SOL     OW16282   0.617   0.059   6.891
 5128SOL    HW116283   0.653   0.004   6.815
 5128SOL    HW216284   0.627   0.006   6.976
 5129SOL     OW16285   4.110   2.179   2.206
 5129SOL    HW116286   4.126   2.145   2.113
 5129SOL    HW216287   4.185   2.240   2.232
 5130SOL     OW16288   0.951   6.530   4.630
 5130SOL    HW116289   0.881   6.601   4.632
 5130SOL    HW216290   0.921   6.451   4.684
 5131SOL     OW16291   3.802   4.879   3.423
 5131SOL    HW116292   3.839   4.840   3.338
 5131SOL    HW216293   3.870   4.941   3.463
 5132SOL     OW16294   3.325   1.221   6.820
 5132SOL    HW116295   3.284   1.145   6.769
 5132SOL    HW216296   3.315   1.306   6.768
 5133SOL     OW16297   4.722   4.196   6.888
 5133SOL    HW116298   4.744   4.222   6.794
 5133SOL    HW216299   4.794   4.229   6.949
 5134SOL     OW16300   6.112   5.873   0.510
 5134SOL    HW116301   6.078   5.870   0.604
 5134SOL    HW216302   6.190   5.934   0.504
 5135SOL     OW16303   6.898   2.993   2.676
 5135SOL    HW116304   6.858   2.985   2.585
 5135SOL    HW216305   6.826   3.013   2.743
 5136SOL     OW16306   1.368   1.347   5.849
 5136SOL    HW116307   1.434   1.273   5.837
 5136SOL    HW216308   1.385   1.393   5.935
 5137SOL     OW16309   5.621   0.973   4.090
 5137SOL    HW116310   5.537   0.919   4.082
 5137SOL    HW216311   5.633   1.028   4.007
 5138SOL     OW16312   3.097   3.053   3.651
 5138SOL    HW116313   3.089   3.057   3.751
 5138SOL    HW216314   3.177   2.999   3.626
 5139SOL     OW16315   2.736   0.479   5.820
 5139SOL    HW116316   2.689   0.457   5.734
 5139SOL    HW216317   2.676   0.536   5.876
 5140SOL     OW16318   3.320   3.291   6.567
 5140SOL    HW116319   3.330   3.200   6.528
 5140SOL    HW216320   3.383   3.354   6.521
 5141SOL     OW16321   6.948   2.511   1.424
 5141SOL    HW116322   6.931   2.552   1.335
 5141SOL    HW216323   6.873   2.449   1.448
 5142SOL     OW16324   0.401   7.009   2.499
 5142SOL    HW116325   0.310   6.970   2.485
 5142SOL    HW216326   0.408   0.072   2.453
 5143SOL     OW16327   6.770   6.677   2.181
 5143SOL    HW116328   6.861   6.636   2.177
 5143SOL    HW216329   6.711   6.621   2.238
 5144SOL     OW16330   2.189   2.910   5.533
 5144SOL    HW116331   2.239   2.942   5.454
 5144SOL    HW216332   2.183   2.983   5.601
 5145SOL     OW16333   2.272   5.645   6.303
 5145SOL    HW116334   2.278   5.580   6.379
 5145SOL    HW216335   2.358   5.646   6.252
 5146SOL     OW16336   5.658   5.569   6.767
 5146SOL    HW116337   5.683   5.656   6.811
 5146SOL    HW216338   5.607   5.587   6.684
 5147SOL     OW16339   4.435   2.433   3.216
 5147SOL    HW116340   4.494   2.352   3.218
 5147SOL    HW216341   4.373   2.426   3.138
 5148SOL     OW16342   0.302   0.642   6.491
 5148SOL    HW116343   0.371   0.590   6.439
 5148SOL    HW216344   0.254   0.580   6.553
 5149SOL     OW16345   4.600   4.967   4.436
 5149SOL    HW116346   4.646   4.995   4.521
 5149SOL    HW216347   4.603   5.043   4.371
 5150SOL     OW16348   6.510   6.676   3.768
 5150SOL    HW116349   6.515   6.587   3.812
 5150SOL    HW216350   6.467   6.668   3.678
 5151SOL     OW16351   6.049   6.120   2.076
 5151SOL    HW116352   6.034   6.093   2.171
 5151SOL    HW216353   6.038   6.041   2.016
 5152SOL     OW16354   1.929   1.382   0.069
 5152SOL    HW116355   1.944   1.308   0.135
 5152SOL    HW216356   1.863   1.352   0.000
 5153SOL     OW16357   1.297   2.219   1.126
 5153SOL    HW116358   1.316   2.268   1.211
 5153SOL    HW216359   1.209   2.249   1.089
 5154SOL     OW16360   6.820   2.924   1.115
 5154SOL    HW116361   6.798   2.999   1.053
 5154SOL    HW216362   6.912   2.936   1.152
 5155SOL     OW16363   1.562   1.403   6.783
 5155SOL    HW116364   1.493   1.372   6.849
 5155SOL    HW216365   1.647   1.352   6.798
 5156SOL     OW16366   5.685   6.115   5.127
 5156SOL    HW116367   5.748   6.158   5.062
 5156SOL    HW216368   5.670   6.020   5.101
 5157SOL     OW16369   3.731   0.047   1.611
 5157SOL    HW116370   3.684   0.112   1.670
 5157SOL    HW216371   3.719   0.072   1.515
 5158SOL     OW16372   1.560   2.345   1.804
 5158SOL    HW116373   1.636   2.389   1.853
 5158SOL    HW216374   1.480   2.339   1.863
 5159SOL     OW16375   5.856   3.334   5.852
 5159SOL    HW116376   5.946   3.338   5.809
 5159SOL    HW216377   5.800   3.265   5.806
 5160SOL     OW16378   6.329   6.835   3.458
 5160SOL    HW116379   6.295   6.749   3.497
 5160SOL    HW216380   6.429   6.833   3.456
 5161SOL     OW16381   1.949   3.189   0.774
 5161SOL    HW116382   2.000   3.118   0.822
 5161SOL    HW216383   1.954   3.173   0.675
 5162SOL     OW16384   6.569   0.155   3.869
 5162SOL    HW116385   6.472   0.171   3.884
 5162SOL    HW216386   6.590   0.160   3.772
 5163SOL     OW16387   3.255   0.473   2.263
 5163SOL    HW116388   3.182   0.435   2.206
 5163SOL    HW216389   3.320   0.401   2.288
 5164SOL     OW16390   3.007   3.569   6.936
 5164SOL    HW116391   2.952   3.594   7.015
 5164SOL    HW216392   2.948   3.556   6.856
 5165SOL     OW16393   1.910   4.203   6.342
 5165SOL    HW116394   1.865   4.180   6.256
 5165SOL    HW216395   1.962   4.288   6.331
 5166SOL     OW16396   0.533   4.568   0.827
 5166SOL    HW116397   0.565   4.612   0.911
 5166SOL    HW216398   0.611   4.539   0.772
 5167SOL     OW16399   5.507   3.673   5.483
 5167SOL    HW116400   5.443   3.742   5.448
 5167SOL    HW216401   5.456   3.606   5.538
 5168SOL     OW16402   4.502   2.154   2.917
 5168SOL    HW116403   4.554   2.188   2.838
 5168SOL    HW216404   4.466   2.063   2.897
 5169SOL     OW16405   4.267   5.552   4.691
 5169SOL    HW116406   4.230   5.459   4.681
 5169SOL    HW216407   4.361   5.553   4.657
 5170SOL     OW16408   1.889   3.349   6.726
 5170SOL    HW116409   1.891   3.257   6.765
 5170SOL    HW216410   1.910   3.416   6.798
 5171SOL     OW16411   2.491   5.906   6.101
 5171SOL    HW116412   2.424   5.859   6.043
 5171SOL    HW216413   2.572   5.929   6.047
 5172SOL     OW16414   5.931   5.436   4.864
 5172SOL    HW116415   5.961   5.520   4.817
 5172SOL    HW216416   5.832   5.434   4.867
 5173SOL     OW16417   4.050   5.313   5.749
 5173SOL    HW116418   4.051   5.215   5.727
 5173SOL    HW216419   3.996   5.328   5.832
 5174SOL     OW16420   2.571   6.494   3.897
 5174SOL    HW116421   2.496   6.462   3.955
 5174SOL    HW216422   2.534   6.556   3.828
 5175SOL     OW16423   3.045   3.168   0.068
 5175SOL    HW116424   3.068   3.107   0.143
 5175SOL    HW216425   2.951   3.200   0.079
 5176SOL     OW16426   6.168   5.998   6.621
 5176SOL    HW116427   6.181   5.918   6.678
 5176SOL    HW216428   6.257   6.042   6.605
 5177SOL     OW16429   6.194   6.803   0.715
 5177SOL    HW116430   6.195   6.709   0.749
 5177SOL    HW216431   6.162   6.864   0.788
 5178SOL     OW16432   1.124   4.134   1.321
 5178SOL    HW116433   1.128   4.233   1.334
 5178SOL    HW216434   1.029   4.107   1.305
 5179SOL     OW16435   4.856   5.958   2.938
 5179SOL    HW116436   4.823   5.883   2.996
 5179SOL    HW216437   4.879   6.036   2.995
 5180SOL     OW16438   2.112   5.719   2.859
 5180SOL    HW116439   2.036   5.669   2.901
 5180SOL    HW216440   2.199   5.678   2.885
 5181SOL     OW16441   6.842   0.066   5.947
 5181SOL    HW116442   6.847   0.142   5.882
 5181SOL    HW216443   6.906   0.083   6.022
 5182SOL     OW16444   2.692   6.437   3.143
 5182SOL    HW116445   2.697   6.451   3.242
 5182SOL    HW216446   2.637   6.356   3.123
 5183SOL     OW16447   4.448   2.116   3.705
 5183SOL    HW116448   4.352   2.112   3.678
 5183SOL    HW216449   4.506   2.118   3.624
 5184SOL     OW16450   2.691   1.275   3.178
 5184SOL    HW116451   2.640   1.293   3.262
 5184SOL    HW216452   2.681   1.179   3.153
 5185SOL     OW16453   6.534   0.679   1.950
 5185SOL    HW116454   6.583   0.630   2.022
 5185SOL    HW216455   6.593   0.750   1.912
 5186SOL     OW16456   6.816   3.770   6.482
 5186SOL    HW116457   6.784   3.706   6.551
 5186SOL    HW216458   6.860   3.848   6.526
 5187SOL     OW16459   1.324   4.653   5.300
 5187SOL    HW116460   1.262   4.576   5.287
 5187SOL    HW216461   1.416   4.628   5.268
 5188SOL     OW16462   5.763   7.019   2.608
 5188SOL    HW116463   5.726   6.944   2.554
 5188SOL    HW216464   5.863   7.012   2.610
 5189SOL     OW16465   5.256   0.205   6.183
 5189SOL    HW116466   5.299   0.163   6.263
 5189SOL    HW216467   5.310   0.283   6.153
 5190SOL     OW16468   1.904   4.604   0.306
 5190SOL    HW116469   1.979   4.653   0.352
 5190SOL    HW216470   1.834   4.670   0.278
 5191SOL     OW16471   2.803   4.740   1.725
 5191SOL    HW116472   2.817   4.661   1.784
 5191SOL    HW216473   2.892   4.778   1.698
 5192SOL     OW16474   1.515   4.724   2.390
 5192SOL    HW116475   1.613   4.709   2.403
 5192SOL    HW216476   1.494   4.821   2.403
 5193SOL     OW16477   5.775   0.836   5.535
 5193SOL    HW116478   5.756   0.934   5.533
 5193SOL    HW216479   5.774   0.804   5.630
 5194SOL     OW16480   4.840   1.198   5.767
 5194SOL    HW116481   4.872   1.106   5.785
 5194SOL    HW216482   4.843   1.253   5.850
 5195SOL     OW16483   0.587   0.732   5.090
 5195SOL    HW116484   0.536   0.755   5.007
 5195SOL    HW216485   0.615   0.816   5.136
 5196SOL     OW16486   6.317   6.594   3.584
 5196SOL    HW116487   6.350   6.501   3.598
 5196SOL    HW216488   6.223   6.592   3.549
 5197SOL     OW16489   0.942   2.897   4.522
 5197SOL    HW116490   0.860   2.937   4.479
 5197SOL    HW216491   0.916   2.852   4.608
 5198SOL     OW16492   5.731   5.155   3.702
 5198SOL    HW116493   5.779   5.084   3.754
 5198SOL    HW216494   5.794   5.198   3.638
 5199SOL     OW16495   0.570   4.722   1.518
 5199SOL    HW116496   0.583   4.775   1.602
 5199SOL    HW216497   0.500   4.652   1.535
 5200SOL     OW16498   0.047   3.653   4.633
 5200SOL    HW116499   0.100   3.663   4.548
 5200SOL    HW216500   6.984   3.610   4.613
 5201SOL     OW16501   0.700   5.292   4.483
 5201SOL    HW116502   0.617   5.294   4.427
 5201SOL    HW216503   0.719   5.383   4.519
 5202SOL     OW16504   1.189   4.762   2.368
 5202SOL    HW116505   1.095   4.739   2.394
 5202SOL    HW216506   1.244   4.779   2.450
 5203SOL     OW16507   0.520   2.945   0.285
 5203SOL    HW116508   0.541   2.916   0.192
 5203SOL    HW216509   0.592   2.913   0.347
 5204SOL     OW16510   4.581   3.971   6.835
 5204SOL    HW116511   4.618   4.063   6.849
 5204SOL    HW216512   4.495   3.978   6.784
 5205SOL     OW16513   1.642   0.147   1.150
 5205SOL    HW116514   1.669   0.052   1.167
 5205SOL    HW216515   1.604   0.155   1.058
 5206SOL     OW16516   0.453   4.221   4.858
 5206SOL    HW116517   0.440   4.156   4.783
 5206SOL    HW216518   0.371   4.278   4.867
 5207SOL     OW16519   1.668   4.427   4.392
 5207SOL    HW116520   1.601   4.491   4.353
 5207SOL    HW216521   1.697   4.362   4.322
 5208SOL     OW16522   4.522   1.202   0.282
 5208SOL    HW116523   4.479   1.274   0.228
 5208SOL    HW216524   4.611   1.179   0.242
 5209SOL     OW16525   5.751   5.915   2.801
 5209SOL    HW116526   5.681   5.919   2.730
 5209SOL    HW216527   5.816   5.990   2.789
 5210SOL     OW16528   4.599   4.846   3.255
 5210SOL    HW116529   4.611   4.824   3.352
 5210SOL    HW216530   4.687   4.838   3.208
 5211SOL     OW16531   3.813   3.651   2.394
 5211SOL    HW116532   3.754   3.666   2.472
 5211SOL    HW216533   3.876   3.728   2.384
 5212SOL     OW16534   0.949   1.492   0.371
 5212SOL    HW116535   0.937   1.505   0.273
 5212SOL    HW216536   1.011   1.415   0.387
 5213SOL     OW16537   4.404   2.750   6.448
 5213SOL    HW116538   4.465   2.714   6.519
 5213SOL    HW216539   4.337   2.679   6.423
 5214SOL     OW16540   5.638   1.802   6.479
 5214SOL    HW116541   5.646   1.703   6.465
 5214SOL    HW216542   5.579   1.819   6.558
 5215SOL     OW16543   5.442   5.260   2.324
 5215SOL    HW116544   5.414   5.203   2.401
 5215SOL    HW216545   5.442   5.356   2.352
 5216SOL     OW16546   4.552   5.566   1.381
 5216SOL    HW116547   4.598   5.515   1.308
 5216SOL    HW216548   4.557   5.664   1.361
 5217SOL     OW16549   3.043   4.903   3.909
 5217SOL    HW116550   3.048   4.996   3.873
 5217SOL    HW216551   2.948   4.882   3.932
 5218SOL     OW16552   1.796   6.907   4.452
 5218SOL    HW116553   1.762   6.898   4.358
 5218SOL    HW216554   1.825   6.817   4.485
 5219SOL     OW16555   2.494   5.560   0.418
 5219SOL    HW116556   2.519   5.603   0.331
 5219SOL    HW216557   2.398   5.580   0.438
 5220SOL     OW16558   0.785   6.809   2.429
 5220SOL    HW116559   0.738   6.772   2.510
 5220SOL    HW216560   0.758   6.757   2.348
 5221SOL     OW16561   5.393   1.857   4.784
 5221SOL    HW116562   5.315   1.823   4.732
 5221SOL    HW216563   5.361   1.920   4.855
 5222SOL     OW16564   1.228   7.003   2.490
 5222SOL    HW116565   1.163   0.042   2.532
 5222SOL    HW216566   1.220   6.913   2.534
 5223SOL     OW16567   5.431   7.001   1.155
 5223SOL    HW116568   5.379   6.977   1.237
 5223SOL    HW216569   5.369   0.011   1.085
 5224SOL     OW16570   5.461   1.869   3.090
 5224SOL    HW116571   5.552   1.828   3.080
 5224SOL    HW216572   5.465   1.966   3.067
 5225SOL     OW16573   5.036   6.076   5.154
 5225SOL    HW116574   4.969   6.040   5.089
 5225SOL    HW216575   5.003   6.062   5.248
 5226SOL     OW16576   1.669   6.261   4.168
 5226SOL    HW116577   1.622   6.338   4.126
 5226SOL    HW216578   1.744   6.294   4.225
 5227SOL     OW16579   6.096   4.429   2.838
 5227SOL    HW116580   6.144   4.498   2.783
 5227SOL    HW216581   6.163   4.367   2.879
 5228SOL     OW16582   5.792   0.547   1.287
 5228SOL    HW116583   5.726   0.491   1.337
 5228SOL    HW216584   5.774   0.539   1.189
 5229SOL     OW16585   1.391   4.642   4.910
 5229SOL    HW116586   1.399   4.585   4.992
 5229SOL    HW216587   1.383   4.583   4.830
 5230SOL     OW16588   1.316   6.038   6.917
 5230SOL    HW116589   1.381   5.978   6.962
 5230SOL    HW216590   1.364   6.096   6.851
 5231SOL     OW16591   3.617   2.952   3.987
 5231SOL    HW116592   3.714   2.975   3.993
 5231SOL    HW216593   3.586   2.960   3.892
 5232SOL     OW16594   4.890   2.957   5.914
 5232SOL    HW116595   4.930   2.897   5.984
 5232SOL    HW216596   4.871   3.047   5.954
 5233SOL     OW16597   0.453   0.629   2.416
 5233SOL    HW116598   0.505   0.676   2.487
 5233SOL    HW216599   0.423   0.695   2.347
 5234SOL     OW16600   3.877   6.315   1.394
 5234SOL    HW116601   3.956   6.276   1.348
 5234SOL    HW216602   3.870   6.278   1.487
 5235SOL     OW16603   1.071   3.581   1.148
 5235SOL    HW116604   1.128   3.597   1.067
 5235SOL    HW216605   1.045   3.484   1.151
 5236SOL     OW16606   5.096   3.153   0.728
 5236SOL    HW116607   5.097   3.096   0.811
 5236SOL    HW216608   5.025   3.223   0.736
 5237SOL     OW16609   2.238   2.043   4.552
 5237SOL    HW116610   2.304   2.024   4.479
 5237SOL    HW216611   2.282   2.029   4.641
 5238SOL     OW16612   1.751   4.350   1.215
 5238SOL    HW116613   1.655   4.328   1.235
 5238SOL    HW216614   1.809   4.313   1.287
 5239SOL     OW16615   2.903   3.659   4.721
 5239SOL    HW116616   2.811   3.692   4.701
 5239SOL    HW216617   2.969   3.734   4.711
 5240SOL     OW16618   3.204   1.976   5.018
 5240SOL    HW116619   3.192   2.071   4.988
 5240SOL    HW216620   3.278   1.972   5.086
 5241SOL     OW16621   2.328   5.499   5.786
 5241SOL    HW116622   2.268   5.420   5.793
 5241SOL    HW216623   2.308   5.563   5.860
 5242SOL     OW16624   4.859   1.372   6.019
 5242SOL    HW116625   4.902   1.292   6.062
 5242SOL    HW216626   4.924   1.447   6.015
 5243SOL     OW16627   0.745   4.319   0.956
 5243SOL    HW116628   0.750   4.372   1.041
 5243SOL    HW216629   0.649   4.297   0.937
 5244SOL     OW16630   5.241   3.866   6.686
 5244SOL    HW116631   5.179   3.878   6.763
 5244SOL    HW216632   5.316   3.931   6.693
 5245SOL     OW16633   4.963   4.243   6.220
 5245SOL    HW116634   4.881   4.206   6.176
 5245SOL    HW216635   5.023   4.282   6.149
 5246SOL     OW16636   0.969   3.421   2.599
 5246SOL    HW116637   1.028   3.355   2.645
 5246SOL    HW216638   1.024   3.477   2.536
 5247SOL     OW16639   0.818   4.958   1.300
 5247SOL    HW116640   0.800   4.989   1.207
 5247SOL    HW216641   0.859   5.033   1.353
 5248SOL     OW16642   4.508   0.871   6.457
 5248SOL    HW116643   4.422   0.828   6.429
 5248SOL    HW216644   4.585   0.821   6.418
 5249SOL     OW16645   1.197   5.365   5.457
 5249SOL    HW116646   1.099   5.375   5.472
 5249SOL    HW216647   1.219   5.268   5.442
 5250SOL     OW16648   0.321   1.279   6.164
 5250SOL    HW116649   0.394   1.345   6.142
 5250SOL    HW216650   0.312   1.273   6.263
 5251SOL     OW16651   6.904   2.648   1.180
 5251SOL    HW116652   6.853   2.585   1.122
 5251SOL    HW216653   6.868   2.741   1.169
 5252SOL     OW16654   3.910   6.138   0.398
 5252SOL    HW116655   3.898   6.115   0.302
 5252SOL    HW216656   4.008   6.140   0.420
 5253SOL     OW16657   5.762   2.950   3.549
 5253SOL    HW116658   5.787   2.855   3.569
 5253SOL    HW216659   5.845   3.004   3.535
 5254SOL     OW16660   4.460   0.950   3.908
 5254SOL    HW116661   4.439   0.853   3.896
 5254SOL    HW216662   4.559   0.962   3.914
 5255SOL     OW16663   3.091   6.761   4.886
 5255SOL    HW116664   3.162   6.742   4.818
 5255SOL    HW216665   3.069   6.859   4.885
 5256SOL     OW16666   6.065   6.635   3.510
 5256SOL    HW116667   6.085   6.721   3.556
 5256SOL    HW216668   5.969   6.609   3.528
 5257SOL     OW16669   3.303   1.451   1.534
 5257SOL    HW116670   3.286   1.544   1.564
 5257SOL    HW216671   3.330   1.395   1.612
 5258SOL     OW16672   6.125   2.390   1.893
 5258SOL    HW116673   6.168   2.385   1.803
 5258SOL    HW216674   6.187   2.354   1.962
 5259SOL     OW16675   5.292   4.906   2.755
 5259SOL    HW116676   5.309   4.858   2.841
 5259SOL    HW216677   5.193   4.911   2.739
 5260SOL     OW16678   5.486   3.190   1.114
 5260SOL    HW116679   5.473   3.288   1.130
 5260SOL    HW216680   5.440   3.138   1.186
 5261SOL     OW16681   1.846   2.267   4.838
 5261SOL    HW116682   1.893   2.304   4.919
 5261SOL    HW216683   1.837   2.339   4.770
 5262SOL     OW16684   2.731   0.081   1.968
 5262SOL    HW116685   2.740   7.015   1.927
 5262SOL    HW216686   2.651   0.127   1.929
 5263SOL     OW16687   0.855   6.298   0.665
 5263SOL    HW116688   0.798   6.345   0.598
 5263SOL    HW216689   0.926   6.245   0.617
 5264SOL     OW16690   0.485   2.429   0.631
 5264SOL    HW116691   0.412   2.380   0.583
 5264SOL    HW216692   0.453   2.458   0.721
 5265SOL     OW16693   4.811   4.885   1.982
 5265SOL    HW116694   4.820   4.820   2.057
 5265SOL    HW216695   4.766   4.968   2.014
 5266SOL     OW16696   1.951   7.015   1.012
 5266SOL    HW116697   1.991   0.075   0.978
 5266SOL    HW216698   1.882   6.983   0.948
 5267SOL     OW16699   5.337   4.724   4.461
 5267SOL    HW116700   5.258   4.743   4.519
 5267SOL    HW216701   5.337   4.789   4.384
 5268SOL     OW16702   5.788   4.666   4.713
 5268SOL    HW116703   5.693   4.674   4.681
 5268SOL    HW216704   5.808   4.739   4.778
 5269SOL     OW16705   1.422   5.612   4.498
 5269SOL    HW116706   1.411   5.530   4.442
 5269SOL    HW216707   1.332   5.651   4.516
 5270SOL     OW16708   6.236   2.899   2.650
 5270SOL    HW116709   6.164   2.831   2.641
 5270SOL    HW216710   6.258   2.937   2.560
 5271SOL     OW16711   5.065   4.674   4.948
 5271SOL    HW116712   5.090   4.626   5.032
 5271SOL    HW216713   5.092   4.770   4.956
 5272SOL     OW16714   1.557   1.213   4.609
 5272SOL    HW116715   1.577   1.281   4.539
 5272SOL    HW216716   1.582   1.250   4.699
 5273SOL     OW16717   0.673   0.873   4.120
 5273SOL    HW116718   0.579   0.857   4.149
 5273SOL    HW216719   0.692   0.971   4.122
 5274SOL     OW16720   6.565   5.522   3.487
 5274SOL    HW116721   6.522   5.481   3.568
 5274SOL    HW216722   6.591   5.450   3.423
 5275SOL     OW16723   2.299   0.234   0.061
 5275SOL    HW116724   2.216   0.229   0.006
 5275SOL    HW216725   2.340   0.143   0.068
 5276SOL     OW16726   0.195   6.952   1.134
 5276SOL    HW116727   0.231   0.011   1.176
 5276SOL    HW216728   0.249   6.931   1.052
 5277SOL     OW16729   1.126   1.955   2.873
 5277SOL    HW116730   1.111   1.858   2.892
 5277SOL    HW216731   1.052   1.990   2.816
 5278SOL     OW16732   1.050   4.770   6.199
 5278SOL    HW116733   1.079   4.775   6.295
 5278SOL    HW216734   1.042   4.674   6.172
 5279SOL     OW16735   2.440   6.194   6.520
 5279SOL    HW116736   2.505   6.125   6.487
 5279SOL    HW216737   2.359   6.149   6.557
 5280SOL     OW16738   4.235   6.505   4.938
 5280SOL    HW116739   4.283   6.590   4.920
 5280SOL    HW216740   4.283   6.454   5.010
 5281SOL     OW16741   2.950   0.641   4.952
 5281SOL    HW116742   2.988   0.734   4.954
 5281SOL    HW216743   2.859   0.642   4.994
 5282SOL     OW16744   1.430   6.737   1.650
 5282SOL    HW116745   1.349   6.689   1.617
 5282SOL    HW216746   1.422   6.834   1.631
 5283SOL     OW16747   0.735   0.882   4.700
 5283SOL    HW116748   0.779   0.858   4.614
 5283SOL    HW216749   0.797   0.937   4.755
 5284SOL     OW16750   4.068   2.692   1.296
 5284SOL    HW116751   4.078   2.669   1.393
 5284SOL    HW216752   4.059   2.608   1.243
 5285SOL     OW16753   1.510   1.819   4.281
 5285SOL    HW116754   1.413   1.811   4.258
 5285SOL    HW216755   1.550   1.894   4.229
 5286SOL     OW16756   6.122   3.643   0.715
 5286SOL    HW116757   6.070   3.564   0.684
 5286SOL    HW216758   6.061   3.721   0.727
 5287SOL     OW16759   2.670   5.408   1.432
 5287SOL    HW116760   2.725   5.483   1.468
 5287SOL    HW216761   2.730   5.331   1.410
 5288SOL     OW16762   4.128   0.595   2.062
 5288SOL    HW116763   4.044   0.543   2.049
 5288SOL    HW216764   4.117   0.687   2.026
 5289SOL     OW16765   2.270   4.855   6.698
 5289SOL    HW116766   2.294   4.795   6.622
 5289SOL    HW216767   2.177   4.890   6.684
 5290SOL     OW16768   1.539   2.813   5.059
 5290SOL    HW116769   1.591   2.740   5.014
 5290SOL    HW216770   1.574   2.826   5.152
 5291SOL     OW16771   2.739   4.959   4.737
 5291SOL    HW116772   2.677   5.023   4.783
 5291SOL    HW216773   2.687   4.901   4.675
 5292SOL     OW16774   6.970   3.772   6.241
 5292SOL    HW116775   6.871   3.761   6.245
 5292SOL    HW216776   7.004   3.805   6.329
 5293SOL     OW16777   2.374   6.324   4.315
 5293SOL    HW116778   2.286   6.351   4.354
 5293SOL    HW216779   2.428   6.275   4.384
 5294SOL     OW16780   3.736   0.756   5.276
 5294SOL    HW116781   3.766   0.804   5.359
 5294SOL    HW216782   3.685   0.674   5.301
 5295SOL     OW16783   2.617   1.571   2.393
 5295SOL    HW116784   2.522   1.555   2.420
 5295SOL    HW216785   2.671   1.490   2.415
 5296SOL     OW16786   4.975   5.069   1.679
 5296SOL    HW116787   4.980   5.145   1.613
 5296SOL    HW216788   4.991   5.105   1.771
 5297SOL     OW16789   2.703   5.150   0.543
 5297SOL    HW116790   2.751   5.083   0.600
 5297SOL    HW216791   2.753   5.163   0.458
 5298SOL     OW16792   2.182   0.499   0.321
 5298SOL    HW116793   2.243   0.505   0.241
 5298SOL    HW216794   2.169   0.403   0.345
 5299SOL     OW16795   2.979   1.776   0.934
 5299SOL    HW116796   2.918   1.855   0.945
 5299SOL    HW216797   2.961   1.711   1.008
 5300SOL     OW16798   2.299   4.407   0.145
 5300SOL    HW116799   2.294   4.312   0.178
 5300SOL    HW216800   2.227   4.423   0.077
 5301SOL     OW16801   5.573   0.448   5.773
 5301SOL    HW116802   5.482   0.448   5.813
 5301SOL    HW216803   5.596   0.356   5.743
 5302SOL     OW16804   5.610   6.321   3.162
 5302SOL    HW116805   5.549   6.252   3.123
 5302SOL    HW216806   5.558   6.383   3.220
 5303SOL     OW16807   0.606   5.124   6.187
 5303SOL    HW116808   0.552   5.112   6.103
 5303SOL    HW216809   0.581   5.052   6.253
 5304SOL     OW16810   6.769   0.528   1.480
 5304SOL    HW116811   6.715   0.550   1.399
 5304SOL    HW216812   6.737   0.442   1.520
 5305SOL     OW16813   1.662   5.096   3.320
 5305SOL    HW116814   1.610   5.131   3.242
 5305SOL    HW216815   1.746   5.052   3.286
 5306SOL     OW16816   0.068   3.671   5.839
 5306SOL    HW116817   0.008   3.676   5.919
 5306SOL    HW216818   0.050   3.586   5.790
 5307SOL     OW16819   6.227   1.902   1.714
 5307SOL    HW116820   6.151   1.864   1.767
 5307SOL    HW216821   6.303   1.924   1.775
 5308SOL     OW16822   1.309   4.109   2.832
 5308SOL    HW116823   1.292   4.190   2.889
 5308SOL    HW216824   1.337   4.033   2.890
 5309SOL     OW16825   6.092   6.335   2.502
 5309SOL    HW116826   6.116   6.379   2.415
 5309SOL    HW216827   5.995   6.348   2.520
 5310SOL     OW16828   5.575   2.959   2.641
 5310SOL    HW116829   5.564   2.860   2.642
 5310SOL    HW216830   5.543   2.996   2.554
 5311SOL     OW16831   5.863   0.192   0.658
 5311SOL    HW116832   5.954   0.154   0.673
 5311SOL    HW216833   5.810   0.131   0.600
 5312SOL     OW16834   6.973   6.184   0.579
 5312SOL    HW116835   0.014   6.208   0.508
 5312SOL    HW216836   6.940   6.267   0.624
 5313SOL     OW16837   0.587   5.138   5.618
 5313SOL    HW116838   0.576   5.202   5.541
 5313SOL    HW216839   0.567   5.185   5.704
 5314SOL     OW16840   6.564   0.867   1.610
 5314SOL    HW116841   6.504   0.944   1.590
 5314SOL    HW216842   6.511   0.782   1.613
 5315SOL     OW16843   4.501   1.612   3.908
 5315SOL    HW116844   4.408   1.606   3.872
 5315SOL    HW216845   4.554   1.676   3.852
 5316SOL     OW16846   0.400   2.429   4.825
 5316SOL    HW116847   0.325   2.492   4.807
 5316SOL    HW216848   0.476   2.449   4.762
 5317SOL     OW16849   6.998   1.725   6.460
 5317SOL    HW116850   7.016   1.744   6.364
 5317SOL    HW216851   0.016   1.638   6.485
 5318SOL     OW16852   6.422   3.394   6.762
 5318SOL    HW116853   6.450   3.312   6.712
 5318SOL    HW216854   6.372   3.455   6.700
 5319SOL     OW16855   4.478   6.800   1.119
 5319SOL    HW116856   4.473   6.712   1.165
 5319SOL    HW216857   4.532   6.791   1.036
 5320SOL     OW16858   3.041   5.946   1.032
 5320SOL    HW116859   2.965   5.958   1.096
 5320SOL    HW216860   3.126   5.978   1.074
 5321SOL     OW16861   1.722   3.645   5.205
 5321SOL    HW116862   1.773   3.656   5.119
 5321SOL    HW216863   1.779   3.597   5.272
 5322SOL     OW16864   5.320   6.813   2.175
 5322SOL    HW116865   5.321   6.851   2.267
 5322SOL    HW216866   5.229   6.779   2.154
 5323SOL     OW16867   4.193   1.678   5.434
 5323SOL    HW116868   4.287   1.660   5.462
 5323SOL    HW216869   4.190   1.754   5.369
 5324SOL     OW16870   2.098   1.731   0.536
 5324SOL    HW116871   2.088   1.643   0.489
 5324SOL    HW216872   2.009   1.763   0.568
 5325SOL     OW16873   2.465   1.986   4.725
 5325SOL    HW116874   2.514   1.921   4.783
 5325SOL    HW216875   2.460   2.075   4.770
 5326SOL     OW16876   6.097   6.916   2.366
 5326SOL    HW116877   6.061   6.916   2.459
 5326SOL    HW216878   6.112   6.822   2.336
 5327SOL     OW16879   5.957   2.433   5.229
 5327SOL    HW116880   5.898   2.443   5.310
 5327SOL    HW216881   6.011   2.349   5.237
 5328SOL     OW16882   4.093   4.711   6.894
 5328SOL    HW116883   4.129   4.784   6.836
 5328SOL    HW216884   4.021   4.662   6.844
 5329SOL     OW16885   1.500   6.888   6.572
 5329SOL    HW116886   1.502   6.800   6.619
 5329SOL    HW216887   1.593   6.912   6.542
 5330SOL     OW16888   2.482   3.599   0.694
 5330SOL    HW116889   2.444   3.631   0.780
 5330SOL    HW216890   2.565   3.650   0.673
 5331SOL     OW16891   6.450   0.756   6.667
 5331SOL    HW116892   6.492   0.783   6.753
 5331SOL    HW216893   6.385   0.682   6.684
 5332SOL     OW16894   1.225   5.005   2.159
 5332SOL    HW116895   1.251   4.948   2.237
 5332SOL    HW216896   1.233   4.953   2.075
 5333SOL     OW16897   0.872   6.252   4.084
 5333SOL    HW116898   0.848   6.286   4.175
 5333SOL    HW216899   0.934   6.174   4.093
 5334SOL     OW16900   2.753   0.149   4.359
 5334SOL    HW116901   2.661   0.142   4.321
 5334SOL    HW216902   2.781   0.245   4.360
 5335SOL     OW16903   6.688   5.606   0.910
 5335SOL    HW116904   6.607   5.588   0.855
 5335SOL    HW216905   6.766   5.554   0.875
 5336SOL     OW16906   1.623   3.971   2.493
 5336SOL    HW116907   1.559   4.044   2.468
 5336SOL    HW216908   1.715   3.996   2.463
 5337SOL     OW16909   4.567   4.568   1.257
 5337SOL    HW116910   4.577   4.659   1.297
 5337SOL    HW216911   4.490   4.568   1.193
 5338SOL     OW16912   6.348   2.039   6.444
 5338SOL    HW116913   6.430   2.032   6.501
 5338SOL    HW216914   6.367   1.999   6.354
 5339SOL     OW16915   6.358   2.219   3.755
 5339SOL    HW116916   6.446   2.258   3.729
 5339SOL    HW216917   6.372   2.128   3.794
 5340SOL     OW16918   5.169   2.278   6.833
 5340SOL    HW116919   5.078   2.237   6.826
 5340SOL    HW216920   5.193   2.320   6.745
 5341SOL     OW16921   4.621   0.565   0.187
 5341SOL    HW116922   4.523   0.575   0.170
 5341SOL    HW216923   4.643   0.468   0.200
 5342SOL     OW16924   3.841   0.892   5.483
 5342SOL    HW116925   3.833   0.969   5.419
 5342SOL    HW216926   3.792   0.913   5.568
 5343SOL     OW16927   4.031   3.857   2.270
 5343SOL    HW116928   4.083   3.929   2.225
 5343SOL    HW216929   4.072   3.837   2.360
 5344SOL     OW16930   2.148   2.522   2.936
 5344SOL    HW116931   2.095   2.462   2.876
 5344SOL    HW216932   2.214   2.468   2.988
 5345SOL     OW16933   4.500   6.806   1.425
 5345SOL    HW116934   4.528   6.740   1.355
 5345SOL    HW216935   4.400   6.810   1.428
 5346SOL     OW16936   3.214   6.633   2.854
 5346SOL    HW116937   3.296   6.648   2.799
 5346SOL    HW216938   3.221   6.685   2.939
 5347SOL     OW16939   0.187   1.912   1.093
 5347SOL    HW116940   0.219   1.971   1.167
 5347SOL    HW216941   0.137   1.966   1.026
 5348SOL     OW16942   0.490   0.633   6.783
 5348SOL    HW116943   0.494   0.698   6.860
 5348SOL    HW216944   0.476   0.541   6.819
 5349SOL     OW16945   6.753   0.622   1.214
 5349SOL    HW116946   6.848   0.652   1.218
 5349SOL    HW216947   6.693   0.702   1.219
 5350SOL     OW16948   2.404   1.589   6.575
 5350SOL    HW116949   2.312   1.552   6.565
 5350SOL    HW216950   2.403   1.666   6.638
 5351SOL     OW16951   4.560   6.770   1.719
 5351SOL    HW116952   4.480   6.793   1.775
 5351SOL    HW216953   4.534   6.773   1.622
 5352SOL     OW16954   3.487   5.702   3.806
 5352SOL    HW116955   3.578   5.668   3.781
 5352SOL    HW216956   3.418   5.639   3.772
 5353SOL     OW16957   5.588   5.534   5.139
 5353SOL    HW116958   5.515   5.602   5.150
 5353SOL    HW216959   5.662   5.555   5.203
 5354SOL     OW16960   1.073   3.964   1.530
 5354SOL    HW116961   1.103   4.022   1.455
 5354SOL    HW216962   1.026   4.021   1.598
 5355SOL     OW16963   4.507   2.605   4.392
 5355SOL    HW116964   4.535   2.542   4.320
 5355SOL    HW216965   4.538   2.698   4.369
 5356SOL     OW16966   6.432   3.571   1.359
 5356SOL    HW116967   6.417   3.544   1.454
 5356SOL    HW216968   6.413   3.493   1.299
 5357SOL     OW16969   3.880   0.027   7.025
 5357SOL    HW116970   3.870   0.012   0.098
 5357SOL    HW216971   3.973   0.004   6.997
 5358SOL     OW16972   5.194   3.045   0.477
 5358SOL    HW116973   5.177   3.098   0.560
 5358SOL    HW216974   5.154   2.955   0.486
 5359SOL     OW16975   2.212   1.283   7.010
 5359SOL    HW116976   2.267   1.364   6.992
 5359SOL    HW216977   2.118   1.310   0.007
 5360SOL     OW16978   3.595   6.732   6.605
 5360SOL    HW116979   3.619   6.772   6.517
 5360SOL    HW216980   3.585   6.805   6.673
 5361SOL     OW16981   1.776   0.760   5.811
 5361SOL    HW116982   1.698   0.733   5.755
 5361SOL    HW216983   1.858   0.713   5.780
 5362SOL     OW16984   5.050   5.241   2.901
 5362SOL    HW116985   5.138   5.218   2.860
 5362SOL    HW216986   5.022   5.333   2.872
 5363SOL     OW16987   0.606   4.968   6.460
 5363SOL    HW116988   0.665   5.025   6.518
 5363SOL    HW216989   0.662   4.911   6.401
 5364SOL     OW16990   0.265   6.306   0.782
 5364SOL    HW116991   0.318   6.244   0.840
 5364SOL    HW216992   0.174   6.318   0.820
 5365SOL     OW16993   4.552   2.064   5.751
 5365SOL    HW116994   4.599   2.142   5.710
 5365SOL    HW216995   4.618   2.007   5.801
 5366SOL     OW16996   3.956   3.433   0.414
 5366SOL    HW116997   3.938   3.364   0.483
 5366SOL    HW216998   3.947   3.524   0.454
 5367SOL     OW16999   0.644   4.837   1.763
 5367SOL    HW117000   0.602   4.837   1.854
 5367SOL    HW217001   0.674   4.929   1.740
 5368SOL     OW17002   5.880   2.076   3.244
 5368SOL    HW117003   5.958   2.016   3.225
 5368SOL    HW217004   5.910   2.152   3.301
 5369SOL     OW17005   2.022   4.389   3.129
 5369SOL    HW117006   2.063   4.481   3.127
 5369SOL    HW217007   2.030   4.347   3.039
 5370SOL     OW17008   3.563   2.706   1.239
 5370SOL    HW117009   3.656   2.732   1.214
 5370SOL    HW217010   3.506   2.701   1.157
 5371SOL     OW17011   1.132   4.366   4.925
 5371SOL    HW117012   1.108   4.362   4.829
 5371SOL    HW217013   1.177   4.280   4.952
 5372SOL     OW17014   2.580   5.154   2.639
 5372SOL    HW117015   2.644   5.180   2.566
 5372SOL    HW217016   2.593   5.057   2.661
 5373SOL     OW17017   3.545   4.898   3.833
 5373SOL    HW117018   3.450   4.875   3.855
 5373SOL    HW217019   3.589   4.938   3.914
 5374SOL     OW17020   2.782   2.039   6.907
 5374SOL    HW117021   2.688   2.061   6.880
 5374SOL    HW217022   2.843   2.056   6.829
 5375SOL     OW17023   1.341   4.108   4.380
 5375SOL    HW117024   1.406   4.140   4.450
 5375SOL    HW217025   1.326   4.180   4.313
 5376SOL     OW17026   1.482   3.661   1.275
 5376SOL    HW117027   1.471   3.580   1.217
 5376SOL    HW217028   1.527   3.734   1.222
 5377SOL     OW17029   0.593   0.826   1.077
 5377SOL    HW117030   0.617   0.729   1.072
 5377SOL    HW217031   0.517   0.838   1.141
 5378SOL     OW17032   5.372   0.809   0.475
 5378SOL    HW117033   5.356   0.907   0.482
 5378SOL    HW217034   5.404   0.786   0.383
 5379SOL     OW17035   0.131   6.254   2.282
 5379SOL    HW117036   0.113   6.342   2.327
 5379SOL    HW217037   0.150   6.270   2.185
 5380SOL     OW17038   3.261   0.501   3.471
 5380SOL    HW117039   3.254   0.547   3.383
 5380SOL    HW217040   3.355   0.471   3.486
 5381SOL     OW17041   5.862   4.187   1.238
 5381SOL    HW117042   5.819   4.107   1.195
 5381SOL    HW217043   5.950   4.204   1.194
 5382SOL     OW17044   2.541   0.783   1.540
 5382SOL    HW117045   2.623   0.830   1.506
 5382SOL    HW217046   2.561   0.742   1.629
 5383SOL     OW17047   2.444   2.225   4.824
 5383SOL    HW117048   2.518   2.293   4.826
 5383SOL    HW217049   2.359   2.268   4.854
 5384SOL     OW17050   5.894   6.541   4.265
 5384SOL    HW117051   5.805   6.586   4.275
 5384SOL    HW217052   5.917   6.492   4.349
 5385SOL     OW17053   3.501   3.865   2.364
 5385SOL    HW117054   3.446   3.945   2.337
 5385SOL    HW217055   3.537   3.879   2.456
 5386SOL     OW17056   5.600   6.426   4.444
 5386SOL    HW117057   5.610   6.512   4.395
 5386SOL    HW217058   5.689   6.380   4.450
 5387SOL     OW17059   2.985   5.310   1.885
 5387SOL    HW117060   3.049   5.373   1.929
 5387SOL    HW217061   2.994   5.219   1.926
 5388SOL     OW17062   5.459   6.703   2.627
 5388SOL    HW117063   5.423   6.611   2.611
 5388SOL    HW217064   5.523   6.700   2.704
 5389SOL     OW17065   4.750   2.052   1.199
 5389SOL    HW117066   4.741   2.006   1.287
 5389SOL    HW217067   4.667   2.037   1.145
 5390SOL     OW17068   6.100   4.974   5.786
 5390SOL    HW117069   6.143   4.982   5.696
 5390SOL    HW217070   6.055   5.061   5.809
 5391SOL     OW17071   2.703   2.690   0.477
 5391SOL    HW117072   2.707   2.592   0.459
 5391SOL    HW217073   2.785   2.734   0.441
 5392SOL     OW17074   6.222   3.346   2.176
 5392SOL    HW117075   6.318   3.375   2.178
 5392SOL    HW217076   6.186   3.345   2.269
 5393SOL     OW17077   6.982   6.687   6.774
 5393SOL    HW117078   0.038   6.703   6.717
 5393SOL    HW217079   6.992   6.736   6.860
 5394SOL     OW17080   1.238   3.889   5.832
 5394SOL    HW117081   1.159   3.900   5.771
 5394SOL    HW217082   1.260   3.977   5.875
 5395SOL     OW17083   3.945   1.040   0.163
 5395SOL    HW117084   3.997   1.126   0.164
 5395SOL    HW217085   3.905   1.024   0.253
 5396SOL     OW17086   5.248   3.538   2.100
 5396SOL    HW117087   5.291   3.448   2.095
 5396SOL    HW217088   5.209   3.561   2.011
 5397SOL     OW17089   0.143   3.710   1.540
 5397SOL    HW117090   0.224   3.653   1.523
 5397SOL    HW217091   0.115   3.699   1.636
 5398SOL     OW17092   2.967   2.589   1.667
 5398SOL    HW117093   3.044   2.550   1.617
 5398SOL    HW217094   2.958   2.543   1.756
 5399SOL     OW17095   1.909   6.074   1.791
 5399SOL    HW117096   1.816   6.043   1.809
 5399SOL    HW217097   1.924   6.081   1.693
 5400SOL     OW17098   3.413   4.501   0.433
 5400SOL    HW117099   3.490   4.451   0.473
 5400SOL    HW217100   3.327   4.455   0.458
 5401SOL     OW17101   6.170   3.072   2.103
 5401SOL    HW117102   6.187   3.165   2.137
 5401SOL    HW217103   6.079   3.042   2.134
 5402SOL     OW17104   1.180   6.379   2.155
 5402SOL    HW117105   1.236   6.373   2.073
 5402SOL    HW217106   1.232   6.343   2.233
 5403SOL     OW17107   0.267   3.264   6.483
 5403SOL    HW117108   0.314   3.264   6.571
 5403SOL    HW217109   0.194   3.196   6.483
 5404SOL     OW17110   1.651   2.863   3.807
 5404SOL    HW117111   1.661   2.963   3.811
 5404SOL    HW217112   1.570   2.837   3.859
 5405SOL     OW17113   6.380   5.307   5.876
 5405SOL    HW117114   6.447   5.233   5.865
 5405SOL    HW217115   6.324   5.291   5.957
 5406SOL     OW17116   1.704   0.936   6.526
 5406SOL    HW117117   1.618   0.898   6.560
 5406SOL    HW217118   1.715   0.914   6.429
 5407SOL     OW17119   3.817   3.173   6.839
 5407SOL    HW117120   3.824   3.082   6.799
 5407SOL    HW217121   3.793   3.165   6.936
 5408SOL     OW17122   2.422   0.676   6.854
 5408SOL    HW117123   2.429   0.658   6.952
 5408SOL    HW217124   2.329   0.657   6.823
 5409SOL     OW17125   3.618   0.709   2.682
 5409SOL    HW117126   3.562   0.638   2.638
 5409SOL    HW217127   3.622   0.790   2.623
 5410SOL     OW17128   2.577   1.885   2.084
 5410SOL    HW117129   2.597   1.956   2.151
 5410SOL    HW217130   2.622   1.908   1.997
 5411SOL     OW17131   0.569   5.635   5.380
 5411SOL    HW117132   0.508   5.561   5.407
 5411SOL    HW217133   0.604   5.617   5.288
 5412SOL     OW17134   6.177   2.625   0.356
 5412SOL    HW117135   6.155   2.589   0.446
 5412SOL    HW217136   6.097   2.671   0.318
 5413SOL     OW17137   2.162   1.219   1.522
 5413SOL    HW117138   2.235   1.286   1.533
 5413SOL    HW217139   2.197   1.138   1.476
 5414SOL     OW17140   3.922   1.539   5.155
 5414SOL    HW117141   3.981   1.620   5.161
 5414SOL    HW217142   3.826   1.567   5.159
 5415SOL     OW17143   6.543   5.137   2.005
 5415SOL    HW117144   6.448   5.165   1.993
 5415SOL    HW217145   6.572   5.158   2.099
 5416SOL     OW17146   4.414   5.058   4.901
 5416SOL    HW117147   4.393   5.047   4.804
 5416SOL    HW217148   4.385   4.976   4.950
 5417SOL     OW17149   3.278   0.082   4.759
 5417SOL    HW117150   3.333   0.151   4.713
 5417SOL    HW217151   3.271   0.000   4.701
 5418SOL     OW17152   3.714   0.053   3.139
 5418SOL    HW117153   3.733   6.997   3.083
 5418SOL    HW217154   3.697   0.025   3.233
 5419SOL     OW17155   3.608   5.449   6.966
 5419SOL    HW117156   3.514   5.432   6.937
 5419SOL    HW217157   3.629   5.546   6.955
 5420SOL     OW17158   1.702   1.877   2.570
 5420SOL    HW117159   1.768   1.877   2.645
 5420SOL    HW217160   1.654   1.965   2.568
 5421SOL     OW17161   1.806   3.955   2.085
 5421SOL    HW117162   1.754   3.914   2.160
 5421SOL    HW217163   1.772   3.919   1.998
 5422SOL     OW17164   2.360   3.637   1.138
 5422SOL    HW117165   2.342   3.644   1.040
 5422SOL    HW217166   2.402   3.721   1.171
 5423SOL     OW17167   5.674   3.230   6.888
 5423SOL    HW117168   5.606   3.164   6.919
 5423SOL    HW217169   5.735   3.187   6.822
 5424SOL     OW17170   5.288   3.732   4.276
 5424SOL    HW117171   5.251   3.824   4.286
 5424SOL    HW217172   5.376   3.736   4.229
 5425SOL     OW17173   5.285   1.062   5.040
 5425SOL    HW117174   5.362   1.005   5.010
 5425SOL    HW217175   5.205   1.042   4.983
 5426SOL     OW17176   6.239   6.985   4.834
 5426SOL    HW117177   6.306   6.942   4.895
 5426SOL    HW217178   6.147   6.960   4.863
 5427SOL     OW17179   4.612   6.141   6.443
 5427SOL    HW117180   4.705   6.129   6.478
 5427SOL    HW217181   4.548   6.097   6.506
 5428SOL     OW17182   1.440   0.629   0.469
 5428SOL    HW117183   1.426   0.612   0.371
 5428SOL    HW217184   1.432   0.543   0.519
 5429SOL     OW17185   1.014   2.497   6.499
 5429SOL    HW117186   1.114   2.487   6.495
 5429SOL    HW217187   0.987   2.517   6.593
 5430SOL     OW17188   1.752   2.502   6.070
 5430SOL    HW117189   1.837   2.453   6.052
 5430SOL    HW217190   1.758   2.593   6.029
 5431SOL     OW17191   3.827   6.367   5.489
 5431SOL    HW117192   3.783   6.401   5.406
 5431SOL    HW217193   3.922   6.399   5.491
 5432SOL     OW17194   5.122   6.877   1.072
 5432SOL    HW117195   5.136   6.975   1.081
 5432SOL    HW217196   5.079   6.841   1.155
 5433SOL     OW17197   0.400   1.868   4.881
 5433SOL    HW117198   0.472   1.811   4.841
 5433SOL    HW217199   0.428   1.964   4.879
 5434SOL     OW17200   2.403   0.443   5.923
 5434SOL    HW117201   2.439   0.533   5.949
 5434SOL    HW217202   2.410   0.431   5.824
 5435SOL     OW17203   4.445   0.329   1.887
 5435SOL    HW117204   4.350   0.308   1.911
 5435SOL    HW217205   4.481   0.397   1.951
 5436SOL     OW17206   4.523   4.436   2.777
 5436SOL    HW117207   4.431   4.405   2.753
 5436SOL    HW217208   4.517   4.516   2.836
 5437SOL     OW17209   3.181   3.786   0.055
 5437SOL    HW117210   3.241   3.834   7.016
 5437SOL    HW217211   3.115   3.731   0.003
 5438SOL     OW17212   6.278   1.820   1.172
 5438SOL    HW117213   6.190   1.834   1.126
 5438SOL    HW217214   6.264   1.818   1.271
 5439SOL     OW17215   0.979   2.820   1.353
 5439SOL    HW117216   1.064   2.838   1.304
 5439SOL    HW217217   0.920   2.760   1.299
 5440SOL     OW17218   0.743   2.081   1.201
 5440SOL    HW117219   0.658   2.032   1.185
 5440SOL    HW217220   0.728   2.179   1.191
 5441SOL     OW17221   3.485   2.116   3.238
 5441SOL    HW117222   3.479   2.171   3.321
 5441SOL    HW217223   3.399   2.122   3.188
 5442SOL     OW17224   3.712   0.428   2.418
 5442SOL    HW117225   3.799   0.389   2.386
 5442SOL    HW217226   3.728   0.521   2.450
 5443SOL     OW17227   3.182   6.882   5.783
 5443SOL    HW117228   3.234   6.819   5.841
 5443SOL    HW217229   3.097   6.907   5.830
 5444SOL     OW17230   0.133   7.019   3.420
 5444SOL    HW117231   0.131   6.966   3.505
 5444SOL    HW217232   0.181   0.080   3.437
 5445SOL     OW17233   5.465   3.821   1.982
 5445SOL    HW117234   5.430   3.788   1.894
 5445SOL    HW217235   5.551   3.869   1.968
 5446SOL     OW17236   6.146   5.749   5.735
 5446SOL    HW117237   6.224   5.733   5.674
 5446SOL    HW217238   6.112   5.661   5.769
 5447SOL     OW17239   4.165   2.194   0.054
 5447SOL    HW117240   4.162   2.138   6.997
 5447SOL    HW217241   4.122   2.282   0.036
 5448SOL     OW17242   5.599   2.284   5.347
 5448SOL    HW117243   5.632   2.367   5.392
 5448SOL    HW217244   5.592   2.299   5.248
 5449SOL     OW17245   1.024   3.562   6.932
 5449SOL    HW117246   0.986   3.469   6.929
 5449SOL    HW217247   1.013   3.599   7.024
 5450SOL     OW17248   2.015   0.247   1.584
 5450SOL    HW117249   1.978   0.253   1.491
 5450SOL    HW217250   1.958   0.303   1.646
 5451SOL     OW17251   0.926   6.119   3.200
 5451SOL    HW117252   0.862   6.195   3.185
 5451SOL    HW217253   0.945   6.110   3.298
 5452SOL     OW17254   2.374   4.141   6.651
 5452SOL    HW117255   2.380   4.062   6.712
 5452SOL    HW217256   2.301   4.126   6.584
 5453SOL     OW17257   5.725   5.137   6.923
 5453SOL    HW117258   5.696   5.122   7.017
 5453SOL    HW217259   5.825   5.137   6.919
 5454SOL     OW17260   6.735   4.496   0.128
 5454SOL    HW117261   6.727   4.511   0.227
 5454SOL    HW217262   6.684   4.566   0.079
 5455SOL     OW17263   6.763   3.096   0.905
 5455SOL    HW117264   6.671   3.083   0.869
 5455SOL    HW217265   6.824   3.125   0.832
 5456SOL     OW17266   3.259   7.016   0.013
 5456SOL    HW117267   3.169   7.009   0.056
 5456SOL    HW217268   3.266   6.950   6.963
 5457SOL     OW17269   6.153   2.823   0.556
 5457SOL    HW117270   6.246   2.861   0.546
 5457SOL    HW217271   6.127   2.778   0.471
 5458SOL     OW17272   2.262   4.389   6.729
 5458SOL    HW117273   2.256   4.296   6.694
 5458SOL    HW217274   2.355   4.408   6.759
 5459SOL     OW17275   1.496   4.617   6.613
 5459SOL    HW117276   1.566   4.647   6.548
 5459SOL    HW217277   1.426   4.564   6.564
 5460SOL     OW17278   2.881   0.180   1.005
 5460SOL    HW117279   2.793   0.227   1.008
 5460SOL    HW217280   2.950   0.241   0.966
 5461SOL     OW17281   4.484   0.287   4.882
 5461SOL    HW117282   4.575   0.252   4.903
 5461SOL    HW217283   4.467   0.277   4.784
 5462SOL     OW17284   1.471   0.444   0.767
 5462SOL    HW117285   1.453   0.531   0.814
 5462SOL    HW217286   1.559   0.450   0.720
 5463SOL     OW17287   6.638   2.552   0.761
 5463SOL    HW117288   6.596   2.638   0.733
 5463SOL    HW217289   6.635   2.488   0.684
 5464SOL     OW17290   2.090   0.108   4.394
 5464SOL    HW117291   2.118   0.196   4.431
 5464SOL    HW217292   1.992   0.110   4.373
 5465SOL     OW17293   2.829   0.228   4.941
 5465SOL    HW117294   2.890   0.245   5.018
 5465SOL    HW217295   2.742   0.191   4.974
 5466SOL     OW17296   4.771   4.062   4.438
 5466SOL    HW117297   4.793   4.073   4.535
 5466SOL    HW217298   4.772   3.965   4.414
 5467SOL     OW17299   5.212   1.398   2.545
 5467SOL    HW117300   5.252   1.315   2.506
 5467SOL    HW217301   5.126   1.375   2.592
 5468SOL     OW17302   4.542   1.939   4.968
 5468SOL    HW117303   4.545   1.953   4.869
 5468SOL    HW217304   4.623   1.980   5.010
 5469SOL     OW17305   4.086   3.889   6.372
 5469SOL    HW117306   4.039   3.865   6.287
 5469SOL    HW217307   4.025   3.943   6.430
 5470SOL     OW17308   1.793   5.007   3.973
 5470SOL    HW117309   1.872   5.062   4.001
 5470SOL    HW217310   1.710   5.060   3.987
 5471SOL     OW17311   0.147   5.677   2.013
 5471SOL    HW117312   0.061   5.721   1.987
 5471SOL    HW217313   0.147   5.583   1.979
 5472SOL     OW17314   3.884   4.780   5.887
 5472SOL    HW117315   3.820   4.705   5.872
 5472SOL    HW217316   3.937   4.796   5.804
 5473SOL     OW17317   1.307   3.597   3.589
 5473SOL    HW117318   1.381   3.648   3.545
 5473SOL    HW217319   1.258   3.543   3.521
 5474SOL     OW17320   1.751   5.572   3.971
 5474SOL    HW117321   1.662   5.612   3.949
 5474SOL    HW217322   1.793   5.622   4.046
 5475SOL     OW17323   2.823   2.095   1.468
 5475SOL    HW117324   2.797   2.159   1.539
 5475SOL    HW217325   2.919   2.111   1.442
 5476SOL     OW17326   1.024   2.994   6.212
 5476SOL    HW117327   1.032   3.078   6.266
 5476SOL    HW217328   0.960   3.009   6.137
 5477SOL     OW17329   2.229   3.018   2.789
 5477SOL    HW117330   2.292   2.950   2.826
 5477SOL    HW217331   2.139   3.007   2.832
 5478SOL     OW17332   5.622   5.790   5.352
 5478SOL    HW117333   5.598   5.883   5.381
 5478SOL    HW217334   5.660   5.792   5.260
 5479SOL     OW17335   4.900   0.831   4.611
 5479SOL    HW117336   4.916   0.831   4.710
 5479SOL    HW217337   4.845   0.751   4.587
 5480SOL     OW17338   0.787   3.439   4.377
 5480SOL    HW117339   0.716   3.410   4.442
 5480SOL    HW217340   0.840   3.513   4.417
 5481SOL     OW17341   4.028   6.856   3.957
 5481SOL    HW117342   4.074   6.903   3.881
 5481SOL    HW217343   4.093   6.796   4.004
 5482SOL     OW17344   2.262   4.574   1.095
 5482SOL    HW117345   2.175   4.618   1.074
 5482SOL    HW217346   2.315   4.632   1.158
 5483SOL     OW17347   6.974   2.468   6.130
 5483SOL    HW117348   7.003   2.432   6.219
 5483SOL    HW217349   6.984   2.567   6.129
 5484SOL     OW17350   4.775   1.120   4.811
 5484SOL    HW117351   4.686   1.078   4.828
 5484SOL    HW217352   4.765   1.198   4.749
 5485SOL     OW17353   2.435   0.415   5.632
 5485SOL    HW117354   2.455   0.501   5.586
 5485SOL    HW217355   2.352   0.375   5.593
 5486SOL     OW17356   2.793   6.109   5.352
 5486SOL    HW117357   2.769   6.143   5.443
 5486SOL    HW217358   2.800   6.009   5.355
 5487SOL     OW17359   3.494   5.039   5.942
 5487SOL    HW117360   3.433   5.079   5.874
 5487SOL    HW217361   3.506   5.104   6.017
 5488SOL     OW17362   6.295   1.239   1.017
 5488SOL    HW117363   6.212   1.259   0.966
 5488SOL    HW217364   6.337   1.324   1.049
 5489SOL     OW17365   6.745   4.249   3.125
 5489SOL    HW117366   6.688   4.209   3.053
 5489SOL    HW217367   6.720   4.345   3.138
 5490SOL     OW17368   1.361   6.592   2.914
 5490SOL    HW117369   1.413   6.676   2.900
 5490SOL    HW217370   1.338   6.582   3.011
 5491SOL     OW17371   6.436   4.398   0.284
 5491SOL    HW117372   6.519   4.345   0.270
 5491SOL    HW217373   6.444   4.454   0.366
 5492SOL     OW17374   0.133   1.940   6.162
 5492SOL    HW117375   0.055   1.886   6.193
 5492SOL    HW217376   0.106   1.996   6.084
 5493SOL     OW17377   3.690   3.791   1.301
 5493SOL    HW117378   3.749   3.721   1.261
 5493SOL    HW217379   3.600   3.752   1.319
 5494SOL     OW17380   5.997   4.012   5.476
 5494SOL    HW117381   5.922   3.946   5.476
 5494SOL    HW217382   6.085   3.963   5.472
 5495SOL     OW17383   5.922   6.680   0.851
 5495SOL    HW117384   5.861   6.628   0.791
 5495SOL    HW217385   6.015   6.642   0.845
 5496SOL     OW17386   3.845   0.425   4.243
 5496SOL    HW117387   3.762   0.383   4.205
 5496SOL    HW217388   3.906   0.353   4.276
 5497SOL     OW17389   1.141   0.394   5.828
 5497SOL    HW117390   1.070   0.416   5.895
 5497SOL    HW217391   1.197   0.318   5.862
 5498SOL     OW17392   1.231   5.234   1.821
 5498SOL    HW117393   1.189   5.307   1.875
 5498SOL    HW217394   1.160   5.172   1.788
 5499SOL     OW17395   1.884   0.083   4.970
 5499SOL    HW117396   1.887   0.179   4.998
 5499SOL    HW217397   1.794   0.044   4.994
 5500SOL     OW17398   2.861   1.183   0.694
 5500SOL    HW117399   2.865   1.097   0.745
 5500SOL    HW217400   2.859   1.260   0.759
 5501SOL     OW17401   3.549   3.657   6.453
 5501SOL    HW117402   3.597   3.744   6.467
 5501SOL    HW217403   3.482   3.643   6.526
 5502SOL     OW17404   4.530   2.615   6.899
 5502SOL    HW117405   4.482   2.690   6.944
 5502SOL    HW217406   4.529   2.534   6.958
 5503SOL     OW17407   6.439   3.990   1.080
 5503SOL    HW117408   6.515   4.037   1.126
 5503SOL    HW217409   6.456   3.892   1.079
 5504SOL     OW17410   3.560   1.469   6.972
 5504SOL    HW117411   3.461   1.486   6.981
 5504SOL    HW217412   3.574   1.378   6.933
 5505SOL     OW17413   2.883   5.085   3.554
 5505SOL    HW117414   2.924   4.996   3.573
 5505SOL    HW217415   2.955   5.151   3.531
 5506SOL     OW17416   0.719   3.309   6.064
 5506SOL    HW117417   0.630   3.354   6.060
 5506SOL    HW217418   0.732   3.268   6.155
 5507SOL     OW17419   2.407   7.001   0.080
 5507SOL    HW117420   2.363   6.911   0.079
 5507SOL    HW217421   2.438   7.023   7.012
 5508SOL     OW17422   6.876   0.809   6.308
 5508SOL    HW117423   6.896   0.711   6.312
 5508SOL    HW217424   6.851   0.842   6.399
 5509SOL     OW17425   6.977   4.823   1.109
 5509SOL    HW117426   6.900   4.857   1.055
 5509SOL    HW217427   0.003   4.900   1.146
 5510SOL     OW17428   4.253   5.067   0.094
 5510SOL    HW117429   4.307   5.028   0.020
 5510SOL    HW217430   4.216   5.155   0.066
 5511SOL     OW17431   0.461   1.839   5.773
 5511SOL    HW117432   0.505   1.914   5.823
 5511SOL    HW217433   0.511   1.822   5.689
 5512SOL     OW17434   3.016   0.775   2.056
 5512SOL    HW117435   2.986   0.723   2.137
 5512SOL    HW217436   3.114   0.764   2.045
 5513SOL     OW17437   4.032   4.342   0.198
 5513SOL    HW117438   4.072   4.257   0.232
 5513SOL    HW217439   3.964   4.375   0.264
 5514SOL     OW17440   3.195   1.218   0.253
 5514SOL    HW117441   3.258   1.292   0.232
 5514SOL    HW217442   3.220   1.137   0.200
 5515SOL     OW17443   2.779   6.264   2.413
 5515SOL    HW117444   2.848   6.328   2.447
 5515SOL    HW217445   2.808   6.170   2.434
 5516SOL     OW17446   2.022   2.188   5.589
 5516SOL    HW117447   1.927   2.213   5.607
 5516SOL    HW217448   2.050   2.225   5.501
 5517SOL     OW17449   1.233   3.001   3.082
 5517SOL    HW117450   1.241   2.938   3.160
 5517SOL    HW217451   1.287   2.966   3.006
 5518SOL     OW17452   4.277   4.676   6.550
 5518SOL    HW117453   4.317   4.717   6.633
 5518SOL    HW217454   4.258   4.748   6.483
 5519SOL     OW17455   4.813   2.662   3.804
 5519SOL    HW117456   4.744   2.635   3.737
 5519SOL    HW217457   4.779   2.641   3.896
 5520SOL     OW17458   4.996   6.810   1.664
 5520SOL    HW117459   5.032   6.903   1.668
 5520SOL    HW217460   4.908   6.810   1.616
 5521SOL     OW17461   5.279   6.065   1.769
 5521SOL    HW117462   5.290   6.085   1.866
 5521SOL    HW217463   5.291   6.149   1.716
 5522SOL     OW17464   6.075   5.849   0.784
 5522SOL    HW117465   6.174   5.844   0.794
 5522SOL    HW217466   6.036   5.894   0.864
 5523SOL     OW17467   5.296   0.902   1.004
 5523SOL    HW117468   5.280   0.871   0.911
 5523SOL    HW217469   5.384   0.949   1.009
 5524SOL     OW17470   2.738   1.680   4.116
 5524SOL    HW117471   2.689   1.676   4.029
 5524SOL    HW217472   2.727   1.592   4.163
 5525SOL     OW17473   5.978   1.370   1.326
 5525SOL    HW117474   6.071   1.400   1.303
 5525SOL    HW217475   5.975   1.341   1.422
 5526SOL     OW17476   5.201   4.465   3.701
 5526SOL    HW117477   5.144   4.382   3.706
 5526SOL    HW217478   5.145   4.541   3.668
 5527SOL     OW17479   5.754   1.485   3.902
 5527SOL    HW117480   5.789   1.537   3.979
 5527SOL    HW217481   5.823   1.480   3.830
 5528SOL     OW17482   0.804   1.021   0.310
 5528SOL    HW117483   0.897   1.051   0.330
 5528SOL    HW217484   0.804   0.924   0.286
 5529SOL     OW17485   3.600   0.320   2.126
 5529SOL    HW117486   3.590   0.361   2.036
 5529SOL    HW217487   3.676   0.363   2.174
 5530SOL     OW17488   6.468   2.095   0.887
 5530SOL    HW117489   6.539   2.092   0.958
 5530SOL    HW217490   6.413   2.011   0.892
 5531SOL     OW17491   2.152   4.042   0.992
 5531SOL    HW117492   2.143   4.043   1.091
 5531SOL    HW217493   2.092   4.112   0.953
 5532SOL     OW17494   1.332   3.137   0.467
 5532SOL    HW117495   1.354   3.229   0.436
 5532SOL    HW217496   1.412   3.094   0.507
 5533SOL     OW17497   3.245   1.795   2.407
 5533SOL    HW117498   3.227   1.711   2.356
 5533SOL    HW217499   3.320   1.845   2.365
 5534SOL     OW17500   1.211   0.356   4.818
 5534SOL    HW117501   1.267   0.434   4.791
 5534SOL    HW217502   1.214   0.286   4.746
 5535SOL     OW17503   0.635   1.792   3.522
 5535SOL    HW117504   0.561   1.798   3.589
 5535SOL    HW217505   0.698   1.869   3.534
 5536SOL     OW17506   4.031   6.030   4.348
 5536SOL    HW117507   4.079   6.116   4.329
 5536SOL    HW217508   4.098   5.959   4.370
 5537SOL     OW17509   3.117   1.574   3.454
 5537SOL    HW117510   3.202   1.521   3.446
 5537SOL    HW217511   3.049   1.538   3.390
 5538SOL     OW17512   4.151   5.090   5.161
 5538SOL    HW117513   4.055   5.101   5.187
 5538SOL    HW217514   4.168   5.138   5.074
 5539SOL     OW17515   2.817   4.415   0.542
 5539SOL    HW117516   2.717   4.418   0.537
 5539SOL    HW217517   2.855   4.400   0.450
 5540SOL     OW17518   5.244   5.297   1.545
 5540SOL    HW117519   5.308   5.242   1.598
 5540SOL    HW217520   5.189   5.238   1.486
 5541SOL     OW17521   4.661   1.071   5.551
 5541SOL    HW117522   4.650   1.094   5.455
 5541SOL    HW217523   4.723   1.136   5.595
 5542SOL     OW17524   5.252   4.745   6.438
 5542SOL    HW117525   5.345   4.781   6.434
 5542SOL    HW217526   5.255   4.650   6.468
 5543SOL     OW17527   0.365   2.170   6.205
 5543SOL    HW117528   0.409   2.112   6.136
 5543SOL    HW217529   0.435   2.210   6.264
 5544SOL     OW17530   5.857   1.102   0.013
 5544SOL    HW117531   5.886   1.176   0.073
 5544SOL    HW217532   5.793   1.042   0.062
 5545SOL     OW17533   2.624   2.562   1.851
 5545SOL    HW117534   2.706   2.505   1.853
 5545SOL    HW217535   2.543   2.504   1.861
 5546SOL     OW17536   2.780   5.006   5.770
 5546SOL    HW117537   2.698   4.990   5.825
 5546SOL    HW217538   2.758   4.993   5.673
 5547SOL     OW17539   3.836   5.972   4.824
 5547SOL    HW117540   3.918   5.934   4.865
 5547SOL    HW217541   3.843   5.967   4.724
 5548SOL     OW17542   0.050   2.774   5.389
 5548SOL    HW117543   0.019   2.684   5.418
 5548SOL    HW217544   7.004   2.842   5.407
 5549SOL     OW17545   3.396   4.755   6.908
 5549SOL    HW117546   3.387   4.716   6.999
 5549SOL    HW217547   3.315   4.809   6.885
 5550SOL     OW17548   3.547   6.817   2.484
 5550SOL    HW117549   3.573   6.724   2.459
 5550SOL    HW217550   3.603   6.882   2.435
 5551SOL     OW17551   0.247   1.686   3.134
 5551SOL    HW117552   0.291   1.750   3.197
 5551SOL    HW217553   0.195   1.618   3.185
 5552SOL     OW17554   0.543   2.916   0.886
 5552SOL    HW117555   0.556   3.009   0.850
 5552SOL    HW217556   0.446   2.901   0.906
 5553SOL     OW17557   5.381   6.562   0.038
 5553SOL    HW117558   5.324   6.584   0.117
 5553SOL    HW217559   5.378   6.639   6.998
 5554SOL     OW17560   2.942   1.407   4.415
 5554SOL    HW117561   3.021   1.421   4.355
 5554SOL    HW217562   2.961   1.332   4.479
 5555SOL     OW17563   0.629   5.991   2.020
 5555SOL    HW117564   0.636   6.064   1.952
 5555SOL    HW217565   0.714   5.984   2.071
 5556SOL     OW17566   0.476   1.161   4.391
 5556SOL    HW117567   0.478   1.118   4.300
 5556SOL    HW217568   0.415   1.110   4.451
 5557SOL     OW17569   2.829   0.731   3.737
 5557SOL    HW117570   2.778   0.749   3.821
 5557SOL    HW217571   2.817   0.809   3.674
 5558SOL     OW17572   5.156   2.502   4.570
 5558SOL    HW117573   5.134   2.536   4.478
 5558SOL    HW217574   5.134   2.572   4.638
 5559SOL     OW17575   3.024   0.382   0.858
 5559SOL    HW117576   3.003   0.354   0.764
 5559SOL    HW217577   3.101   0.445   0.858
 5560SOL     OW17578   6.829   0.886   4.267
 5560SOL    HW117579   6.797   0.940   4.345
 5560SOL    HW217580   6.922   0.913   4.243
 5561SOL     OW17581   1.646   3.989   3.137
 5561SOL    HW117582   1.686   3.949   3.220
 5561SOL    HW217583   1.551   3.958   3.128
 5562SOL     OW17584   2.506   2.641   6.267
 5562SOL    HW117585   2.456   2.710   6.319
 5562SOL    HW217586   2.536   2.568   6.328
 5563SOL     OW17587   4.245   4.079   1.698
 5563SOL    HW117588   4.155   4.117   1.715
 5563SOL    HW217589   4.309   4.113   1.767
 5564SOL     OW17590   5.874   3.632   1.845
 5564SOL    HW117591   5.894   3.534   1.849
 5564SOL    HW217592   5.779   3.646   1.818
 5565SOL     OW17593   3.069   2.914   5.532
 5565SOL    HW117594   3.162   2.878   5.543
 5565SOL    HW217595   3.041   2.959   5.617
 5566SOL     OW17596   2.040   4.917   0.470
 5566SOL    HW117597   2.013   4.832   0.516
 5566SOL    HW217598   1.966   4.984   0.479
 5567SOL     OW17599   2.239   5.706   3.455
 5567SOL    HW117600   2.222   5.720   3.358
 5567SOL    HW217601   2.200   5.618   3.484
 5568SOL     OW17602   3.903   2.536   1.075
 5568SOL    HW117603   3.975   2.487   1.123
 5568SOL    HW217604   3.825   2.474   1.061
 5569SOL     OW17605   5.629   2.252   6.754
 5569SOL    HW117606   5.708   2.239   6.815
 5569SOL    HW217607   5.568   2.322   6.793
 5570SOL     OW17608   0.368   3.200   5.860
 5570SOL    HW117609   0.304   3.179   5.786
 5570SOL    HW217610   0.351   3.292   5.894
 5571SOL     OW17611   6.631   4.651   6.599
 5571SOL    HW117612   6.622   4.560   6.558
 5571SOL    HW217613   6.727   4.679   6.597
 5572SOL     OW17614   5.668   2.789   5.331
 5572SOL    HW117615   5.629   2.753   5.247
 5572SOL    HW217616   5.744   2.851   5.310
 5573SOL     OW17617   0.449   4.119   0.332
 5573SOL    HW117618   0.476   4.082   0.244
 5573SOL    HW217619   0.522   4.104   0.399
 5574SOL     OW17620   0.012   5.766   4.542
 5574SOL    HW117621   0.050   5.681   4.577
 5574SOL    HW217622   0.082   5.838   4.549
 5575SOL     OW17623   1.328   1.157   1.475
 5575SOL    HW117624   1.317   1.248   1.516
 5575SOL    HW217625   1.410   1.157   1.418
 5576SOL     OW17626   5.676   5.797   0.420
 5576SOL    HW117627   5.714   5.724   0.364
 5576SOL    HW217628   5.748   5.865   0.439
 5577SOL     OW17629   2.109   3.790   4.960
 5577SOL    HW117630   2.157   3.874   4.986
 5577SOL    HW217631   2.160   3.711   4.995
 5578SOL     OW17632   2.888   1.973   5.806
 5578SOL    HW117633   2.957   2.041   5.782
 5578SOL    HW217634   2.856   1.989   5.900
 5579SOL     OW17635   4.845   4.835   1.590
 5579SOL    HW117636   4.896   4.920   1.601
 5579SOL    HW217637   4.879   4.766   1.654
 5580SOL     OW17638   5.023   0.717   1.512
 5580SOL    HW117639   5.046   0.644   1.448
 5580SOL    HW217640   4.934   0.757   1.487
 5581SOL     OW17641   2.255   2.738   0.919
 5581SOL    HW117642   2.274   2.802   0.994
 5581SOL    HW217643   2.336   2.684   0.900
 5582SOL     OW17644   3.891   3.085   3.715
 5582SOL    HW117645   3.867   2.995   3.679
 5582SOL    HW217646   3.907   3.079   3.814
 5583SOL     OW17647   4.286   0.742   0.047
 5583SOL    HW117648   4.358   0.789   0.097
 5583SOL    HW217649   4.282   0.775   6.978
 5584SOL     OW17650   5.160   3.194   3.134
 5584SOL    HW117651   5.142   3.276   3.188
 5584SOL    HW217652   5.230   3.139   3.181
 5585SOL     OW17653   6.822   6.543   4.131
 5585SOL    HW117654   6.852   6.625   4.180
 5585SOL    HW217655   6.819   6.562   4.033
 5586SOL     OW17656   2.129   1.546   6.605
 5586SOL    HW117657   2.119   1.613   6.678
 5586SOL    HW217658   2.039   1.522   6.569
 5587SOL     OW17659   3.812   6.679   3.952
 5587SOL    HW117660   3.882   6.748   3.931
 5587SOL    HW217661   3.751   6.668   3.874
 5588SOL     OW17662   4.293   0.894   5.780
 5588SOL    HW117663   4.336   0.806   5.761
 5588SOL    HW217664   4.218   0.881   5.846
 5589SOL     OW17665   3.318   3.942   6.884
 5589SOL    HW117666   3.400   3.979   6.928
 5589SOL    HW217667   3.242   4.006   6.899
 5590SOL     OW17668   6.830   6.948   3.434
 5590SOL    HW117669   6.843   7.014   3.360
 5590SOL    HW217670   6.873   6.862   3.410
 5591SOL     OW17671   5.136   0.160   0.117
 5591SOL    HW117672   5.136   0.257   0.141
 5591SOL    HW217673   5.043   0.132   0.092
 5592SOL     OW17674   1.791   1.951   2.176
 5592SOL    HW117675   1.836   1.867   2.207
 5592SOL    HW217676   1.755   1.936   2.083
 5593SOL     OW17677   1.846   3.738   4.953
 5593SOL    HW117678   1.830   3.734   4.855
 5593SOL    HW217679   1.943   3.758   4.970
 5594SOL     OW17680   2.526   1.322   6.627
 5594SOL    HW117681   2.497   1.404   6.578
 5594SOL    HW217682   2.447   1.262   6.641
 5595SOL     OW17683   0.494   1.490   6.092
 5595SOL    HW117684   0.510   1.526   6.184
 5595SOL    HW217685   0.575   1.507   6.036
 5596SOL     OW17686   5.149   1.879   3.493
 5596SOL    HW117687   5.153   1.941   3.571
 5596SOL    HW217688   5.123   1.788   3.523
 5597SOL     OW17689   0.822   1.321   6.071
 5597SOL    HW117690   0.890   1.317   5.998
 5597SOL    HW217691   0.810   1.416   6.100
 5598SOL     OW17692   6.970   1.972   4.240
 5598SOL    HW117693   0.043   1.965   4.259
 5598SOL    HW217694   6.918   1.945   4.321
 5599SOL     OW17695   5.120   2.570   3.234
 5599SOL    HW117696   5.213   2.543   3.261
 5599SOL    HW217697   5.088   2.510   3.160
 5600SOL     OW17698   1.673   2.236   2.325
 5600SOL    HW117699   1.707   2.149   2.290
 5600SOL    HW217700   1.748   2.287   2.365
 5601SOL     OW17701   5.615   3.510   5.856
 5601SOL    HW117702   5.710   3.480   5.867
 5601SOL    HW217703   5.555   3.430   5.860
 5602SOL     OW17704   6.389   1.948   2.350
 5602SOL    HW117705   6.384   1.908   2.259
 5602SOL    HW217706   6.453   2.025   2.349
 5603SOL     OW17707   3.383   2.085   5.918
 5603SOL    HW117708   3.462   2.046   5.965
 5603SOL    HW217709   3.361   2.028   5.839
 5604SOL     OW17710   1.327   6.228   3.454
 5604SOL    HW117711   1.367   6.273   3.535
 5604SOL    HW217712   1.285   6.142   3.482
 5605SOL     OW17713   4.538   6.791   4.164
 5605SOL    HW117714   4.479   6.785   4.245
 5605SOL    HW217715   4.560   6.887   4.147
 5606SOL     OW17716   4.929   3.103   0.324
 5606SOL    HW117717   5.005   3.080   0.384
 5606SOL    HW217718   4.963   3.138   0.237
 5607SOL     OW17719   6.718   2.329   2.814
 5607SOL    HW117720   6.648   2.286   2.758
 5607SOL    HW217721   6.677   2.402   2.869
 5608SOL     OW17722   5.031   0.664   3.504
 5608SOL    HW117723   5.123   0.640   3.535
 5608SOL    HW217724   4.976   0.692   3.582
 5609SOL     OW17725   6.876   0.377   0.309
 5609SOL    HW117726   6.972   0.372   0.339
 5609SOL    HW217727   6.871   0.434   0.227
 5610SOL     OW17728   5.805   6.098   0.003
 5610SOL    HW117729   5.706   6.095   0.016
 5610SOL    HW217730   5.837   6.008   6.999
 5611SOL     OW17731   5.764   4.314   2.301
 5611SOL    HW117732   5.732   4.267   2.383
 5611SOL    HW217733   5.796   4.406   2.327
 5612SOL     OW17734   3.853   1.695   0.407
 5612SOL    HW117735   3.769   1.644   0.423
 5612SOL    HW217736   3.835   1.793   0.416
 5613SOL     OW17737   5.842   5.692   5.804
 5613SOL    HW117738   5.844   5.699   5.704
 5613SOL    HW217739   5.892   5.610   5.832
 5614SOL     OW17740   5.178   2.705   4.343
 5614SOL    HW117741   5.205   2.788   4.294
 5614SOL    HW217742   5.214   2.625   4.294
 5615SOL     OW17743   0.558   3.022   3.542
 5615SOL    HW117744   0.480   3.084   3.537
 5615SOL    HW217745   0.601   3.015   3.452
 5616SOL     OW17746   2.128   3.438   2.683
 5616SOL    HW117747   2.030   3.430   2.664
 5616SOL    HW217748   2.174   3.353   2.659
 5617SOL     OW17749   1.214   4.542   6.389
 5617SOL    HW117750   1.159   4.601   6.447
 5617SOL    HW217751   1.177   4.449   6.390
 5618SOL     OW17752   4.772   6.652   2.405
 5618SOL    HW117753   4.817   6.563   2.406
 5618SOL    HW217754   4.813   6.711   2.476
 5619SOL     OW17755   3.415   3.414   3.346
 5619SOL    HW117756   3.448   3.470   3.270
 5619SOL    HW217757   3.488   3.405   3.415
 5620SOL     OW17758   4.887   4.467   3.978
 5620SOL    HW117759   4.887   4.533   3.902
 5620SOL    HW217760   4.819   4.494   4.045
 5621SOL     OW17761   1.366   2.738   6.616
 5621SOL    HW117762   1.465   2.744   6.631
 5621SOL    HW217763   1.321   2.714   6.702
 5622SOL     OW17764   4.914   5.203   4.260
 5622SOL    HW117765   4.956   5.178   4.173
 5622SOL    HW217766   4.824   5.159   4.267
 5623SOL     OW17767   4.684   5.051   3.849
 5623SOL    HW117768   4.585   5.065   3.848
 5623SOL    HW217769   4.704   4.954   3.862
 5624SOL     OW17770   5.120   4.630   3.294
 5624SOL    HW117771   5.022   4.615   3.281
 5624SOL    HW217772   5.170   4.545   3.273
 5625SOL     OW17773   2.967   6.567   6.072
 5625SOL    HW117774   3.010   6.559   6.161
 5625SOL    HW217775   2.926   6.658   6.062
 5626SOL     OW17776   0.572   4.855   6.766
 5626SOL    HW117777   0.525   4.776   6.805
 5626SOL    HW217778   0.513   4.898   6.697
 5627SOL     OW17779   1.202   5.716   0.142
 5627SOL    HW117780   1.230   5.624   0.171
 5627SOL    HW217781   1.116   5.740   0.189
 5628SOL     OW17782   2.329   3.644   0.451
 5628SOL    HW117783   2.372   3.616   0.537
 5628SOL    HW217784   2.272   3.570   0.417
 5629SOL     OW17785   0.010   3.555   3.522
 5629SOL    HW117786   0.094   3.608   3.516
 5629SOL    HW217787   6.958   3.612   3.493
 5630SOL     OW17788   0.773   3.942   0.228
 5630SOL    HW117789   0.834   3.910   0.156
 5630SOL    HW217790   0.681   3.906   0.212
 5631SOL     OW17791   3.661   1.705   1.740
 5631SOL    HW117792   3.690   1.795   1.773
 5631SOL    HW217793   3.690   1.693   1.645
 5632SOL     OW17794   5.087   6.955   5.630
 5632SOL    HW117795   5.033   6.886   5.583
 5632SOL    HW217796   5.093   0.013   5.573
 5633SOL     OW17797   1.013   5.694   5.660
 5633SOL    HW117798   1.037   5.734   5.748
 5633SOL    HW217799   0.921   5.655   5.665
 5634SOL     OW17800   3.247   0.206   2.005
 5634SOL    HW117801   3.283   0.159   1.924
 5634SOL    HW217802   3.149   0.189   2.013
 5635SOL     OW17803   3.472   0.797   1.900
 5635SOL    HW117804   3.482   0.896   1.906
 5635SOL    HW217805   3.521   0.754   1.976
 5636SOL     OW17806   5.006   0.813   5.573
 5636SOL    HW117807   5.012   0.911   5.555
 5636SOL    HW217808   5.099   0.777   5.588
 5637SOL     OW17809   4.693   6.889   4.646
 5637SOL    HW117810   4.755   6.897   4.568
 5637SOL    HW217811   4.617   6.829   4.623
 5638SOL     OW17812   6.937   5.316   1.090
 5638SOL    HW117813   6.900   5.272   1.008
 5638SOL    HW217814   6.861   5.347   1.148
 5639SOL     OW17815   2.193   0.359   1.800
 5639SOL    HW117816   2.172   0.312   1.714
 5639SOL    HW217817   2.208   0.456   1.781
 5640SOL     OW17818   3.186   6.699   3.455
 5640SOL    HW117819   3.250   6.747   3.514
 5640SOL    HW217820   3.095   6.700   3.497
 5641SOL     OW17821   0.106   3.995   3.951
 5641SOL    HW117822   0.131   4.077   4.003
 5641SOL    HW217823   0.175   3.924   3.965
 5642SOL     OW17824   2.483   3.362   6.416
 5642SOL    HW117825   2.399   3.387   6.465
 5642SOL    HW217826   2.465   3.362   6.317
 5643SOL     OW17827   5.975   2.507   4.312
 5643SOL    HW117828   6.030   2.502   4.396
 5643SOL    HW217829   5.969   2.416   4.271
 5644SOL     OW17830   4.089   0.560   4.863
 5644SOL    HW117831   4.014   0.523   4.918
 5644SOL    HW217832   4.159   0.597   4.924
 5645SOL     OW17833   6.824   6.120   3.861
 5645SOL    HW117834   6.778   6.186   3.801
 5645SOL    HW217835   6.802   6.141   3.956
 5646SOL     OW17836   0.040   6.260   3.903
 5646SOL    HW117837   0.116   6.196   3.892
 5646SOL    HW217838   6.979   6.210   3.895
 5647SOL     OW17839   6.817   4.129   6.761
 5647SOL    HW117840   6.758   4.105   6.838
 5647SOL    HW217841   6.913   4.121   6.788
 5648SOL     OW17842   2.231   1.031   4.965
 5648SOL    HW117843   2.267   1.118   4.999
 5648SOL    HW217844   2.283   1.002   4.885
 5649SOL     OW17845   1.044   0.133   4.905
 5649SOL    HW117846   1.107   0.206   4.878
 5649SOL    HW217847   1.015   0.148   4.999
 5650SOL     OW17848   6.417   5.302   6.335
 5650SOL    HW117849   6.472   5.264   6.260
 5650SOL    HW217850   6.329   5.256   6.339
 5651SOL     OW17851   6.131   1.133   2.550
 5651SOL    HW117852   6.114   1.167   2.643
 5651SOL    HW217853   6.140   1.034   2.552
 5652SOL     OW17854   5.887   3.722   0.444
 5652SOL    HW117855   5.938   3.640   0.418
 5652SOL    HW217856   5.936   3.804   0.412
 5653SOL     OW17857   2.414   6.270   6.834
 5653SOL    HW117858   2.362   6.292   6.751
 5653SOL    HW217859   2.511   6.289   6.818
 5654SOL     OW17860   0.995   6.246   6.070
 5654SOL    HW117861   1.020   6.317   6.004
 5654SOL    HW217862   0.936   6.285   6.140
 5655SOL     OW17863   0.249   5.204   3.055
 5655SOL    HW117864   0.271   5.209   3.153
 5655SOL    HW217865   0.223   5.294   3.022
 5656SOL     OW17866   3.344   5.623   6.203
 5656SOL    HW117867   3.400   5.625   6.121
 5656SOL    HW217868   3.402   5.607   6.283
 5657SOL     OW17869   3.998   5.608   2.078
 5657SOL    HW117870   4.038   5.564   2.158
 5657SOL    HW217871   4.068   5.620   2.008
 5658SOL     OW17872   4.953   6.952   4.943
 5658SOL    HW117873   5.051   6.933   4.930
 5658SOL    HW217874   4.925   7.025   4.881
 5659SOL     OW17875   3.562   4.128   2.798
 5659SOL    HW117876   3.526   4.180   2.875
 5659SOL    HW217877   3.491   4.121   2.727
 5660SOL     OW17878   6.199   6.543   0.795
 5660SOL    HW117879   6.131   6.477   0.827
 5660SOL    HW217880   6.245   6.585   0.873
 5661SOL     OW17881   6.778   5.378   4.921
 5661SOL    HW117882   6.695   5.400   4.869
 5661SOL    HW217883   6.774   5.283   4.949
 5662SOL     OW17884   2.119   3.793   4.693
 5662SOL    HW117885   2.130   3.882   4.648
 5662SOL    HW217886   2.093   3.808   4.789
 5663SOL     OW17887   2.216   3.894   0.607
 5663SOL    HW117888   2.237   3.809   0.559
 5663SOL    HW217889   2.120   3.918   0.592
 5664SOL     OW17890   0.324   5.489   2.399
 5664SOL    HW117891   0.380   5.463   2.320
 5664SOL    HW217892   0.266   5.567   2.375
 5665SOL     OW17893   1.924   1.394   5.995
 5665SOL    HW117894   1.908   1.490   6.016
 5665SOL    HW217895   1.911   1.339   6.077
 5666SOL     OW17896   5.947   5.843   6.960
 5666SOL    HW117897   6.023   5.863   6.899
 5666SOL    HW217898   5.954   5.749   6.993
 5667SOL     OW17899   6.504   6.439   3.266
 5667SOL    HW117900   6.584   6.382   3.253
 5667SOL    HW217901   6.429   6.404   3.210
 5668SOL     OW17902   5.760   3.134   5.623
 5668SOL    HW117903   5.699   3.080   5.681
 5668SOL    HW217904   5.730   3.128   5.528
 5669SOL     OW17905   6.998   3.487   4.954
 5669SOL    HW117906   7.021   3.450   5.044
 5669SOL    HW217907   6.953   3.416   4.900
 5670SOL     OW17908   1.852   3.400   2.897
 5670SOL    HW117909   1.936   3.455   2.898
 5670SOL    HW217910   1.827   3.379   2.803
 5671SOL     OW17911   1.394   1.067   4.995
 5671SOL    HW117912   1.395   1.162   4.965
 5671SOL    HW217913   1.486   1.029   4.988
 5672SOL     OW17914   5.312   4.516   5.455
 5672SOL    HW117915   5.230   4.507   5.512
 5672SOL    HW217916   5.377   4.576   5.500
 5673SOL     OW17917   1.938   0.639   1.426
 5673SOL    HW117918   1.874   0.566   1.401
 5673SOL    HW217919   1.894   0.728   1.413
 5674SOL     OW17920   6.637   3.684   1.537
 5674SOL    HW117921   6.604   3.590   1.535
 5674SOL    HW217922   6.670   3.710   1.446
 5675SOL     OW17923   4.309   1.632   5.833
 5675SOL    HW117924   4.226   1.682   5.809
 5675SOL    HW217925   4.336   1.656   5.926
 5676SOL     OW17926   3.403   6.525   1.540
 5676SOL    HW117927   3.445   6.435   1.534
 5676SOL    HW217928   3.474   6.595   1.546
 5677SOL     OW17929   0.020   1.153   4.052
 5677SOL    HW117930   0.101   1.183   4.001
 5677SOL    HW217931   0.037   1.164   4.150
 5678SOL     OW17932   1.779   4.958   3.703
 5678SOL    HW117933   1.776   4.954   3.802
 5678SOL    HW217934   1.830   4.880   3.667
 5679SOL     OW17935   2.776   5.825   5.348
 5679SOL    HW117936   2.691   5.790   5.386
 5679SOL    HW217937   2.776   5.812   5.249
 5680SOL     OW17938   2.114   0.126   5.813
 5680SOL    HW117939   2.052   0.175   5.875
 5680SOL    HW217940   2.061   0.063   5.757
 5681SOL     OW17941   2.090   3.825   0.112
 5681SOL    HW117942   2.003   3.800   0.155
 5681SOL    HW217943   2.077   3.833   0.013
 5682SOL     OW17944   0.800   3.757   3.960
 5682SOL    HW117945   0.890   3.733   3.995
 5682SOL    HW217946   0.766   3.838   4.006
 5683SOL     OW17947   3.740   2.910   4.623
 5683SOL    HW117948   3.798   2.863   4.556
 5683SOL    HW217949   3.793   2.983   4.666
 5684SOL     OW17950   3.068   3.672   3.265
 5684SOL    HW117951   3.017   3.618   3.198
 5684SOL    HW217952   3.018   3.757   3.284
 5685SOL     OW17953   1.146   5.604   2.154
 5685SOL    HW117954   1.095   5.519   2.142
 5685SOL    HW217955   1.092   5.681   2.120
 5686SOL     OW17956   3.632   5.752   0.302
 5686SOL    HW117957   3.548   5.759   0.355
 5686SOL    HW217958   3.617   5.787   0.209
 5687SOL     OW17959   4.525   5.296   5.599
 5687SOL    HW117960   4.596   5.348   5.551
 5687SOL    HW217961   4.541   5.301   5.697
 5688SOL     OW17962   6.067   1.897   2.695
 5688SOL    HW117963   5.967   1.907   2.704
 5688SOL    HW217964   6.088   1.804   2.663
 5689SOL     OW17965   4.006   2.723   5.763
 5689SOL    HW117966   3.966   2.683   5.846
 5689SOL    HW217967   3.993   2.661   5.686
 5690SOL     OW17968   4.984   6.476   2.324
 5690SOL    HW117969   5.072   6.523   2.330
 5690SOL    HW217970   4.946   6.489   2.232
 5691SOL     OW17971   2.281   0.191   3.125
 5691SOL    HW117972   2.335   0.142   3.056
 5691SOL    HW217973   2.294   0.148   3.214
 5692SOL     OW17974   5.940   2.904   6.989
 5692SOL    HW117975   6.009   2.843   0.004
 5692SOL    HW217976   5.870   2.849   6.944
 5693SOL     OW17977   4.736   2.691   2.943
 5693SOL    HW117978   4.728   2.704   3.042
 5693SOL    HW217979   4.746   2.779   2.898
 5694SOL     OW17980   1.266   1.961   4.411
 5694SOL    HW117981   1.307   2.049   4.432
 5694SOL    HW217982   1.228   1.963   4.318
 5695SOL     OW17983   1.523   3.751   3.469
 5695SOL    HW117984   1.487   3.839   3.499
 5695SOL    HW217985   1.515   3.744   3.369
 5696SOL     OW17986   3.763   6.967   5.914
 5696SOL    HW117987   3.763   0.037   5.945
 5696SOL    HW217988   3.711   6.961   5.828
 5697SOL     OW17989   6.543   3.270   0.074
 5697SOL    HW117990   6.557   3.363   0.108
 5697SOL    HW217991   6.461   3.267   0.017
 5698SOL     OW17992   1.045   4.342   2.517
 5698SOL    HW117993   0.958   4.304   2.548
 5698SOL    HW217994   1.055   4.325   2.419
 5699SOL     OW17995   6.446   1.700   4.919
 5699SOL    HW117996   6.526   1.667   4.969
 5699SOL    HW217997   6.374   1.631   4.922
 5700SOL     OW17998   1.250   5.051   3.389
 5700SOL    HW117999   1.234   4.980   3.457
 5700SOL    HW218000   1.202   5.134   3.416
 5701SOL     OW18001   5.229   4.929   1.611
 5701SOL    HW118002   5.280   5.014   1.628
 5701SOL    HW218003   5.137   4.938   1.649
 5702SOL     OW18004   2.116   0.422   6.761
 5702SOL    HW118005   2.118   0.459   6.854
 5702SOL    HW218006   2.192   0.358   6.749
 5703SOL     OW18007   4.385   4.395   1.013
 5703SOL    HW118008   4.471   4.444   0.997
 5703SOL    HW218009   4.405   4.303   1.046
 5704SOL     OW18010   4.510   5.502   4.100
 5704SOL    HW118011   4.607   5.477   4.099
 5704SOL    HW218012   4.497   5.581   4.159
 5705SOL     OW18013   6.111   1.633   2.600
 5705SOL    HW118014   6.195   1.628   2.655
 5705SOL    HW218015   6.130   1.604   2.506
 5706SOL     OW18016   2.571   0.966   6.451
 5706SOL    HW118017   2.624   0.927   6.376
 5706SOL    HW218018   2.627   1.032   6.501
 5707SOL     OW18019   2.834   2.178   6.054
 5707SOL    HW118020   2.842   2.092   6.106
 5707SOL    HW218021   2.752   2.227   6.083
 5708SOL     OW18022   5.861   0.180   2.020
 5708SOL    HW118023   5.924   0.257   2.017
 5708SOL    HW218024   5.866   0.129   1.934
 5709SOL     OW18025   0.557   1.027   2.982
 5709SOL    HW118026   0.518   1.096   3.044
 5709SOL    HW218027   0.499   1.020   2.900
 5710SOL     OW18028   2.935   4.528   6.253
 5710SOL    HW118029   3.022   4.558   6.213
 5710SOL    HW218030   2.894   4.605   6.302
 5711SOL     OW18031   4.826   1.652   4.390
 5711SOL    HW118032   4.806   1.701   4.475
 5711SOL    HW218033   4.883   1.710   4.332
 5712SOL     OW18034   0.195   5.743   6.431
 5712SOL    HW118035   0.170   5.839   6.420
 5712SOL    HW218036   0.278   5.725   6.379
 5713SOL     OW18037   0.026   2.485   3.039
 5713SOL    HW118038   0.101   2.549   3.058
 5713SOL    HW218039   0.022   2.468   2.941
 5714SOL     OW18040   1.944   0.948   6.694
 5714SOL    HW118041   1.992   0.860   6.700
 5714SOL    HW218042   1.865   0.939   6.635
 5715SOL     OW18043   1.528   0.344   3.412
 5715SOL    HW118044   1.591   0.267   3.424
 5715SOL    HW218045   1.567   0.409   3.346
 5716SOL     OW18046   1.946   3.049   5.022
 5716SOL    HW118047   1.981   2.958   5.000
 5716SOL    HW218048   2.020   3.106   5.057
 5717SOL     OW18049   0.671   4.051   0.464
 5717SOL    HW118050   0.738   4.010   0.402
 5717SOL    HW218051   0.707   4.051   0.557
 5718SOL     OW18052   2.163   4.816   5.404
 5718SOL    HW118053   2.069   4.789   5.424
 5718SOL    HW218054   2.213   4.738   5.368
 5719SOL     OW18055   2.385   0.337   6.670
 5719SOL    HW118056   2.456   0.315   6.603
 5719SOL    HW218057   2.423   0.328   6.763
 5720SOL     OW18058   2.043   5.147   4.005
 5720SOL    HW118059   2.027   5.159   3.907
 5720SOL    HW218060   2.025   5.233   4.053
 5721SOL     OW18061   0.704   4.417   1.206
 5721SOL    HW118062   0.628   4.353   1.221
 5721SOL    HW218063   0.740   4.447   1.294
 5722SOL     OW18064   5.109   1.084   4.112
 5722SOL    HW118065   5.178   1.087   4.184
 5722SOL    HW218066   5.019   1.107   4.152
 5723SOL     OW18067   1.531   4.623   0.893
 5723SOL    HW118068   1.473   4.601   0.972
 5723SOL    HW218069   1.473   4.650   0.816
 5724SOL     OW18070   4.950   1.795   6.811
 5724SOL    HW118071   5.042   1.810   6.847
 5724SOL    HW218072   4.933   1.859   6.736
 5725SOL     OW18073   5.161   5.718   6.054
 5725SOL    HW118074   5.180   5.620   6.052
 5725SOL    HW218075   5.120   5.742   6.142
 5726SOL     OW18076   4.646   3.098   6.232
 5726SOL    HW118077   4.719   3.133   6.174
 5726SOL    HW218078   4.644   3.148   6.319
 5727SOL     OW18079   5.895   2.123   3.887
 5727SOL    HW118080   5.852   2.045   3.841
 5727SOL    HW218081   5.924   2.189   3.818
 5728SOL     OW18082   5.583   1.102   6.445
 5728SOL    HW118083   5.543   1.011   6.432
 5728SOL    HW218084   5.658   1.115   6.380
 5729SOL     OW18085   0.687   3.077   5.454
 5729SOL    HW118086   0.694   2.986   5.414
 5729SOL    HW218087   0.767   3.131   5.429
 5730SOL     OW18088   4.026   5.524   6.610
 5730SOL    HW118089   4.018   5.507   6.512
 5730SOL    HW218090   4.104   5.472   6.646
 5731SOL     OW18091   3.821   0.907   4.542
 5731SOL    HW118092   3.748   0.945   4.485
 5731SOL    HW218093   3.813   0.943   4.635
 5732SOL     OW18094   5.859   4.503   4.051
 5732SOL    HW118095   5.935   4.508   3.986
 5732SOL    HW218096   5.785   4.450   4.010
 5733SOL     OW18097   3.026   6.988   0.624
 5733SOL    HW118098   3.044   6.974   0.527
 5733SOL    HW218099   3.110   7.018   0.670
 5734SOL     OW18100   2.290   5.943   6.293
 5734SOL    HW118101   2.376   5.917   6.248
 5734SOL    HW218102   2.230   5.863   6.299
 5735SOL     OW18103   4.857   0.607   2.307
 5735SOL    HW118104   4.826   0.550   2.230
 5735SOL    HW218105   4.871   0.549   2.387
 5736SOL     OW18106   5.882   4.350   0.183
 5736SOL    HW118107   5.890   4.269   0.125
 5736SOL    HW218108   5.798   4.343   0.237
 5737SOL     OW18109   4.406   5.134   1.253
 5737SOL    HW118110   4.337   5.185   1.305
 5737SOL    HW218111   4.479   5.104   1.314
 5738SOL     OW18112   2.847   0.804   0.357
 5738SOL    HW118113   2.767   0.744   0.356
 5738SOL    HW218114   2.856   0.850   0.269
 5739SOL     OW18115   1.917   1.062   5.759
 5739SOL    HW118116   1.821   1.043   5.777
 5739SOL    HW218117   1.924   1.133   5.689
 5740SOL     OW18118   4.983   3.394   1.741
 5740SOL    HW118119   4.978   3.354   1.833
 5740SOL    HW218120   4.939   3.334   1.676
 5741SOL     OW18121   0.343   3.547   4.063
 5741SOL    HW118122   0.288   3.485   4.119
 5741SOL    HW218123   0.439   3.521   4.070
 5742SOL     OW18124   5.058   0.539   3.242
 5742SOL    HW118125   4.976   0.581   3.203
 5742SOL    HW218126   5.073   0.574   3.335
 5743SOL     OW18127   3.473   5.829   0.031
 5743SOL    HW118128   3.468   5.928   0.043
 5743SOL    HW218129   3.562   5.805   7.017
 5744SOL     OW18130   5.085   0.063   2.988
 5744SOL    HW118131   5.163   0.002   2.971
 5744SOL    HW218132   5.014   0.013   3.037
 5745SOL     OW18133   0.963   3.215   1.582
 5745SOL    HW118134   0.975   3.310   1.552
 5745SOL    HW218135   1.049   3.166   1.573
 5746SOL     OW18136   4.720   6.716   3.422
 5746SOL    HW118137   4.686   6.751   3.334
 5746SOL    HW218138   4.658   6.744   3.495
 5747SOL     OW18139   1.162   6.533   0.900
 5747SOL    HW118140   1.245   6.491   0.938
 5747SOL    HW218141   1.117   6.588   0.971
 5748SOL     OW18142   0.340   5.641   0.796
 5748SOL    HW118143   0.252   5.659   0.841
 5748SOL    HW218144   0.373   5.725   0.753
 5749SOL     OW18145   1.717   5.746   6.163
 5749SOL    HW118146   1.817   5.740   6.150
 5749SOL    HW218147   1.672   5.685   6.097
 5750SOL     OW18148   6.345   3.245   4.397
 5750SOL    HW118149   6.368   3.332   4.355
 5750SOL    HW218150   6.312   3.261   4.490
 5751SOL     OW18151   1.282   3.723   4.951
 5751SOL    HW118152   1.320   3.763   4.868
 5751SOL    HW218153   1.342   3.650   4.984
 5752SOL     OW18154   4.756   0.547   0.792
 5752SOL    HW118155   4.776   0.640   0.822
 5752SOL    HW218156   4.842   0.497   0.778
 5753SOL     OW18157   3.711   4.214   5.141
 5753SOL    HW118158   3.635   4.265   5.181
 5753SOL    HW218159   3.676   4.130   5.099
 5754SOL     OW18160   0.890   5.417   1.133
 5754SOL    HW118161   0.962   5.451   1.193
 5754SOL    HW218162   0.819   5.486   1.123
 5755SOL     OW18163   1.214   2.446   0.018
 5755SOL    HW118164   1.164   2.470   0.101
 5755SOL    HW218165   1.232   2.347   0.018
 5756SOL     OW18166   5.895   6.057   1.471
 5756SOL    HW118167   5.888   6.006   1.385
 5756SOL    HW218168   5.815   6.115   1.482
 5757SOL     OW18169   6.633   0.663   4.517
 5757SOL    HW118170   6.707   0.642   4.582
 5757SOL    HW218171   6.622   0.587   4.453
 5758SOL     OW18172   6.050   6.779   3.103
 5758SOL    HW118173   6.037   6.718   3.025
 5758SOL    HW218174   6.104   6.732   3.174
 5759SOL     OW18175   3.603   0.046   0.921
 5759SOL    HW118176   3.577   0.139   0.893
 5759SOL    HW218177   3.622   7.016   0.839
 5760SOL     OW18178   1.162   3.060   0.657
 5760SOL    HW118179   1.143   3.132   0.723
 5760SOL    HW218180   1.238   3.087   0.598
 5761SOL     OW18181   5.934   0.036   4.176
 5761SOL    HW118182   6.026   0.039   4.138
 5761SOL    HW218183   5.938   0.047   4.275
 5762SOL     OW18184   6.749   5.459   6.647
 5762SOL    HW118185   6.810   5.379   6.651
 5762SOL    HW218186   6.656   5.428   6.626
 5763SOL     OW18187   5.748   6.976   6.941
 5763SOL    HW118188   5.700   6.889   6.932
 5763SOL    HW218189   5.700   0.008   7.008
 5764SOL     OW18190   4.991   6.776   3.836
 5764SOL    HW118191   5.040   6.689   3.849
 5764SOL    HW218192   4.902   6.771   3.882
 5765SOL     OW18193   5.774   5.447   2.192
 5765SOL    HW118194   5.743   5.445   2.097
 5765SOL    HW218195   5.771   5.355   2.230
 5766SOL     OW18196   6.992   1.529   4.387
 5766SOL    HW118197   6.969   1.440   4.426
 5766SOL    HW218198   0.048   1.566   4.434
 5767SOL     OW18199   3.730   6.555   6.998
 5767SOL    HW118200   3.679   6.552   6.912
 5767SOL    HW218201   3.812   6.610   6.986
 5768SOL     OW18202   0.292   0.629   4.754
 5768SOL    HW118203   0.384   0.650   4.721
 5768SOL    HW218204   0.286   0.532   4.776
 5769SOL     OW18205   1.780   4.057   6.565
 5769SOL    HW118206   1.835   4.101   6.493
 5769SOL    HW218207   1.705   4.118   6.590
 5770SOL     OW18208   1.709   4.650   1.690
 5770SOL    HW118209   1.667   4.658   1.600
 5770SOL    HW218210   1.773   4.725   1.704
 5771SOL     OW18211   3.374   5.087   3.561
 5771SOL    HW118212   3.338   5.119   3.648
 5771SOL    HW218213   3.466   5.051   3.573
 5772SOL     OW18214   2.853   0.083   2.403
 5772SOL    HW118215   2.907   0.152   2.449
 5772SOL    HW218216   2.827   0.012   2.469
 5773SOL     OW18217   4.448   1.778   2.309
 5773SOL    HW118218   4.387   1.857   2.316
 5773SOL    HW218219   4.536   1.806   2.272
 5774SOL     OW18220   0.075   6.543   2.363
 5774SOL    HW118221   0.064   6.480   2.439
 5774SOL    HW218222   0.158   6.598   2.377
 5775SOL     OW18223   6.757   5.530   1.890
 5775SOL    HW118224   6.689   5.601   1.876
 5775SOL    HW218225   6.785   5.491   1.802
 5776SOL     OW18226   2.181   1.311   4.370
 5776SOL    HW118227   2.227   1.289   4.284
 5776SOL    HW218228   2.123   1.234   4.398
 5777SOL     OW18229   1.802   6.369   2.499
 5777SOL    HW118230   1.770   6.277   2.519
 5777SOL    HW218231   1.727   6.434   2.513
 5778SOL     OW18232   0.739   1.651   0.884
 5778SOL    HW118233   0.795   1.576   0.850
 5778SOL    HW218234   0.739   1.650   0.984
 5779SOL     OW18235   5.802   1.285   5.801
 5779SOL    HW118236   5.849   1.324   5.881
 5779SOL    HW218237   5.825   1.340   5.720
 5780SOL     OW18238   5.251   5.949   4.063
 5780SOL    HW118239   5.257   6.037   4.016
 5780SOL    HW218240   5.172   5.949   4.125
 5781SOL     OW18241   0.612   4.993   5.026
 5781SOL    HW118242   0.523   5.037   5.013
 5781SOL    HW218243   0.606   4.926   5.100
 5782SOL     OW18244   0.716   0.352   0.071
 5782SOL    HW118245   0.774   0.392   0.001
 5782SOL    HW218246   0.673   0.269   0.036
 5783SOL     OW18247   1.311   1.814   0.787
 5783SOL    HW118248   1.313   1.872   0.706
 5783SOL    HW218249   1.325   1.870   0.869
 5784SOL     OW18250   6.430   6.146   6.580
 5784SOL    HW118251   6.516   6.114   6.618
 5784SOL    HW218252   6.420   6.112   6.486
 5785SOL     OW18253   1.051   1.714   0.524
 5785SOL    HW118254   1.135   1.692   0.574
 5785SOL    HW218255   1.016   1.630   0.481
 5786SOL     OW18256   5.811   4.939   1.130
 5786SOL    HW118257   5.886   4.954   1.195
 5786SOL    HW218258   5.776   4.846   1.141
 5787SOL     OW18259   3.030   2.710   5.804
 5787SOL    HW118260   2.974   2.653   5.744
 5787SOL    HW218261   2.970   2.766   5.862
 5788SOL     OW18262   2.504   1.075   4.007
 5788SOL    HW118263   2.594   1.118   3.999
 5788SOL    HW218264   2.468   1.055   3.916
 5789SOL     OW18265   4.106   4.919   6.169
 5789SOL    HW118266   4.175   4.927   6.098
 5789SOL    HW218267   4.018   4.948   6.133
 5790SOL     OW18268   0.451   2.773   3.148
 5790SOL    HW118269   0.515   2.836   3.105
 5790SOL    HW218270   0.483   2.679   3.136
 5791SOL     OW18271   2.520   0.878   2.861
 5791SOL    HW118272   2.461   0.882   2.942
 5791SOL    HW218273   2.464   0.882   2.778
 5792SOL     OW18274   6.527   2.476   2.615
 5792SOL    HW118275   6.436   2.436   2.609
 5792SOL    HW218276   6.521   2.574   2.634
 5793SOL     OW18277   0.198   0.514   3.740
 5793SOL    HW118278   0.103   0.492   3.720
 5793SOL    HW218279   0.209   0.531   3.838
 5794SOL     OW18280   4.683   3.730   6.697
 5794SOL    HW118281   4.782   3.732   6.713
 5794SOL    HW218282   4.640   3.809   6.740
 5795SOL     OW18283   5.696   4.114   6.726
 5795SOL    HW118284   5.788   4.151   6.737
 5795SOL    HW218285   5.694   4.052   6.648
 5796SOL     OW18286   3.766   1.414   0.422
 5796SOL    HW118287   3.813   1.407   0.334
 5796SOL    HW218288   3.826   1.381   0.495
 5797SOL     OW18289   2.943   1.875   5.050
 5797SOL    HW118290   3.018   1.936   5.022
 5797SOL    HW218291   2.855   1.921   5.034
 5798SOL     OW18292   6.863   4.691   4.845
 5798SOL    HW118293   6.910   4.755   4.906
 5798SOL    HW218294   6.881   4.716   4.750
 5799SOL     OW18295   5.320   0.403   3.872
 5799SOL    HW118296   5.372   0.320   3.891
 5799SOL    HW218297   5.223   0.381   3.868
 5800SOL     OW18298   6.222   5.153   0.845
 5800SOL    HW118299   6.156   5.141   0.920
 5800SOL    HW218300   6.178   5.134   0.758
 5801SOL     OW18301   1.974   2.003   3.678
 5801SOL    HW118302   1.943   1.915   3.642
 5801SOL    HW218303   2.008   1.992   3.771
 5802SOL     OW18304   0.698   3.337   5.608
 5802SOL    HW118305   0.647   3.285   5.540
 5802SOL    HW218306   0.787   3.293   5.623
 5803SOL     OW18307   1.738   4.825   0.263
 5803SOL    HW118308   1.724   4.839   0.361
 5803SOL    HW218309   1.791   4.902   0.225
 5804SOL     OW18310   6.245   3.826   4.472
 5804SOL    HW118311   6.208   3.803   4.382
 5804SOL    HW218312   6.314   3.897   4.464
 5805SOL     OW18313   5.153   3.063   6.716
 5805SOL    HW118314   5.197   3.134   6.771
 5805SOL    HW218315   5.214   3.036   6.641
 5806SOL     OW18316   0.834   6.216   0.168
 5806SOL    HW118317   0.880   6.141   0.216
 5806SOL    HW218318   0.743   6.186   0.141
 5807SOL     OW18319   1.821   3.541   1.862
 5807SOL    HW118320   1.897   3.485   1.895
 5807SOL    HW218321   1.771   3.578   1.940
 5808SOL     OW18322   6.460   3.929   2.756
 5808SOL    HW118323   6.558   3.916   2.768
 5808SOL    HW218324   6.442   4.022   2.722
 5809SOL     OW18325   6.834   3.628   4.049
 5809SOL    HW118326   6.879   3.598   3.965
 5809SOL    HW218327   6.888   3.699   4.093
 5810SOL     OW18328   2.602   2.083   2.333
 5810SOL    HW118329   2.661   2.038   2.400
 5810SOL    HW218330   2.576   2.173   2.366
 5811SOL     OW18331   2.525   1.385   3.981
 5811SOL    HW118332   2.474   1.443   3.916
 5811SOL    HW218333   2.521   1.426   4.072
 5812SOL     OW18334   4.596   0.968   4.357
 5812SOL    HW118335   4.507   0.943   4.319
 5812SOL    HW218336   4.644   0.885   4.386
 5813SOL     OW18337   1.219   0.628   5.418
 5813SOL    HW118338   1.186   0.715   5.456
 5813SOL    HW218339   1.300   0.646   5.362
 5814SOL     OW18340   0.430   5.371   1.057
 5814SOL    HW118341   0.331   5.370   1.047
 5814SOL    HW218342   0.455   5.334   1.147
 5815SOL     OW18343   3.320   1.416   2.744
 5815SOL    HW118344   3.227   1.453   2.740
 5815SOL    HW218345   3.386   1.491   2.737
 5816SOL     OW18346   4.673   0.249   0.527
 5816SOL    HW118347   4.763   0.224   0.562
 5816SOL    HW218348   4.604   0.238   0.599
 5817SOL     OW18349   4.881   3.299   4.993
 5817SOL    HW118350   4.891   3.204   4.965
 5817SOL    HW218351   4.828   3.303   5.078
 5818SOL     OW18352   6.147   6.588   6.457
 5818SOL    HW118353   6.073   6.634   6.507
 5818SOL    HW218354   6.165   6.499   6.499
 5819SOL     OW18355   6.010   0.302   1.687
 5819SOL    HW118356   5.919   0.342   1.676
 5819SOL    HW218357   6.009   0.208   1.654
 5820SOL     OW18358   5.505   6.448   3.491
 5820SOL    HW118359   5.419   6.499   3.482
 5820SOL    HW218360   5.563   6.467   3.411
 5821SOL     OW18361   2.617   0.697   1.783
 5821SOL    HW118362   2.617   0.794   1.806
 5821SOL    HW218363   2.705   0.656   1.807
 5822SOL     OW18364   7.008   1.453   2.093
 5822SOL    HW118365   6.965   1.513   2.026
 5822SOL    HW218366   6.988   1.357   2.070
 5823SOL     OW18367   2.294   1.929   4.171
 5823SOL    HW118368   2.239   2.002   4.132
 5823SOL    HW218369   2.235   1.865   4.221
 5824SOL     OW18370   4.870   6.889   3.615
 5824SOL    HW118371   4.896   6.822   3.685
 5824SOL    HW218372   4.868   6.844   3.526
 5825SOL     OW18373   2.753   0.531   0.390
 5825SOL    HW118374   2.663   0.576   0.387
 5825SOL    HW218375   2.786   0.516   0.297
 5826SOL     OW18376   6.289   0.366   4.881
 5826SOL    HW118377   6.380   0.350   4.919
 5826SOL    HW218378   6.231   0.286   4.901
 5827SOL     OW18379   0.752   5.706   5.091
 5827SOL    HW118380   0.745   5.616   5.133
 5827SOL    HW218381   0.776   5.696   4.994
 5828SOL     OW18382   6.993   3.629   1.799
 5828SOL    HW118383   6.914   3.640   1.860
 5828SOL    HW218384   0.051   3.620   1.853
 5829SOL     OW18385   2.025   1.563   1.803
 5829SOL    HW118386   1.987   1.603   1.887
 5829SOL    HW218387   1.972   1.593   1.724
 5830SOL     OW18388   2.648   1.756   6.116
 5830SOL    HW118389   2.745   1.773   6.128
 5830SOL    HW218390   2.634   1.697   6.036
 5831SOL     OW18391   5.487   0.069   3.212
 5831SOL    HW118392   5.426   0.057   3.290
 5831SOL    HW218393   5.435   0.059   3.127
 5832SOL     OW18394   3.954   3.946   5.231
 5832SOL    HW118395   4.001   3.865   5.195
 5832SOL    HW218396   3.945   4.014   5.158
 5833SOL     OW18397   3.380   2.848   4.949
 5833SOL    HW118398   3.345   2.756   4.932
 5833SOL    HW218399   3.329   2.914   4.894
 5834SOL     OW18400   6.039   1.284   0.916
 5834SOL    HW118401   6.023   1.350   0.842
 5834SOL    HW218402   5.960   1.283   0.976
 5835SOL     OW18403   5.334   2.261   3.837
 5835SOL    HW118404   5.370   2.349   3.871
 5835SOL    HW218405   5.365   2.188   3.897
 5836SOL     OW18406   3.580   6.073   2.356
 5836SOL    HW118407   3.635   6.099   2.436
 5836SOL    HW218408   3.637   6.075   2.274
 5837SOL     OW18409   5.029   4.348   6.461
 5837SOL    HW118410   4.954   4.322   6.523
 5837SOL    HW218411   5.004   4.324   6.367
 5838SOL     OW18412   0.779   1.113   5.413
 5838SOL    HW118413   0.744   1.194   5.367
 5838SOL    HW218414   0.759   1.119   5.511
 5839SOL     OW18415   6.604   3.170   2.922
 5839SOL    HW118416   6.653   3.232   2.860
 5839SOL    HW218417   6.537   3.117   2.869
 5840SOL     OW18418   1.832   5.450   6.723
 5840SOL    HW118419   1.788   5.361   6.707
 5840SOL    HW218420   1.784   5.498   6.796
 5841SOL     OW18421   6.709   2.390   3.824
 5841SOL    HW118422   6.680   2.345   3.739
 5841SOL    HW218423   6.782   2.455   3.804
 5842SOL     OW18424   3.634   2.934   0.649
 5842SOL    HW118425   3.618   2.869   0.723
 5842SOL    HW218426   3.546   2.964   0.610
 5843SOL     OW18427   1.656   3.815   2.266
 5843SOL    HW118428   1.647   3.851   2.359
 5843SOL    HW218429   1.568   3.781   2.235
 5844SOL     OW18430   1.093   6.307   6.687
 5844SOL    HW118431   1.070   6.296   6.784
 5844SOL    HW218432   1.102   6.217   6.645
 5845SOL     OW18433   0.998   2.543   3.996
 5845SOL    HW118434   0.947   2.595   4.064
 5845SOL    HW218435   1.025   2.455   4.035
 5846SOL     OW18436   7.001   2.933   5.987
 5846SOL    HW118437   7.020   2.874   5.909
 5846SOL    HW218438   6.910   2.973   5.977
 5847SOL     OW18439   2.440   2.587   2.473
 5847SOL    HW118440   2.371   2.616   2.539
 5847SOL    HW218441   2.399   2.584   2.382
 5848SOL     OW18442   1.364   4.329   3.289
 5848SOL    HW118443   1.324   4.382   3.364
 5848SOL    HW218444   1.462   4.349   3.283
 5849SOL     OW18445   2.237   0.256   5.590
 5849SOL    HW118446   2.179   0.238   5.669
 5849SOL    HW218447   2.185   0.304   5.520
 5850SOL     OW18448   0.903   4.919   2.434
 5850SOL    HW118449   0.945   4.865   2.507
 5850SOL    HW218450   0.854   4.997   2.473
 5851SOL     OW18451   5.841   3.643   2.190
 5851SOL    HW118452   5.845   3.653   2.091
 5851SOL    HW218453   5.779   3.711   2.229
 5852SOL     OW18454   4.591   5.764   2.967
 5852SOL    HW118455   4.497   5.761   2.934
 5852SOL    HW218456   4.611   5.856   3.001
 5853SOL     OW18457   3.470   4.766   5.657
 5853SOL    HW118458   3.379   4.763   5.698
 5853SOL    HW218459   3.472   4.708   5.575
 5854SOL     OW18460   6.794   1.183   5.975
 5854SOL    HW118461   6.756   1.213   5.887
 5854SOL    HW218462   6.801   1.262   6.036
 5855SOL     OW18463   0.741   1.111   4.438
 5855SOL    HW118464   0.646   1.141   4.429
 5855SOL    HW218465   0.774   1.130   4.530
 5856SOL     OW18466   1.828   4.335   3.938
 5856SOL    HW118467   1.755   4.269   3.957
 5856SOL    HW218468   1.878   4.355   4.022
 5857SOL     OW18469   6.338   3.304   5.474
 5857SOL    HW118470   6.357   3.220   5.527
 5857SOL    HW218471   6.282   3.282   5.395
 5858SOL     OW18472   3.664   0.900   2.410
 5858SOL    HW118473   3.741   0.869   2.354
 5858SOL    HW218474   3.682   0.994   2.442
 5859SOL     OW18475   6.063   6.232   0.667
 5859SOL    HW118476   6.050   6.252   0.570
 5859SOL    HW218477   6.118   6.149   0.677
 5860SOL     OW18478   1.753   3.879   1.565
 5860SOL    HW118479   1.842   3.843   1.535
 5860SOL    HW218480   1.681   3.814   1.542
 5861SOL     OW18481   6.411   2.442   4.435
 5861SOL    HW118482   6.448   2.535   4.436
 5861SOL    HW218483   6.394   2.413   4.341
 5862SOL     OW18484   4.417   4.548   3.104
 5862SOL    HW118485   4.351   4.594   3.165
 5862SOL    HW218486   4.420   4.597   3.016
 5863SOL     OW18487   2.466   1.075   7.025
 5863SOL    HW118488   2.480   1.154   0.060
 5863SOL    HW218489   2.542   1.071   6.959
 5864SOL     OW18490   4.621   4.776   1.420
 5864SOL    HW118491   4.627   4.875   1.404
 5864SOL    HW218492   4.697   4.748   1.479
 5865SOL     OW18493   4.601   0.920   3.254
 5865SOL    HW118494   4.669   0.992   3.268
 5865SOL    HW218495   4.620   0.872   3.168
 5866SOL     OW18496   4.212   0.246   6.201
 5866SOL    HW118497   4.171   0.173   6.147
 5866SOL    HW218498   4.285   0.290   6.148
 5867SOL     OW18499   0.228   2.628   1.519
 5867SOL    HW118500   0.234   2.612   1.617
 5867SOL    HW218501   0.296   2.571   1.472
 5868SOL     OW18502   1.877   6.742   5.326
 5868SOL    HW118503   1.861   6.704   5.417
 5868SOL    HW218504   1.858   6.840   5.326
 5869SOL     OW18505   2.765   4.778   3.834
 5869SOL    HW118506   2.744   4.750   3.740
 5869SOL    HW218507   2.684   4.819   3.875
 5870SOL     OW18508   5.015   4.990   4.611
 5870SOL    HW118509   5.058   5.049   4.543
 5870SOL    HW218510   4.915   4.995   4.601
 5871SOL     OW18511   3.056   3.336   6.588
 5871SOL    HW118512   3.033   3.290   6.673
 5871SOL    HW218513   3.151   3.318   6.564
 5872SOL     OW18514   3.148   6.358   5.619
 5872SOL    HW118515   3.216   6.292   5.651
 5872SOL    HW218516   3.185   6.407   5.540
 5873SOL     OW18517   2.733   3.680   6.929
 5873SOL    HW118518   2.653   3.689   6.871
 5873SOL    HW218519   2.770   3.771   6.950
 5874SOL     OW18520   1.863   4.092   1.077
 5874SOL    HW118521   1.853   4.152   1.157
 5874SOL    HW218522   1.832   4.140   0.995
 5875SOL     OW18523   3.964   1.818   0.138
 5875SOL    HW118524   3.922   1.752   0.200
 5875SOL    HW218525   3.933   1.800   0.044
 5876SOL     OW18526   3.316   4.518   6.358
 5876SOL    HW118527   3.377   4.441   6.338
 5876SOL    HW218528   3.302   4.525   6.457
 5877SOL     OW18529   0.410   0.005   2.984
 5877SOL    HW118530   0.465   0.075   3.030
 5877SOL    HW218531   0.470   6.972   2.929
 5878SOL     OW18532   5.318   4.770   3.004
 5878SOL    HW118533   5.332   4.787   3.102
 5878SOL    HW218534   5.385   4.704   2.972
 5879SOL     OW18535   4.085   3.441   5.870
 5879SOL    HW118536   4.053   3.529   5.835
 5879SOL    HW218537   4.015   3.402   5.930
 5880SOL     OW18538   5.325   2.526   5.311
 5880SOL    HW118539   5.259   2.469   5.361
 5880SOL    HW218540   5.375   2.583   5.376
 5881SOL     OW18541   1.454   5.699   2.267
 5881SOL    HW118542   1.356   5.707   2.251
 5881SOL    HW218543   1.500   5.679   2.180
 5882SOL     OW18544   2.152   5.521   5.482
 5882SOL    HW118545   2.061   5.499   5.518
 5882SOL    HW218546   2.209   5.439   5.484
 5883SOL     OW18547   0.392   4.370   0.973
 5883SOL    HW118548   0.337   4.414   1.044
 5883SOL    HW218549   0.433   4.440   0.915
 5884SOL     OW18550   6.135   2.114   3.553
 5884SOL    HW118551   6.096   2.196   3.595
 5884SOL    HW218552   6.110   2.033   3.606
 5885SOL     OW18553   6.938   5.252   0.008
 5885SOL    HW118554   6.943   5.184   6.961
 5885SOL    HW218555   6.870   5.225   0.076
 5886SOL     OW18556   1.428   3.996   3.563
 5886SOL    HW118557   1.342   4.038   3.535
 5886SOL    HW218558   1.501   4.064   3.560
 5887SOL     OW18559   2.118   2.734   1.220
 5887SOL    HW118560   2.204   2.686   1.234
 5887SOL    HW218561   2.133   2.833   1.224
 5888SOL     OW18562   3.639   6.386   0.934
 5888SOL    HW118563   3.543   6.411   0.941
 5888SOL    HW218564   3.662   6.366   0.838
 5889SOL     OW18565   5.959   0.800   1.905
 5889SOL    HW118566   5.875   0.751   1.885
 5889SOL    HW218567   6.038   0.745   1.876
 5890SOL     OW18568   2.266   5.980   2.927
 5890SOL    HW118569   2.202   5.906   2.947
 5890SOL    HW218570   2.331   5.950   2.858
 5891SOL     OW18571   2.661   3.391   0.877
 5891SOL    HW118572   2.616   3.306   0.847
 5891SOL    HW218573   2.683   3.447   0.797
 5892SOL     OW18574   1.216   3.872   1.093
 5892SOL    HW118575   1.123   3.836   1.092
 5892SOL    HW218576   1.230   3.928   1.175
 5893SOL     OW18577   0.885   6.288   1.846
 5893SOL    HW118578   0.893   6.249   1.754
 5893SOL    HW218579   0.808   6.352   1.848
 5894SOL     OW18580   2.517   5.649   6.208
 5894SOL    HW118581   2.596   5.688   6.255
 5894SOL    HW218582   2.530   5.655   6.109
 5895SOL     OW18583   5.435   3.875   4.546
 5895SOL    HW118584   5.455   3.973   4.539
 5895SOL    HW218585   5.344   3.862   4.586
 5896SOL     OW18586   5.601   2.459   1.886
 5896SOL    HW118587   5.645   2.372   1.865
 5896SOL    HW218588   5.654   2.508   1.954
 5897SOL     OW18589   4.383   2.681   0.590
 5897SOL    HW118590   4.469   2.632   0.603
 5897SOL    HW218591   4.401   2.770   0.549
 5898SOL     OW18592   1.996   1.423   5.306
 5898SOL    HW118593   2.052   1.421   5.388
 5898SOL    HW218594   1.959   1.515   5.292
 5899SOL     OW18595   6.846   5.774   6.213
 5899SOL    HW118596   6.840   5.702   6.282
 5899SOL    HW218597   6.931   5.763   6.161
 5900SOL     OW18598   5.670   6.527   3.314
 5900SOL    HW118599   5.743   6.502   3.250
 5900SOL    HW218600   5.614   6.599   3.274
 5901SOL     OW18601   1.737   0.894   5.264
 5901SOL    HW118602   1.824   0.930   5.297
 5901SOL    HW218603   1.710   0.944   5.182
 5902SOL     OW18604   4.694   4.319   5.812
 5902SOL    HW118605   4.731   4.309   5.904
 5902SOL    HW218606   4.613   4.261   5.803
 5903SOL     OW18607   6.292   2.219   5.751
 5903SOL    HW118608   6.321   2.312   5.769
 5903SOL    HW218609   6.192   2.214   5.751
 5904SOL     OW18610   1.901   4.398   1.731
 5904SOL    HW118611   1.981   4.381   1.673
 5904SOL    HW218612   1.857   4.483   1.703
 5905SOL     OW18613   5.654   1.027   4.380
 5905SOL    HW118614   5.632   1.125   4.384
 5905SOL    HW218615   5.671   1.001   4.285
 5906SOL     OW18616   4.944   1.366   5.580
 5906SOL    HW118617   4.885   1.394   5.503
 5906SOL    HW218618   4.895   1.299   5.636
 5907SOL     OW18619   1.648   3.649   5.979
 5907SOL    HW118620   1.663   3.659   6.078
 5907SOL    HW218621   1.736   3.656   5.932
 5908SOL     OW18622   5.172   3.195   6.018
 5908SOL    HW118623   5.223   3.270   5.977
 5908SOL    HW218624   5.163   3.121   5.951
 5909SOL     OW18625   6.890   4.872   3.993
 5909SOL    HW118626   6.924   4.944   4.054
 5909SOL    HW218627   6.947   4.868   3.911
 5910SOL     OW18628   2.425   4.090   0.909
 5910SOL    HW118629   2.436   4.097   0.810
 5910SOL    HW218630   2.330   4.069   0.931
 5911SOL     OW18631   5.722   6.955   6.494
 5911SOL    HW118632   5.780   6.975   6.573
 5911SOL    HW218633   5.756   6.873   6.447
 5912SOL     OW18634   6.806   3.300   6.702
 5912SOL    HW118635   6.780   3.210   6.667
 5912SOL    HW218636   6.877   3.339   6.643
 5913SOL     OW18637   1.486   1.831   6.002
 5913SOL    HW118638   1.449   1.872   5.919
 5913SOL    HW218639   1.466   1.889   6.081
 5914SOL     OW18640   2.043   6.085   1.156
 5914SOL    HW118641   2.042   6.173   1.109
 5914SOL    HW218642   1.950   6.055   1.174
 5915SOL     OW18643   4.995   3.420   2.562
 5915SOL    HW118644   5.044   3.409   2.476
 5915SOL    HW218645   4.969   3.330   2.597
 5916SOL     OW18646   3.167   0.161   5.915
 5916SOL    HW118647   3.080   0.194   5.877
 5916SOL    HW218648   3.216   0.238   5.956
 5917SOL     OW18649   3.626   2.952   2.911
 5917SOL    HW118650   3.539   2.947   2.862
 5917SOL    HW218651   3.701   2.932   2.848
 5918SOL     OW18652   2.055   3.062   4.198
 5918SOL    HW118653   2.087   3.076   4.291
 5918SOL    HW218654   2.122   3.098   4.133
 5919SOL     OW18655   1.217   2.988   0.063
 5919SOL    HW118656   1.162   2.989   0.146
 5919SOL    HW218657   1.256   3.079   0.048
 5920SOL     OW18658   3.931   6.329   6.699
 5920SOL    HW118659   3.910   6.343   6.602
 5920SOL    HW218660   4.019   6.372   6.721
 5921SOL     OW18661   4.202   5.492   5.058
 5921SOL    HW118662   4.203   5.513   5.155
 5921SOL    HW218663   4.160   5.402   5.043
 5922SOL     OW18664   5.495   4.362   1.852
 5922SOL    HW118665   5.568   4.306   1.810
 5922SOL    HW218666   5.535   4.446   1.888
 5923SOL     OW18667   0.413   6.895   3.509
 5923SOL    HW118668   0.390   6.861   3.418
 5923SOL    HW218669   0.341   6.870   3.573
 5924SOL     OW18670   5.529   2.525   4.462
 5924SOL    HW118671   5.476   2.530   4.546
 5924SOL    HW218672   5.615   2.477   4.479
 5925SOL     OW18673   6.582   6.402   0.843
 5925SOL    HW118674   6.535   6.430   0.760
 5925SOL    HW218675   6.619   6.482   0.890
 5926SOL     OW18676   3.638   5.021   1.838
 5926SOL    HW118677   3.568   5.075   1.884
 5926SOL    HW218678   3.641   4.929   1.878
 5927SOL     OW18679   2.535   5.756   2.247
 5927SOL    HW118680   2.441   5.765   2.214
 5927SOL    HW218681   2.598   5.777   2.172
 5928SOL     OW18682   1.208   6.946   1.920
 5928SOL    HW118683   1.246   0.014   1.925
 5928SOL    HW218684   1.199   6.909   2.012
 5929SOL     OW18685   1.311   0.183   5.904
 5929SOL    HW118686   1.398   0.199   5.857
 5929SOL    HW218687   1.297   0.085   5.916
 5930SOL     OW18688   6.702   2.094   4.986
 5930SOL    HW118689   6.743   2.060   5.070
 5930SOL    HW218690   6.668   2.017   4.932
 5931SOL     OW18691   5.901   5.109   0.914
 5931SOL    HW118692   5.878   5.036   0.979
 5931SOL    HW218693   5.889   5.198   0.958
 5932SOL     OW18694   2.467   6.327   0.701
 5932SOL    HW118695   2.436   6.339   0.795
 5932SOL    HW218696   2.512   6.238   0.691
 5933SOL     OW18697   6.067   3.691   2.944
 5933SOL    HW118698   6.106   3.637   2.869
 5933SOL    HW218699   6.013   3.766   2.907
 5934SOL     OW18700   3.718   4.065   3.145
 5934SOL    HW118701   3.752   4.075   3.239
 5934SOL    HW218702   3.700   4.156   3.107
 5935SOL     OW18703   3.527   2.988   3.749
 5935SOL    HW118704   3.444   2.957   3.704
 5935SOL    HW218705   3.605   2.977   3.687
 5936SOL     OW18706   5.391   5.898   6.450
 5936SOL    HW118707   5.455   5.973   6.464
 5936SOL    HW218708   5.383   5.878   6.352
 5937SOL     OW18709   1.742   3.581   1.177
 5937SOL    HW118710   1.779   3.671   1.154
 5937SOL    HW218711   1.791   3.511   1.124
 5938SOL     OW18712   1.977   4.507   1.470
 5938SOL    HW118713   1.922   4.425   1.486
 5938SOL    HW218714   2.071   4.481   1.449
 5939SOL     OW18715   3.261   0.616   3.232
 5939SOL    HW118716   3.343   0.673   3.220
 5939SOL    HW218717   3.184   0.659   3.186
 5940SOL     OW18718   3.990   5.837   3.862
 5940SOL    HW118719   3.895   5.868   3.849
 5940SOL    HW218720   3.993   5.737   3.862
 5941SOL     OW18721   5.949   4.763   1.788
 5941SOL    HW118722   5.904   4.813   1.714
 5941SOL    HW218723   5.957   4.823   1.868
 5942SOL     OW18724   5.081   1.767   5.492
 5942SOL    HW118725   5.157   1.702   5.489
 5942SOL    HW218726   5.009   1.737   5.430
 5943SOL     OW18727   1.105   5.906   6.754
 5943SOL    HW118728   1.140   5.971   6.821
 5943SOL    HW218729   1.075   5.823   6.801
 5944SOL     OW18730   4.282   1.826   2.612
 5944SOL    HW118731   4.237   1.736   2.616
 5944SOL    HW218732   4.281   1.860   2.519
 5945SOL     OW18733   0.124   5.015   5.493
 5945SOL    HW118734   0.118   4.965   5.407
 5945SOL    HW218735   0.050   4.986   5.554
 5946SOL     OW18736   3.910   2.936   5.198
 5946SOL    HW118737   3.876   2.938   5.104
 5946SOL    HW218738   3.947   3.025   5.222
 5947SOL     OW18739   4.281   3.359   1.716
 5947SOL    HW118740   4.274   3.443   1.769
 5947SOL    HW218741   4.189   3.323   1.698
 5948SOL     OW18742   3.826   4.851   2.358
 5948SOL    HW118743   3.829   4.752   2.342
 5948SOL    HW218744   3.902   4.895   2.311
 5949SOL     OW18745   4.538   4.784   1.890
 5949SOL    HW118746   4.532   4.699   1.839
 5949SOL    HW218747   4.625   4.788   1.939
 5950SOL     OW18748   5.947   2.762   3.625
 5950SOL    HW118749   5.896   2.692   3.575
 5950SOL    HW218750   5.980   2.723   3.711
 5951SOL     OW18751   1.951   5.817   4.119
 5951SOL    HW118752   1.861   5.859   4.126
 5951SOL    HW218753   1.963   5.750   4.192
 5952SOL     OW18754   6.782   6.768   4.996
 5952SOL    HW118755   6.870   6.791   5.039
 5952SOL    HW218756   6.795   6.759   4.897
 5953SOL     OW18757   0.233   3.327   6.197
 5953SOL    HW118758   0.239   3.293   6.291
 5953SOL    HW218759   0.315   3.379   6.175
 5954SOL     OW18760   0.435   5.339   6.782
 5954SOL    HW118761   0.348   5.387   6.777
 5954SOL    HW218762   0.478   5.356   6.871
 5955SOL     OW18763   5.466   5.789   2.423
 5955SOL    HW118764   5.498   5.845   2.346
 5955SOL    HW218765   5.457   5.845   2.505
 5956SOL     OW18766   6.031   1.864   0.298
 5956SOL    HW118767   5.933   1.847   0.307
 5956SOL    HW218768   6.071   1.879   0.388
 5957SOL     OW18769   5.462   6.967   5.902
 5957SOL    HW118770   5.540   7.006   5.950
 5957SOL    HW218771   5.388   0.009   5.898
 5958SOL     OW18772   0.713   5.250   1.997
 5958SOL    HW118773   0.788   5.314   1.982
 5958SOL    HW218774   0.676   5.263   2.089
 5959SOL     OW18775   2.391   1.508   6.160
 5959SOL    HW118776   2.389   1.408   6.151
 5959SOL    HW218777   2.465   1.545   6.104
 5960SOL     OW18778   3.211   0.722   4.134
 5960SOL    HW118779   3.201   0.690   4.040
 5960SOL    HW218780   3.264   0.656   4.187
 5961SOL     OW18781   2.970   0.892   5.718
 5961SOL    HW118782   3.008   0.932   5.801
 5961SOL    HW218783   3.012   0.935   5.638
 5962SOL     OW18784   5.148   5.485   2.315
 5962SOL    HW118785   5.206   5.434   2.379
 5962SOL    HW218786   5.201   5.559   2.274
 5963SOL     OW18787   4.047   3.684   2.068
 5963SOL    HW118788   4.061   3.592   2.105
 5963SOL    HW218789   4.025   3.747   2.142
 5964SOL     OW18790   1.031   4.490   5.578
 5964SOL    HW118791   0.978   4.572   5.597
 5964SOL    HW218792   1.027   4.469   5.480
 5965SOL     OW18793   2.451   1.869   5.035
 5965SOL    HW118794   2.426   1.801   4.966
 5965SOL    HW218795   2.369   1.912   5.071
 5966SOL     OW18796   1.924   6.625   3.684
 5966SOL    HW118797   2.005   6.669   3.722
 5966SOL    HW218798   1.938   6.607   3.586
 5967SOL     OW18799   4.757   6.911   2.316
 5967SOL    HW118800   4.786   6.816   2.307
 5967SOL    HW218801   4.820   6.970   2.267
 5968SOL     OW18802   0.348   2.753   4.429
 5968SOL    HW118803   0.297   2.684   4.376
 5968SOL    HW218804   0.289   2.788   4.502
 5969SOL     OW18805   5.364   3.040   3.266
 5969SOL    HW118806   5.365   2.990   3.353
 5969SOL    HW218807   5.375   2.976   3.190
 5970SOL     OW18808   1.532   3.005   3.253
 5970SOL    HW118809   1.460   2.936   3.245
 5970SOL    HW218810   1.545   3.029   3.349
 5971SOL     OW18811   2.468   6.815   2.365
 5971SOL    HW118812   2.505   6.906   2.347
 5971SOL    HW218813   2.392   6.822   2.429
 5972SOL     OW18814   4.702   6.223   0.787
 5972SOL    HW118815   4.661   6.259   0.703
 5972SOL    HW218816   4.648   6.253   0.866
 5973SOL     OW18817   1.708   4.248   4.188
 5973SOL    HW118818   1.636   4.274   4.124
 5973SOL    HW218819   1.717   4.148   4.189
 5974SOL     OW18820   0.900   3.719   6.683
 5974SOL    HW118821   0.911   3.686   6.777
 5974SOL    HW218822   0.860   3.645   6.627
 5975SOL     OW18823   2.248   2.844   0.651
 5975SOL    HW118824   2.233   2.886   0.741
 5975SOL    HW218825   2.275   2.749   0.663
 5976SOL     OW18826   3.139   3.450   5.297
 5976SOL    HW118827   3.059   3.395   5.273
 5976SOL    HW218828   3.195   3.400   5.364
 5977SOL     OW18829   1.151   3.254   2.695
 5977SOL    HW118830   1.140   3.167   2.645
 5977SOL    HW218831   1.245   3.287   2.682
 5978SOL     OW18832   5.102   5.850   2.316
 5978SOL    HW118833   5.071   5.766   2.360
 5978SOL    HW218834   5.035   5.878   2.247
 5979SOL     OW18835   0.303   0.474   3.424
 5979SOL    HW118836   0.271   0.538   3.354
 5979SOL    HW218837   0.334   0.525   3.505
 5980SOL     OW18838   5.938   4.231   6.794
 5980SOL    HW118839   5.981   4.165   6.733
 5980SOL    HW218840   5.970   4.323   6.771
 5981SOL     OW18841   4.404   0.613   1.998
 5981SOL    HW118842   4.315   0.581   2.030
 5981SOL    HW218843   4.391   0.680   1.926
 5982SOL     OW18844   6.736   1.751   6.549
 5982SOL    HW118845   6.833   1.726   6.539
 5982SOL    HW218846   6.689   1.680   6.602
 5983SOL     OW18847   0.992   0.972   4.411
 5983SOL    HW118848   0.981   0.873   4.410
 5983SOL    HW218849   0.903   1.016   4.402
 5984SOL     OW18850   0.020   0.055   5.345
 5984SOL    HW118851   0.057   0.071   5.436
 5984SOL    HW218852   6.955   0.098   5.337
 5985SOL     OW18853   4.232   2.347   4.212
 5985SOL    HW118854   4.269   2.254   4.223
 5985SOL    HW218855   4.307   2.411   4.198
 5986SOL     OW18856   3.481   3.034   2.664
 5986SOL    HW118857   3.409   2.988   2.613
 5986SOL    HW218858   3.442   3.108   2.718
 5987SOL     OW18859   3.724   0.484   5.343
 5987SOL    HW118860   3.791   0.436   5.287
 5987SOL    HW218861   3.636   0.486   5.295
 5988SOL     OW18862   3.821   0.665   4.033
 5988SOL    HW118863   3.843   0.726   3.956
 5988SOL    HW218864   3.905   0.622   4.065
 5989SOL     OW18865   2.881   0.804   6.071
 5989SOL    HW118866   2.880   0.889   6.018
 5989SOL    HW218867   2.790   0.788   6.110
 5990SOL     OW18868   3.178   4.671   1.736
 5990SOL    HW118869   3.121   4.592   1.713
 5990SOL    HW218870   3.271   4.655   1.705
 5991SOL     OW18871   2.832   5.131   3.987
 5991SOL    HW118872   2.786   5.113   3.900
 5991SOL    HW218873   2.791   5.076   4.059
 5992SOL     OW18874   4.426   0.555   4.074
 5992SOL    HW118875   4.519   0.520   4.084
 5992SOL    HW218876   4.361   0.484   4.098
 5993SOL     OW18877   3.039   5.628   5.042
 5993SOL    HW118878   2.972   5.567   4.999
 5993SOL    HW218879   3.118   5.574   5.072
 5994SOL     OW18880   0.137   1.775   2.239
 5994SOL    HW118881   0.092   1.857   2.275
 5994SOL    HW218882   0.138   1.780   2.139
 5995SOL     OW18883   6.875   3.812   1.625
 5995SOL    HW118884   6.786   3.780   1.592
 5995SOL    HW218885   6.911   3.747   1.691
 5996SOL     OW18886   0.845   5.218   5.920
 5996SOL    HW118887   0.860   5.208   6.019
 5996SOL    HW218888   0.799   5.305   5.903
 5997SOL     OW18889   0.409   6.462   2.293
 5997SOL    HW118890   0.457   6.433   2.376
 5997SOL    HW218891   0.382   6.558   2.301
 5998SOL     OW18892   5.082   1.744   3.051
 5998SOL    HW118893   4.998   1.694   3.030
 5998SOL    HW218894   5.066   1.807   3.127
 5999SOL     OW18895   1.715   1.479   2.603
 5999SOL    HW118896   1.718   1.388   2.645
 5999SOL    HW218897   1.689   1.546   2.672
 6000SOL     OW18898   4.561   6.023   2.262
 6000SOL    HW118899   4.623   6.005   2.339
 6000SOL    HW218900   4.555   6.122   2.247
 6001SOL     OW18901   6.229   2.045   6.995
 6001SOL    HW118902   6.198   1.959   6.953
 6001SOL    HW218903   6.167   2.070   0.044
 6002SOL     OW18904   1.537   0.276   1.956
 6002SOL    HW118905   1.609   0.262   1.888
 6002SOL    HW218906   1.571   0.247   2.046
 6003SOL     OW18907   4.689   4.178   4.205
 6003SOL    HW118908   4.779   4.207   4.236
 6003SOL    HW218909   4.651   4.112   4.269
 6004SOL     OW18910   6.821   3.786   2.660
 6004SOL    HW118911   6.777   3.873   2.683
 6004SOL    HW218912   6.792   3.757   2.568
 6005SOL     OW18913   3.085   6.152   2.896
 6005SOL    HW118914   3.031   6.076   2.932
 6005SOL    HW218915   3.101   6.138   2.798
 6006SOL     OW18916   2.159   6.472   0.153
 6006SOL    HW118917   2.128   6.534   0.081
 6006SOL    HW218918   2.162   6.521   0.240
 6007SOL     OW18919   5.590   2.610   3.838
 6007SOL    HW118920   5.639   2.694   3.816
 6007SOL    HW218921   5.496   2.616   3.805
 6008SOL     OW18922   3.461   4.888   6.430
 6008SOL    HW118923   3.501   4.879   6.521
 6008SOL    HW218924   3.500   4.817   6.370
 6009SOL     OW18925   3.221   2.124   4.039
 6009SOL    HW118926   3.220   2.051   4.107
 6009SOL    HW218927   3.229   2.084   3.947
 6010SOL     OW18928   1.476   3.334   3.326
 6010SOL    HW118929   1.506   3.423   3.362
 6010SOL    HW218930   1.514   3.261   3.383
 6011SOL     OW18931   6.235   3.018   3.105
 6011SOL    HW118932   6.161   2.952   3.093
 6011SOL    HW218933   6.197   3.107   3.131
 6012SOL     OW18934   6.812   3.428   0.567
 6012SOL    HW118935   6.836   3.359   0.499
 6012SOL    HW218936   6.781   3.511   0.522
 6013SOL     OW18937   5.684   1.244   2.524
 6013SOL    HW118938   5.688   1.219   2.427
 6013SOL    HW218939   5.649   1.338   2.533
 6014SOL     OW18940   6.036   0.507   0.877
 6014SOL    HW118941   6.112   0.449   0.907
 6014SOL    HW218942   6.065   0.603   0.880
 6015SOL     OW18943   5.582   2.086   4.663
 6015SOL    HW118944   5.532   1.999   4.667
 6015SOL    HW218945   5.517   2.162   4.669
 6016SOL     OW18946   2.121   6.623   5.407
 6016SOL    HW118947   2.047   6.660   5.351
 6016SOL    HW218948   2.185   6.573   5.348
 6017SOL     OW18949   6.736   4.782   2.864
 6017SOL    HW118950   6.764   4.692   2.830
 6017SOL    HW218951   6.697   4.835   2.789
 6018SOL     OW18952   2.166   4.957   0.859
 6018SOL    HW118953   2.095   4.894   0.890
 6018SOL    HW218954   2.213   4.919   0.779
 6019SOL     OW18955   4.226   0.053   4.163
 6019SOL    HW118956   4.260   0.105   4.085
 6019SOL    HW218957   4.196   6.987   4.132
 6020SOL     OW18958   3.694   0.341   2.763
 6020SOL    HW118959   3.779   0.346   2.712
 6020SOL    HW218960   3.620   0.381   2.709
 6021SOL     OW18961   3.878   1.350   2.868
 6021SOL    HW118962   3.814   1.344   2.945
 6021SOL    HW218963   3.957   1.292   2.886
 6022SOL     OW18964   4.310   1.912   5.109
 6022SOL    HW118965   4.386   1.921   5.044
 6022SOL    HW218966   4.257   1.997   5.111
 6023SOL     OW18967   6.882   1.383   2.566
 6023SOL    HW118968   6.926   1.452   2.509
 6023SOL    HW218969   6.818   1.330   2.510
 6024SOL     OW18970   0.687   4.863   2.923
 6024SOL    HW118971   0.636   4.908   2.996
 6024SOL    HW218972   0.662   4.904   2.835
 6025SOL     OW18973   4.431   2.096   1.464
 6025SOL    HW118974   4.450   2.121   1.558
 6025SOL    HW218975   4.362   2.158   1.426
 6026SOL     OW18976   0.415   4.455   5.444
 6026SOL    HW118977   0.409   4.357   5.465
 6026SOL    HW218978   0.333   4.501   5.477
 6027SOL     OW18979   3.129   3.639   0.615
 6027SOL    HW118980   3.212   3.611   0.567
 6027SOL    HW218981   3.053   3.580   0.588
 6028SOL     OW18982   1.831   3.394   0.548
 6028SOL    HW118983   1.750   3.397   0.607
 6028SOL    HW218984   1.862   3.300   0.539
 6029SOL     OW18985   1.737   5.105   1.504
 6029SOL    HW118986   1.648   5.059   1.498
 6029SOL    HW218987   1.804   5.055   1.449
 6030SOL     OW18988   2.373   0.368   1.163
 6030SOL    HW118989   2.352   0.354   1.066
 6030SOL    HW218990   2.316   0.306   1.218
 6031SOL     OW18991   5.071   0.335   5.011
 6031SOL    HW118992   5.027   0.329   5.101
 6031SOL    HW218993   5.018   0.397   4.953
 6032SOL     OW18994   0.448   3.449   2.646
 6032SOL    HW118995   0.385   3.423   2.719
 6032SOL    HW218996   0.542   3.434   2.677
 6033SOL     OW18997   1.060   0.294   4.493
 6033SOL    HW118998   1.052   0.272   4.396
 6033SOL    HW218999   1.101   0.217   4.542
 6034SOL     OW19000   2.295   3.940   5.713
 6034SOL    HW119001   2.229   3.978   5.649
 6034SOL    HW219002   2.381   3.922   5.665
 6035SOL     OW19003   6.094   1.379   4.278
 6035SOL    HW119004   6.158   1.455   4.272
 6035SOL    HW219005   6.144   1.293   4.268
 6036SOL     OW19006   6.926   0.310   4.704
 6036SOL    HW119007   7.001   0.293   4.640
 6036SOL    HW219008   6.875   0.226   4.718
 6037SOL     OW19009   6.575   5.078   4.847
 6037SOL    HW119010   6.543   5.124   4.764
 6037SOL    HW219011   6.516   5.104   4.924
 6038SOL     OW19012   4.773   3.958   6.525
 6038SOL    HW119013   4.705   3.973   6.453
 6038SOL    HW219014   4.820   3.872   6.510
 6039SOL     OW19015   3.342   4.150   3.018
 6039SOL    HW119016   3.277   4.138   2.943
 6039SOL    HW219017   3.297   4.127   3.105
 6040SOL     OW19018   0.401   1.806   0.176
 6040SOL    HW119019   0.401   1.889   0.231
 6040SOL    HW219020   0.492   1.764   0.178
 6041SOL     OW19021   0.405   2.686   0.448
 6041SOL    HW119022   0.439   2.621   0.516
 6041SOL    HW219023   0.474   2.756   0.431
 6042SOL     OW19024   5.189   5.063   3.544
 6042SOL    HW119025   5.138   5.147   3.567
 6042SOL    HW219026   5.285   5.075   3.568
 6043SOL     OW19027   0.991   4.629   4.238
 6043SOL    HW119028   0.938   4.621   4.323
 6043SOL    HW219029   0.951   4.700   4.180
 6044SOL     OW19030   1.045   0.592   1.687
 6044SOL    HW119031   0.961   0.625   1.730
 6044SOL    HW219032   1.062   0.497   1.716
 6045SOL     OW19033   0.304   4.103   1.712
 6045SOL    HW119034   0.218   4.136   1.748
 6045SOL    HW219035   0.292   4.077   1.616
 6046SOL     OW19036   2.745   2.710   0.762
 6046SOL    HW119037   2.727   2.719   0.665
 6046SOL    HW219038   2.793   2.792   0.795
 6047SOL     OW19039   6.924   6.508   4.648
 6047SOL    HW119040   6.919   6.413   4.618
 6047SOL    HW219041   6.986   6.558   4.587
 6048SOL     OW19042   4.512   6.653   4.960
 6048SOL    HW119043   4.594   6.711   4.957
 6048SOL    HW219044   4.483   6.642   5.055
 6049SOL     OW19045   6.446   5.349   1.170
 6049SOL    HW119046   6.535   5.395   1.170
 6049SOL    HW219047   6.393   5.380   1.091
 6050SOL     OW19048   4.843   4.409   5.134
 6050SOL    HW119049   4.851   4.489   5.194
 6050SOL    HW219050   4.932   4.389   5.092
 6051SOL     OW19051   1.792   1.929   2.952
 6051SOL    HW119052   1.833   1.848   2.995
 6051SOL    HW219053   1.708   1.902   2.905
 6052SOL     OW19054   6.641   0.909   0.190
 6052SOL    HW119055   6.644   0.887   0.288
 6052SOL    HW219056   6.548   0.897   0.157
 6053SOL     OW19057   1.897   0.158   6.161
 6053SOL    HW119058   1.843   0.132   6.240
 6053SOL    HW219059   1.994   0.145   6.181
 6054SOL     OW19060   2.400   4.860   0.309
 6054SOL    HW119061   2.412   4.780   0.368
 6054SOL    HW219062   2.377   4.940   0.366
 6055SOL     OW19063   4.999   0.458   4.453
 6055SOL    HW119064   5.085   0.450   4.503
 6055SOL    HW219065   5.011   0.519   4.375
 6056SOL     OW19066   4.891   2.376   6.319
 6056SOL    HW119067   4.866   2.473   6.327
 6056SOL    HW219068   4.984   2.369   6.281
 6057SOL     OW19069   3.687   0.962   5.704
 6057SOL    HW119070   3.746   0.951   5.784
 6057SOL    HW219071   3.593   0.975   5.734
 6058SOL     OW19072   5.689   1.650   4.534
 6058SOL    HW119073   5.783   1.664   4.506
 6058SOL    HW219074   5.679   1.671   4.631
 6059SOL     OW19075   0.182   4.874   6.385
 6059SOL    HW119076   0.117   4.929   6.334
 6059SOL    HW219077   0.150   4.865   6.480
 6060SOL     OW19078   4.427   6.840   5.644
 6060SOL    HW119079   4.428   6.778   5.722
 6060SOL    HW219080   4.519   6.876   5.628
 6061SOL     OW19081   2.335   2.003   6.601
 6061SOL    HW119082   2.238   1.982   6.599
 6061SOL    HW219083   2.370   2.006   6.507
 6062SOL     OW19084   2.449   0.280   4.214
 6062SOL    HW119085   2.527   0.339   4.232
 6062SOL    HW219086   2.481   0.193   4.176
 6063SOL     OW19087   4.381   0.326   6.886
 6063SOL    HW119088   4.370   0.267   6.966
 6063SOL    HW219089   4.293   0.334   6.839
 6064SOL     OW19090   1.429   5.848   3.562
 6064SOL    HW119091   1.448   5.751   3.578
 6064SOL    HW219092   1.512   5.902   3.580
 6065SOL     OW19093   0.195   0.539   0.851
 6065SOL    HW119094   0.160   0.473   0.785
 6065SOL    HW219095   0.254   0.605   0.805
 6066SOL     OW19096   4.533   2.977   6.592
 6066SOL    HW119097   4.591   2.970   6.674
 6066SOL    HW219098   4.517   2.886   6.555
 6067SOL     OW19099   6.084   1.824   6.915
 6067SOL    HW119100   5.992   1.809   6.949
 6067SOL    HW219101   6.085   1.815   6.815
 6068SOL     OW19102   4.623   2.866   5.072
 6068SOL    HW119103   4.637   2.813   4.988
 6068SOL    HW219104   4.555   2.820   5.129
 6069SOL     OW19105   6.487   3.820   4.202
 6069SOL    HW119106   6.527   3.769   4.126
 6069SOL    HW219107   6.387   3.815   4.196
 6070SOL     OW19108   4.081   2.186   6.302
 6070SOL    HW119109   4.176   2.157   6.310
 6070SOL    HW219110   4.057   2.244   6.380
 6071SOL     OW19111   4.310   6.126   4.950
 6071SOL    HW119112   4.358   6.177   4.879
 6071SOL    HW219113   4.301   6.183   5.032
 6072SOL     OW19114   0.562   1.863   0.796
 6072SOL    HW119115   0.516   1.850   0.884
 6072SOL    HW219116   0.652   1.820   0.798
 6073SOL     OW19117   6.712   2.381   1.205
 6073SOL    HW119118   6.795   2.368   1.152
 6073SOL    HW219119   6.728   2.352   1.300
 6074SOL     OW19120   0.415   0.153   4.206
 6074SOL    HW119121   0.356   0.100   4.145
 6074SOL    HW219122   0.420   0.248   4.175
 6075SOL     OW19123   5.505   3.921   6.825
 6075SOL    HW119124   5.523   3.903   6.921
 6075SOL    HW219125   5.581   3.974   6.786
 6076SOL     OW19126   1.936   6.163   4.339
 6076SOL    HW119127   1.976   6.122   4.257
 6076SOL    HW219128   1.880   6.095   4.387
 6077SOL     OW19129   6.016   5.901   1.913
 6077SOL    HW119130   6.040   5.897   1.816
 6077SOL    HW219131   5.957   5.822   1.935
 6078SOL     OW19132   2.488   4.708   3.537
 6078SOL    HW119133   2.464   4.631   3.478
 6078SOL    HW219134   2.584   4.733   3.522
 6079SOL     OW19135   2.065   1.493   0.419
 6079SOL    HW119136   2.111   1.525   0.336
 6079SOL    HW219137   2.007   1.414   0.396
 6080SOL     OW19138   5.785   2.450   2.149
 6080SOL    HW119139   5.837   2.367   2.131
 6080SOL    HW219140   5.846   2.529   2.146
 6081SOL     OW19141   0.542   4.014   3.093
 6081SOL    HW119142   0.521   4.089   3.030
 6081SOL    HW219143   0.504   3.929   3.057
 6082SOL     OW19144   4.195   1.605   3.837
 6082SOL    HW119145   4.137   1.667   3.890
 6082SOL    HW219146   4.151   1.586   3.749
 6083SOL     OW19147   1.581   6.833   0.285
 6083SOL    HW119148   1.642   6.812   0.361
 6083SOL    HW219149   1.601   6.924   0.250
 6084SOL     OW19150   0.811   4.997   5.577
 6084SOL    HW119151   0.874   5.074   5.593
 6084SOL    HW219152   0.717   5.029   5.584
 6085SOL     OW19153   4.951   3.899   1.136
 6085SOL    HW119154   4.990   3.918   1.046
 6085SOL    HW219155   4.916   3.984   1.176
 6086SOL     OW19156   2.708   1.448   3.435
 6086SOL    HW119157   2.659   1.525   3.477
 6086SOL    HW219158   2.643   1.377   3.410
 6087SOL     OW19159   5.099   6.718   6.947
 6087SOL    HW119160   5.003   6.707   6.974
 6087SOL    HW219161   5.113   6.811   6.912
 6088SOL     OW19162   0.385   0.159   4.484
 6088SOL    HW119163   0.381   0.149   4.385
 6088SOL    HW219164   0.337   0.241   4.512
 6089SOL     OW19165   0.574   3.328   0.087
 6089SOL    HW119166   0.518   3.368   0.160
 6089SOL    HW219167   0.517   3.267   0.031
 6090SOL     OW19168   6.919   6.229   4.536
 6090SOL    HW119169   6.905   6.130   4.534
 6090SOL    HW219170   6.860   6.273   4.467
 6091SOL     OW19171   6.037   1.806   1.897
 6091SOL    HW119172   5.956   1.758   1.865
 6091SOL    HW219173   6.106   1.739   1.925
 6092SOL     OW19174   1.796   2.472   1.871
 6092SOL    HW119175   1.749   2.552   1.833
 6092SOL    HW219176   1.854   2.500   1.947
 6093SOL     OW19177   0.789   3.287   1.200
 6093SOL    HW119178   0.722   3.362   1.200
 6093SOL    HW219179   0.769   3.225   1.275
 6094SOL     OW19180   1.271   0.795   1.257
 6094SOL    HW119181   1.352   0.743   1.285
 6094SOL    HW219182   1.227   0.833   1.338
 6095SOL     OW19183   6.798   3.821   5.790
 6095SOL    HW119184   6.745   3.771   5.858
 6095SOL    HW219185   6.817   3.762   5.712
 6096SOL     OW19186   3.619   1.786   2.996
 6096SOL    HW119187   3.645   1.882   2.988
 6096SOL    HW219188   3.520   1.778   3.007
 6097SOL     OW19189   3.136   2.111   2.060
 6097SOL    HW119190   3.173   2.120   2.152
 6097SOL    HW219191   3.049   2.161   2.054
 6098SOL     OW19192   1.737   2.194   5.723
 6098SOL    HW119193   1.747   2.209   5.822
 6098SOL    HW219194   1.646   2.157   5.705
 6099SOL     OW19195   6.286   5.458   4.938
 6099SOL    HW119196   6.242   5.543   4.965
 6099SOL    HW219197   6.341   5.423   5.014
 6100SOL     OW19198   6.461   2.686   0.032
 6100SOL    HW119199   6.509   2.623   0.093
 6100SOL    HW219200   6.514   2.771   0.023
 6101SOL     OW19201   6.276   1.486   4.893
 6101SOL    HW119202   6.302   1.398   4.855
 6101SOL    HW219203   6.180   1.504   4.873
 6102SOL     OW19204   2.835   0.603   5.402
 6102SOL    HW119205   2.757   0.550   5.367
 6102SOL    HW219206   2.832   0.603   5.502
 6103SOL     OW19207   6.624   6.939   5.936
 6103SOL    HW119208   6.638   6.873   6.011
 6103SOL    HW219209   6.708   6.992   5.923
 6104SOL     OW19210   0.908   2.722   0.114
 6104SOL    HW119211   0.965   2.763   0.043
 6104SOL    HW219212   0.966   2.679   0.183
 6105SOL     OW19213   3.495   5.924   4.416
 6105SOL    HW119214   3.592   5.948   4.410
 6105SOL    HW219215   3.460   5.907   4.324
 6106SOL     OW19216   3.037   5.775   5.435
 6106SOL    HW119217   2.942   5.797   5.413
 6106SOL    HW219218   3.050   5.676   5.431
 6107SOL     OW19219   2.214   4.333   5.505
 6107SOL    HW119220   2.252   4.243   5.486
 6107SOL    HW219221   2.140   4.325   5.571
 6108SOL     OW19222   0.135   2.246   4.846
 6108SOL    HW119223   0.197   2.299   4.903
 6108SOL    HW219224   0.134   2.151   4.876
 6109SOL     OW19225   6.599   4.639   1.291
 6109SOL    HW119226   6.638   4.547   1.295
 6109SOL    HW219227   6.665   4.705   1.328
 6110SOL     OW19228   2.966   1.593   4.623
 6110SOL    HW119229   3.059   1.563   4.642
 6110SOL    HW219230   2.932   1.547   4.540
 6111SOL     OW19231   1.222   5.001   2.880
 6111SOL    HW119232   1.134   4.955   2.873
 6111SOL    HW219233   1.245   5.016   2.976
 6112SOL     OW19234   0.276   1.889   2.839
 6112SOL    HW119235   0.206   1.914   2.772
 6112SOL    HW219236   0.263   1.794   2.867
 6113SOL     OW19237   1.578   6.054   5.261
 6113SOL    HW119238   1.486   6.089   5.281
 6113SOL    HW219239   1.644   6.095   5.323
 6114SOL     OW19240   4.856   5.548   0.790
 6114SOL    HW119241   4.924   5.562   0.718
 6114SOL    HW219242   4.801   5.467   0.769
 6115SOL     OW19243   6.049   4.997   2.495
 6115SOL    HW119244   5.973   4.938   2.468
 6115SOL    HW219245   6.017   5.092   2.500
 6116SOL     OW19246   4.422   0.884   1.871
 6116SOL    HW119247   4.323   0.878   1.862
 6116SOL    HW219248   4.446   0.910   1.964
 6117SOL     OW19249   5.212   0.389   4.643
 6117SOL    HW119250   5.309   0.388   4.617
 6117SOL    HW219251   5.192   0.307   4.697
 6118SOL     OW19252   6.011   0.082   3.484
 6118SOL    HW119253   5.990   0.017   3.410
 6118SOL    HW219254   6.110   0.089   3.494
 6119SOL     OW19255   6.708   4.973   4.215
 6119SOL    HW119256   6.623   4.935   4.252
 6119SOL    HW219257   6.687   5.054   4.160
 6120SOL     OW19258   2.690   0.780   3.156
 6120SOL    HW119259   2.769   0.834   3.185
 6120SOL    HW219260   2.713   0.730   3.072
 6121SOL     OW19261   6.789   2.404   4.546
 6121SOL    HW119262   6.762   2.336   4.614
 6121SOL    HW219263   6.820   2.357   4.463
 6122SOL     OW19264   4.871   5.777   3.272
 6122SOL    HW119265   4.804   5.746   3.338
 6122SOL    HW219266   4.959   5.791   3.317
 6123SOL     OW19267   5.713   0.933   2.139
 6123SOL    HW119268   5.635   0.874   2.159
 6123SOL    HW219269   5.793   0.877   2.117
 6124SOL     OW19270   3.503   0.395   5.714
 6124SOL    HW119271   3.456   0.399   5.626
 6124SOL    HW219272   3.595   0.357   5.701
 6125SOL     OW19273   2.091   5.157   1.806
 6125SOL    HW119274   2.048   5.154   1.716
 6125SOL    HW219275   2.024   5.134   1.876
 6126SOL     OW19276   5.400   5.512   2.451
 6126SOL    HW119277   5.409   5.490   2.548
 6126SOL    HW219278   5.431   5.606   2.436
 6127SOL     OW19279   2.306   4.713   1.686
 6127SOL    HW119280   2.298   4.615   1.706
 6127SOL    HW219281   2.401   4.742   1.703
 6128SOL     OW19282   5.143   2.046   0.552
 6128SOL    HW119283   5.070   2.008   0.496
 6128SOL    HW219284   5.212   2.088   0.494
 6129SOL     OW19285   5.870   4.943   3.810
 6129SOL    HW119286   5.800   4.884   3.769
 6129SOL    HW219287   5.960   4.915   3.779
 6130SOL     OW19288   5.284   3.274   2.035
 6130SOL    HW119289   5.320   3.262   1.943
 6130SOL    HW219290   5.217   3.202   2.054
 6131SOL     OW19291   6.545   0.866   5.233
 6131SOL    HW119292   6.529   0.818   5.319
 6131SOL    HW219293   6.621   0.822   5.184
 6132SOL     OW19294   5.839   2.504   0.434
 6132SOL    HW119295   5.843   2.507   0.335
 6132SOL    HW219296   5.862   2.413   0.466
 6133SOL     OW19297   1.066   4.216   0.322
 6133SOL    HW119298   1.043   4.278   0.247
 6133SOL    HW219299   1.105   4.268   0.398
 6134SOL     OW19300   4.858   3.181   6.085
 6134SOL    HW119301   4.826   3.264   6.039
 6134SOL    HW219302   4.958   3.177   6.081
 6135SOL     OW19303   5.719   6.997   1.217
 6135SOL    HW119304   5.620   6.994   1.203
 6135SOL    HW219305   5.763   6.926   1.161
 6136SOL     OW19306   0.281   1.706   1.569
 6136SOL    HW119307   0.205   1.696   1.505
 6136SOL    HW219308   0.274   1.635   1.639
 6137SOL     OW19309   2.603   0.027   5.765
 6137SOL    HW119310   2.550   0.057   5.844
 6137SOL    HW219311   2.560   6.972   5.724
 6138SOL     OW19312   4.398   0.530   3.053
 6138SOL    HW119313   4.348   0.591   2.993
 6138SOL    HW219314   4.349   0.443   3.061
 6139SOL     OW19315   1.997   4.600   4.241
 6139SOL    HW119316   1.946   4.575   4.324
 6139SOL    HW219317   1.970   4.691   4.212
 6140SOL     OW19318   1.929   6.489   1.299
 6140SOL    HW119319   1.911   6.470   1.396
 6140SOL    HW219320   2.025   6.470   1.279
 6141SOL     OW19321   6.302   6.196   6.014
 6141SOL    HW119322   6.224   6.217   5.955
 6141SOL    HW219323   6.355   6.122   5.973
 6142SOL     OW19324   0.804   4.835   2.193
 6142SOL    HW119325   0.852   4.861   2.277
 6142SOL    HW219326   0.706   4.829   2.212
 6143SOL     OW19327   6.307   4.686   6.344
 6143SOL    HW119328   6.356   4.602   6.369
 6143SOL    HW219329   6.219   4.688   6.391
 6144SOL     OW19330   0.513   4.860   3.816
 6144SOL    HW119331   0.518   4.873   3.915
 6144SOL    HW219332   0.442   4.792   3.795
 6145SOL     OW19333   5.337   6.369   3.210
 6145SOL    HW119334   5.281   6.377   3.293
 6145SOL    HW219335   5.328   6.277   3.172
 6146SOL     OW19336   5.695   0.967   3.039
 6146SOL    HW119337   5.720   1.055   2.996
 6146SOL    HW219338   5.628   0.983   3.111
 6147SOL     OW19339   1.790   3.270   3.130
 6147SOL    HW119340   1.829   3.319   3.053
 6147SOL    HW219341   1.829   3.178   3.134
 6148SOL     OW19342   6.626   6.666   4.589
 6148SOL    HW119343   6.594   6.596   4.653
 6148SOL    HW219344   6.700   6.718   4.631
 6149SOL     OW19345   2.072   6.287   3.645
 6149SOL    HW119346   2.140   6.228   3.602
 6149SOL    HW219347   2.056   6.256   3.739
 6150SOL     OW19348   4.641   5.375   5.861
 6150SOL    HW119349   4.640   5.467   5.824
 6150SOL    HW219350   4.726   5.329   5.836
 6151SOL     OW19351   5.119   2.338   5.362
 6151SOL    HW119352   5.035   2.324   5.310
 6151SOL    HW219353   5.142   2.255   5.413
 6152SOL     OW19354   6.629   4.360   6.657
 6152SOL    HW119355   6.592   4.285   6.603
 6152SOL    HW219356   6.641   4.329   6.752
 6153SOL     OW19357   4.913   3.357   0.685
 6153SOL    HW119358   4.960   3.411   0.755
 6153SOL    HW219359   4.918   3.404   0.597
 6154SOL     OW19360   5.201   2.974   2.922
 6154SOL    HW119361   5.222   3.067   2.893
 6154SOL    HW219362   5.171   2.975   3.017
 6155SOL     OW19363   0.818   3.817   4.810
 6155SOL    HW119364   0.748   3.747   4.814
 6155SOL    HW219365   0.893   3.793   4.872
 6156SOL     OW19366   6.892   0.444   3.189
 6156SOL    HW119367   6.822   0.513   3.174
 6156SOL    HW219368   6.916   0.441   3.287
 6157SOL     OW19369   2.043   1.751   3.327
 6157SOL    HW119370   2.098   1.710   3.255
 6157SOL    HW219371   2.102   1.802   3.390
 6158SOL     OW19372   4.475   0.892   0.206
 6158SOL    HW119373   4.547   0.940   0.154
 6158SOL    HW219374   4.495   0.899   0.303
 6159SOL     OW19375   5.272   3.284   6.788
 6159SOL    HW119376   5.202   3.355   6.793
 6159SOL    HW219377   5.360   3.325   6.763
 6160SOL     OW19378   6.284   5.101   1.513
 6160SOL    HW119379   6.278   5.050   1.427
 6160SOL    HW219380   6.192   5.128   1.543
 6161SOL     OW19381   5.787   0.814   6.095
 6161SOL    HW119382   5.826   0.888   6.040
 6161SOL    HW219383   5.842   0.801   6.177
 6162SOL     OW19384   6.242   5.168   3.773
 6162SOL    HW119385   6.194   5.254   3.754
 6162SOL    HW219386   6.185   5.091   3.743
 6163SOL     OW19387   6.349   4.050   1.873
 6163SOL    HW119388   6.430   3.993   1.880
 6163SOL    HW219389   6.374   4.145   1.891
 6164SOL     OW19390   4.093   2.548   0.207
 6164SOL    HW119391   4.179   2.540   0.258
 6164SOL    HW219392   4.064   2.643   0.204
 6165SOL     OW19393   4.323   6.395   0.164
 6165SOL    HW119394   4.321   6.493   0.143
 6165SOL    HW219395   4.259   6.347   0.103
 6166SOL     OW19396   3.077   1.764   6.356
 6166SOL    HW119397   3.160   1.807   6.393
 6166SOL    HW219398   3.015   1.741   6.432
 6167SOL     OW19399   6.644   4.454   3.754
 6167SOL    HW119400   6.727   4.433   3.806
 6167SOL    HW219401   6.658   4.433   3.658
 6168SOL     OW19402   0.512   2.782   2.000
 6168SOL    HW119403   0.435   2.791   2.063
 6168SOL    HW219404   0.556   2.871   1.988
 6169SOL     OW19405   1.607   4.400   2.309
 6169SOL    HW119406   1.588   4.488   2.266
 6169SOL    HW219407   1.693   4.363   2.273
 6170SOL     OW19408   0.126   2.602   4.314
 6170SOL    HW119409   0.102   2.520   4.263
 6170SOL    HW219410   0.043   2.648   4.346
 6171SOL     OW19411   6.925   0.565   6.492
 6171SOL    HW119412   6.890   0.587   6.583
 6171SOL    HW219413   6.997   0.496   6.500
 6172SOL     OW19414   1.240   3.703   4.303
 6172SOL    HW119415   1.313   3.680   4.239
 6172SOL    HW219416   1.198   3.790   4.277
 6173SOL     OW19417   6.088   6.299   3.230
 6173SOL    HW119418   6.161   6.255   3.178
 6173SOL    HW219419   6.055   6.236   3.301
 6174SOL     OW19420   5.816   4.009   2.140
 6174SOL    HW119421   5.836   4.100   2.177
 6174SOL    HW219422   5.797   4.017   2.042
 6175SOL     OW19423   2.872   2.539   5.626
 6175SOL    HW119424   2.803   2.468   5.617
 6175SOL    HW219425   2.908   2.562   5.535
 6176SOL     OW19426   4.266   4.114   6.264
 6176SOL    HW119427   4.240   4.037   6.322
 6176SOL    HW219428   4.184   4.167   6.241
 6177SOL     OW19429   6.345   0.986   1.410
 6177SOL    HW119430   6.327   1.023   1.319
 6177SOL    HW219431   6.258   0.964   1.455
 6178SOL     OW19432   3.851   4.742   1.383
 6178SOL    HW119433   3.828   4.804   1.308
 6178SOL    HW219434   3.823   4.783   1.470
 6179SOL     OW19435   5.811   5.193   4.057
 6179SOL    HW119436   5.820   5.094   4.045
 6179SOL    HW219437   5.865   5.222   4.136
 6180SOL     OW19438   3.156   4.278   6.770
 6180SOL    HW119439   3.067   4.312   6.801
 6180SOL    HW219440   3.225   4.296   6.841
 6181SOL     OW19441   6.411   6.258   6.929
 6181SOL    HW119442   6.487   6.194   6.922
 6181SOL    HW219443   6.393   6.298   6.840
 6182SOL     OW19444   3.126   2.457   0.600
 6182SOL    HW119445   3.032   2.444   0.571
 6182SOL    HW219446   3.181   2.490   0.523
 6183SOL     OW19447   0.492   0.005   0.597
 6183SOL    HW119448   0.396   0.024   0.616
 6183SOL    HW219449   0.520   0.052   0.514
 6184SOL     OW19450   2.366   0.030   5.487
 6184SOL    HW119451   2.332   0.111   5.533
 6184SOL    HW219452   2.402   6.990   5.555
 6185SOL     OW19453   3.560   2.793   5.426
 6185SOL    HW119454   3.524   2.708   5.388
 6185SOL    HW219455   3.602   2.847   5.354
 6186SOL     OW19456   0.270   1.554   1.811
 6186SOL    HW119457   0.346   1.519   1.865
 6186SOL    HW219458   0.222   1.478   1.767
 6187SOL     OW19459   4.234   1.373   5.840
 6187SOL    HW119460   4.279   1.461   5.828
 6187SOL    HW219461   4.140   1.378   5.808
 6188SOL     OW19462   1.044   1.356   4.869
 6188SOL    HW119463   1.082   1.280   4.923
 6188SOL    HW219464   1.118   1.421   4.848
 6189SOL     OW19465   6.473   6.202   1.373
 6189SOL    HW119466   6.536   6.260   1.425
 6189SOL    HW219467   6.434   6.254   1.297
 6190SOL     OW19468   1.076   2.834   4.943
 6190SOL    HW119469   1.156   2.835   5.003
 6190SOL    HW219470   1.055   2.927   4.913
 6191SOL     OW19471   4.001   3.574   0.154
 6191SOL    HW119472   3.946   3.551   0.234
 6191SOL    HW219473   4.094   3.595   0.183
 6192SOL     OW19474   2.878   1.280   0.437
 6192SOL    HW119475   2.851   1.216   0.508
 6192SOL    HW219476   2.849   1.246   0.348
 6193SOL     OW19477   4.568   5.617   0.031
 6193SOL    HW119478   4.621   5.545   0.077
 6193SOL    HW219479   4.631   5.681   7.012
 6194SOL     OW19480   5.898   0.004   6.693
 6194SOL    HW119481   5.875   7.014   6.790
 6194SOL    HW219482   5.951   0.088   6.684
 6195SOL     OW19483   6.252   6.359   6.587
 6195SOL    HW119484   6.302   6.439   6.621
 6195SOL    HW219485   6.312   6.280   6.587
 6196SOL     OW19486   5.453   3.727   2.697
 6196SOL    HW119487   5.539   3.727   2.646
 6196SOL    HW219488   5.449   3.647   2.757
 6197SOL     OW19489   2.023   5.198   1.527
 6197SOL    HW119490   1.990   5.288   1.498
 6197SOL    HW219491   1.955   5.128   1.501
 6198SOL     OW19492   5.839   1.249   6.762
 6198SOL    HW119493   5.934   1.258   6.792
 6198SOL    HW219494   5.791   1.186   6.822
 6199SOL     OW19495   1.537   0.221   6.301
 6199SOL    HW119496   1.475   0.143   6.292
 6199SOL    HW219497   1.629   0.187   6.321
 6200SOL     OW19498   1.430   1.207   2.066
 6200SOL    HW119499   1.487   1.256   2.000
 6200SOL    HW219500   1.351   1.167   2.018
 6201SOL     OW19501   0.797   4.599   3.395
 6201SOL    HW119502   0.747   4.564   3.316
 6201SOL    HW219503   0.764   4.554   3.478
 6202SOL     OW19504   5.658   1.751   2.923
 6202SOL    HW119505   5.721   1.797   2.860
 6202SOL    HW219506   5.615   1.674   2.876
 6203SOL     OW19507   6.445   0.160   1.904
 6203SOL    HW119508   6.347   0.156   1.925
 6203SOL    HW219509   6.490   0.223   1.966
 6204SOL     OW19510   1.961   6.878   4.741
 6204SOL    HW119511   1.954   6.963   4.795
 6204SOL    HW219512   2.016   6.895   4.660
 6205SOL     OW19513   5.148   4.112   3.306
 6205SOL    HW119514   5.063   4.081   3.349
 6205SOL    HW219515   5.149   4.212   3.300
 6206SOL     OW19516   5.994   1.996   4.116
 6206SOL    HW119517   5.945   2.039   4.041
 6206SOL    HW219518   6.004   1.898   4.098
 6207SOL     OW19519   1.301   5.132   4.490
 6207SOL    HW119520   1.324   5.105   4.584
 6207SOL    HW219521   1.274   5.052   4.438
 6208SOL     OW19522   3.989   3.796   6.133
 6208SOL    HW119523   4.004   3.701   6.160
 6208SOL    HW219524   4.020   3.809   6.038
 6209SOL     OW19525   3.217   2.611   1.501
 6209SOL    HW119526   3.301   2.558   1.491
 6209SOL    HW219527   3.167   2.610   1.415
 6210SOL     OW19528   4.776   2.424   4.368
 6210SOL    HW119529   4.834   2.368   4.427
 6210SOL    HW219530   4.828   2.505   4.338
 6211SOL     OW19531   5.755   4.269   5.079
 6211SOL    HW119532   5.691   4.228   5.015
 6211SOL    HW219533   5.809   4.339   5.033
 6212SOL     OW19534   4.187   5.241   4.918
 6212SOL    HW119535   4.262   5.191   4.875
 6212SOL    HW219536   4.102   5.221   4.869
 6213SOL     OW19537   4.550   5.766   0.280
 6213SOL    HW119538   4.642   5.804   0.278
 6213SOL    HW219539   4.510   5.769   0.188
 6214SOL     OW19540   6.692   6.316   5.998
 6214SOL    HW119541   6.662   6.248   5.931
 6214SOL    HW219542   6.620   6.330   6.066
 6215SOL     OW19543   5.479   2.460   5.749
 6215SOL    HW119544   5.424   2.397   5.693
 6215SOL    HW219545   5.508   2.537   5.693
 6216SOL     OW19546   4.455   2.071   3.977
 6216SOL    HW119547   4.485   1.977   3.991
 6216SOL    HW219548   4.453   2.092   3.879
 6217SOL     OW19549   0.314   4.727   3.381
 6217SOL    HW119550   0.249   4.771   3.319
 6217SOL    HW219551   0.394   4.697   3.329
 6218SOL     OW19552   4.783   6.353   0.162
 6218SOL    HW119553   4.804   6.267   0.116
 6218SOL    HW219554   4.748   6.334   0.254
 6219SOL     OW19555   1.829   1.233   6.207
 6219SOL    HW119556   1.748   1.185   6.240
 6219SOL    HW219557   1.871   1.180   6.132
 6220SOL     OW19558   3.516   6.367   0.631
 6220SOL    HW119559   3.429   6.390   0.587
 6220SOL    HW219560   3.582   6.342   0.561
 6221SOL     OW19561   5.579   6.115   6.770
 6221SOL    HW119562   5.632   6.032   6.756
 6221SOL    HW219563   5.589   6.145   6.865
 6222SOL     OW19564   6.560   1.490   1.774
 6222SOL    HW119565   6.531   1.584   1.793
 6222SOL    HW219566   6.637   1.491   1.711
 6223SOL     OW19567   0.277   4.986   4.249
 6223SOL    HW119568   0.270   5.014   4.345
 6223SOL    HW219569   0.186   4.979   4.209
 6224SOL     OW19570   3.705   0.236   6.911
 6224SOL    HW119571   3.750   0.155   6.948
 6224SOL    HW219572   3.671   0.293   6.986
 6225SOL     OW19573   4.641   6.272   6.795
 6225SOL    HW119574   4.611   6.272   6.890
 6225SOL    HW219575   4.738   6.295   6.790
 6226SOL     OW19576   1.249   0.942   4.513
 6226SOL    HW119577   1.241   0.931   4.612
 6226SOL    HW219578   1.158   0.946   4.472
 6227SOL     OW19579   2.748   4.344   5.353
 6227SOL    HW119580   2.824   4.387   5.304
 6227SOL    HW219581   2.784   4.281   5.422
 6228SOL     OW19582   0.713   3.001   3.318
 6228SOL    HW119583   0.683   2.964   3.231
 6228SOL    HW219584   0.784   3.070   3.303
 6229SOL     OW19585   0.166   2.822   4.068
 6229SOL    HW119586   0.105   2.885   4.116
 6229SOL    HW219587   0.112   2.760   4.010
 6230SOL     OW19588   0.301   0.508   1.528
 6230SOL    HW119589   0.331   0.415   1.550
 6230SOL    HW219590   0.215   0.505   1.478
 6231SOL     OW19591   2.430   5.222   6.634
 6231SOL    HW119592   2.456   5.129   6.608
 6231SOL    HW219593   2.467   5.243   6.725
 6232SOL     OW19594   3.994   0.742   6.344
 6232SOL    HW119595   4.023   0.691   6.263
 6232SOL    HW219596   4.015   0.689   6.426
 6233SOL     OW19597   0.019   3.361   1.641
 6233SOL    HW119598   7.001   3.337   1.554
 6233SOL    HW219599   6.998   3.441   1.680
 6234SOL     OW19600   4.763   5.130   4.627
 6234SOL    HW119601   4.795   5.181   4.706
 6234SOL    HW219602   4.732   5.193   4.556
 6235SOL     OW19603   0.402   0.267   2.610
 6235SOL    HW119604   0.358   0.215   2.683
 6235SOL    HW219605   0.461   0.337   2.649
 6236SOL     OW19606   0.267   5.656   1.383
 6236SOL    HW119607   0.274   5.679   1.481
 6236SOL    HW219608   0.354   5.678   1.338
 6237SOL     OW19609   3.232   1.127   1.446
 6237SOL    HW119610   3.220   1.201   1.513
 6237SOL    HW219611   3.159   1.060   1.458
 6238SOL     OW19612   2.115   0.547   3.627
 6238SOL    HW119613   2.193   0.515   3.681
 6238SOL    HW219614   2.069   0.468   3.585
 6239SOL     OW19615   4.534   1.766   4.328
 6239SOL    HW119616   4.595   1.688   4.331
 6239SOL    HW219617   4.465   1.757   4.400
 6240SOL     OW19618   3.450   2.873   4.201
 6240SOL    HW119619   3.522   2.926   4.157
 6240SOL    HW219620   3.405   2.815   4.133
 6241SOL     OW19621   3.162   0.441   3.755
 6241SOL    HW119622   3.131   0.536   3.760
 6241SOL    HW219623   3.160   0.409   3.660
 6242SOL     OW19624   2.475   1.919   3.053
 6242SOL    HW119625   2.451   1.837   3.001
 6242SOL    HW219626   2.563   1.954   3.022
 6243SOL     OW19627   4.559   1.958   6.361
 6243SOL    HW119628   4.514   1.869   6.350
 6243SOL    HW219629   4.653   1.952   6.326
 6244SOL     OW19630   5.186   3.364   2.321
 6244SOL    HW119631   5.248   3.442   2.325
 6244SOL    HW219632   5.170   3.338   2.226
 6245SOL     OW19633   0.134   4.519   2.261
 6245SOL    HW119634   0.169   4.432   2.225
 6245SOL    HW219635   0.034   4.519   2.255
 6246SOL     OW19636   6.847   6.592   3.877
 6246SOL    HW119637   6.794   6.672   3.847
 6246SOL    HW219638   6.832   6.516   3.814
 6247SOL     OW19639   6.056   6.306   3.817
 6247SOL    HW119640   6.065   6.405   3.828
 6247SOL    HW219641   6.146   6.264   3.806
 6248SOL     OW19642   3.743   2.861   5.764
 6248SOL    HW119643   3.839   2.851   5.739
 6248SOL    HW219644   3.701   2.771   5.772
 6249SOL     OW19645   5.924   2.708   1.988
 6249SOL    HW119646   5.838   2.744   2.025
 6249SOL    HW219647   5.907   2.662   1.901
 6250SOL     OW19648   6.097   0.083   0.066
 6250SOL    HW119649   6.059   0.152   0.128
 6250SOL    HW219650   6.028   0.060   7.022
 6251SOL     OW19651   2.751   0.459   3.984
 6251SOL    HW119652   2.810   0.491   4.058
 6251SOL    HW219653   2.669   0.516   3.979
 6252SOL     OW19654   3.296   5.821   6.491
 6252SOL    HW119655   3.275   5.903   6.544
 6252SOL    HW219656   3.243   5.821   6.406
 6253SOL     OW19657   3.805   5.749   4.471
 6253SOL    HW119658   3.849   5.690   4.538
 6253SOL    HW219659   3.806   5.843   4.503
 6254SOL     OW19660   0.333   0.098   1.434
 6254SOL    HW119661   0.256   0.131   1.379
 6254SOL    HW219662   0.342   0.154   1.516
 6255SOL     OW19663   0.987   1.507   0.823
 6255SOL    HW119664   1.016   1.575   0.890
 6255SOL    HW219665   1.053   1.431   0.823
 6256SOL     OW19666   5.658   5.941   2.247
 6256SOL    HW119667   5.705   5.854   2.258
 6256SOL    HW219668   5.667   5.972   2.152
 6257SOL     OW19669   2.998   4.046   1.073
 6257SOL    HW119670   3.030   4.132   1.112
 6257SOL    HW219671   3.020   4.042   0.976
 6258SOL     OW19672   4.520   5.400   5.250
 6258SOL    HW119673   4.438   5.345   5.269
 6258SOL    HW219674   4.588   5.343   5.204
 6259SOL     OW19675   3.625   0.705   4.232
 6259SOL    HW119676   3.654   0.625   4.284
 6259SOL    HW219677   3.693   0.727   4.163
 6260SOL     OW19678   1.787   1.220   6.591
 6260SOL    HW119679   1.873   1.223   6.642
 6260SOL    HW219680   1.758   1.124   6.581
 6261SOL     OW19681   3.915   0.130   0.565
 6261SOL    HW119682   3.966   0.047   0.544
 6261SOL    HW219683   3.818   0.116   0.544
 6262SOL     OW19684   5.525   0.910   2.673
 6262SOL    HW119685   5.623   0.920   2.655
 6262SOL    HW219686   5.481   1.000   2.670
 6263SOL     OW19687   5.350   6.244   5.380
 6263SOL    HW119688   5.365   6.343   5.379
 6263SOL    HW219689   5.281   6.221   5.449
 6264SOL     OW19690   2.439   6.616   0.193
 6264SOL    HW119691   2.388   6.594   0.276
 6264SOL    HW219692   2.375   6.638   0.119
 6265SOL     OW19693   4.841   6.884   6.530
 6265SOL    HW119694   4.895   6.943   6.470
 6265SOL    HW219695   4.744   6.908   6.521
 6266SOL     OW19696   2.860   5.113   3.185
 6266SOL    HW119697   2.788   5.175   3.153
 6266SOL    HW219698   2.836   5.079   3.276
 6267SOL     OW19699   1.760   6.690   4.760
 6267SOL    HW119700   1.740   6.681   4.857
 6267SOL    HW219701   1.839   6.749   4.747
 6268SOL     OW19702   2.963   1.628   0.287
 6268SOL    HW119703   2.977   1.582   0.375
 6268SOL    HW219704   2.908   1.711   0.302
 6269SOL     OW19705   6.398   4.997   0.216
 6269SOL    HW119706   6.369   5.093   0.213
 6269SOL    HW219707   6.422   4.966   0.125
 6270SOL     OW19708   2.063   6.111   0.816
 6270SOL    HW119709   1.989   6.049   0.843
 6270SOL    HW219710   2.089   6.168   0.894
 6271SOL     OW19711   6.726   3.234   5.939
 6271SOL    HW119712   6.715   3.161   6.006
 6271SOL    HW219713   6.790   3.302   5.973
 6272SOL     OW19714   6.944   0.013   0.115
 6272SOL    HW119715   6.910   0.069   0.039
 6272SOL    HW219716   6.895   0.039   0.198
 6273SOL     OW19717   0.566   6.204   1.839
 6273SOL    HW119718   0.510   6.231   1.760
 6273SOL    HW219719   0.559   6.272   1.911
 6274SOL     OW19720   3.057   5.295   3.510
 6274SOL    HW119721   3.099   5.297   3.419
 6274SOL    HW219722   3.129   5.284   3.579
 6275SOL     OW19723   2.678   5.628   6.528
 6275SOL    HW119724   2.761   5.646   6.476
 6275SOL    HW219725   2.647   5.535   6.510
 6276SOL     OW19726   1.977   5.096   2.512
 6276SOL    HW119727   1.892   5.096   2.459
 6276SOL    HW219728   1.995   5.188   2.547
 6277SOL     OW19729   5.645   2.591   1.014
 6277SOL    HW119730   5.561   2.552   1.053
 6277SOL    HW219731   5.671   2.672   1.065
 6278SOL     OW19732   3.327   2.096   0.105
 6278SOL    HW119733   3.279   2.095   0.017
 6278SOL    HW219734   3.268   2.054   0.175
 6279SOL     OW19735   3.380   6.603   1.843
 6279SOL    HW119736   3.342   6.573   1.756
 6279SOL    HW219737   3.480   6.602   1.838
 6280SOL     OW19738   5.739   2.600   6.576
 6280SOL    HW119739   5.800   2.624   6.501
 6280SOL    HW219740   5.683   2.521   6.550
 6281SOL     OW19741   5.399   3.938   5.718
 6281SOL    HW119742   5.360   3.990   5.642
 6281SOL    HW219743   5.499   3.941   5.714
 6282SOL     OW19744   0.077   3.212   6.001
 6282SOL    HW119745   0.031   3.132   6.039
 6282SOL    HW219746   0.140   3.250   6.069
 6283SOL     OW19747   1.929   6.465   4.839
 6283SOL    HW119748   1.866   6.431   4.769
 6283SOL    HW219749   1.909   6.422   4.926
 6284SOL     OW19750   1.291   3.501   5.302
 6284SOL    HW119751   1.334   3.420   5.342
 6284SOL    HW219752   1.295   3.577   5.367
 6285SOL     OW19753   1.482   3.678   3.215
 6285SOL    HW119754   1.577   3.666   3.187
 6285SOL    HW219755   1.422   3.656   3.139
 6286SOL     OW19756   0.452   2.713   6.431
 6286SOL    HW119757   0.440   2.743   6.526
 6286SOL    HW219758   0.438   2.614   6.425
 6287SOL     OW19759   4.750   5.200   5.244
 6287SOL    HW119760   4.694   5.123   5.275
 6287SOL    HW219761   4.845   5.183   5.268
 6288SOL     OW19762   2.796   3.749   6.502
 6288SOL    HW119763   2.796   3.683   6.577
 6288SOL    HW219764   2.703   3.775   6.479
 6289SOL     OW19765   2.405   4.368   5.930
 6289SOL    HW119766   2.390   4.272   5.907
 6289SOL    HW219767   2.502   4.389   5.923
 6290SOL     OW19768   6.016   6.492   4.492
 6290SOL    HW119769   6.100   6.456   4.450
 6290SOL    HW219770   5.984   6.429   4.563
 6291SOL     OW19771   4.095   3.628   2.826
 6291SOL    HW119772   4.027   3.694   2.792
 6291SOL    HW219773   4.109   3.557   2.757
 6292SOL     OW19774   1.717   3.978   4.166
 6292SOL    HW119775   1.631   3.929   4.180
 6292SOL    HW219776   1.793   3.921   4.195
 6293SOL     OW19777   2.712   1.135   6.599
 6293SOL    HW119778   2.664   1.221   6.581
 6293SOL    HW219779   2.804   1.154   6.632
 6294SOL     OW19780   1.529   1.048   2.647
 6294SOL    HW119781   1.599   1.079   2.582
 6294SOL    HW219782   1.571   0.986   2.714
 6295SOL     OW19783   4.680   3.185   6.502
 6295SOL    HW119784   4.685   3.260   6.568
 6295SOL    HW219785   4.645   3.103   6.547
 6296SOL     OW19786   1.420   3.399   0.511
 6296SOL    HW119787   1.333   3.437   0.542
 6296SOL    HW219788   1.493   3.429   0.573
 6297SOL     OW19789   5.960   1.671   4.420
 6297SOL    HW119790   6.032   1.740   4.410
 6297SOL    HW219791   5.939   1.631   4.330
 6298SOL     OW19792   7.011   5.961   0.713
 6298SOL    HW119793   6.993   6.049   0.669
 6298SOL    HW219794   6.940   5.943   0.781
 6299SOL     OW19795   3.520   1.647   3.479
 6299SOL    HW119796   3.554   1.664   3.572
 6299SOL    HW219797   3.453   1.573   3.481
 6300SOL     OW19798   2.869   1.288   6.925
 6300SOL    HW119799   2.932   1.275   6.849
 6300SOL    HW219800   2.915   1.338   6.999
 6301SOL     OW19801   4.661   6.218   0.437
 6301SOL    HW119802   4.623   6.261   0.519
 6301SOL    HW219803   4.587   6.187   0.378
 6302SOL     OW19804   2.269   2.550   6.058
 6302SOL    HW119805   2.315   2.502   5.983
 6302SOL    HW219806   2.337   2.596   6.115
 6303SOL     OW19807   0.195   5.505   4.910
 6303SOL    HW119808   0.232   5.593   4.942
 6303SOL    HW219809   0.258   5.465   4.844
 6304SOL     OW19810   4.041   0.623   4.253
 6304SOL    HW119811   3.967   0.557   4.262
 6304SOL    HW219812   4.039   0.687   4.330
 6305SOL     OW19813   1.304   5.685   5.899
 6305SOL    HW119814   1.380   5.748   5.913
 6305SOL    HW219815   1.218   5.736   5.901
 6306SOL     OW19816   0.391   5.082   4.880
 6306SOL    HW119817   0.301   5.126   4.867
 6306SOL    HW219818   0.461   5.136   4.832
 6307SOL     OW19819   3.633   2.807   2.126
 6307SOL    HW119820   3.569   2.834   2.054
 6307SOL    HW219821   3.649   2.708   2.122
 6308SOL     OW19822   0.661   2.256   0.384
 6308SOL    HW119823   0.708   2.332   0.429
 6308SOL    HW219824   0.660   2.177   0.445
 6309SOL     OW19825   2.691   6.359   4.751
 6309SOL    HW119826   2.593   6.378   4.740
 6309SOL    HW219827   2.708   6.323   4.843
 6310SOL     OW19828   1.571   0.078   2.957
 6310SOL    HW119829   1.641   0.142   2.925
 6310SOL    HW219830   1.517   0.121   3.030
 6311SOL     OW19831   6.114   1.410   6.788
 6311SOL    HW119832   6.126   1.449   6.697
 6311SOL    HW219833   6.188   1.345   6.806
 6312SOL     OW19834   3.495   6.226   6.837
 6312SOL    HW119835   3.530   6.255   6.748
 6312SOL    HW219836   3.444   6.301   6.879
 6313SOL     OW19837   6.188   5.064   4.487
 6313SOL    HW119838   6.121   5.136   4.508
 6313SOL    HW219839   6.144   4.975   4.495
 6314SOL     OW19840   2.015   6.411   2.680
 6314SOL    HW119841   1.982   6.460   2.760
 6314SOL    HW219842   1.940   6.400   2.614
 6315SOL     OW19843   2.189   1.930   3.465
 6315SOL    HW119844   2.273   1.977   3.439
 6315SOL    HW219845   2.142   1.982   3.537
 6316SOL     OW19846   4.797   1.374   4.616
 6316SOL    HW119847   4.761   1.307   4.552
 6316SOL    HW219848   4.878   1.418   4.577
 6317SOL     OW19849   5.359   4.914   2.116
 6317SOL    HW119850   5.303   4.914   2.199
 6317SOL    HW219851   5.304   4.943   2.039
 6318SOL     OW19852   6.744   6.643   0.441
 6318SOL    HW119853   6.732   6.647   0.342
 6318SOL    HW219854   6.816   6.707   0.468
 6319SOL     OW19855   5.609   1.790   3.995
 6319SOL    HW119856   5.586   1.833   4.083
 6319SOL    HW219857   5.545   1.822   3.925
 6320SOL     OW19858   5.936   1.474   5.647
 6320SOL    HW119859   6.005   1.516   5.708
 6320SOL    HW219860   5.875   1.545   5.613
 6321SOL     OW19861   6.933   2.768   0.015
 6321SOL    HW119862   6.935   2.692   0.079
 6321SOL    HW219863   6.953   2.734   6.947
 6322SOL     OW19864   0.803   1.065   2.509
 6322SOL    HW119865   0.879   1.130   2.507
 6322SOL    HW219866   0.720   1.112   2.539
 6323SOL     OW19867   2.423   4.765   1.237
 6323SOL    HW119868   2.502   4.798   1.185
 6323SOL    HW219869   2.411   4.820   1.320
 6324SOL     OW19870   4.400   3.326   0.992
 6324SOL    HW119871   4.342   3.292   0.918
 6324SOL    HW219872   4.351   3.320   1.079
 6325SOL     OW19873   1.441   2.395   3.879
 6325SOL    HW119874   1.375   2.470   3.884
 6325SOL    HW219875   1.412   2.320   3.938
 6326SOL     OW19876   5.177   5.266   5.331
 6326SOL    HW119877   5.182   5.233   5.237
 6326SOL    HW219878   5.243   5.340   5.344
 6327SOL     OW19879   0.125   1.227   3.642
 6327SOL    HW119880   0.179   1.310   3.633
 6327SOL    HW219881   0.185   1.149   3.660
 6328SOL     OW19882   4.442   3.487   5.298
 6328SOL    HW119883   4.523   3.533   5.262
 6328SOL    HW219884   4.444   3.487   5.398
 6329SOL     OW19885   0.274   2.064   5.746
 6329SOL    HW119886   0.316   2.138   5.798
 6329SOL    HW219887   0.340   1.989   5.738
 6330SOL     OW19888   5.249   1.522   3.726
 6330SOL    HW119889   5.218   1.513   3.820
 6330SOL    HW219890   5.347   1.542   3.724
 6331SOL     OW19891   0.929   2.996   3.565
 6331SOL    HW119892   0.834   3.026   3.556
 6331SOL    HW219893   0.931   2.900   3.590
 6332SOL     OW19894   3.336   1.595   6.772
 6332SOL    HW119895   3.238   1.599   6.794
 6332SOL    HW219896   3.384   1.669   6.819
 6333SOL     OW19897   6.249   1.024   1.174
 6333SOL    HW119898   6.156   1.003   1.147
 6333SOL    HW219899   6.280   1.106   1.126
 6334SOL     OW19900   1.473   1.127   1.740
 6334SOL    HW119901   1.441   1.032   1.740
 6334SOL    HW219902   1.397   1.187   1.765
 6335SOL     OW19903   6.596   2.883   6.433
 6335SOL    HW119904   6.639   2.903   6.521
 6335SOL    HW219905   6.565   2.969   6.391
 6336SOL     OW19906   0.730   4.204   5.205
 6336SOL    HW119907   0.764   4.110   5.211
 6336SOL    HW219908   0.775   4.250   5.129
 6337SOL     OW19909   5.203   6.688   5.326
 6337SOL    HW119910   5.288   6.736   5.305
 6337SOL    HW219911   5.212   6.642   5.415
 6338SOL     OW19912   1.026   1.069   3.196
 6338SOL    HW119913   0.954   1.057   3.127
 6338SOL    HW219914   1.115   1.062   3.151
 6339SOL     OW19915   0.306   4.605   3.961
 6339SOL    HW119916   0.249   4.543   3.907
 6339SOL    HW219917   0.249   4.669   4.012
 6340SOL     OW19918   2.617   3.921   0.475
 6340SOL    HW119919   2.586   3.843   0.420
 6340SOL    HW219920   2.707   3.900   0.514
 6341SOL     OW19921   0.790   5.545   2.306
 6341SOL    HW119922   0.740   5.559   2.391
 6341SOL    HW219923   0.754   5.605   2.235
 6342SOL     OW19924   1.769   0.934   1.012
 6342SOL    HW119925   1.755   0.835   1.016
 6342SOL    HW219926   1.771   0.971   1.104
 6343SOL     OW19927   1.081   5.654   0.608
 6343SOL    HW119928   1.022   5.719   0.657
 6343SOL    HW219929   1.119   5.589   0.673
 6344SOL     OW19930   0.194   1.333   3.880
 6344SOL    HW119931   0.134   1.314   3.801
 6344SOL    HW219932   0.150   1.401   3.939
 6345SOL     OW19933   5.704   2.273   2.526
 6345SOL    HW119934   5.658   2.327   2.455
 6345SOL    HW219935   5.645   2.197   2.554
 6346SOL     OW19936   0.313   4.235   5.591
 6346SOL    HW119937   0.239   4.284   5.636
 6346SOL    HW219938   0.276   4.158   5.539
 6347SOL     OW19939   2.174   2.294   3.251
 6347SOL    HW119940   2.219   2.221   3.303
 6347SOL    HW219941   2.110   2.254   3.186
 6348SOL     OW19942   1.223   2.248   6.009
 6348SOL    HW119943   1.245   2.332   6.058
 6348SOL    HW219944   1.306   2.194   5.997
 6349SOL     OW19945   6.925   1.077   0.695
 6349SOL    HW119946   6.829   1.071   0.723
 6349SOL    HW219947   6.942   1.011   0.622
 6350SOL     OW19948   0.808   6.133   1.349
 6350SOL    HW119949   0.904   6.109   1.331
 6350SOL    HW219950   0.782   6.100   1.439
 6351SOL     OW19951   5.678   4.187   1.741
 6351SOL    HW119952   5.645   4.126   1.669
 6351SOL    HW219953   5.764   4.229   1.713
 6352SOL     OW19954   3.518   0.932   4.636
 6352SOL    HW119955   3.572   1.016   4.645
 6352SOL    HW219956   3.544   0.868   4.708
 6353SOL     OW19957   3.676   6.447   5.871
 6353SOL    HW119958   3.596   6.500   5.843
 6353SOL    HW219959   3.759   6.501   5.856
 6354SOL     OW19960   4.591   5.410   2.034
 6354SOL    HW119961   4.577   5.476   1.960
 6354SOL    HW219962   4.654   5.449   2.102
 6355SOL     OW19963   3.032   5.170   0.530
 6355SOL    HW119964   3.006   5.093   0.472
 6355SOL    HW219965   3.035   5.139   0.626
 6356SOL     OW19966   0.424   5.715   6.041
 6356SOL    HW119967   0.369   5.798   6.031
 6356SOL    HW219968   0.475   5.699   5.956
 6357SOL     OW19969   4.895   1.000   1.978
 6357SOL    HW119970   4.939   1.012   1.889
 6357SOL    HW219971   4.838   0.918   1.975
 6358SOL     OW19972   1.382   2.113   5.284
 6358SOL    HW119973   1.348   2.201   5.250
 6358SOL    HW219974   1.316   2.075   5.349
 6359SOL     OW19975   5.492   6.552   0.787
 6359SOL    HW119976   5.493   6.614   0.709
 6359SOL    HW219977   5.413   6.490   0.778
 6360SOL     OW19978   0.702   1.432   1.303
 6360SOL    HW119979   0.764   1.399   1.374
 6360SOL    HW219980   0.729   1.394   1.214
 6361SOL     OW19981   0.534   1.484   0.410
 6361SOL    HW119982   0.549   1.435   0.495
 6361SOL    HW219983   0.494   1.573   0.429
 6362SOL     OW19984   1.308   5.512   0.337
 6362SOL    HW119985   1.382   5.579   0.335
 6362SOL    HW219986   1.317   5.454   0.419
 6363SOL     OW19987   2.219   3.858   2.817
 6363SOL    HW119988   2.233   3.783   2.752
 6363SOL    HW219989   2.196   3.821   2.907
 6364SOL     OW19990   2.470   2.421   4.327
 6364SOL    HW119991   2.490   2.439   4.423
 6364SOL    HW219992   2.541   2.362   4.289
 6365SOL     OW19993   5.710   6.843   3.046
 6365SOL    HW119994   5.723   6.876   3.140
 6365SOL    HW219995   5.698   6.921   2.985
 6366SOL     OW19996   5.836   0.934   5.029
 6366SOL    HW119997   5.796   0.912   5.118
 6366SOL    HW219998   5.932   0.906   5.028
 6367SOL     OW19999   1.104   2.372   2.903
 6367SOL    HW120000   1.129   2.460   2.944
 6367SOL    HW220001   1.087   2.306   2.975
 6368SOL     OW20002   5.103   3.961   4.382
 6368SOL    HW120003   5.137   4.034   4.442
 6368SOL    HW220004   5.041   4.000   4.314
 6369SOL     OW20005   4.332   5.119   0.576
 6369SOL    HW120006   4.290   5.206   0.549
 6369SOL    HW220007   4.343   5.061   0.495
 6370SOL     OW20008   5.629   4.112   4.394
 6370SOL    HW120009   5.683   4.183   4.349
 6370SOL    HW220010   5.559   4.155   4.452
 6371SOL     OW20011   5.219   4.094   1.535
 6371SOL    HW120012   5.145   4.068   1.474
 6371SOL    HW220013   5.298   4.122   1.481
 6372SOL     OW20014   6.330   1.632   1.905
 6372SOL    HW120015   6.391   1.558   1.933
 6372SOL    HW220016   6.301   1.618   1.811
 6373SOL     OW20017   4.857   3.482   1.426
 6373SOL    HW120018   4.837   3.579   1.444
 6373SOL    HW220019   4.851   3.465   1.328
 6374SOL     OW20020   4.497   3.637   6.508
 6374SOL    HW120021   4.528   3.666   6.417
 6374SOL    HW220022   4.562   3.668   6.577
 6375SOL     OW20023   4.696   1.535   2.085
 6375SOL    HW120024   4.740   1.474   2.019
 6375SOL    HW220025   4.605   1.559   2.052
 6376SOL     OW20026   3.459   0.544   0.177
 6376SOL    HW120027   3.454   0.558   0.276
 6376SOL    HW220028   3.370   0.561   0.136
 6377SOL     OW20029   0.560   0.508   0.229
 6377SOL    HW120030   0.640   0.470   0.183
 6377SOL    HW220031   0.589   0.582   0.291
 6378SOL     OW20032   5.179   4.635   2.066
 6378SOL    HW120033   5.239   4.686   2.004
 6378SOL    HW220034   5.173   4.540   2.036
 6379SOL     OW20035   2.189   5.111   6.500
 6379SOL    HW120036   2.260   5.163   6.547
 6379SOL    HW220037   2.185   5.138   6.404
 6380SOL     OW20038   0.837   4.322   5.417
 6380SOL    HW120039   0.884   4.240   5.447
 6380SOL    HW220040   0.787   4.303   5.332
 6381SOL     OW20041   4.473   2.880   0.424
 6381SOL    HW120042   4.385   2.911   0.386
 6381SOL    HW220043   4.547   2.904   0.361
 6382SOL     OW20044   1.464   1.431   0.334
 6382SOL    HW120045   1.554   1.387   0.326
 6382SOL    HW220046   1.458   1.506   0.269
 6383SOL     OW20047   2.422   2.211   2.074
 6383SOL    HW120048   2.505   2.253   2.110
 6383SOL    HW220049   2.389   2.141   2.137
 6384SOL     OW20050   6.067   2.999   1.831
 6384SOL    HW120051   6.088   3.038   1.921
 6384SOL    HW220052   5.997   2.928   1.841
 6385SOL     OW20053   0.376   3.511   0.177
 6385SOL    HW120054   0.292   3.486   0.225
 6385SOL    HW220055   0.357   3.522   0.079
 6386SOL     OW20056   2.691   2.433   0.378
 6386SOL    HW120057   2.591   2.437   0.379
 6386SOL    HW220058   2.721   2.348   0.335
 6387SOL     OW20059   0.343   6.685   0.289
 6387SOL    HW120060   0.347   6.586   0.300
 6387SOL    HW220061   0.406   6.729   0.353
 6388SOL     OW20062   5.679   5.476   1.914
 6388SOL    HW120063   5.676   5.405   1.843
 6388SOL    HW220064   5.595   5.529   1.913
 6389SOL     OW20065   6.620   6.716   0.670
 6389SOL    HW120066   6.677   6.682   0.744
 6389SOL    HW220067   6.664   6.697   0.582
 6390SOL     OW20068   5.163   0.731   0.134
 6390SOL    HW120069   5.095   0.688   0.074
 6390SOL    HW220070   5.134   0.825   0.153
 6391SOL     OW20071   1.181   2.121   4.908
 6391SOL    HW120072   1.128   2.037   4.921
 6391SOL    HW220073   1.277   2.097   4.894
 6392SOL     OW20074   3.699   6.693   3.645
 6392SOL    HW120075   3.657   6.618   3.696
 6392SOL    HW220076   3.795   6.671   3.626
 6393SOL     OW20077   1.031   5.722   6.935
 6393SOL    HW120078   1.092   5.720   7.014
 6393SOL    HW220079   1.009   5.628   6.908
 6394SOL     OW20080   1.888   5.071   1.973
 6394SOL    HW120081   1.893   5.019   2.058
 6394SOL    HW220082   1.798   5.060   1.932
 6395SOL     OW20083   2.174   3.860   3.843
 6395SOL    HW120084   2.092   3.828   3.890
 6395SOL    HW220085   2.240   3.785   3.838
 6396SOL     OW20086   1.606   2.935   5.368
 6396SOL    HW120087   1.549   2.978   5.438
 6396SOL    HW220088   1.670   3.002   5.331
 6397SOL     OW20089   5.980   4.161   4.698
 6397SOL    HW120090   5.884   4.182   4.717
 6397SOL    HW220091   5.987   4.117   4.609
 6398SOL     OW20092   2.246   6.852   2.516
 6398SOL    HW120093   2.174   6.785   2.532
 6398SOL    HW220094   2.282   6.882   2.605
 6399SOL     OW20095   3.342   0.270   6.923
 6399SOL    HW120096   3.291   0.289   7.006
 6399SOL    HW220097   3.406   0.195   6.940
 6400SOL     OW20098   0.459   6.053   3.305
 6400SOL    HW120099   0.525   6.111   3.353
 6400SOL    HW220100   0.477   5.957   3.326
 6401SOL     OW20101   4.329   5.184   3.021
 6401SOL    HW120102   4.236   5.147   3.026
 6401SOL    HW220103   4.361   5.182   2.926
 6402SOL     OW20104   2.592   4.670   5.686
 6402SOL    HW120105   2.634   4.726   5.614
 6402SOL    HW220106   2.555   4.586   5.646
 6403SOL     OW20107   4.947   5.141   4.995
 6403SOL    HW120108   4.942   5.212   4.926
 6403SOL    HW220109   4.858   5.129   5.038
 6404SOL     OW20110   4.826   0.173   1.675
 6404SOL    HW120111   4.810   0.143   1.581
 6404SOL    HW220112   4.764   0.125   1.737
 6405SOL     OW20113   5.072   1.429   2.862
 6405SOL    HW120114   5.041   1.484   2.784
 6405SOL    HW220115   5.171   1.432   2.868
 6406SOL     OW20116   0.177   3.447   2.590
 6406SOL    HW120117   0.275   3.454   2.574
 6406SOL    HW220118   0.150   3.509   2.664
 6407SOL     OW20119   0.375   6.192   2.607
 6407SOL    HW120120   0.367   6.114   2.669
 6407SOL    HW220121   0.333   6.273   2.649
 6408SOL     OW20122   6.943   0.890   1.980
 6408SOL    HW120123   6.952   0.840   2.066
 6408SOL    HW220124   0.009   0.902   1.938
 6409SOL     OW20125   5.130   4.728   3.582
 6409SOL    HW120126   5.226   4.751   3.596
 6409SOL    HW220127   5.115   4.704   3.487
 6410SOL     OW20128   1.757   1.592   0.416
 6410SOL    HW120129   1.788   1.673   0.467
 6410SOL    HW220130   1.761   1.611   0.318
 6411SOL     OW20131   0.130   2.810   1.900
 6411SOL    HW120132   0.185   2.892   1.889
 6411SOL    HW220133   0.033   2.833   1.894
 6412SOL     OW20134   3.524   1.352   0.260
 6412SOL    HW120135   3.598   1.420   0.260
 6412SOL    HW220136   3.468   1.364   0.178
 6413SOL     OW20137   4.942   6.175   3.378
 6413SOL    HW120138   5.011   6.239   3.411
 6413SOL    HW220139   4.945   6.172   3.278
 6414SOL     OW20140   2.113   6.885   0.441
 6414SOL    HW120141   2.201   6.911   0.401
 6414SOL    HW220142   2.123   6.873   0.539
 6415SOL     OW20143   0.536   2.478   3.695
 6415SOL    HW120144   0.556   2.563   3.648
 6415SOL    HW220145   0.589   2.474   3.780
 6416SOL     OW20146   2.611   5.300   6.887
 6416SOL    HW120147   2.683   5.364   6.860
 6416SOL    HW220148   2.627   5.212   6.841
 6417SOL     OW20149   4.030   3.013   6.683
 6417SOL    HW120150   4.053   2.982   6.591
 6417SOL    HW220151   4.074   3.100   6.702
 6418SOL     OW20152   4.818   4.599   0.263
 6418SOL    HW120153   4.747   4.552   0.314
 6418SOL    HW220154   4.897   4.538   0.251
 6419SOL     OW20155   0.571   6.359   6.458
 6419SOL    HW120156   0.537   6.271   6.492
 6419SOL    HW220157   0.510   6.432   6.488
 6420SOL     OW20158   2.337   4.865   4.261
 6420SOL    HW120159   2.401   4.794   4.291
 6420SOL    HW220160   2.335   4.939   4.329
 6421SOL     OW20161   3.876   0.782   2.274
 6421SOL    HW120162   3.952   0.733   2.317
 6421SOL    HW220163   3.904   0.877   2.256
 6422SOL     OW20164   6.284   2.809   4.866
 6422SOL    HW120165   6.209   2.863   4.905
 6422SOL    HW220166   6.260   2.712   4.867
 6423SOL     OW20167   1.544   4.867   4.418
 6423SOL    HW120168   1.620   4.925   4.388
 6423SOL    HW220169   1.568   4.823   4.504
 6424SOL     OW20170   6.545   4.765   5.582
 6424SOL    HW120171   6.642   4.789   5.575
 6424SOL    HW220172   6.524   4.739   5.676
 6425SOL     OW20173   6.868   5.968   4.428
 6425SOL    HW120174   6.779   5.969   4.475
 6425SOL    HW220175   6.913   5.880   4.445
 6426SOL     OW20176   4.537   4.585   4.696
 6426SOL    HW120177   4.543   4.565   4.794
 6426SOL    HW220178   4.619   4.550   4.650
 6427SOL     OW20179   4.089   3.321   3.657
 6427SOL    HW120180   4.079   3.274   3.569
 6427SOL    HW220181   4.010   3.301   3.715
 6428SOL     OW20182   5.548   2.452   0.575
 6428SOL    HW120183   5.454   2.469   0.545
 6428SOL    HW220184   5.605   2.532   0.555
 6429SOL     OW20185   2.332   1.258   5.079
 6429SOL    HW120186   2.288   1.348   5.074
 6429SOL    HW220187   2.322   1.222   5.172
 6430SOL     OW20188   6.345   0.599   5.243
 6430SOL    HW120189   6.314   0.659   5.169
 6430SOL    HW220190   6.445   0.604   5.250
 6431SOL     OW20191   3.859   4.869   2.017
 6431SOL    HW120192   3.908   4.874   1.930
 6431SOL    HW220193   3.767   4.833   2.001
 6432SOL     OW20194   5.334   3.893   6.059
 6432SOL    HW120195   5.270   3.854   5.992
 6432SOL    HW220196   5.283   3.924   6.139
 6433SOL     OW20197   3.238   4.755   5.923
 6433SOL    HW120198   3.337   4.762   5.936
 6433SOL    HW220199   3.218   4.722   5.831
 6434SOL     OW20200   5.091   5.892   6.257
 6434SOL    HW120201   5.111   5.990   6.258
 6434SOL    HW220202   5.101   5.855   6.350
 6435SOL     OW20203   4.510   2.080   1.073
 6435SOL    HW120204   4.520   2.153   1.005
 6435SOL    HW220205   4.421   2.088   1.118
 6436SOL     OW20206   6.468   3.128   3.214
 6436SOL    HW120207   6.530   3.103   3.139
 6436SOL    HW220208   6.381   3.082   3.202
 6437SOL     OW20209   1.498   2.119   5.661
 6437SOL    HW120210   1.422   2.181   5.643
 6437SOL    HW220211   1.462   2.029   5.688
 6438SOL     OW20212   0.419   4.719   0.044
 6438SOL    HW120213   0.355   4.788   0.079
 6438SOL    HW220214   0.435   4.650   0.114
 6439SOL     OW20215   4.909   6.686   3.094
 6439SOL    HW120216   4.893   6.784   3.082
 6439SOL    HW220217   5.004   6.671   3.121
 6440SOL     OW20218   2.863   1.530   5.927
 6440SOL    HW120219   2.764   1.527   5.939
 6440SOL    HW220220   2.885   1.572   5.839
 6441SOL     OW20221   7.024   1.976   2.364
 6441SOL    HW120222   6.973   1.896   2.396
 6441SOL    HW220223   6.993   2.057   2.414
 6442SOL     OW20224   2.702   1.992   5.021
 6442SOL    HW120225   2.694   2.091   5.034
 6442SOL    HW220226   2.611   1.954   5.002
 6443SOL     OW20227   3.842   2.756   6.468
 6443SOL    HW120228   3.863   2.854   6.468
 6443SOL    HW220229   3.877   2.714   6.552
 6444SOL     OW20230   6.366   4.204   4.831
 6444SOL    HW120231   6.388   4.233   4.737
 6444SOL    HW220232   6.356   4.285   4.888
 6445SOL     OW20233   3.040   3.228   3.468
 6445SOL    HW120234   3.008   3.192   3.381
 6445SOL    HW220235   3.060   3.153   3.531
 6446SOL     OW20236   1.519   1.262   6.551
 6446SOL    HW120237   1.609   1.217   6.553
 6446SOL    HW220238   1.521   1.343   6.610
 6447SOL     OW20239   5.813   3.343   2.237
 6447SOL    HW120240   5.824   3.290   2.153
 6447SOL    HW220241   5.801   3.439   2.214
 6448SOL     OW20242   3.576   4.559   1.386
 6448SOL    HW120243   3.638   4.631   1.418
 6448SOL    HW220244   3.617   4.470   1.403
 6449SOL     OW20245   2.708   5.028   0.877
 6449SOL    HW120246   2.613   5.015   0.848
 6449SOL    HW220247   2.717   5.116   0.923
 6450SOL     OW20248   6.742   4.052   7.020
 6450SOL    HW120249   6.690   3.967   0.004
 6450SOL    HW220250   6.679   4.130   7.019
 6451SOL     OW20251   3.764   2.757   1.665
 6451SOL    HW120252   3.699   2.791   1.597
 6451SOL    HW220253   3.829   2.830   1.688
 6452SOL     OW20254   4.097   2.048   3.995
 6452SOL    HW120255   4.077   2.109   4.072
 6452SOL    HW220256   4.111   1.955   4.029
 6453SOL     OW20257   2.084   0.863   2.544
 6453SOL    HW120258   2.122   0.785   2.493
 6453SOL    HW220259   2.000   0.834   2.590
 6454SOL     OW20260   4.797   2.334   3.454
 6454SOL    HW120261   4.751   2.418   3.427
 6454SOL    HW220262   4.730   2.260   3.465
 6455SOL     OW20263   6.684   2.690   3.899
 6455SOL    HW120264   6.631   2.630   3.960
 6455SOL    HW220265   6.698   2.778   3.944
 6456SOL     OW20266   5.677   1.175   2.256
 6456SOL    HW120267   5.694   1.083   2.221
 6456SOL    HW220268   5.598   1.215   2.209
 6457SOL     OW20269   3.522   0.117   2.589
 6457SOL    HW120270   3.596   0.095   2.653
 6457SOL    HW220271   3.469   0.034   2.571
 6458SOL     OW20272   0.267   6.365   3.659
 6458SOL    HW120273   0.176   6.333   3.631
 6458SOL    HW220274   0.271   6.465   3.650
 6459SOL     OW20275   0.696   3.348   3.312
 6459SOL    HW120276   0.769   3.298   3.266
 6459SOL    HW220277   0.721   3.364   3.407
 6460SOL     OW20278   0.400   5.074   6.701
 6460SOL    HW120279   0.361   5.066   6.609
 6460SOL    HW220280   0.418   5.170   6.722
 6461SOL     OW20281   1.398   6.415   1.016
 6461SOL    HW120282   1.364   6.322   0.999
 6461SOL    HW220283   1.489   6.425   0.977
 6462SOL     OW20284   1.553   3.758   5.394
 6462SOL    HW120285   1.606   3.827   5.443
 6462SOL    HW220286   1.614   3.704   5.336
 6463SOL     OW20287   3.806   2.788   1.110
 6463SOL    HW120288   3.876   2.860   1.116
 6463SOL    HW220289   3.849   2.702   1.084
 6464SOL     OW20290   0.981   4.471   3.923
 6464SOL    HW120291   1.069   4.518   3.914
 6464SOL    HW220292   0.907   4.537   3.909
 6465SOL     OW20293   3.635   1.146   3.781
 6465SOL    HW120294   3.581   1.063   3.795
 6465SOL    HW220295   3.575   1.220   3.751
 6466SOL     OW20296   6.024   4.468   0.411
 6466SOL    HW120297   6.123   4.454   0.407
 6466SOL    HW220298   5.982   4.435   0.327
 6467SOL     OW20299   2.409   2.963   6.921
 6467SOL    HW120300   2.338   3.032   6.908
 6467SOL    HW220301   2.436   2.927   6.832
 6468SOL     OW20302   2.720   0.947   1.441
 6468SOL    HW120303   2.717   1.025   1.503
 6468SOL    HW220304   2.680   0.973   1.353
 6469SOL     OW20305   2.488   1.136   1.808
 6469SOL    HW120306   2.500   1.235   1.810
 6469SOL    HW220307   2.391   1.114   1.799
 6470SOL     OW20308   6.978   1.391   0.054
 6470SOL    HW120309   6.977   1.476   0.107
 6470SOL    HW220310   0.006   1.321   0.104
 6471SOL     OW20311   0.616   6.299   5.568
 6471SOL    HW120312   0.637   6.387   5.611
 6471SOL    HW220313   0.660   6.226   5.620
 6472SOL     OW20314   6.688   6.730   2.570
 6472SOL    HW120315   6.591   6.717   2.588
 6472SOL    HW220316   6.723   6.654   2.515
 6473SOL     OW20317   2.247   1.375   3.426
 6473SOL    HW120318   2.165   1.384   3.484
 6473SOL    HW220319   2.219   1.368   3.330
 6474SOL     OW20320   4.082   6.295   5.285
 6474SOL    HW120321   4.053   6.387   5.310
 6474SOL    HW220322   4.085   6.237   5.366
 6475SOL     OW20323   6.036   5.581   2.168
 6475SOL    HW120324   6.069   5.623   2.253
 6475SOL    HW220325   5.958   5.522   2.189
 6476SOL     OW20326   3.763   2.463   6.721
 6476SOL    HW120327   3.737   2.366   6.715
 6476SOL    HW220328   3.852   2.471   6.765
 6477SOL     OW20329   0.348   6.027   2.007
 6477SOL    HW120330   0.360   6.105   2.068
 6477SOL    HW220331   0.438   5.998   1.972
 6478SOL     OW20332   2.887   5.861   1.266
 6478SOL    HW120333   2.942   5.938   1.296
 6478SOL    HW220334   2.801   5.859   1.317
 6479SOL     OW20335   4.244   6.217   3.536
 6479SOL    HW120336   4.241   6.223   3.436
 6479SOL    HW220337   4.216   6.305   3.576
 6480SOL     OW20338   3.911   1.484   6.356
 6480SOL    HW120339   3.904   1.527   6.446
 6480SOL    HW220340   3.940   1.552   6.289
 6481SOL     OW20341   3.850   2.981   1.989
 6481SOL    HW120342   3.876   3.073   2.019
 6481SOL    HW220343   3.792   2.938   2.058
 6482SOL     OW20344   5.164   3.870   5.547
 6482SOL    HW120345   5.129   3.826   5.629
 6482SOL    HW220346   5.164   3.970   5.560
 6483SOL     OW20347   1.948   6.370   5.459
 6483SOL    HW120348   2.025   6.433   5.451
 6483SOL    HW220349   1.920   6.362   5.554
 6484SOL     OW20350   2.952   1.231   3.564
 6484SOL    HW120351   2.871   1.288   3.576
 6484SOL    HW220352   2.925   1.137   3.545
 6485SOL     OW20353   2.791   6.058   4.888
 6485SOL    HW120354   2.829   6.120   4.818
 6485SOL    HW220355   2.862   5.992   4.915
 6486SOL     OW20356   0.749   5.165   2.847
 6486SOL    HW120357   0.720   5.259   2.833
 6486SOL    HW220358   0.774   5.151   2.943
 6487SOL     OW20359   6.466   4.638   4.113
 6487SOL    HW120360   6.560   4.671   4.120
 6487SOL    HW220361   6.450   4.598   4.022
 6488SOL     OW20362   3.955   5.631   4.703
 6488SOL    HW120363   4.015   5.564   4.659
 6488SOL    HW220364   4.007   5.683   4.771
 6489SOL     OW20365   5.299   2.908   5.246
 6489SOL    HW120366   5.308   2.890   5.148
 6489SOL    HW220367   5.205   2.938   5.265
 6490SOL     OW20368   1.991   2.324   0.282
 6490SOL    HW120369   2.005   2.332   0.184
 6490SOL    HW220370   1.898   2.353   0.306
 6491SOL     OW20371   2.062   0.005   1.673
 6491SOL    HW120372   2.049   0.100   1.643
 6491SOL    HW220373   1.998   7.009   1.746
 6492SOL     OW20374   3.878   3.346   4.810
 6492SOL    HW120375   3.857   3.444   4.816
 6492SOL    HW220376   3.955   3.325   4.870
 6493SOL     OW20377   1.376   4.539   4.461
 6493SOL    HW120378   1.401   4.511   4.554
 6493SOL    HW220379   1.292   4.492   4.434
 6494SOL     OW20380   6.819   0.763   1.609
 6494SOL    HW120381   6.841   0.684   1.552
 6494SOL    HW220382   6.721   0.784   1.599
 6495SOL     OW20383   6.580   0.449   2.991
 6495SOL    HW120384   6.556   0.499   3.074
 6495SOL    HW220385   6.669   0.479   2.958
 6496SOL     OW20386   3.301   2.320   1.585
 6496SOL    HW120387   3.307   2.286   1.679
 6496SOL    HW220388   3.393   2.333   1.549
 6497SOL     OW20389   7.019   1.098   0.936
 6497SOL    HW120390   0.050   1.019   0.959
 6497SOL    HW220391   6.983   1.088   0.843
 6498SOL     OW20392   2.321   4.207   4.194
 6498SOL    HW120393   2.265   4.163   4.124
 6498SOL    HW220394   2.350   4.140   4.262
 6499SOL     OW20395   4.881   2.993   3.415
 6499SOL    HW120396   4.802   2.969   3.472
 6499SOL    HW220397   4.959   3.016   3.473
 6500SOL     OW20398   1.740   4.268   3.135
 6500SOL    HW120399   1.727   4.172   3.161
 6500SOL    HW220400   1.836   4.283   3.109
 6501SOL     OW20401   5.526   2.091   2.615
 6501SOL    HW120402   5.456   2.157   2.587
 6501SOL    HW220403   5.554   2.109   2.709
 6502SOL     OW20404   6.613   4.019   2.062
 6502SOL    HW120405   6.590   4.099   2.118
 6502SOL    HW220406   6.702   4.034   2.018
 6503SOL     OW20407   6.798   3.397   5.629
 6503SOL    HW120408   6.889   3.400   5.671
 6503SOL    HW220409   6.737   3.341   5.684
 6504SOL     OW20410   4.098   6.694   6.129
 6504SOL    HW120411   4.183   6.744   6.145
 6504SOL    HW220412   4.104   6.645   6.042
 6505SOL     OW20413   0.169   5.400   1.007
 6505SOL    HW120414   0.159   5.444   0.918
 6505SOL    HW220415   0.079   5.378   1.045
 6506SOL     OW20416   1.277   4.334   2.057
 6506SOL    HW120417   1.273   4.401   2.131
 6506SOL    HW220418   1.362   4.282   2.064
 6507SOL     OW20419   3.984   5.585   0.420
 6507SOL    HW120420   3.993   5.522   0.498
 6507SOL    HW220421   3.901   5.561   0.368
 6508SOL     OW20422   0.482   0.145   3.565
 6508SOL    HW120423   0.444   0.194   3.487
 6508SOL    HW220424   0.468   0.047   3.553
 6509SOL     OW20425   2.627   1.435   6.852
 6509SOL    HW120426   2.703   1.384   6.892
 6509SOL    HW220427   2.600   1.393   6.766
 6510SOL     OW20428   2.922   6.459   5.250
 6510SOL    HW120429   3.002   6.505   5.211
 6510SOL    HW220430   2.886   6.514   5.326
 6511SOL     OW20431   3.022   2.315   0.274
 6511SOL    HW120432   3.024   2.279   0.368
 6511SOL    HW220433   2.990   2.243   0.212
 6512SOL     OW20434   4.412   1.245   0.595
 6512SOL    HW120435   4.334   1.306   0.577
 6512SOL    HW220436   4.436   1.196   0.511
 6513SOL     OW20437   2.774   4.787   3.200
 6513SOL    HW120438   2.846   4.825   3.143
 6513SOL    HW220439   2.698   4.756   3.142
 6514SOL     OW20440   5.478   6.795   5.308
 6514SOL    HW120441   5.528   6.833   5.386
 6514SOL    HW220442   5.492   6.696   5.305
 6515SOL     OW20443   1.171   5.213   2.726
 6515SOL    HW120444   1.191   5.123   2.763
 6515SOL    HW220445   1.122   5.267   2.794
 6516SOL     OW20446   6.429   2.959   2.133
 6516SOL    HW120447   6.434   2.859   2.124
 6516SOL    HW220448   6.335   2.988   2.117
 6517SOL     OW20449   6.971   3.153   0.726
 6517SOL    HW120450   6.996   3.184   0.635
 6517SOL    HW220451   7.011   3.214   0.795
 6518SOL     OW20452   0.701   1.220   2.201
 6518SOL    HW120453   0.644   1.229   2.119
 6518SOL    HW220454   0.661   1.272   2.276
 6519SOL     OW20455   0.883   1.176   3.384
 6519SOL    HW120456   0.951   1.124   3.334
 6519SOL    HW220457   0.928   1.237   3.450
 6520SOL     OW20458   0.298   5.179   0.655
 6520SOL    HW120459   0.278   5.140   0.745
 6520SOL    HW220460   0.363   5.119   0.607
 6521SOL     OW20461   1.980   4.074   3.681
 6521SOL    HW120462   1.896   4.037   3.720
 6521SOL    HW220463   2.011   4.152   3.734
 6522SOL     OW20464   2.653   2.909   5.332
 6522SOL    HW120465   2.589   2.928   5.258
 6522SOL    HW220466   2.603   2.894   5.417
 6523SOL     OW20467   6.090   6.832   0.470
 6523SOL    HW120468   6.166   6.820   0.406
 6523SOL    HW220469   6.125   6.824   0.564
 6524SOL     OW20470   2.840   2.980   1.175
 6524SOL    HW120471   2.752   2.975   1.223
 6524SOL    HW220472   2.906   3.032   1.230
 6525SOL     OW20473   1.185   4.951   3.632
 6525SOL    HW120474   1.188   5.026   3.699
 6525SOL    HW220475   1.269   4.898   3.638
 6526SOL     OW20476   0.855   5.892   0.932
 6526SOL    HW120477   0.777   5.865   0.988
 6526SOL    HW220478   0.845   5.854   0.840
 6527SOL     OW20479   6.814   1.602   0.698
 6527SOL    HW120480   6.859   1.513   0.705
 6527SOL    HW220481   6.739   1.597   0.631
 6528SOL     OW20482   4.337   6.773   6.503
 6528SOL    HW120483   4.347   6.755   6.601
 6528SOL    HW220484   4.309   6.868   6.489
 6529SOL     OW20485   5.410   0.136   2.050
 6529SOL    HW120486   5.472   0.151   2.128
 6529SOL    HW220487   5.447   0.180   1.969
 6530SOL     OW20488   0.250   2.641   3.049
 6530SOL    HW120489   0.307   2.708   3.095
 6530SOL    HW220490   0.304   2.592   2.981
 6531SOL     OW20491   4.034   3.660   4.527
 6531SOL    HW120492   4.030   3.760   4.528
 6531SOL    HW220493   4.085   3.628   4.607
 6532SOL     OW20494   1.726   7.024   0.132
 6532SOL    HW120495   1.751   0.090   0.098
 6532SOL    HW220496   1.794   6.993   0.198
 6533SOL     OW20497   4.858   4.642   2.122
 6533SOL    HW120498   4.791   4.597   2.063
 6533SOL    HW220499   4.937   4.582   2.134
 6534SOL     OW20500   0.249   4.428   3.079
 6534SOL    HW120501   0.168   4.406   3.134
 6534SOL    HW220502   0.268   4.526   3.086
 6535SOL     OW20503   5.202   3.627   4.710
 6535SOL    HW120504   5.124   3.575   4.744
 6535SOL    HW220505   5.230   3.591   4.621
 6536SOL     OW20506   0.898   4.628   5.218
 6536SOL    HW120507   0.824   4.616   5.284
 6536SOL    HW220508   0.970   4.685   5.258
 6537SOL     OW20509   6.420   5.519   3.711
 6537SOL    HW120510   6.432   5.618   3.714
 6537SOL    HW220511   6.331   5.495   3.750
 6538SOL     OW20512   1.230   2.510   5.023
 6538SOL    HW120513   1.223   2.439   5.092
 6538SOL    HW220514   1.244   2.599   5.068
 6539SOL     OW20515   5.044   0.176   6.018
 6539SOL    HW120516   5.121   0.194   6.078
 6539SOL    HW220517   4.961   0.161   6.072
 6540SOL     OW20518   6.366   3.093   5.648
 6540SOL    HW120519   6.318   3.026   5.704
 6540SOL    HW220520   6.429   3.146   5.706
 6541SOL     OW20521   5.496   2.022   5.768
 6541SOL    HW120522   5.471   2.099   5.710
 6541SOL    HW220523   5.459   2.035   5.860
 6542SOL     OW20524   1.084   3.998   3.009
 6542SOL    HW120525   1.127   4.032   3.092
 6542SOL    HW220526   0.996   4.045   2.996
 6543SOL     OW20527   3.669   1.573   4.516
 6543SOL    HW120528   3.653   1.507   4.443
 6543SOL    HW220529   3.589   1.631   4.527
 6544SOL     OW20530   0.598   6.565   0.900
 6544SOL    HW120531   0.574   6.662   0.905
 6544SOL    HW220532   0.662   6.542   0.973
 6545SOL     OW20533   4.655   6.991   1.222
 6545SOL    HW120534   4.633   0.011   1.135
 6545SOL    HW220535   4.593   6.914   1.235
 6546SOL     OW20536   4.795   4.242   6.611
 6546SOL    HW120537   4.786   4.146   6.584
 6546SOL    HW220538   4.729   4.297   6.562
 6547SOL     OW20539   0.468   6.161   6.009
 6547SOL    HW120540   0.512   6.143   6.097
 6547SOL    HW220541   0.537   6.195   5.944
 6548SOL     OW20542   7.024   1.096   5.727
 6548SOL    HW120543   0.045   1.184   5.739
 6548SOL    HW220544   6.928   1.111   5.704
 6549SOL     OW20545   4.067   1.656   2.453
 6549SOL    HW120546   4.158   1.616   2.445
 6549SOL    HW220547   4.032   1.642   2.545
 6550SOL     OW20548   6.297   6.315   3.040
 6550SOL    HW120549   6.343   6.257   2.973
 6550SOL    HW220550   6.234   6.377   2.993
 6551SOL     OW20551   2.853   3.882   0.838
 6551SOL    HW120552   2.776   3.857   0.896
 6551SOL    HW220553   2.939   3.863   0.886
 6552SOL     OW20554   1.870   5.026   0.157
 6552SOL    HW120555   1.900   4.963   0.085
 6552SOL    HW220556   1.906   5.117   0.138
 6553SOL     OW20557   0.353   1.304   3.120
 6553SOL    HW120558   0.424   1.277   3.185
 6553SOL    HW220559   0.285   1.360   3.167
 6554SOL     OW20560   1.568   2.272   4.214
 6554SOL    HW120561   1.665   2.269   4.238
 6554SOL    HW220562   1.542   2.365   4.188
 6555SOL     OW20563   6.996   3.785   3.824
 6555SOL    HW120564   6.957   3.821   3.740
 6555SOL    HW220565   0.006   3.860   3.879
 6556SOL     OW20566   4.984   3.113   2.632
 6556SOL    HW120567   5.026   3.022   2.641
 6556SOL    HW220568   4.929   3.132   2.713
 6557SOL     OW20569   1.718   0.585   2.347
 6557SOL    HW120570   1.779   0.566   2.424
 6557SOL    HW220571   1.768   0.635   2.277
 6558SOL     OW20572   5.542   6.289   6.553
 6558SOL    HW120573   5.533   6.266   6.650
 6558SOL    HW220574   5.512   6.383   6.538
 6559SOL     OW20575   6.985   2.420   6.397
 6559SOL    HW120576   0.027   2.350   6.372
 6559SOL    HW220577   0.002   2.485   6.461
 6560SOL     OW20578   5.992   4.812   0.354
 6560SOL    HW120579   6.091   4.811   0.342
 6560SOL    HW220580   5.961   4.721   0.384
 6561SOL     OW20581   3.458   4.382   6.920
 6561SOL    HW120582   3.494   4.339   6.838
 6561SOL    HW220583   3.533   4.423   6.972
 6562SOL     OW20584   5.461   2.466   1.151
 6562SOL    HW120585   5.481   2.369   1.163
 6562SOL    HW220586   5.398   2.497   1.222
 6563SOL     OW20587   6.289   4.969   5.569
 6563SOL    HW120588   6.349   4.891   5.555
 6563SOL    HW220589   6.206   4.959   5.513
 6564SOL     OW20590   5.653   3.388   2.849
 6564SOL    HW120591   5.741   3.385   2.897
 6564SOL    HW220592   5.589   3.444   2.900
 6565SOL     OW20593   5.311   0.317   2.895
 6565SOL    HW120594   5.364   0.364   2.824
 6565SOL    HW220595   5.348   0.225   2.909
 6566SOL     OW20596   5.131   5.853   3.379
 6566SOL    HW120597   5.061   5.913   3.341
 6566SOL    HW220598   5.207   5.843   3.315
 6567SOL     OW20599   4.151   0.304   1.948
 6567SOL    HW120600   4.127   0.319   1.851
 6567SOL    HW220601   4.120   0.214   1.976
 6568SOL     OW20602   4.324   1.796   0.840
 6568SOL    HW120603   4.417   1.761   0.847
 6568SOL    HW220604   4.260   1.719   0.832
 6569SOL     OW20605   0.631   4.642   4.493
 6569SOL    HW120606   0.603   4.663   4.587
 6569SOL    HW220607   0.552   4.653   4.432
 6570SOL     OW20608   4.647   6.950   2.565
 6570SOL    HW120609   4.668   6.910   2.476
 6570SOL    HW220610   4.697   0.011   2.575
 6571SOL     OW20611   3.382   6.050   3.202
 6571SOL    HW120612   3.382   6.123   3.134
 6571SOL    HW220613   3.359   5.963   3.158
 6572SOL     OW20614   1.710   5.992   4.098
 6572SOL    HW120615   1.694   6.086   4.128
 6572SOL    HW220616   1.632   5.961   4.043
 6573SOL     OW20617   0.902   1.727   3.005
 6573SOL    HW120618   0.873   1.823   3.001
 6573SOL    HW220619   0.930   1.696   2.915
 6574SOL     OW20620   1.829   5.059   2.279
 6574SOL    HW120621   1.879   4.973   2.287
 6574SOL    HW220622   1.892   5.133   2.255
 6575SOL     OW20623   0.122   1.412   3.190
 6575SOL    HW120624   0.092   1.405   3.285
 6575SOL    HW220625   0.053   1.371   3.130
 6576SOL     OW20626   4.721   6.272   1.193
 6576SOL    HW120627   4.677   6.251   1.280
 6576SOL    HW220628   4.652   6.283   1.123
 6577SOL     OW20629   3.242   1.306   3.988
 6577SOL    HW120630   3.227   1.214   4.023
 6577SOL    HW220631   3.317   1.349   4.038
 6578SOL     OW20632   1.267   4.902   0.889
 6578SOL    HW120633   1.336   4.971   0.913
 6578SOL    HW220634   1.201   4.894   0.964
 6579SOL     OW20635   6.678   0.706   4.122
 6579SOL    HW120636   6.733   0.767   4.180
 6579SOL    HW220637   6.588   0.746   4.108
 6580SOL     OW20638   2.193   2.042   0.680
 6580SOL    HW120639   2.154   2.090   0.602
 6580SOL    HW220640   2.220   1.950   0.653
 6581SOL     OW20641   0.466   2.162   1.304
 6581SOL    HW120642   0.549   2.124   1.345
 6581SOL    HW220643   0.447   2.252   1.344
 6582SOL     OW20644   6.202   1.324   2.938
 6582SOL    HW120645   6.128   1.285   2.883
 6582SOL    HW220646   6.289   1.314   2.889
 6583SOL     OW20647   3.826   5.277   0.066
 6583SOL    HW120648   3.821   5.278   0.166
 6583SOL    HW220649   3.761   5.345   0.030
 6584SOL     OW20650   4.206   2.548   6.363
 6584SOL    HW120651   4.142   2.598   6.305
 6584SOL    HW220652   4.157   2.507   6.440
 6585SOL     OW20653   5.615   6.908   1.984
 6585SOL    HW120654   5.678   6.953   1.920
 6585SOL    HW220655   5.646   6.814   2.000
 6586SOL     OW20656   0.145   1.242   6.887
 6586SOL    HW120657   0.096   1.325   6.860
 6586SOL    HW220658   0.235   1.267   6.924
 6587SOL     OW20659   2.254   4.546   5.339
 6587SOL    HW120660   2.351   4.540   5.317
 6587SOL    HW220661   2.223   4.460   5.379
 6588SOL     OW20662   7.010   2.308   0.631
 6588SOL    HW120663   7.017   2.288   0.729
 6588SOL    HW220664   6.949   2.385   0.616
 6589SOL     OW20665   6.755   0.069   2.511
 6589SOL    HW120666   6.813   0.015   2.572
 6589SOL    HW220667   6.797   0.159   2.495
 6590SOL     OW20668   1.061   6.284   4.374
 6590SOL    HW120669   1.088   6.199   4.329
 6590SOL    HW220670   1.016   6.264   4.461
 6591SOL     OW20671   6.300   4.247   3.455
 6591SOL    HW120672   6.246   4.247   3.539
 6591SOL    HW220673   6.374   4.181   3.464
 6592SOL     OW20674   6.337   6.864   3.846
 6592SOL    HW120675   6.270   6.864   3.772
 6592SOL    HW220676   6.409   6.798   3.826
 6593SOL     OW20677   1.677   1.256   1.918
 6593SOL    HW120678   1.604   1.226   1.857
 6593SOL    HW220679   1.721   1.337   1.881
 6594SOL     OW20680   5.208   0.139   6.622
 6594SOL    HW120681   5.161   0.214   6.575
 6594SOL    HW220682   5.221   0.163   6.718
 6595SOL     OW20683   0.824   1.661   5.233
 6595SOL    HW120684   0.824   1.561   5.233
 6595SOL    HW220685   0.738   1.695   5.195
 6596SOL     OW20686   4.892   0.463   2.546
 6596SOL    HW120687   4.923   0.486   2.639
 6596SOL    HW220688   4.953   0.393   2.507
 6597SOL     OW20689   0.775   4.584   1.731
 6597SOL    HW120690   0.743   4.677   1.748
 6597SOL    HW220691   0.703   4.519   1.754
 6598SOL     OW20692   1.776   4.374   4.657
 6598SOL    HW120693   1.738   4.427   4.581
 6598SOL    HW220694   1.876   4.378   4.653
 6599SOL     OW20695   6.854   5.312   6.230
 6599SOL    HW120696   6.775   5.362   6.193
 6599SOL    HW220697   6.889   5.360   6.310
 6600SOL     OW20698   4.690   0.311   5.206
 6600SOL    HW120699   4.670   0.408   5.194
 6600SOL    HW220700   4.725   0.274   5.120
 6601SOL     OW20701   1.368   2.610   1.715
 6601SOL    HW120702   1.319   2.613   1.802
 6601SOL    HW220703   1.323   2.544   1.654
 6602SOL     OW20704   1.026   5.531   1.582
 6602SOL    HW120705   0.935   5.505   1.613
 6602SOL    HW220706   1.061   5.606   1.639
 6603SOL     OW20707   0.098   3.990   2.707
 6603SOL    HW120708   0.002   3.991   2.679
 6603SOL    HW220709   0.105   4.011   2.804
 6604SOL     OW20710   1.951   6.090   3.350
 6604SOL    HW120711   1.897   6.015   3.388
 6604SOL    HW220712   2.034   6.102   3.404
 6605SOL     OW20713   0.236   5.970   1.259
 6605SOL    HW120714   0.329   5.967   1.224
 6605SOL    HW220715   0.179   5.904   1.210
 6606SOL     OW20716   1.932   2.936   2.901
 6606SOL    HW120717   1.856   2.970   2.956
 6606SOL    HW220718   1.993   2.881   2.959
 6607SOL     OW20719   5.583   3.683   3.344
 6607SOL    HW120720   5.650   3.683   3.418
 6607SOL    HW220721   5.618   3.627   3.268
 6608SOL     OW20722   1.377   6.161   5.960
 6608SOL    HW120723   1.304   6.134   6.021
 6608SOL    HW220724   1.433   6.232   6.004
 6609SOL     OW20725   4.565   1.615   6.641
 6609SOL    HW120726   4.556   1.620   6.740
 6609SOL    HW220727   4.495   1.554   6.603
 6610SOL     OW20728   2.739   5.829   0.982
 6610SOL    HW120729   2.791   5.812   1.065
 6610SOL    HW220730   2.741   5.927   0.961
 6611SOL     OW20731   3.391   1.585   4.788
 6611SOL    HW120732   3.327   1.657   4.814
 6611SOL    HW220733   3.444   1.615   4.708
 6612SOL     OW20734   0.099   0.303   6.601
 6612SOL    HW120735   0.189   0.304   6.558
 6612SOL    HW220736   0.087   0.385   6.657
 6613SOL     OW20737   4.358   0.192   0.597
 6613SOL    HW120738   4.312   0.208   0.685
 6613SOL    HW220739   4.307   0.240   0.525
 6614SOL     OW20740   4.189   4.993   0.759
 6614SOL    HW120741   4.108   4.943   0.728
 6614SOL    HW220742   4.239   5.029   0.680
 6615SOL     OW20743   3.712   5.386   5.594
 6615SOL    HW120744   3.674   5.294   5.605
 6615SOL    HW220745   3.652   5.440   5.535
 6616SOL     OW20746   3.702   1.727   6.423
 6616SOL    HW120747   3.751   1.809   6.395
 6616SOL    HW220748   3.752   1.681   6.496
 6617SOL     OW20749   3.540   0.671   3.903
 6617SOL    HW120750   3.467   0.610   3.933
 6617SOL    HW220751   3.615   0.668   3.969
 6618SOL     OW20752   5.903   2.630   4.045
 6618SOL    HW120753   5.904   2.665   4.138
 6618SOL    HW220754   5.922   2.532   4.045
 6619SOL     OW20755   5.051   5.753   3.971
 6619SOL    HW120756   5.026   5.803   4.054
 6619SOL    HW220757   5.143   5.781   3.942
 6620SOL     OW20758   1.296   2.819   3.271
 6620SOL    HW120759   1.239   2.862   3.340
 6620SOL    HW220760   1.299   2.720   3.286
 6621SOL     OW20761   3.596   3.435   4.414
 6621SOL    HW120762   3.594   3.339   4.387
 6621SOL    HW220763   3.687   3.458   4.448
 6622SOL     OW20764   0.720   5.176   1.084
 6622SOL    HW120765   0.799   5.237   1.095
 6622SOL    HW220766   0.700   5.165   0.987
 6623SOL     OW20767   3.050   3.995   4.926
 6623SOL    HW120768   3.032   3.994   4.828
 6623SOL    HW220769   3.023   3.907   4.966
 6624SOL     OW20770   2.399   1.680   2.905
 6624SOL    HW120771   2.419   1.589   2.941
 6624SOL    HW220772   2.370   1.672   2.810
 6625SOL     OW20773   5.902   4.147   5.673
 6625SOL    HW120774   5.933   4.114   5.585
 6625SOL    HW220775   5.967   4.121   5.744
 6626SOL     OW20776   3.037   6.014   5.196
 6626SOL    HW120777   2.960   6.070   5.225
 6626SOL    HW220778   3.021   5.980   5.103
 6627SOL     OW20779   2.110   6.368   4.414
 6627SOL    HW120780   2.041   6.303   4.383
 6627SOL    HW220781   2.087   6.459   4.378
 6628SOL     OW20782   3.614   5.788   4.886
 6628SOL    HW120783   3.650   5.697   4.863
 6628SOL    HW220784   3.687   5.856   4.878
 6629SOL     OW20785   5.191   6.242   6.201
 6629SOL    HW120786   5.105   6.230   6.153
 6629SOL    HW220787   5.173   6.277   6.293
 6630SOL     OW20788   1.743   0.719   0.113
 6630SOL    HW120789   1.665   0.765   0.155
 6630SOL    HW220790   1.758   0.755   0.020
 6631SOL     OW20791   1.933   3.838   6.248
 6631SOL    HW120792   1.852   3.895   6.239
 6631SOL    HW220793   1.940   3.805   6.342
 6632SOL     OW20794   1.622   0.125   0.650
 6632SOL    HW120795   1.576   0.184   0.583
 6632SOL    HW220796   1.593   0.030   0.637
 6633SOL     OW20797   3.722   5.445   5.882
 6633SOL    HW120798   3.726   5.543   5.902
 6633SOL    HW220799   3.743   5.430   5.785
 6634SOL     OW20800   3.577   1.773   3.717
 6634SOL    HW120801   3.562   1.869   3.741
 6634SOL    HW220802   3.639   1.732   3.784
 6635SOL     OW20803   5.132   4.697   4.680
 6635SOL    HW120804   5.084   4.785   4.680
 6635SOL    HW220805   5.123   4.655   4.770
 6636SOL     OW20806   4.033   0.796   0.065
 6636SOL    HW120807   4.129   0.767   0.068
 6636SOL    HW220808   4.027   0.893   0.087
 6637SOL     OW20809   0.492   2.084   0.684
 6637SOL    HW120810   0.494   1.986   0.706
 6637SOL    HW220811   0.586   2.119   0.679
 6638SOL     OW20812   3.032   3.663   4.106
 6638SOL    HW120813   2.974   3.671   4.024
 6638SOL    HW220814   3.039   3.567   4.133
 6639SOL     OW20815   4.893   2.839   0.883
 6639SOL    HW120816   4.808   2.889   0.867
 6639SOL    HW220817   4.964   2.903   0.913
 6640SOL     OW20818   1.830   4.045   4.991
 6640SOL    HW120819   1.807   3.949   4.972
 6640SOL    HW220820   1.918   4.050   5.038
 6641SOL     OW20821   5.547   2.222   1.152
 6641SOL    HW120822   5.496   2.138   1.168
 6641SOL    HW220823   5.620   2.205   1.086
 6642SOL     OW20824   1.938   5.841   0.105
 6642SOL    HW120825   2.002   5.764   0.101
 6642SOL    HW220826   1.943   5.892   0.019
 6643SOL     OW20827   3.695   6.044   5.996
 6643SOL    HW120828   3.612   6.093   6.023
 6643SOL    HW220829   3.712   5.969   6.060
 6644SOL     OW20830   2.148   6.739   3.781
 6644SOL    HW120831   2.185   6.678   3.851
 6644SOL    HW220832   2.169   6.834   3.806
 6645SOL     OW20833   5.944   2.333   6.831
 6645SOL    HW120834   5.934   2.234   6.841
 6645SOL    HW220835   6.037   2.354   6.800
 6646SOL     OW20836   4.307   0.071   5.525
 6646SOL    HW120837   4.354   7.015   5.558
 6646SOL    HW220838   4.363   0.152   5.545
 6647SOL     OW20839   4.001   4.864   0.555
 6647SOL    HW120840   4.072   4.829   0.494
 6647SOL    HW220841   3.912   4.828   0.527
 6648SOL     OW20842   3.157   6.826   5.292
 6648SOL    HW120843   3.143   6.750   5.229
 6648SOL    HW220844   3.241   6.875   5.265
 6649SOL     OW20845   5.145   2.744   6.733
 6649SOL    HW120846   5.152   2.669   6.667
 6649SOL    HW220847   5.191   2.825   6.697
 6650SOL     OW20848   1.944   1.580   4.480
 6650SOL    HW120849   1.866   1.565   4.419
 6650SOL    HW220850   1.911   1.599   4.572
 6651SOL     OW20851   6.629   1.764   6.273
 6651SOL    HW120852   6.545   1.819   6.268
 6651SOL    HW220853   6.642   1.730   6.366
 6652SOL     OW20854   6.687   4.222   0.279
 6652SOL    HW120855   6.723   4.130   0.271
 6652SOL    HW220856   6.721   4.278   0.203
 6653SOL     OW20857   5.675   4.642   0.223
 6653SOL    HW120858   5.737   4.569   0.196
 6653SOL    HW220859   5.586   4.604   0.247
 6654SOL     OW20860   6.479   3.884   3.238
 6654SOL    HW120861   6.477   3.963   3.177
 6654SOL    HW220862   6.422   3.811   3.200
 6655SOL     OW20863   0.391   5.139   1.830
 6655SOL    HW120864   0.372   5.210   1.897
 6655SOL    HW220865   0.488   5.140   1.806
 6656SOL     OW20866   4.428   1.652   3.559
 6656SOL    HW120867   4.358   1.721   3.537
 6656SOL    HW220868   4.385   1.562   3.561
 6657SOL     OW20869   5.773   1.851   3.800
 6657SOL    HW120870   5.746   1.804   3.885
 6657SOL    HW220871   5.694   1.854   3.738
 6658SOL     OW20872   6.861   5.669   5.391
 6658SOL    HW120873   6.808   5.625   5.318
 6658SOL    HW220874   6.905   5.751   5.355
 6659SOL     OW20875   0.818   4.990   1.956
 6659SOL    HW120876   0.781   5.064   2.012
 6659SOL    HW220877   0.828   4.908   2.012
 6660SOL     OW20878   6.630   6.164   4.149
 6660SOL    HW120879   6.580   6.242   4.110
 6660SOL    HW220880   6.564   6.092   4.172
 6661SOL     OW20881   4.168   5.827   4.187
 6661SOL    HW120882   4.169   5.907   4.128
 6661SOL    HW220883   4.091   5.768   4.163
 6662SOL     OW20884   4.120   6.414   2.734
 6662SOL    HW120885   4.156   6.505   2.712
 6662SOL    HW220886   4.058   6.384   2.662
 6663SOL     OW20887   0.729   4.100   6.058
 6663SOL    HW120888   0.795   4.166   6.094
 6663SOL    HW220889   0.746   4.087   5.960
 6664SOL     OW20890   3.238   0.205   0.991
 6664SOL    HW120891   3.291   0.171   1.069
 6664SOL    HW220892   3.191   0.289   1.016
 6665SOL     OW20893   2.608   0.776   6.187
 6665SOL    HW120894   2.510   0.783   6.207
 6665SOL    HW220895   2.653   0.725   6.260
 6666SOL     OW20896   4.108   6.440   5.534
 6666SOL    HW120897   4.122   6.532   5.497
 6666SOL    HW220898   4.183   6.417   5.596
 6667SOL     OW20899   1.025   6.067   6.536
 6667SOL    HW120900   0.926   6.078   6.532
 6667SOL    HW220901   1.049   6.002   6.608
 6668SOL     OW20902   6.937   4.491   0.491
 6668SOL    HW120903   7.008   4.536   0.544
 6668SOL    HW220904   6.865   4.459   0.553
 6669SOL     OW20905   1.092   1.769   3.233
 6669SOL    HW120906   1.029   1.746   3.159
 6669SOL    HW220907   1.186   1.757   3.201
 6670SOL     OW20908   3.842   2.849   0.447
 6670SOL    HW120909   3.769   2.890   0.500
 6670SOL    HW220910   3.900   2.793   0.507
 6671SOL     OW20911   4.190   5.361   0.496
 6671SOL    HW120912   4.099   5.346   0.533
 6671SOL    HW220913   4.184   5.383   0.399
 6672SOL     OW20914   1.381   2.906   1.711
 6672SOL    HW120915   1.419   2.816   1.690
 6672SOL    HW220916   1.455   2.973   1.711
 6673SOL     OW20917   6.420   3.258   3.807
 6673SOL    HW120918   6.481   3.195   3.856
 6673SOL    HW220919   6.403   3.225   3.715
 6674SOL     OW20920   0.368   1.341   0.247
 6674SOL    HW120921   0.439   1.385   0.301
 6674SOL    HW220922   0.320   1.410   0.192
 6675SOL     OW20923   4.736   0.665   6.433
 6675SOL    HW120924   4.751   0.647   6.531
 6675SOL    HW220925   4.802   0.612   6.380
 6676SOL     OW20926   1.271   4.323   4.201
 6676SOL    HW120927   1.305   4.416   4.187
 6676SOL    HW220928   1.192   4.307   4.141
 6677SOL     OW20929   0.859   1.171   6.654
 6677SOL    HW120930   0.895   1.197   6.744
 6677SOL    HW220931   0.761   1.187   6.652
 6678SOL     OW20932   2.580   4.305   6.222
 6678SOL    HW120933   2.601   4.218   6.177
 6678SOL    HW220934   2.613   4.380   6.164
 6679SOL     OW20935   1.509   1.273   3.677
 6679SOL    HW120936   1.577   1.246   3.746
 6679SOL    HW220937   1.423   1.294   3.722
 6680SOL     OW20938   6.141   6.670   1.445
 6680SOL    HW120939   6.232   6.647   1.482
 6680SOL    HW220940   6.151   6.727   1.364
 6681SOL     OW20941   3.501   5.964   1.584
 6681SOL    HW120942   3.477   6.061   1.570
 6681SOL    HW220943   3.420   5.914   1.614
 6682SOL     OW20944   3.430   5.656   5.550
 6682SOL    HW120945   3.387   5.575   5.589
 6682SOL    HW220946   3.491   5.629   5.475
 6683SOL     OW20947   6.652   4.345   6.304
 6683SOL    HW120948   6.691   4.318   6.215
 6683SOL    HW220949   6.722   4.337   6.374
 6684SOL     OW20950   3.260   5.691   0.111
 6684SOL    HW120951   3.338   5.736   0.067
 6684SOL    HW220952   3.248   5.600   0.071
 6685SOL     OW20953   5.118   2.956   6.971
 6685SOL    HW120954   5.071   3.033   7.014
 6685SOL    HW220955   5.104   2.960   6.872
 6686SOL     OW20956   5.159   5.326   4.219
 6686SOL    HW120957   5.192   5.420   4.207
 6686SOL    HW220958   5.074   5.327   4.272
 6687SOL     OW20959   6.427   2.044   1.869
 6687SOL    HW120960   6.452   2.099   1.789
 6687SOL    HW220961   6.444   2.097   1.952
 6688SOL     OW20962   4.584   4.750   0.859
 6688SOL    HW120963   4.634   4.836   0.876
 6688SOL    HW220964   4.636   4.695   0.794
 6689SOL     OW20965   1.970   4.706   5.739
 6689SOL    HW120966   1.931   4.717   5.648
 6689SOL    HW220967   2.070   4.697   5.732
 6690SOL     OW20968   0.427   6.936   5.962
 6690SOL    HW120969   0.386   6.847   5.986
 6690SOL    HW220970   0.418   6.998   6.040
 6691SOL     OW20971   3.143   2.163   2.541
 6691SOL    HW120972   3.059   2.185   2.492
 6691SOL    HW220973   3.210   2.127   2.476
 6692SOL     OW20974   4.233   5.469   2.266
 6692SOL    HW120975   4.156   5.444   2.324
 6692SOL    HW220976   4.317   5.474   2.321
 6693SOL     OW20977   3.804   1.675   4.756
 6693SOL    HW120978   3.749   1.746   4.799
 6693SOL    HW220979   3.750   1.627   4.687
 6694SOL     OW20980   3.389   4.055   1.762
 6694SOL    HW120981   3.416   3.996   1.687
 6694SOL    HW220982   3.329   4.128   1.727
 6695SOL     OW20983   2.444   2.067   0.334
 6695SOL    HW120984   2.490   2.056   0.246
 6695SOL    HW220985   2.366   2.129   0.323
 6696SOL     OW20986   4.042   3.197   4.419
 6696SOL    HW120987   4.139   3.211   4.438
 6696SOL    HW220988   4.015   3.253   4.340
 6697SOL     OW20989   4.278   2.351   2.339
 6697SOL    HW120990   4.357   2.371   2.396
 6697SOL    HW220991   4.223   2.434   2.329
 6698SOL     OW20992   3.429   4.164   1.377
 6698SOL    HW120993   3.502   4.097   1.382
 6698SOL    HW220994   3.427   4.206   1.286
 6699SOL     OW20995   1.275   4.242   5.630
 6699SOL    HW120996   1.290   4.339   5.652
 6699SOL    HW220997   1.345   4.186   5.674
 6700SOL     OW20998   5.606   0.316   0.129
 6700SOL    HW120999   5.596   0.219   0.106
 6700SOL    HW221000   5.616   0.325   0.228
 6701SOL     OW21001   6.320   0.084   1.331
 6701SOL    HW121002   6.238   0.038   1.298
 6701SOL    HW221003   6.390   0.016   1.354
 6702SOL     OW21004   3.277   2.690   1.188
 6702SOL    HW121005   3.318   2.740   1.265
 6702SOL    HW221006   3.179   2.679   1.205
 6703SOL     OW21007   7.016   1.072   0.329
 6703SOL    HW121008   7.004   1.003   0.400
 6703SOL    HW221009   6.927   1.109   0.302
 6704SOL     OW21010   3.264   6.996   6.089
 6704SOL    HW121011   3.297   6.914   6.042
 6704SOL    HW221012   3.217   0.031   6.024
 6705SOL     OW21013   6.729   4.332   2.397
 6705SOL    HW121014   6.644   4.283   2.378
 6705SOL    HW221015   6.770   4.296   2.481
 6706SOL     OW21016   0.379   6.569   1.470
 6706SOL    HW121017   0.312   6.510   1.516
 6706SOL    HW221018   0.339   6.608   1.388
 6707SOL     OW21019   4.931   1.237   2.323
 6707SOL    HW121020   4.984   1.164   2.366
 6707SOL    HW221021   4.869   1.277   2.390
 6708SOL     OW21022   0.703   3.705   0.987
 6708SOL    HW121023   0.733   3.781   1.044
 6708SOL    HW221024   0.689   3.737   0.893
 6709SOL     OW21025   2.002   4.176   2.492
 6709SOL    HW121026   1.968   4.132   2.576
 6709SOL    HW221027   2.015   4.106   2.422
 6710SOL     OW21028   5.268   1.784   1.206
 6710SOL    HW121029   5.256   1.718   1.279
 6710SOL    HW221030   5.181   1.796   1.157
 6711SOL     OW21031   3.603   6.307   6.577
 6711SOL    HW121032   3.640   6.386   6.529
 6711SOL    HW221033   3.661   6.227   6.560
 6712SOL     OW21034   5.648   3.956   1.533
 6712SOL    HW121035   5.724   3.901   1.499
 6712SOL    HW221036   5.562   3.921   1.494
 6713SOL     OW21037   1.606   5.139   4.949
 6713SOL    HW121038   1.611   5.234   4.980
 6713SOL    HW221039   1.547   5.133   4.869
 6714SOL     OW21040   4.770   1.331   1.249
 6714SOL    HW121041   4.735   1.423   1.269
 6714SOL    HW221042   4.852   1.339   1.193
 6715SOL     OW21043   1.537   0.610   6.871
 6715SOL    HW121044   1.440   0.593   6.857
 6715SOL    HW221045   1.554   0.636   6.966
 6716SOL     OW21046   6.982   6.094   2.503
 6716SOL    HW121047   0.044   6.055   2.472
 6716SOL    HW221048   6.998   6.186   2.538
 6717SOL     OW21049   5.523   1.907   5.508
 6717SOL    HW121050   5.488   1.949   5.591
 6717SOL    HW221051   5.608   1.951   5.482
 6718SOL     OW21052   3.863   1.141   1.560
 6718SOL    HW121053   3.957   1.113   1.574
 6718SOL    HW221054   3.851   1.235   1.592
 6719SOL     OW21055   2.236   1.137   0.223
 6719SOL    HW121056   2.306   1.067   0.210
 6719SOL    HW221057   2.212   1.177   0.134
 6720SOL     OW21058   1.765   0.614   6.217
 6720SOL    HW121059   1.673   0.581   6.196
 6720SOL    HW221060   1.782   0.699   6.168
 6721SOL     OW21061   6.021   0.847   0.633
 6721SOL    HW121062   6.068   0.933   0.651
 6721SOL    HW221063   5.964   0.824   0.711
 6722SOL     OW21064   5.510   3.614   6.828
 6722SOL    HW121065   5.519   3.713   6.839
 6722SOL    HW221066   5.493   3.571   6.917
 6723SOL     OW21067   0.998   2.441   5.675
 6723SOL    HW121068   0.974   2.529   5.634
 6723SOL    HW221069   0.958   2.434   5.767
 6724SOL     OW21070   2.113   3.341   4.824
 6724SOL    HW121071   2.150   3.432   4.843
 6724SOL    HW221072   2.106   3.289   4.909
 6725SOL     OW21073   5.382   2.499   3.365
 6725SOL    HW121074   5.337   2.474   3.451
 6725SOL    HW221075   5.404   2.417   3.314
 6726SOL     OW21076   0.634   0.469   5.221
 6726SOL    HW121077   0.668   0.545   5.165
 6726SOL    HW221078   0.665   0.382   5.183
 6727SOL     OW21079   1.329   5.130   5.340
 6727SOL    HW121080   1.322   5.088   5.431
 6727SOL    HW221081   1.362   5.062   5.275
 6728SOL     OW21082   3.325   1.896   2.980
 6728SOL    HW121083   3.283   1.876   2.891
 6728SOL    HW221084   3.310   1.992   3.002
 6729SOL     OW21085   4.364   1.067   2.489
 6729SOL    HW121086   4.310   0.983   2.480
 6729SOL    HW221087   4.440   1.065   2.424
 6730SOL     OW21088   0.656   1.089   1.158
 6730SOL    HW121089   0.753   1.069   1.151
 6730SOL    HW221090   0.604   1.021   1.107
 6731SOL     OW21091   3.508   0.128   6.105
 6731SOL    HW121092   3.580   0.102   6.170
 6731SOL    HW221093   3.452   0.048   6.083
 6732SOL     OW21094   6.971   5.558   4.994
 6732SOL    HW121095   6.922   5.471   5.002
 6732SOL    HW221096   0.035   5.542   4.952
 6733SOL     OW21097   4.843   4.656   6.063
 6733SOL    HW121098   4.822   4.665   6.160
 6733SOL    HW221099   4.941   4.638   6.052
 6734SOL     OW21100   6.418   1.978   4.317
 6734SOL    HW121101   6.443   1.999   4.412
 6734SOL    HW221102   6.500   1.975   4.260
 6735SOL     OW21103   6.398   2.641   3.307
 6735SOL    HW121104   6.347   2.603   3.229
 6735SOL    HW221105   6.473   2.697   3.273
 6736SOL     OW21106   3.538   3.525   0.607
 6736SOL    HW121107   3.504   3.497   0.697
 6736SOL    HW221108   3.466   3.513   0.539
 6737SOL     OW21109   0.011   3.243   0.486
 6737SOL    HW121110   7.024   3.256   0.387
 6737SOL    HW221111   0.069   3.316   0.522
 6738SOL     OW21112   1.226   5.949   3.752
 6738SOL    HW121113   1.280   5.909   3.677
 6738SOL    HW221114   1.200   6.042   3.728
 6739SOL     OW21115   6.966   0.041   4.814
 6739SOL    HW121116   7.022   7.016   4.880
 6739SOL    HW221117   6.995   0.017   4.721
 6740SOL     OW21118   0.789   6.710   2.960
 6740SOL    HW121119   0.824   6.781   2.898
 6740SOL    HW221120   0.787   6.746   3.054
 6741SOL     OW21121   3.905   1.747   6.867
 6741SOL    HW121122   4.001   1.775   6.858
 6741SOL    HW221123   3.855   1.818   6.918
 6742SOL     OW21124   5.376   4.757   3.633
 6742SOL    HW121125   5.312   4.723   3.702
 6742SOL    HW221126   5.427   4.835   3.669
 6743SOL     OW21127   3.931   3.833   0.695
 6743SOL    HW121128   3.857   3.770   0.671
 6743SOL    HW221129   4.019   3.789   0.681
 6744SOL     OW21130   0.086   6.648   5.891
 6744SOL    HW121131   0.005   6.630   5.947
 6744SOL    HW221132   0.126   6.562   5.862
 6745SOL     OW21133   0.043   4.669   5.374
 6745SOL    HW121134   0.090   4.618   5.302
 6745SOL    HW221135   0.101   4.674   5.455
 6746SOL     OW21136   1.080   2.509   2.465
 6746SOL    HW121137   1.114   2.473   2.552
 6746SOL    HW221138   1.149   2.497   2.394
 6747SOL     OW21139   1.758   6.168   5.744
 6747SOL    HW121140   1.677   6.110   5.750
 6747SOL    HW221141   1.830   6.119   5.695
 6748SOL     OW21142   2.064   1.014   4.658
 6748SOL    HW121143   2.015   1.070   4.724
 6748SOL    HW221144   2.118   0.945   4.706
 6749SOL     OW21145   3.804   5.290   1.314
 6749SOL    HW121146   3.843   5.225   1.248
 6749SOL    HW221147   3.720   5.253   1.353
 6750SOL     OW21148   3.650   1.188   5.170
 6750SOL    HW121149   3.637   1.211   5.074
 6750SOL    HW221150   3.566   1.208   5.221
 6751SOL     OW21151   5.099   7.015   4.305
 6751SOL    HW121152   5.056   0.070   4.348
 6751SOL    HW221153   5.180   0.020   4.253
 6752SOL     OW21154   2.242   5.184   2.188
 6752SOL    HW121155   2.241   5.140   2.277
 6752SOL    HW221156   2.292   5.270   2.194
 6753SOL     OW21157   3.840   3.290   5.711
 6753SOL    HW121158   3.863   3.226   5.637
 6753SOL    HW221159   3.805   3.238   5.790
 6754SOL     OW21160   6.645   1.734   0.844
 6754SOL    HW121161   6.674   1.715   0.937
 6754SOL    HW221162   6.712   1.698   0.779
 6755SOL     OW21163   2.765   5.917   6.050
 6755SOL    HW121164   2.857   5.956   6.057
 6755SOL    HW221165   2.758   5.837   6.110
 6756SOL     OW21166   2.039   1.883   5.214
 6756SOL    HW121167   2.008   1.880   5.119
 6756SOL    HW221168   2.052   1.979   5.241
 6757SOL     OW21169   3.816   6.728   0.507
 6757SOL    HW121170   3.738   6.665   0.507
 6757SOL    HW221171   3.871   6.714   0.424
 6758SOL     OW21172   5.359   1.631   3.025
 6758SOL    HW121173   5.410   1.716   3.035
 6758SOL    HW221174   5.261   1.650   3.029
 6759SOL     OW21175   0.833   2.626   2.453
 6759SOL    HW121176   0.926   2.592   2.456
 6759SOL    HW221177   0.788   2.596   2.369
 6760SOL     OW21178   5.162   3.067   3.841
 6760SOL    HW121179   5.074   3.021   3.846
 6760SOL    HW221180   5.180   3.095   3.747
 6761SOL     OW21181   4.275   2.023   4.716
 6761SOL    HW121182   4.254   2.121   4.721
 6761SOL    HW221183   4.228   1.975   4.791
 6762SOL     OW21184   7.011   5.553   3.753
 6762SOL    HW121185   7.016   5.498   3.836
 6762SOL    HW221186   6.927   5.608   3.753
 6763SOL     OW21187   5.284   5.535   5.301
 6763SOL    HW121188   5.223   5.610   5.275
 6763SOL    HW221189   5.317   5.490   5.218
 6764SOL     OW21190   1.533   5.584   0.859
 6764SOL    HW121191   1.549   5.648   0.784
 6764SOL    HW221192   1.609   5.520   0.866
 6765SOL     OW21193   6.814   5.248   3.043
 6765SOL    HW121194   6.901   5.199   3.042
 6765SOL    HW221195   6.771   5.242   2.953
 6766SOL     OW21196   6.224   0.744   0.831
 6766SOL    HW121197   6.158   0.804   0.785
 6766SOL    HW221198   6.276   0.692   0.762
 6767SOL     OW21199   3.093   0.516   0.460
 6767SOL    HW121200   3.112   0.611   0.438
 6767SOL    HW221201   2.997   0.496   0.442
 6768SOL     OW21202   2.036   0.627   0.740
 6768SOL    HW121203   2.028   0.597   0.645
 6768SOL    HW221204   2.077   0.718   0.742
 6769SOL     OW21205   4.188   2.891   1.639
 6769SOL    HW121206   4.238   2.808   1.612
 6769SOL    HW221207   4.252   2.967   1.648
 6770SOL     OW21208   0.543   6.842   1.851
 6770SOL    HW121209   0.630   6.890   1.861
 6770SOL    HW221210   0.533   6.809   1.757
 6771SOL     OW21211   4.038   2.223   2.932
 6771SOL    HW121212   3.957   2.269   2.967
 6771SOL    HW221213   4.012   2.160   2.858
 6772SOL     OW21214   3.093   1.179   2.681
 6772SOL    HW121215   3.026   1.237   2.727
 6772SOL    HW221216   3.124   1.224   2.597
 6773SOL     OW21217   0.292   4.265   2.088
 6773SOL    HW121218   0.262   4.197   2.022
 6773SOL    HW221219   0.328   4.345   2.040
 6774SOL     OW21220   0.857   1.674   6.876
 6774SOL    HW121221   0.837   1.589   6.926
 6774SOL    HW221222   0.773   1.729   6.869
 6775SOL     OW21223   2.609   4.755   0.754
 6775SOL    HW121224   2.707   4.778   0.754
 6775SOL    HW221225   2.581   4.733   0.847
 6776SOL     OW21226   6.212   5.713   0.019
 6776SOL    HW121227   6.115   5.696   0.040
 6776SOL    HW221228   6.259   5.742   0.102
 6777SOL     OW21229   4.499   4.551   6.617
 6777SOL    HW121230   4.426   4.588   6.560
 6777SOL    HW221231   4.540   4.624   6.671
 6778SOL     OW21232   1.083   5.967   3.030
 6778SOL    HW121233   1.039   5.878   3.012
 6778SOL    HW221234   1.024   6.022   3.088
 6779SOL     OW21235   0.182   4.304   0.358
 6779SOL    HW121236   0.225   4.388   0.392
 6779SOL    HW221237   0.171   4.239   0.433
 6780SOL     OW21238   0.407   2.400   1.906
 6780SOL    HW121239   0.502   2.370   1.911
 6780SOL    HW221240   0.353   2.330   1.857
 6781SOL     OW21241   5.365   5.599   5.579
 6781SOL    HW121242   5.327   5.595   5.487
 6781SOL    HW221243   5.424   5.520   5.595
 6782SOL     OW21244   6.128   1.572   3.132
 6782SOL    HW121245   6.183   1.605   3.209
 6782SOL    HW221246   6.180   1.502   3.082
 6783SOL     OW21247   0.621   6.156   6.738
 6783SOL    HW121248   0.608   6.074   6.794
 6783SOL    HW221249   0.566   6.231   6.775
 6784SOL     OW21250   3.308   3.370   0.254
 6784SOL    HW121251   3.305   3.309   0.175
 6784SOL    HW221252   3.397   3.361   0.300
 6785SOL     OW21253   5.514   6.158   2.408
 6785SOL    HW121254   5.560   6.080   2.365
 6785SOL    HW221255   5.551   6.243   2.370
 6786SOL     OW21256   1.795   2.822   6.003
 6786SOL    HW121257   1.880   2.837   6.053
 6786SOL    HW221258   1.720   2.868   6.050
 6787SOL     OW21259   1.214   4.004   2.211
 6787SOL    HW121260   1.232   4.026   2.115
 6787SOL    HW221261   1.275   4.057   2.269
 6788SOL     OW21262   3.057   3.653   0.911
 6788SOL    HW121263   3.017   3.570   0.952
 6788SOL    HW221264   3.094   3.631   0.821
 6789SOL     OW21265   0.516   6.102   2.412
 6789SOL    HW121266   0.606   6.146   2.410
 6789SOL    HW221267   0.462   6.142   2.485
 6790SOL     OW21268   1.689   2.804   0.200
 6790SOL    HW121269   1.748   2.831   0.276
 6790SOL    HW221270   1.623   2.877   0.181
 6791SOL     OW21271   4.486   3.394   6.179
 6791SOL    HW121272   4.508   3.303   6.143
 6791SOL    HW221273   4.404   3.429   6.133
 6792SOL     OW21274   6.811   5.855   0.900
 6792SOL    HW121275   6.872   5.866   0.978
 6792SOL    HW221276   6.756   5.772   0.912
 6793SOL     OW21277   0.472   2.439   1.346
 6793SOL    HW121278   0.529   2.499   1.402
 6793SOL    HW221279   0.501   2.445   1.250
 6794SOL     OW21280   4.856   1.648   5.310
 6794SOL    HW121281   4.798   1.595   5.372
 6794SOL    HW221282   4.818   1.644   5.218
 6795SOL     OW21283   3.015   5.948   6.731
 6795SOL    HW121284   2.927   5.994   6.744
 6795SOL    HW221285   3.037   5.895   6.813
 6796SOL     OW21286   4.477   1.579   3.212
 6796SOL    HW121287   4.569   1.618   3.208
 6796SOL    HW221288   4.416   1.643   3.259
 6797SOL     OW21289   5.781   3.071   2.384
 6797SOL    HW121290   5.683   3.056   2.399
 6797SOL    HW221291   5.796   3.166   2.356
 6798SOL     OW21292   5.679   6.270   2.748
 6798SOL    HW121293   5.582   6.252   2.767
 6798SOL    HW221294   5.735   6.237   2.824
 6799SOL     OW21295   5.696   6.798   0.592
 6799SOL    HW121296   5.597   6.791   0.592
 6799SOL    HW221297   5.736   6.713   0.626
 6800SOL     OW21298   2.204   4.891   6.955
 6800SOL    HW121299   2.239   4.866   6.865
 6800SOL    HW221300   2.104   4.881   6.956
 6801SOL     OW21301   1.447   2.370   2.331
 6801SOL    HW121302   1.450   2.430   2.411
 6801SOL    HW221303   1.528   2.312   2.330
 6802SOL     OW21304   2.231   6.295   2.091
 6802SOL    HW121305   2.312   6.238   2.077
 6802SOL    HW221306   2.189   6.272   2.178
 6803SOL     OW21307   5.338   2.056   6.911
 6803SOL    HW121308   5.296   2.085   6.997
 6803SOL    HW221309   5.318   2.123   6.840
 6804SOL     OW21310   1.631   6.019   3.629
 6804SOL    HW121311   1.723   6.021   3.668
 6804SOL    HW221312   1.587   6.108   3.643
 6805SOL     OW21313   5.905   0.317   4.693
 6805SOL    HW121314   5.926   0.401   4.743
 6805SOL    HW221315   5.989   0.275   4.661
 6806SOL     OW21316   4.663   1.104   5.263
 6806SOL    HW121317   4.748   1.067   5.226
 6806SOL    HW221318   4.625   1.171   5.199
 6807SOL     OW21319   3.088   3.036   0.280
 6807SOL    HW121320   3.104   3.104   0.352
 6807SOL    HW221321   3.072   2.947   0.321
 6808SOL     OW21322   1.046   2.663   5.816
 6808SOL    HW121323   0.981   2.712   5.758
 6808SOL    HW221324   1.073   2.578   5.770
 6809SOL     OW21325   2.504   3.790   6.425
 6809SOL    HW121326   2.438   3.862   6.404
 6809SOL    HW221327   2.541   3.753   6.340
 6810SOL     OW21328   6.016   1.004   2.279
 6810SOL    HW121329   6.051   1.049   2.362
 6810SOL    HW221330   5.934   0.952   2.301
 6811SOL     OW21331   5.592   5.193   1.364
 6811SOL    HW121332   5.561   5.102   1.391
 6811SOL    HW221333   5.691   5.199   1.374
 6812SOL     OW21334   3.266   3.486   2.988
 6812SOL    HW121335   3.329   3.551   3.030
 6812SOL    HW221336   3.236   3.419   3.057
 6813SOL     OW21337   4.185   3.070   0.585
 6813SOL    HW121338   4.278   3.094   0.611
 6813SOL    HW221339   4.180   3.055   0.486
 6814SOL     OW21340   2.338   3.383   0.668
 6814SOL    HW121341   2.247   3.407   0.701
 6814SOL    HW221342   2.399   3.462   0.675
 6815SOL     OW21343   2.174   0.447   2.090
 6815SOL    HW121344   2.075   0.458   2.098
 6815SOL    HW221345   2.198   0.422   1.996
 6816SOL     OW21346   6.621   4.531   0.826
 6816SOL    HW121347   6.711   4.488   0.833
 6816SOL    HW221348   6.599   4.578   0.911
 6817SOL     OW21349   0.142   1.450   5.983
 6817SOL    HW121350   0.203   1.407   6.049
 6817SOL    HW221351   0.175   1.542   5.962
 6818SOL     OW21352   3.815   6.143   3.183
 6818SOL    HW121353   3.799   6.241   3.170
 6818SOL    HW221354   3.890   6.113   3.125
 6819SOL     OW21355   3.743   1.302   3.990
 6819SOL    HW121356   3.707   1.234   3.926
 6819SOL    HW221357   3.807   1.259   4.053
 6820SOL     OW21358   0.827   4.381   3.613
 6820SOL    HW121359   0.870   4.463   3.650
 6820SOL    HW221360   0.736   4.370   3.653
 6821SOL     OW21361   2.508   2.163   4.462
 6821SOL    HW121362   2.442   2.226   4.500
 6821SOL    HW221363   2.486   2.145   4.366
 6822SOL     OW21364   5.365   2.065   5.994
 6822SOL    HW121365   5.344   2.126   6.070
 6822SOL    HW221366   5.342   1.971   6.019
 6823SOL     OW21367   2.940   3.252   3.231
 6823SOL    HW121368   2.969   3.191   3.156
 6823SOL    HW221369   2.882   3.324   3.194
 6824SOL     OW21370   0.785   4.215   0.154
 6824SOL    HW121371   0.784   4.119   0.181
 6824SOL    HW221372   0.816   4.223   0.059
 6825SOL     OW21373   5.035   0.192   2.506
 6825SOL    HW121374   5.006   0.165   2.598
 6825SOL    HW221375   5.133   0.176   2.497
 6826SOL     OW21376   1.485   3.453   2.891
 6826SOL    HW121377   1.551   3.440   2.817
 6826SOL    HW221378   1.491   3.375   2.953
 6827SOL     OW21379   6.032   5.530   5.891
 6827SOL    HW121380   6.100   5.561   5.958
 6827SOL    HW221381   6.004   5.437   5.914
 6828SOL     OW21382   1.452   2.690   0.933
 6828SOL    HW121383   1.543   2.730   0.941
 6828SOL    HW221384   1.385   2.763   0.920
 6829SOL     OW21385   4.918   6.193   4.041
 6829SOL    HW121386   4.862   6.172   3.961
 6829SOL    HW221387   4.884   6.277   4.084
 6830SOL     OW21388   5.325   2.552   3.872
 6830SOL    HW121389   5.330   2.633   3.930
 6830SOL    HW221390   5.230   2.519   3.869
 6831SOL     OW21391   0.432   0.613   6.137
 6831SOL    HW121392   0.499   0.538   6.132
 6831SOL    HW221393   0.380   0.616   6.052
 6832SOL     OW21394   3.260   5.281   2.082
 6832SOL    HW121395   3.188   5.216   2.056
 6832SOL    HW221396   3.232   5.330   2.165
 6833SOL     OW21397   3.882   5.187   0.339
 6833SOL    HW121398   3.852   5.118   0.404
 6833SOL    HW221399   3.842   5.276   0.364
 6834SOL     OW21400   4.185   6.104   2.167
 6834SOL    HW121401   4.252   6.031   2.181
 6834SOL    HW221402   4.098   6.078   2.208
 6835SOL     OW21403   3.899   0.385   4.984
 6835SOL    HW121404   3.849   0.350   5.063
 6835SOL    HW221405   3.970   0.320   4.957
 6836SOL     OW21406   3.382   6.198   0.231
 6836SOL    HW121407   3.296   6.150   0.215
 6836SOL    HW221408   3.446   6.177   0.157
 6837SOL     OW21409   1.664   3.110   2.034
 6837SOL    HW121410   1.646   3.012   2.042
 6837SOL    HW221411   1.742   3.134   2.092
 6838SOL     OW21412   2.555   1.322   0.114
 6838SOL    HW121413   2.494   1.395   0.085
 6838SOL    HW221414   2.566   1.325   0.213
 6839SOL     OW21415   4.260   1.105   0.959
 6839SOL    HW121416   4.344   1.118   1.012
 6839SOL    HW221417   4.193   1.174   0.984
 6840SOL     OW21418   1.182   1.747   6.253
 6840SOL    HW121419   1.180   1.725   6.155
 6840SOL    HW221420   1.274   1.735   6.288
 6841SOL     OW21421   6.521   3.095   6.292
 6841SOL    HW121422   6.541   3.192   6.277
 6841SOL    HW221423   6.422   3.081   6.291
 6842SOL     OW21424   2.426   4.948   3.044
 6842SOL    HW121425   2.505   4.887   3.038
 6842SOL    HW221426   2.433   5.003   3.127
 6843SOL     OW21427   4.862   6.574   6.928
 6843SOL    HW121428   4.894   6.481   6.914
 6843SOL    HW221429   4.779   6.573   6.985
 6844SOL     OW21430   5.391   0.923   5.515
 6844SOL    HW121431   5.298   0.958   5.504
 6844SOL    HW221432   5.411   0.912   5.612
 6845SOL     OW21433   4.873   1.635   2.241
 6845SOL    HW121434   4.853   1.732   2.255
 6845SOL    HW221435   4.808   1.597   2.175
 6846SOL     OW21436   2.418   3.909   6.794
 6846SOL    HW121437   2.418   3.940   6.889
 6846SOL    HW221438   2.458   3.817   6.788
 6847SOL     OW21439   6.490   3.575   3.982
 6847SOL    HW121440   6.489   3.552   3.885
 6847SOL    HW221441   6.402   3.551   4.023
 6848SOL     OW21442   5.741   5.040   3.454
 6848SOL    HW121443   5.702   5.073   3.540
 6848SOL    HW221444   5.721   5.107   3.381
 6849SOL     OW21445   3.762   4.421   6.622
 6849SOL    HW121446   3.698   4.345   6.636
 6849SOL    HW221447   3.834   4.394   6.559
 6850SOL     OW21448   3.881   1.821   3.513
 6850SOL    HW121449   3.876   1.737   3.567
 6850SOL    HW221450   3.834   1.808   3.426
 6851SOL     OW21451   1.801   3.217   3.637
 6851SOL    HW121452   1.816   3.268   3.552
 6851SOL    HW221453   1.870   3.242   3.704
 6852SOL     OW21454   2.745   4.849   0.214
 6852SOL    HW121455   2.784   4.861   0.123
 6852SOL    HW221456   2.649   4.879   0.213
 6853SOL     OW21457   4.882   3.441   6.859
 6853SOL    HW121458   4.891   3.466   6.956
 6853SOL    HW221459   4.895   3.522   6.803
 6854SOL     OW21460   5.367   6.541   6.371
 6854SOL    HW121461   5.464   6.565   6.373
 6854SOL    HW221462   5.338   6.527   6.276
 6855SOL     OW21463   4.087   5.226   4.046
 6855SOL    HW121464   4.156   5.282   4.090
 6855SOL    HW221465   3.998   5.242   4.089
 6856SOL     OW21466   1.116   1.681   6.804
 6856SOL    HW121467   1.019   1.681   6.829
 6856SOL    HW221468   1.142   1.771   6.769
 6857SOL     OW21469   0.994   3.918   5.716
 6857SOL    HW121470   0.925   3.985   5.742
 6857SOL    HW221471   0.998   3.910   5.616
 6858SOL     OW21472   2.419   3.881   1.744
 6858SOL    HW121473   2.366   3.960   1.713
 6858SOL    HW221474   2.516   3.897   1.724
 6859SOL     OW21475   0.821   1.579   2.375
 6859SOL    HW121476   0.794   1.627   2.292
 6859SOL    HW221477   0.793   1.484   2.370
 6860SOL     OW21478   0.637   6.657   2.219
 6860SOL    HW121479   0.554   6.678   2.168
 6860SOL    HW221480   0.630   6.564   2.256
 6861SOL     OW21481   5.397   2.857   4.976
 6861SOL    HW121482   5.386   2.764   4.942
 6861SOL    HW221483   5.493   2.884   4.971
 6862SOL     OW21484   0.741   4.565   5.547
 6862SOL    HW121485   0.792   4.480   5.531
 6862SOL    HW221486   0.713   4.603   5.459
 6863SOL     OW21487   6.286   0.428   5.677
 6863SOL    HW121488   6.284   0.333   5.645
 6863SOL    HW221489   6.263   0.489   5.601
 6864SOL     OW21490   1.438   3.570   6.400
 6864SOL    HW121491   1.446   3.544   6.496
 6864SOL    HW221492   1.502   3.645   6.381
 6865SOL     OW21493   2.257   7.008   3.860
 6865SOL    HW121494   2.309   6.986   3.943
 6865SOL    HW221495   2.205   0.068   3.875
 6866SOL     OW21496   0.847   4.160   1.272
 6866SOL    HW121497   0.758   4.134   1.310
 6866SOL    HW221498   0.847   4.257   1.249
 6867SOL     OW21499   2.134   3.881   6.861
 6867SOL    HW121500   2.122   3.980   6.852
 6867SOL    HW221501   2.214   3.853   6.808
 6868SOL     OW21502   2.170   5.081   4.368
 6868SOL    HW121503   2.230   5.119   4.298
 6868SOL    HW221504   2.103   5.021   4.324
 6869SOL     OW21505   3.371   0.861   6.218
 6869SOL    HW121506   3.282   0.820   6.236
 6869SOL    HW221507   3.424   0.801   6.158
 6870SOL     OW21508   6.340   2.364   0.924
 6870SOL    HW121509   6.411   2.426   0.955
 6870SOL    HW221510   6.382   2.286   0.877
 6871SOL     OW21511   0.558   4.090   2.352
 6871SOL    HW121512   0.618   4.042   2.415
 6871SOL    HW221513   0.521   4.026   2.285
 6872SOL     OW21514   1.837   3.647   0.688
 6872SOL    HW121515   1.775   3.570   0.705
 6872SOL    HW221516   1.863   3.648   0.592
 6873SOL     OW21517   0.799   4.653   3.918
 6873SOL    HW121518   0.731   4.589   3.953
 6873SOL    HW221519   0.817   4.724   3.986
 6874SOL     OW21520   5.178   6.680   3.211
 6874SOL    HW121521   5.248   6.652   3.145
 6874SOL    HW221522   5.207   6.653   3.303
 6875SOL     OW21523   1.803   2.010   0.335
 6875SOL    HW121524   1.779   1.957   0.417
 6875SOL    HW221525   1.729   2.072   0.312
 6876SOL     OW21526   4.762   5.708   3.627
 6876SOL    HW121527   4.796   5.799   3.604
 6876SOL    HW221528   4.663   5.712   3.641
 6877SOL     OW21529   1.601   3.718   2.699
 6877SOL    HW121530   1.625   3.785   2.629
 6877SOL    HW221531   1.636   3.750   2.788
 6878SOL     OW21532   1.833   0.370   4.630
 6878SOL    HW121533   1.788   0.281   4.620
 6878SOL    HW221534   1.876   0.394   4.542
 6879SOL     OW21535   1.951   1.953   0.861
 6879SOL    HW121536   1.882   1.994   0.921
 6879SOL    HW221537   2.028   2.016   0.850
 6880SOL     OW21538   1.619   5.402   6.538
 6880SOL    HW121539   1.645   5.431   6.447
 6880SOL    HW221540   1.536   5.451   6.566
 6881SOL     OW21541   1.130   3.101   0.297
 6881SOL    HW121542   1.064   3.175   0.313
 6881SOL    HW221543   1.203   3.107   0.365
 6882SOL     OW21544   3.128   7.002   6.652
 6882SOL    HW121545   3.139   6.956   6.564
 6882SOL    HW221546   3.209   6.985   6.708
 6883SOL     OW21547   4.868   0.413   6.863
 6883SOL    HW121548   4.780   0.398   6.906
 6883SOL    HW221549   4.892   0.333   6.807
 6884SOL     OW21550   2.311   4.261   3.005
 6884SOL    HW121551   2.211   4.260   2.994
 6884SOL    HW221552   2.342   4.171   3.035
 6885SOL     OW21553   5.668   5.376   4.908
 6885SOL    HW121554   5.670   5.430   4.993
 6885SOL    HW221555   5.579   5.333   4.898
 6886SOL     OW21556   5.052   1.571   6.660
 6886SOL    HW121557   5.075   1.482   6.700
 6886SOL    HW221558   5.022   1.633   6.732
 6887SOL     OW21559   5.682   6.075   6.125
 6887SOL    HW121560   5.607   6.090   6.188
 6887SOL    HW221561   5.649   6.026   6.044
 6888SOL     OW21562   6.204   5.183   6.448
 6888SOL    HW121563   6.194   5.210   6.543
 6888SOL    HW221564   6.158   5.095   6.433
 6889SOL     OW21565   0.585   2.308   6.853
 6889SOL    HW121566   0.643   2.333   6.931
 6889SOL    HW221567   0.519   2.381   6.837
 6890SOL     OW21568   4.798   4.850   3.017
 6890SOL    HW121569   4.889   4.855   3.057
 6890SOL    HW221570   4.781   4.758   2.984
 6891SOL     OW21571   1.577   1.023   0.819
 6891SOL    HW121572   1.656   0.995   0.874
 6891SOL    HW221573   1.608   1.082   0.744
 6892SOL     OW21574   2.428   0.973   4.721
 6892SOL    HW121575   2.468   0.928   4.642
 6892SOL    HW221576   2.404   1.067   4.698
 6893SOL     OW21577   5.781   3.193   0.463
 6893SOL    HW121578   5.847   3.268   0.465
 6893SOL    HW221579   5.773   3.158   0.370
 6894SOL     OW21580   5.464   5.498   0.486
 6894SOL    HW121581   5.503   5.570   0.543
 6894SOL    HW221582   5.501   5.409   0.514
 6895SOL     OW21583   0.616   6.393   1.523
 6895SOL    HW121584   0.547   6.464   1.513
 6895SOL    HW221585   0.622   6.340   1.438
 6896SOL     OW21586   4.419   2.418   4.595
 6896SOL    HW121587   4.356   2.341   4.588
 6896SOL    HW221588   4.421   2.468   4.508
 6897SOL     OW21589   4.770   3.366   5.263
 6897SOL    HW121590   4.765   3.383   5.361
 6897SOL    HW221591   4.748   3.449   5.213
 6898SOL     OW21592   2.267   0.806   1.463
 6898SOL    HW121593   2.361   0.797   1.497
 6898SOL    HW221594   2.264   0.874   1.390
 6899SOL     OW21595   6.324   6.136   2.021
 6899SOL    HW121596   6.387   6.172   2.089
 6899SOL    HW221597   6.232   6.132   2.060
 6900SOL     OW21598   6.473   3.957   5.522
 6900SOL    HW121599   6.540   3.939   5.450
 6900SOL    HW221600   6.434   4.048   5.509
 6901SOL     OW21601   5.006   4.325   6.976
 6901SOL    HW121602   5.019   4.293   0.044
 6901SOL    HW221603   4.963   4.416   6.977
 6902SOL     OW21604   0.736   6.076   5.690
 6902SOL    HW121605   0.755   6.014   5.614
 6902SOL    HW221606   0.820   6.088   5.744
 6903SOL     OW21607   1.604   5.836   4.812
 6903SOL    HW121608   1.652   5.825   4.899
 6903SOL    HW221609   1.552   5.922   4.813
 6904SOL     OW21610   6.347   6.662   5.123
 6904SOL    HW121611   6.369   6.571   5.158
 6904SOL    HW221612   6.271   6.655   5.058
 6905SOL     OW21613   4.881   5.988   5.933
 6905SOL    HW121614   4.962   5.935   5.909
 6905SOL    HW221615   4.901   6.045   6.013
 6906SOL     OW21616   3.249   1.776   3.595
 6906SOL    HW121617   3.292   1.836   3.527
 6906SOL    HW221618   3.208   1.698   3.548
 6907SOL     OW21619   5.906   2.231   0.487
 6907SOL    HW121620   5.811   2.218   0.458
 6907SOL    HW221621   5.911   2.226   0.587
 6908SOL     OW21622   2.857   4.331   0.267
 6908SOL    HW121623   2.916   4.295   0.194
 6908SOL    HW221624   2.840   4.428   0.252
 6909SOL     OW21625   5.866   5.667   1.965
 6909SOL    HW121626   5.931   5.653   2.039
 6909SOL    HW221627   5.807   5.587   1.957
 6910SOL     OW21628   1.655   3.400   2.661
 6910SOL    HW121629   1.671   3.493   2.627
 6910SOL    HW221630   1.560   3.374   2.645
 6911SOL     OW21631   1.911   6.849   5.772
 6911SOL    HW121632   1.819   6.860   5.737
 6911SOL    HW221633   1.976   6.845   5.696
 6912SOL     OW21634   2.543   3.678   6.686
 6912SOL    HW121635   2.550   3.731   6.601
 6912SOL    HW221636   2.450   3.641   6.694
 6913SOL     OW21637   5.277   6.538   6.102
 6913SOL    HW121638   5.193   6.487   6.086
 6913SOL    HW221639   5.275   6.623   6.049
 6914SOL     OW21640   6.372   2.679   2.461
 6914SOL    HW121641   6.352   2.769   2.421
 6914SOL    HW221642   6.381   2.688   2.560
 6915SOL     OW21643   0.195   3.363   3.196
 6915SOL    HW121644   0.136   3.339   3.273
 6915SOL    HW221645   0.278   3.408   3.229
 6916SOL     OW21646   5.091   6.094   6.874
 6916SOL    HW121647   5.064   6.012   6.824
 6916SOL    HW221648   5.085   6.076   6.973
 6917SOL     OW21649   5.040   5.640   1.356
 6917SOL    HW121650   5.006   5.721   1.309
 6917SOL    HW221651   5.066   5.571   1.289
 6918SOL     OW21652   2.137   3.507   1.254
 6918SOL    HW121653   2.214   3.567   1.231
 6918SOL    HW221654   2.087   3.546   1.332
 6919SOL     OW21655   6.074   6.072   3.427
 6919SOL    HW121656   6.007   6.115   3.487
 6919SOL    HW221657   6.068   5.972   3.436
 6920SOL     OW21658   6.114   0.931   5.979
 6920SOL    HW121659   6.107   0.832   5.965
 6920SOL    HW221660   6.038   0.977   5.934
 6921SOL     OW21661   4.218   0.390   4.158
 6921SOL    HW121662   4.307   0.375   4.202
 6921SOL    HW221663   4.150   0.413   4.228
 6922SOL     OW21664   1.583   4.246   6.402
 6922SOL    HW121665   1.571   4.275   6.497
 6922SOL    HW221666   1.599   4.327   6.345
 6923SOL     OW21667   6.024   6.960   2.634
 6923SOL    HW121668   5.982   6.908   2.708
 6923SOL    HW221669   6.073   0.013   2.672
 6924SOL     OW21670   3.127   6.028   1.308
 6924SOL    HW121671   3.130   6.118   1.263
 6924SOL    HW221672   3.139   6.040   1.407
 6925SOL     OW21673   5.837   6.280   5.520
 6925SOL    HW121674   5.821   6.379   5.519
 6925SOL    HW221675   5.795   6.240   5.601
 6926SOL     OW21676   3.150   1.958   0.288
 6926SOL    HW121677   3.194   1.880   0.331
 6926SOL    HW221678   3.129   2.027   0.358
 6927SOL     OW21679   4.818   1.013   0.728
 6927SOL    HW121680   4.822   1.084   0.798
 6927SOL    HW221681   4.901   1.017   0.672
 6928SOL     OW21682   4.993   5.128   1.066
 6928SOL    HW121683   5.062   5.200   1.058
 6928SOL    HW221684   5.034   5.040   1.045
 6929SOL     OW21685   6.529   5.061   1.348
 6929SOL    HW121686   6.626   5.042   1.331
 6929SOL    HW221687   6.513   5.160   1.343
 6930SOL     OW21688   1.199   0.360   0.879
 6930SOL    HW121689   1.274   0.295   0.868
 6930SOL    HW221690   1.213   0.412   0.963
 6931SOL     OW21691   2.919   3.398   0.992
 6931SOL    HW121692   2.838   3.436   0.948
 6931SOL    HW221693   2.900   3.380   1.088
 6932SOL     OW21694   4.850   5.840   0.255
 6932SOL    HW121695   4.838   5.801   0.346
 6932SOL    HW221696   4.944   5.823   0.223
 6933SOL     OW21697   3.541   5.900   6.407
 6933SOL    HW121698   3.573   5.815   6.366
 6933SOL    HW221699   3.450   5.886   6.446
 6934SOL     OW21700   5.140   3.880   0.112
 6934SOL    HW121701   5.200   3.900   0.189
 6934SOL    HW221702   5.060   3.828   0.143
 6935SOL     OW21703   4.884   5.662   1.585
 6935SOL    HW121704   4.947   5.639   1.511
 6935SOL    HW221705   4.817   5.729   1.553
 6936SOL     OW21706   0.687   1.925   5.278
 6936SOL    HW121707   0.659   1.926   5.374
 6936SOL    HW221708   0.707   2.018   5.248
 6937SOL     OW21709   5.479   5.862   6.878
 6937SOL    HW121710   5.545   5.858   6.803
 6937SOL    HW221711   5.446   5.956   6.888
 6938SOL     OW21712   1.295   0.356   5.097
 6938SOL    HW121713   1.198   0.345   5.118
 6938SOL    HW221714   1.309   0.353   4.999
 6939SOL     OW21715   6.050   3.804   3.449
 6939SOL    HW121716   6.077   3.709   3.431
 6939SOL    HW221717   6.049   3.854   3.362
 6940SOL     OW21718   3.100   5.893   0.370
 6940SOL    HW121719   3.084   5.928   0.463
 6940SOL    HW221720   3.013   5.885   0.322
 6941SOL     OW21721   3.328   3.863   2.712
 6941SOL    HW121722   3.346   3.839   2.807
 6941SOL    HW221723   3.415   3.873   2.663
 6942SOL     OW21724   6.745   6.217   1.894
 6942SOL    HW121725   6.810   6.216   1.817
 6942SOL    HW221726   6.662   6.266   1.866
 6943SOL     OW21727   4.127   5.190   6.575
 6943SOL    HW121728   4.219   5.150   6.579
 6943SOL    HW221729   4.094   5.189   6.481
 6944SOL     OW21730   1.135   4.459   5.276
 6944SOL    HW121731   1.119   4.361   5.294
 6944SOL    HW221732   1.055   4.498   5.231
 6945SOL     OW21733   5.507   1.996   0.839
 6945SOL    HW121734   5.548   2.073   0.791
 6945SOL    HW221735   5.441   2.030   0.906
 6946SOL     OW21736   4.318   5.295   3.277
 6946SOL    HW121737   4.316   5.393   3.258
 6946SOL    HW221738   4.316   5.244   3.191
 6947SOL     OW21739   5.539   4.724   5.342
 6947SOL    HW121740   5.533   4.654   5.270
 6947SOL    HW221741   5.478   4.800   5.320
 6948SOL     OW21742   7.020   4.517   0.015
 6948SOL    HW121743   6.936   4.502   0.067
 6948SOL    HW221744   0.074   4.507   0.076
 6949SOL     OW21745   2.358   1.583   3.874
 6949SOL    HW121746   2.297   1.603   3.951
 6949SOL    HW221747   2.318   1.618   3.789
 6950SOL     OW21748   0.067   0.655   4.231
 6950SOL    HW121749   0.150   0.654   4.175
 6950SOL    HW221750   7.013   0.631   4.174
 6951SOL     OW21751   0.193   4.409   6.390
 6951SOL    HW121752   0.269   4.474   6.387
 6951SOL    HW221753   0.209   4.336   6.323
 6952SOL     OW21754   4.482   5.697   3.659
 6952SOL    HW121755   4.392   5.728   3.630
 6952SOL    HW221756   4.492   5.600   3.637
 6953SOL     OW21757   5.716   1.475   0.918
 6953SOL    HW121758   5.753   1.398   0.971
 6953SOL    HW221759   5.762   1.478   0.828
 6954SOL     OW21760   5.925   4.125   0.002
 6954SOL    HW121761   5.830   4.135   0.033
 6954SOL    HW221762   5.937   4.172   6.939
 6955SOL     OW21763   4.606   6.445   2.589
 6955SOL    HW121764   4.703   6.433   2.569
 6955SOL    HW221765   4.558   6.359   2.572
 6956SOL     OW21766   5.710   5.679   2.311
 6956SOL    HW121767   5.732   5.590   2.271
 6956SOL    HW221768   5.620   5.675   2.355
 6957SOL     OW21769   5.579   5.727   5.718
 6957SOL    HW121770   5.517   5.719   5.640
 6957SOL    HW221771   5.664   5.679   5.697
 6958SOL     OW21772   3.031   3.909   3.421
 6958SOL    HW121773   3.014   3.908   3.520
 6958SOL    HW221774   3.034   4.003   3.389
 6959SOL     OW21775   0.912   4.359   3.156
 6959SOL    HW121776   0.980   4.407   3.101
 6959SOL    HW221777   0.871   4.285   3.103
 6960SOL     OW21778   3.354   4.112   0.226
 6960SOL    HW121779   3.365   4.013   0.234
 6960SOL    HW221780   3.439   4.152   0.192
 6961SOL     OW21781   4.658   2.605   4.943
 6961SOL    HW121782   4.574   2.578   4.895
 6961SOL    HW221783   4.737   2.593   4.882
 6962SOL     OW21784   2.537   6.624   6.441
 6962SOL    HW121785   2.462   6.685   6.414
 6962SOL    HW221786   2.604   6.619   6.366
 6963SOL     OW21787   5.818   6.284   1.079
 6963SOL    HW121788   5.803   6.203   1.135
 6963SOL    HW221789   5.745   6.292   1.011
 6964SOL     OW21790   1.699   0.633   5.366
 6964SOL    HW121791   1.632   0.581   5.313
 6964SOL    HW221792   1.712   0.723   5.323
 6965SOL     OW21793   0.656   1.672   0.192
 6965SOL    HW121794   0.612   1.604   0.251
 6965SOL    HW221795   0.743   1.636   0.158
 6966SOL     OW21796   1.437   6.522   1.268
 6966SOL    HW121797   1.423   6.502   1.171
 6966SOL    HW221798   1.456   6.436   1.316
 6967SOL     OW21799   4.372   1.459   6.587
 6967SOL    HW121800   4.395   1.386   6.651
 6967SOL    HW221801   4.391   1.428   6.494
 6968SOL     OW21802   4.020   6.673   3.066
 6968SOL    HW121803   4.001   6.575   3.078
 6968SOL    HW221804   4.005   6.698   2.971
 6969SOL     OW21805   2.166   2.133   1.899
 6969SOL    HW121806   2.206   2.045   1.925
 6969SOL    HW221807   2.179   2.149   1.802
 6970SOL     OW21808   3.912   5.732   5.557
 6970SOL    HW121809   3.827   5.771   5.591
 6970SOL    HW221810   3.940   5.780   5.474
 6971SOL     OW21811   6.574   4.276   6.967
 6971SOL    HW121812   6.624   4.361   6.983
 6971SOL    HW221813   6.477   4.296   6.958
 6972SOL     OW21814   5.140   3.628   1.470
 6972SOL    HW121815   5.139   3.716   1.518
 6972SOL    HW221816   5.047   3.594   1.461
 6973SOL     OW21817   2.056   2.750   3.061
 6973SOL    HW121818   2.068   2.729   3.158
 6973SOL    HW221819   2.073   2.667   3.007
 6974SOL     OW21820   3.879   3.723   3.185
 6974SOL    HW121821   3.935   3.790   3.235
 6974SOL    HW221822   3.935   3.644   3.160
 6975SOL     OW21823   2.613   5.388   4.555
 6975SOL    HW121824   2.659   5.367   4.469
 6975SOL    HW221825   2.556   5.311   4.583
 6976SOL     OW21826   4.253   4.283   6.013
 6976SOL    HW121827   4.327   4.248   6.070
 6976SOL    HW221828   4.222   4.211   5.951
 6977SOL     OW21829   4.058   5.016   1.483
 6977SOL    HW121830   4.053   5.114   1.506
 6977SOL    HW221831   4.009   5.000   1.397
 6978SOL     OW21832   6.577   3.750   2.071
 6978SOL    HW121833   6.501   3.733   2.009
 6978SOL    HW221834   6.594   3.848   2.078
 6979SOL     OW21835   1.927   3.092   1.706
 6979SOL    HW121836   1.971   3.087   1.796
 6979SOL    HW221837   1.865   3.171   1.704
 6980SOL     OW21838   1.786   5.590   2.411
 6980SOL    HW121839   1.709   5.533   2.381
 6980SOL    HW221840   1.756   5.651   2.484
 6981SOL     OW21841   4.098   2.929   6.926
 6981SOL    HW121842   4.118   2.996   6.854
 6981SOL    HW221843   4.074   2.977   7.011
 6982SOL     OW21844   1.551   0.657   2.949
 6982SOL    HW121845   1.492   0.636   3.027
 6982SOL    HW221846   1.501   0.641   2.864
 6983SOL     OW21847   5.209   0.793   4.400
 6983SOL    HW121848   5.162   0.726   4.343
 6983SOL    HW221849   5.148   0.870   4.417
 6984SOL     OW21850   0.763   2.637   3.193
 6984SOL    HW121851   0.818   2.706   3.148
 6984SOL    HW221852   0.741   2.667   3.286
 6985SOL     OW21853   5.885   3.709   0.096
 6985SOL    HW121854   5.911   3.646   0.023
 6985SOL    HW221855   5.937   3.688   0.179
 6986SOL     OW21856   5.067   4.724   5.327
 6986SOL    HW121857   5.158   4.699   5.294
 6986SOL    HW221858   5.037   4.808   5.282
 6987SOL     OW21859   0.284   1.348   6.492
 6987SOL    HW121860   0.245   1.266   6.535
 6987SOL    HW221861   0.377   1.362   6.526
 6988SOL     OW21862   3.317   1.431   6.548
 6988SOL    HW121863   3.362   1.448   6.460
 6988SOL    HW221864   3.325   1.513   6.605
 6989SOL     OW21865   0.710   5.289   2.264
 6989SOL    HW121866   0.755   5.378   2.275
 6989SOL    HW221867   0.774   5.216   2.286
 6990SOL     OW21868   4.132   3.113   1.060
 6990SOL    HW121869   4.112   3.060   1.143
 6990SOL    HW221870   4.136   3.052   0.982
 6991SOL     OW21871   6.264   3.325   2.646
 6991SOL    HW121872   6.215   3.302   2.562
 6991SOL    HW221873   6.214   3.288   2.725
 6992SOL     OW21874   0.989   6.038   0.295
 6992SOL    HW121875   1.071   6.045   0.238
 6992SOL    HW221876   0.972   5.942   0.318
 6993SOL     OW21877   4.863   1.805   1.140
 6993SOL    HW121878   4.918   1.884   1.164
 6993SOL    HW221879   4.909   1.752   1.068
 6994SOL     OW21880   2.528   0.887   3.367
 6994SOL    HW121881   2.605   0.892   3.304
 6994SOL    HW221882   2.482   0.799   3.356
 6995SOL     OW21883   0.282   4.099   1.444
 6995SOL    HW121884   0.195   4.050   1.441
 6995SOL    HW221885   0.354   4.035   1.472
 6996SOL     OW21886   1.164   0.936   6.652
 6996SOL    HW121887   1.068   0.911   6.666
 6996SOL    HW221888   1.191   0.913   6.559
 6997SOL     OW21889   5.227   5.461   6.046
 6997SOL    HW121890   5.318   5.487   6.012
 6997SOL    HW221891   5.230   5.367   6.080
 6998SOL     OW21892   6.434   1.195   0.070
 6998SOL    HW121893   6.498   1.196   7.018
 6998SOL    HW221894   6.389   1.106   0.074
 6999SOL     OW21895   0.223   3.060   6.792
 6999SOL    HW121896   0.231   3.001   6.872
 6999SOL    HW221897   0.127   3.067   6.765
 7000SOL     OW21898   6.853   6.151   3.339
 7000SOL    HW121899   6.762   6.162   3.380
 7000SOL    HW221900   6.844   6.103   3.252
 7001SOL     OW21901   0.611   2.346   4.155
 7001SOL    HW121902   0.532   2.387   4.202
 7001SOL    HW221903   0.626   2.394   4.069
 7002SOL     OW21904   0.931   5.690   3.056
 7002SOL    HW121905   0.889   5.605   3.087
 7002SOL    HW221906   0.984   5.673   2.973
 7003SOL     OW21907   6.737   3.888   0.611
 7003SOL    HW121908   6.818   3.831   0.619
 7003SOL    HW221909   6.658   3.832   0.588
 7004SOL     OW21910   1.592   6.383   0.823
 7004SOL    HW121911   1.646   6.300   0.839
 7004SOL    HW221912   1.516   6.361   0.763
 7005SOL     OW21913   1.053   6.042   1.238
 7005SOL    HW121914   1.031   6.070   1.144
 7005SOL    HW221915   1.137   5.988   1.238
 7006SOL     OW21916   1.246   6.911   4.094
 7006SOL    HW121917   1.254   7.010   4.098
 7006SOL    HW221918   1.317   6.874   4.034
 7007SOL     OW21919   2.124   0.476   5.968
 7007SOL    HW121920   2.088   0.389   6.002
 7007SOL    HW221921   2.222   0.468   5.952
 7008SOL     OW21922   5.350   4.007   2.698
 7008SOL    HW121923   5.303   3.944   2.638
 7008SOL    HW221924   5.333   4.101   2.668
 7009SOL     OW21925   4.859   5.734   1.844
 7009SOL    HW121926   4.760   5.738   1.847
 7009SOL    HW221927   4.889   5.694   1.757
 7010SOL     OW21928   5.236   3.417   1.644
 7010SOL    HW121929   5.141   3.412   1.677
 7010SOL    HW221930   5.239   3.469   1.559
 7011SOL     OW21931   3.344   6.388   6.974
 7011SOL    HW121932   3.382   6.471   7.016
 7011SOL    HW221933   3.244   6.388   6.985
 7012SOL     OW21934   6.670   2.570   0.210
 7012SOL    HW121935   6.755   2.566   0.263
 7012SOL    HW221936   6.597   2.606   0.267
 7013SOL     OW21937   2.780   1.820   0.365
 7013SOL    HW121938   2.781   1.905   0.417
 7013SOL    HW221939   2.708   1.760   0.401
 7014SOL     OW21940   6.191   3.204   1.170
 7014SOL    HW121941   6.188   3.125   1.230
 7014SOL    HW221942   6.101   3.221   1.132
 7015SOL     OW21943   5.096   6.481   0.856
 7015SOL    HW121944   5.065   6.467   0.950
 7015SOL    HW221945   5.069   6.403   0.800
 7016SOL     OW21946   2.929   5.058   1.250
 7016SOL    HW121947   2.834   5.081   1.229
 7016SOL    HW221948   2.988   5.133   1.220
 7017SOL     OW21949   5.870   4.849   4.896
 7017SOL    HW121950   5.896   4.778   4.961
 7017SOL    HW221951   5.951   4.883   4.849
 7018SOL     OW21952   5.631   3.529   4.425
 7018SOL    HW121953   5.649   3.463   4.498
 7018SOL    HW221954   5.605   3.617   4.465
 7019SOL     OW21955   4.235   5.767   2.190
 7019SOL    HW121956   4.316   5.771   2.248
 7019SOL    HW221957   4.165   5.710   2.233
 7020SOL     OW21958   0.417   2.920   6.624
 7020SOL    HW121959   0.348   2.972   6.675
 7020SOL    HW221960   0.493   2.896   6.684
 7021SOL     OW21961   0.669   2.195   5.170
 7021SOL    HW121962   0.604   2.258   5.211
 7021SOL    HW221963   0.762   2.220   5.199
 7022SOL     OW21964   3.000   2.007   0.703
 7022SOL    HW121965   2.900   2.005   0.711
 7022SOL    HW221966   3.034   1.913   0.689
 7023SOL     OW21967   0.308   2.215   0.530
 7023SOL    HW121968   0.369   2.167   0.592
 7023SOL    HW221969   0.217   2.220   0.571
 7024SOL     OW21970   3.921   3.119   4.667
 7024SOL    HW121971   3.912   3.197   4.729
 7024SOL    HW221972   3.966   3.149   4.583
 7025SOL     OW21973   3.648   6.901   0.702
 7025SOL    HW121974   3.583   6.826   0.689
 7025SOL    HW221975   3.735   6.864   0.736
 7026SOL     OW21976   3.299   2.401   1.056
 7026SOL    HW121977   3.270   2.313   1.093
 7026SOL    HW221978   3.315   2.465   1.131
 7027SOL     OW21979   2.691   5.351   3.104
 7027SOL    HW121980   2.593   5.342   3.091
 7027SOL    HW221981   2.710   5.428   3.165
 7028SOL     OW21982   2.960   0.300   3.882
 7028SOL    HW121983   2.886   0.362   3.907
 7028SOL    HW221984   3.038   0.354   3.848
 7029SOL     OW21985   3.391   3.446   4.062
 7029SOL    HW121986   3.355   3.536   4.039
 7029SOL    HW221987   3.489   3.453   4.083
 7030SOL     OW21988   6.740   1.360   4.920
 7030SOL    HW121989   6.751   1.380   4.823
 7030SOL    HW221990   6.652   1.316   4.936
 7031SOL     OW21991   4.498   6.610   0.557
 7031SOL    HW121992   4.566   6.665   0.606
 7031SOL    HW221993   4.488   6.645   0.464
 7032SOL     OW21994   4.273   5.921   4.560
 7032SOL    HW121995   4.334   5.995   4.533
 7032SOL    HW221996   4.226   5.945   4.645
 7033SOL     OW21997   1.966   1.954   4.941
 7033SOL    HW121998   1.948   2.041   4.988
 7033SOL    HW221999   2.058   1.955   4.904
 7034SOL     OW22000   6.365   0.635   3.870
 7034SOL    HW122001   6.350   0.658   3.966
 7034SOL    HW222002   6.313   0.698   3.812
 7035SOL     OW22003   1.782   0.458   0.182
 7035SOL    HW122004   1.789   0.448   0.281
 7035SOL    HW222005   1.747   0.549   0.160
 7036SOL     OW22006   6.654   1.794   2.655
 7036SOL    HW122007   6.676   1.723   2.721
 7036SOL    HW222008   6.702   1.878   2.679
 7037SOL     OW22009   0.961   0.857   6.245
 7037SOL    HW122010   0.951   0.934   6.181
 7037SOL    HW222011   1.050   0.814   6.231
 7038SOL     OW22012   1.297   4.268   6.749
 7038SOL    HW122013   1.263   4.197   6.687
 7038SOL    HW222014   1.397   4.266   6.750
 7039SOL     OW22015   0.746   6.171   2.241
 7039SOL    HW122016   0.672   6.124   2.193
 7039SOL    HW222017   0.826   6.178   2.182
 7040SOL     OW22018   4.909   3.355   4.315
 7040SOL    HW122019   4.882   3.259   4.309
 7040SOL    HW222020   4.887   3.391   4.405
 7041SOL     OW22021   1.576   6.950   4.043
 7041SOL    HW122022   1.519   0.008   4.047
 7041SOL    HW222023   1.517   6.870   4.026
 7042SOL     OW22024   4.758   6.197   5.472
 7042SOL    HW122025   4.804   6.279   5.437
 7042SOL    HW222026   4.807   6.164   5.553
 7043SOL     OW22027   2.628   4.959   1.335
 7043SOL    HW122028   2.706   4.918   1.382
 7043SOL    HW222029   2.548   4.960   1.395
 7044SOL     OW22030   4.919   6.376   5.088
 7044SOL    HW122031   4.820   6.366   5.088
 7044SOL    HW222032   4.961   6.297   5.043
 7045SOL     OW22033   6.534   6.417   1.905
 7045SOL    HW122034   6.593   6.496   1.885
 7045SOL    HW222035   6.439   6.442   1.890
 7046SOL     OW22036   2.681   1.926   4.481
 7046SOL    HW122037   2.715   1.966   4.396
 7046SOL    HW222038   2.624   1.993   4.528
 7047SOL     OW22039   1.025   6.112   0.967
 7047SOL    HW122040   0.950   6.055   0.933
 7047SOL    HW222041   1.001   6.208   0.956
 7048SOL     OW22042   6.876   6.098   4.860
 7048SOL    HW122043   6.807   6.042   4.814
 7048SOL    HW222044   6.956   6.042   4.882
 7049SOL     OW22045   3.675   1.078   2.788
 7049SOL    HW122046   3.647   1.074   2.884
 7049SOL    HW222047   3.599   1.111   2.732
 7050SOL     OW22048   4.188   3.805   1.041
 7050SOL    HW122049   4.093   3.836   1.033
 7050SOL    HW222050   4.205   3.776   1.135
 7051SOL     OW22051   0.510   0.926   1.990
 7051SOL    HW122052   0.420   0.887   1.975
 7051SOL    HW222053   0.503   1.026   1.993
 7052SOL     OW22054   4.786   0.370   2.969
 7052SOL    HW122055   4.781   0.364   3.068
 7052SOL    HW222056   4.873   0.411   2.942
 7053SOL     OW22057   2.073   3.313   3.356
 7053SOL    HW122058   2.125   3.364   3.425
 7053SOL    HW222059   1.976   3.336   3.365
 7054SOL     OW22060   6.368   0.867   0.132
 7054SOL    HW122061   6.283   0.918   0.117
 7054SOL    HW222062   6.362   0.818   0.219
 7055SOL     OW22063   2.805   1.195   0.183
 7055SOL    HW122064   2.743   1.181   0.106
 7055SOL    HW222065   2.877   1.259   0.156
 7056SOL     OW22066   0.701   5.322   1.447
 7056SOL    HW122067   0.788   5.274   1.437
 7056SOL    HW222068   0.707   5.384   1.526
 7057SOL     OW22069   2.723   5.312   4.311
 7057SOL    HW122070   2.736   5.213   4.303
 7057SOL    HW222071   2.731   5.354   4.221
 7058SOL     OW22072   5.580   3.042   6.272
 7058SOL    HW122073   5.489   3.069   6.239
 7058SOL    HW222074   5.571   2.969   6.339
 7059SOL     OW22075   2.096   0.160   5.184
 7059SOL    HW122076   2.157   0.222   5.233
 7059SOL    HW222077   2.001   0.180   5.209
 7060SOL     OW22078   3.932   0.735   1.203
 7060SOL    HW122079   3.951   0.728   1.301
 7060SOL    HW222080   3.946   0.829   1.173
 7061SOL     OW22081   0.554   1.720   1.548
 7061SOL    HW122082   0.599   1.810   1.551
 7061SOL    HW222083   0.457   1.732   1.525
 7062SOL     OW22084   3.580   1.021   3.391
 7062SOL    HW122085   3.574   1.060   3.299
 7062SOL    HW222086   3.540   0.930   3.391
 7063SOL     OW22087   0.940   0.940   1.376
 7063SOL    HW122088   1.031   0.929   1.415
 7063SOL    HW222089   0.888   1.006   1.430
 7064SOL     OW22090   4.108   1.422   5.311
 7064SOL    HW122091   4.106   1.495   5.379
 7064SOL    HW222092   4.029   1.431   5.250
 7065SOL     OW22093   3.905   4.970   5.472
 7065SOL    HW122094   3.814   4.951   5.508
 7065SOL    HW222095   3.898   5.011   5.381
 7066SOL     OW22096   3.869   0.217   0.251
 7066SOL    HW122097   3.849   0.157   0.328
 7066SOL    HW222098   3.784   0.257   0.217
 7067SOL     OW22099   1.907   3.520   6.934
 7067SOL    HW122100   1.918   3.601   6.876
 7067SOL    HW222101   1.992   3.503   6.984
 7068SOL     OW22102   5.299   3.450   4.119
 7068SOL    HW122103   5.237   3.520   4.154
 7068SOL    HW222104   5.271   3.424   4.026
 7069SOL     OW22105   5.819   0.534   6.629
 7069SOL    HW122106   5.908   0.489   6.620
 7069SOL    HW222107   5.807   0.598   6.553
 7070SOL     OW22108   0.077   6.832   4.936
 7070SOL    HW122109   0.137   6.894   4.886
 7070SOL    HW222110   0.109   6.737   4.923
 7071SOL     OW22111   4.772   5.669   6.784
 7071SOL    HW122112   4.760   5.571   6.801
 7071SOL    HW222113   4.725   5.694   6.700
 7072SOL     OW22114   0.852   3.537   6.446
 7072SOL    HW122115   0.949   3.564   6.448
 7072SOL    HW222116   0.809   3.574   6.363
 7073SOL     OW22117   4.745   1.203   3.533
 7073SOL    HW122118   4.753   1.302   3.539
 7073SOL    HW222119   4.798   1.161   3.607
 7074SOL     OW22120   5.537   4.635   2.885
 7074SOL    HW122121   5.528   4.602   2.791
 7074SOL    HW222122   5.570   4.561   2.943
 7075SOL     OW22123   3.207   4.908   3.418
 7075SOL    HW122124   3.265   4.970   3.470
 7075SOL    HW222125   3.239   4.903   3.323
 7076SOL     OW22126   5.604   2.069   2.223
 7076SOL    HW122127   5.674   2.064   2.152
 7076SOL    HW222128   5.514   2.055   2.183
 7077SOL     OW22129   3.748   5.584   1.303
 7077SOL    HW122130   3.797   5.499   1.287
 7077SOL    HW222131   3.656   5.577   1.265
 7078SOL     OW22132   5.787   0.797   0.113
 7078SOL    HW122133   5.819   0.753   0.029
 7078SOL    HW222134   5.733   0.732   0.166
 7079SOL     OW22135   1.250   6.368   5.173
 7079SOL    HW122136   1.195   6.451   5.170
 7079SOL    HW222137   1.341   6.387   5.137
 7080SOL     OW22138   4.061   2.158   5.777
 7080SOL    HW122139   4.060   2.209   5.864
 7080SOL    HW222140   4.146   2.105   5.771
 7081SOL     OW22141   1.535   0.298   0.448
 7081SOL    HW122142   1.572   0.328   0.360
 7081SOL    HW222143   1.447   0.342   0.465
 7082SOL     OW22144   7.025   4.296   3.179
 7082SOL    HW122145   6.928   4.270   3.175
 7082SOL    HW222146   0.055   4.215   3.201
 7083SOL     OW22147   5.618   2.686   2.701
 7083SOL    HW122148   5.697   2.665   2.643
 7083SOL    HW222149   5.631   2.647   2.792
 7084SOL     OW22150   0.996   5.436   6.861
 7084SOL    HW122151   0.938   5.462   6.784
 7084SOL    HW222152   0.945   5.377   6.923
 7085SOL     OW22153   0.373   3.676   2.318
 7085SOL    HW122154   0.338   3.712   2.404
 7085SOL    HW222155   0.297   3.651   2.259
 7086SOL     OW22156   5.339   1.121   3.691
 7086SOL    HW122157   5.375   1.034   3.656
 7086SOL    HW222158   5.402   1.195   3.665
 7087SOL     OW22159   5.058   4.137   2.564
 7087SOL    HW122160   5.047   4.099   2.656
 7087SOL    HW222161   4.969   4.143   2.520
 7088SOL     OW22162   5.977   2.024   5.247
 7088SOL    HW122163   5.956   1.955   5.178
 7088SOL    HW222164   6.038   1.985   5.316
 7089SOL     OW22165   3.058   6.186   1.885
 7089SOL    HW122166   3.047   6.247   1.963
 7089SOL    HW222167   2.997   6.216   1.811
 7090SOL     OW22168   4.278   2.768   0.961
 7090SOL    HW122169   4.229   2.830   0.900
 7090SOL    HW222170   4.327   2.821   1.031
 7091SOL     OW22171   0.273   6.080   0.220
 7091SOL    HW122172   0.329   6.002   0.245
 7091SOL    HW222173   0.185   6.075   0.267
 7092SOL     OW22174   4.079   1.039   6.274
 7092SOL    HW122175   4.038   0.951   6.296
 7092SOL    HW222176   4.063   1.103   6.349
 7093SOL     OW22177   2.639   2.989   1.348
 7093SOL    HW122178   2.644   3.008   1.446
 7093SOL    HW222179   2.617   3.073   1.299
 7094SOL     OW22180   3.007   0.456   5.668
 7094SOL    HW122181   2.998   0.376   5.728
 7094SOL    HW222182   3.051   0.531   5.719
 7095SOL     OW22183   2.487   4.630   4.764
 7095SOL    HW122184   2.450   4.706   4.817
 7095SOL    HW222185   2.520   4.559   4.827
 7096SOL     OW22186   0.342   0.724   1.186
 7096SOL    HW122187   0.250   0.750   1.157
 7096SOL    HW222188   0.350   0.734   1.285
 7097SOL     OW22189   4.413   1.546   2.013
 7097SOL    HW122190   4.346   1.533   2.086
 7097SOL    HW222191   4.418   1.463   1.958
 7098SOL     OW22192   1.276   6.806   3.567
 7098SOL    HW122193   1.212   6.856   3.509
 7098SOL    HW222194   1.352   6.867   3.592
 7099SOL     OW22195   2.857   2.240   3.849
 7099SOL    HW122196   2.878   2.255   3.752
 7099SOL    HW222197   2.878   2.145   3.873
 7100SOL     OW22198   5.994   3.877   1.779
 7100SOL    HW122199   5.959   3.967   1.805
 7100SOL    HW222200   5.937   3.805   1.819
 7101SOL     OW22201   2.608   6.385   5.617
 7101SOL    HW122202   2.703   6.354   5.621
 7101SOL    HW222203   2.548   6.305   5.619
 7102SOL     OW22204   5.512   0.775   2.160
 7102SOL    HW122205   5.460   0.786   2.076
 7102SOL    HW222206   5.484   0.691   2.206
 7103SOL     OW22207   5.096   3.822   2.909
 7103SOL    HW122208   5.075   3.758   2.835
 7103SOL    HW222209   5.012   3.847   2.957
 7104SOL     OW22210   5.194   2.942   3.559
 7104SOL    HW122211   5.286   2.953   3.595
 7104SOL    HW222212   5.159   3.031   3.530
 7105SOL     OW22213   3.310   4.098   3.505
 7105SOL    HW122214   3.383   4.148   3.552
 7105SOL    HW222215   3.256   4.048   3.572
 7106SOL     OW22216   2.825   2.529   1.243
 7106SOL    HW122217   2.812   2.538   1.144
 7106SOL    HW222218   2.770   2.453   1.277
 7107SOL     OW22219   3.589   0.678   6.521
 7107SOL    HW122220   3.543   0.730   6.593
 7107SOL    HW222221   3.520   0.640   6.459
 7108SOL     OW22222   4.819   0.912   2.243
 7108SOL    HW122223   4.864   0.831   2.280
 7108SOL    HW222224   4.886   0.965   2.190
 7109SOL     OW22225   2.783   5.183   6.395
 7109SOL    HW122226   2.832   5.107   6.438
 7109SOL    HW222227   2.752   5.154   6.304
 7110SOL     OW22228   3.709   6.831   4.313
 7110SOL    HW122229   3.662   6.839   4.225
 7110SOL    HW222230   3.737   6.736   4.327
 7111SOL     OW22231   6.943   0.947   5.237
 7111SOL    HW122232   7.004   0.894   5.295
 7111SOL    HW222233   6.988   0.965   5.149
 7112SOL     OW22234   1.362   5.121   4.761
 7112SOL    HW122235   1.284   5.183   4.774
 7112SOL    HW222236   1.344   5.034   4.807
 7113SOL     OW22237   3.838   6.714   5.255
 7113SOL    HW122238   3.896   6.796   5.259
 7113SOL    HW222239   3.753   6.736   5.208
 7114SOL     OW22240   5.543   4.478   0.909
 7114SOL    HW122241   5.600   4.553   0.876
 7114SOL    HW222242   5.456   4.515   0.943
 7115SOL     OW22243   5.699   4.215   6.300
 7115SOL    HW122244   5.644   4.165   6.233
 7115SOL    HW222245   5.767   4.154   6.339
 7116SOL     OW22246   6.340   3.927   3.975
 7116SOL    HW122247   6.430   3.895   3.946
 7116SOL    HW222248   6.350   3.988   4.054
 7117SOL     OW22249   5.941   0.502   2.915
 7117SOL    HW122250   5.911   0.581   2.969
 7117SOL    HW222251   5.955   0.424   2.977
 7118SOL     OW22252   3.886   4.354   5.850
 7118SOL    HW122253   3.803   4.403   5.824
 7118SOL    HW222254   3.873   4.312   5.940
 7119SOL     OW22255   3.189   0.242   5.030
 7119SOL    HW122256   3.201   0.185   4.949
 7119SOL    HW222257   3.265   0.307   5.036
 7120SOL     OW22258   4.284   0.382   0.388
 7120SOL    HW122259   4.326   0.451   0.447
 7120SOL    HW222260   4.268   0.421   0.297
 7121SOL     OW22261   1.629   5.630   2.069
 7121SOL    HW122262   1.652   5.534   2.051
 7121SOL    HW222263   1.699   5.689   2.028
 7122SOL     OW22264   3.577   1.949   0.101
 7122SOL    HW122265   3.661   1.974   0.149
 7122SOL    HW222266   3.511   2.024   0.108
 7123SOL     OW22267   5.274   5.189   6.095
 7123SOL    HW122268   5.262   5.131   6.014
 7123SOL    HW222269   5.347   5.151   6.152
 7124SOL     OW22270   1.184   2.115   1.467
 7124SOL    HW122271   1.148   2.090   1.557
 7124SOL    HW222272   1.123   2.082   1.396
 7125SOL     OW22273   0.428   6.218   2.163
 7125SOL    HW122274   0.437   6.154   2.239
 7125SOL    HW222275   0.443   6.312   2.196
 7126SOL     OW22276   3.122   5.236   1.163
 7126SOL    HW122277   3.202   5.240   1.102
 7126SOL    HW222278   3.139   5.294   1.243
 7127SOL     OW22279   2.462   6.495   5.809
 7127SOL    HW122280   2.465   6.415   5.869
 7127SOL    HW222281   2.516   6.478   5.727
 7128SOL     OW22282   4.190   4.371   6.497
 7128SOL    HW122283   4.193   4.456   6.550
 7128SOL    HW222284   4.166   4.392   6.402
 7129SOL     OW22285   0.578   6.817   0.897
 7129SOL    HW122286   0.506   6.854   0.838
 7129SOL    HW222287   0.573   6.861   0.987
 7130SOL     OW22288   3.412   6.539   4.140
 7130SOL    HW122289   3.404   6.472   4.213
 7130SOL    HW222290   3.343   6.522   4.070
 7131SOL     OW22291   2.798   1.217   2.110
 7131SOL    HW122292   2.816   1.159   2.031
 7131SOL    HW222293   2.869   1.286   2.118
 7132SOL     OW22294   5.474   4.699   0.414
 7132SOL    HW122295   5.429   4.771   0.361
 7132SOL    HW222296   5.572   4.699   0.395
 7133SOL     OW22297   5.355   5.791   2.783
 7133SOL    HW122298   5.435   5.835   2.742
 7133SOL    HW222299   5.365   5.692   2.780
 7134SOL     OW22300   4.488   4.939   6.983
 7134SOL    HW122301   4.552   5.000   6.935
 7134SOL    HW222302   4.532   4.905   0.041
 7135SOL     OW22303   1.842   3.426   0.954
 7135SOL    HW122304   1.773   3.361   0.922
 7135SOL    HW222305   1.931   3.380   0.960
 7136SOL     OW22306   1.514   1.909   1.888
 7136SOL    HW122307   1.469   1.820   1.899
 7136SOL    HW222308   1.613   1.895   1.878
 7137SOL     OW22309   2.782   1.607   1.751
 7137SOL    HW122310   2.804   1.608   1.848
 7137SOL    HW222311   2.866   1.614   1.697
 7138SOL     OW22312   0.767   2.508   0.336
 7138SOL    HW122313   0.708   2.583   0.365
 7138SOL    HW222314   0.859   2.543   0.318
 7139SOL     OW22315   6.040   6.380   0.929
 7139SOL    HW122316   6.053   6.305   0.865
 7139SOL    HW222317   5.973   6.354   0.999
 7140SOL     OW22318   6.239   3.408   0.235
 7140SOL    HW122319   6.245   3.400   0.136
 7140SOL    HW222320   6.323   3.450   0.270
 7141SOL     OW22321   3.542   0.372   1.028
 7141SOL    HW122322   3.516   0.464   1.059
 7141SOL    HW222323   3.507   0.357   0.936
 7142SOL     OW22324   3.306   0.665   4.757
 7142SOL    HW122325   3.252   0.594   4.802
 7142SOL    HW222326   3.384   0.690   4.815
 7143SOL     OW22327   2.653   4.140   6.519
 7143SOL    HW122328   2.707   4.111   6.439
 7143SOL    HW222329   2.557   4.146   6.493
 7144SOL     OW22330   6.681   0.865   6.022
 7144SOL    HW122331   6.686   0.802   5.944
 7144SOL    HW222332   6.589   0.863   6.061
 7145SOL     OW22333   5.242   2.173   6.308
 7145SOL    HW122334   5.286   2.087   6.333
 7145SOL    HW222335   5.147   2.155   6.281
 7146SOL     OW22336   1.280   2.312   5.656
 7146SOL    HW122337   1.287   2.391   5.595
 7146SOL    HW222338   1.189   2.311   5.698
 7147SOL     OW22339   6.249   6.812   2.113
 7147SOL    HW122340   6.340   6.837   2.082
 7147SOL    HW222341   6.181   6.844   2.047
 7148SOL     OW22342   6.061   0.014   1.143
 7148SOL    HW122343   5.980   6.984   1.121
 7148SOL    HW222344   6.033   0.106   1.169
 7149SOL     OW22345   5.338   4.517   5.868
 7149SOL    HW122346   5.402   4.454   5.825
 7149SOL    HW222347   5.387   4.597   5.901
 7150SOL     OW22348   3.461   3.253   6.815
 7150SOL    HW122349   3.405   3.301   6.883
 7150SOL    HW222350   3.411   3.249   6.728
 7151SOL     OW22351   3.924   1.365   0.660
 7151SOL    HW122352   4.007   1.314   0.637
 7151SOL    HW222353   3.855   1.302   0.696
 7152SOL     OW22354   6.313   1.115   6.775
 7152SOL    HW122355   6.357   1.040   6.824
 7152SOL    HW222356   6.366   1.198   6.787
 7153SOL     OW22357   3.684   5.875   0.650
 7153SOL    HW122358   3.639   5.790   0.675
 7153SOL    HW222359   3.644   5.910   0.565
 7154SOL     OW22360   3.724   2.019   1.807
 7154SOL    HW122361   3.713   2.104   1.860
 7154SOL    HW222362   3.649   2.012   1.740
 7155SOL     OW22363   1.416   1.585   1.826
 7155SOL    HW122364   1.396   1.656   1.759
 7155SOL    HW222365   1.331   1.553   1.868
 7156SOL     OW22366   6.004   3.018   5.579
 7156SOL    HW122367   5.916   3.066   5.582
 7156SOL    HW222368   5.988   2.922   5.557
 7157SOL     OW22369   6.928   4.066   5.726
 7157SOL    HW122370   6.881   3.979   5.742
 7157SOL    HW222371   7.006   4.074   5.789
 7158SOL     OW22372   4.650   0.027   4.082
 7158SOL    HW122373   4.556   0.058   4.069
 7158SOL    HW222374   4.712   0.087   4.031
 7159SOL     OW22375   0.037   6.311   3.274
 7159SOL    HW122376   0.013   6.344   3.183
 7159SOL    HW222377   6.985   6.262   3.313
 7160SOL     OW22378   6.681   0.256   3.635
 7160SOL    HW122379   6.708   0.338   3.685
 7160SOL    HW222380   6.754   0.187   3.644
 7161SOL     OW22381   4.087   3.268   3.017
 7161SOL    HW122382   4.059   3.349   3.069
 7161SOL    HW222383   4.052   3.186   3.062
 7162SOL     OW22384   0.840   5.764   1.586
 7162SOL    HW122385   0.892   5.796   1.507
 7162SOL    HW222386   0.879   5.804   1.669
 7163SOL     OW22387   0.085   0.876   1.394
 7163SOL    HW122388   0.085   0.973   1.369
 7163SOL    HW222389   0.036   0.863   1.480
 7164SOL     OW22390   2.223   1.299   6.589
 7164SOL    HW122391   2.194   1.394   6.579
 7164SOL    HW222392   2.246   1.262   6.498
 7165SOL     OW22393   6.105   1.890   0.552
 7165SOL    HW122394   6.061   1.812   0.595
 7165SOL    HW222395   6.105   1.968   0.615
 7166SOL     OW22396   6.953   5.497   5.841
 7166SOL    HW122397   6.896   5.571   5.878
 7166SOL    HW222398   0.021   5.507   5.876
 7167SOL     OW22399   6.314   2.685   5.238
 7167SOL    HW122400   6.369   2.605   5.262
 7167SOL    HW222401   6.327   2.707   5.142
 7168SOL     OW22402   2.206   1.012   2.040
 7168SOL    HW122403   2.215   1.038   1.944
 7168SOL    HW222404   2.296   1.002   2.080
 7169SOL     OW22405   2.319   4.222   6.235
 7169SOL    HW122406   2.404   4.249   6.190
 7169SOL    HW222407   2.247   4.211   6.166
 7170SOL     OW22408   3.855   1.619   0.835
 7170SOL    HW122409   3.869   1.537   0.781
 7170SOL    HW222410   3.758   1.629   0.858
 7171SOL     OW22411   6.951   3.746   0.673
 7171SOL    HW122412   6.899   3.679   0.726
 7171SOL    HW222413   0.024   3.722   0.675
 7172SOL     OW22414   1.224   2.646   3.879
 7172SOL    HW122415   1.134   2.631   3.921
 7172SOL    HW222416   1.213   2.695   3.793
 7173SOL     OW22417   4.790   5.664   5.931
 7173SOL    HW122418   4.718   5.664   5.862
 7173SOL    HW222419   4.752   5.692   6.019
 7174SOL     OW22420   6.338   4.337   1.955
 7174SOL    HW122421   6.284   4.396   1.895
 7174SOL    HW222422   6.288   4.322   2.040
 7175SOL     OW22423   6.781   3.468   6.076
 7175SOL    HW122424   6.713   3.438   6.143
 7175SOL    HW222425   6.864   3.498   6.123
 7176SOL     OW22426   0.761   0.391   5.446
 7176SOL    HW122427   0.837   0.453   5.465
 7176SOL    HW222428   0.688   0.441   5.399
 7177SOL     OW22429   1.342   6.004   4.055
 7177SOL    HW122430   1.408   5.971   3.988
 7177SOL    HW222431   1.370   5.975   4.147
 7178SOL     OW22432   2.120   6.658   4.825
 7178SOL    HW122433   2.072   6.744   4.837
 7178SOL    HW222434   2.054   6.583   4.820
 7179SOL     OW22435   3.568   5.359   6.119
 7179SOL    HW122436   3.605   5.431   6.178
 7179SOL    HW222437   3.567   5.392   6.024
 7180SOL     OW22438   1.854   3.008   1.446
 7180SOL    HW122439   1.838   3.095   1.399
 7180SOL    HW222440   1.876   3.025   1.542
 7181SOL     OW22441   2.586   1.558   5.923
 7181SOL    HW122442   2.521   1.484   5.904
 7181SOL    HW222443   2.594   1.618   5.844
 7182SOL     OW22444   1.677   1.705   4.094
 7182SOL    HW122445   1.613   1.757   4.150
 7182SOL    HW222446   1.713   1.763   4.021
 7183SOL     OW22447   0.676   6.481   1.764
 7183SOL    HW122448   0.737   6.560   1.764
 7183SOL    HW222449   0.674   6.441   1.673
 7184SOL     OW22450   6.775   0.252   4.028
 7184SOL    HW122451   6.704   0.246   3.958
 7184SOL    HW222452   6.769   0.174   4.090
 7185SOL     OW22453   4.266   0.950   4.570
 7185SOL    HW122454   4.272   0.947   4.669
 7185SOL    HW222455   4.327   1.022   4.535
 7186SOL     OW22456   6.827   0.620   6.730
 7186SOL    HW122457   6.818   0.702   6.785
 7186SOL    HW222458   6.774   0.546   6.771
 7187SOL     OW22459   3.109   3.072   3.918
 7187SOL    HW122460   3.184   3.132   3.889
 7187SOL    HW222461   3.118   3.053   4.016
 7188SOL     OW22462   4.259   4.170   6.976
 7188SOL    HW122463   4.181   4.229   6.998
 7188SOL    HW222464   4.325   4.222   6.921
 7189SOL     OW22465   6.257   2.515   5.765
 7189SOL    HW122466   6.195   2.567   5.824
 7189SOL    HW222467   6.211   2.494   5.679
 7190SOL     OW22468   5.845   4.928   0.541
 7190SOL    HW122469   5.906   4.899   0.468
 7190SOL    HW222470   5.753   4.941   0.505
 7191SOL     OW22471   6.470   4.991   3.986
 7191SOL    HW122472   6.491   5.079   3.943
 7191SOL    HW222473   6.432   4.929   3.918
 7192SOL     OW22474   2.965   4.476   6.608
 7192SOL    HW122475   2.958   4.557   6.550
 7192SOL    HW222476   2.987   4.396   6.552
 7193SOL     OW22477   3.001   2.009   2.777
 7193SOL    HW122478   2.999   2.087   2.840
 7193SOL    HW222479   3.060   2.030   2.700
 7194SOL     OW22480   3.138   2.601   6.205
 7194SOL    HW122481   3.150   2.597   6.106
 7194SOL    HW222482   3.051   2.558   6.230
 7195SOL     OW22483   0.892   5.120   4.985
 7195SOL    HW122484   0.801   5.078   4.980
 7195SOL    HW222485   0.932   5.102   5.074
 7196SOL     OW22486   3.325   4.033   2.033
 7196SOL    HW122487   3.349   4.044   1.936
 7196SOL    HW222488   3.251   3.967   2.042
 7197SOL     OW22489   3.189   4.848   6.587
 7197SOL    HW122490   3.245   4.888   6.514
 7197SOL    HW222491   3.200   4.901   6.671
 7198SOL     OW22492   0.577   0.520   2.211
 7198SOL    HW122493   0.624   0.593   2.162
 7198SOL    HW222494   0.532   0.558   2.293
 7199SOL     OW22495   6.444   1.209   2.434
 7199SOL    HW122496   6.348   1.184   2.424
 7199SOL    HW222497   6.462   1.292   2.381
 7200SOL     OW22498   0.931   2.424   0.587
 7200SOL    HW122499   0.931   2.464   0.496
 7200SOL    HW222500   0.840   2.387   0.607
 7201SOL     OW22501   5.327   5.405   3.889
 7201SOL    HW122502   5.357   5.372   3.979
 7201SOL    HW222503   5.399   5.460   3.847
 7202SOL     OW22504   4.907   0.811   5.912
 7202SOL    HW122505   4.951   0.899   5.891
 7202SOL    HW222506   4.846   0.786   5.838
 7203SOL     OW22507   0.447   1.504   1.157
 7203SOL    HW122508   0.515   1.470   1.223
 7203SOL    HW222509   0.486   1.505   1.066
 7204SOL     OW22510   6.277   0.517   2.260
 7204SOL    HW122511   6.321   0.427   2.255
 7204SOL    HW222512   6.272   0.558   2.169
 7205SOL     OW22513   2.664   1.929   3.690
 7205SOL    HW122514   2.605   2.005   3.720
 7205SOL    HW222515   2.706   1.886   3.770
 7206SOL     OW22516   2.163   3.406   0.427
 7206SOL    HW122517   2.148   3.413   0.525
 7206SOL    HW222518   2.082   3.364   0.384
 7207SOL     OW22519   1.939   1.092   3.490
 7207SOL    HW122520   1.949   1.191   3.491
 7207SOL    HW222521   1.861   1.065   3.547
 7208SOL     OW22522   2.573   0.661   4.487
 7208SOL    HW122523   2.495   0.714   4.521
 7208SOL    HW222524   2.649   0.723   4.467
 7209SOL     OW22525   3.653   1.185   1.975
 7209SOL    HW122526   3.653   1.262   1.910
 7209SOL    HW222527   3.691   1.104   1.930
 7210SOL     OW22528   2.933   1.450   3.280
 7210SOL    HW122529   2.851   1.455   3.337
 7210SOL    HW222530   2.940   1.359   3.239
 7211SOL     OW22531   4.631   6.343   4.813
 7211SOL    HW122532   4.631   6.357   4.912
 7211SOL    HW222533   4.712   6.386   4.773
 7212SOL     OW22534   0.017   4.583   5.975
 7212SOL    HW122535   0.074   4.512   5.935
 7212SOL    HW222536   0.024   4.667   5.920
 7213SOL     OW22537   3.424   2.094   6.822
 7213SOL    HW122538   3.435   1.998   6.847
 7213SOL    HW222539   3.399   2.100   6.725
 7214SOL     OW22540   6.665   0.551   6.404
 7214SOL    HW122541   6.632   0.645   6.405
 7214SOL    HW222542   6.765   0.550   6.415
 7215SOL     OW22543   6.162   2.316   2.493
 7215SOL    HW122544   6.186   2.366   2.410
 7215SOL    HW222545   6.135   2.223   2.470
 7216SOL     OW22546   3.457   6.521   3.492
 7216SOL    HW122547   3.505   6.460   3.555
 7216SOL    HW222548   3.358   6.510   3.505
 7217SOL     OW22549   1.502   3.040   2.889
 7217SOL    HW122550   1.511   3.113   2.956
 7217SOL    HW222551   1.547   3.067   2.804
 7218SOL     OW22552   6.306   3.342   4.674
 7218SOL    HW122553   6.356   3.414   4.626
 7218SOL    HW222554   6.297   3.365   4.771
 7219SOL     OW22555   3.453   6.029   2.772
 7219SOL    HW122556   3.447   6.085   2.690
 7219SOL    HW222557   3.547   6.029   2.806
 7220SOL     OW22558   6.440   4.933   4.247
 7220SOL    HW122559   6.345   4.902   4.258
 7220SOL    HW222560   6.457   4.955   4.151
 7221SOL     OW22561   3.751   6.005   3.906
 7221SOL    HW122562   3.796   6.079   3.956
 7221SOL    HW222563   3.745   5.924   3.964
 7222SOL     OW22564   6.793   5.820   4.715
 7222SOL    HW122565   6.868   5.789   4.656
 7222SOL    HW222566   6.732   5.743   4.734
 7223SOL     OW22567   6.676   3.982   1.749
 7223SOL    HW122568   6.595   3.939   1.710
 7223SOL    HW222569   6.758   3.938   1.713
 7224SOL     OW22570   3.780   1.861   2.593
 7224SOL    HW122571   3.786   1.956   2.626
 7224SOL    HW222572   3.820   1.800   2.661
 7225SOL     OW22573   1.697   6.148   0.845
 7225SOL    HW122574   1.664   6.146   0.751
 7225SOL    HW222575   1.719   6.055   0.875
 7226SOL     OW22576   6.419   6.537   0.654
 7226SOL    HW122577   6.474   6.616   0.680
 7226SOL    HW222578   6.334   6.537   0.707
 7227SOL     OW22579   2.222   0.691   2.389
 7227SOL    HW122580   2.253   0.599   2.367
 7227SOL    HW222581   2.274   0.758   2.335
 7228SOL     OW22582   6.965   2.943   2.112
 7228SOL    HW122583   0.020   2.994   2.080
 7228SOL    HW222584   6.885   3.002   2.112
 7229SOL     OW22585   6.776   1.089   5.509
 7229SOL    HW122586   6.803   1.157   5.441
 7229SOL    HW222587   6.843   1.015   5.509
 7230SOL     OW22588   1.791   5.363   4.364
 7230SOL    HW122589   1.701   5.321   4.358
 7230SOL    HW222590   1.818   5.372   4.460
 7231SOL     OW22591   4.340   2.125   6.326
 7231SOL    HW122592   4.363   2.211   6.282
 7231SOL    HW222593   4.423   2.082   6.362
 7232SOL     OW22594   5.296   0.016   3.398
 7232SOL    HW122595   5.242   6.984   3.460
 7232SOL    HW222596   5.235   0.074   3.344
 7233SOL     OW22597   0.007   1.222   4.871
 7233SOL    HW122598   0.072   1.219   4.947
 7233SOL    HW222599   6.950   1.171   4.896
 7234SOL     OW22600   4.870   4.206   3.123
 7234SOL    HW122601   4.809   4.223   3.046
 7234SOL    HW222602   4.940   4.278   3.126
 7235SOL     OW22603   6.926   5.356   1.413
 7235SOL    HW122604   6.865   5.393   1.484
 7235SOL    HW222605   6.952   5.428   1.350
 7236SOL     OW22606   1.355   3.389   2.610
 7236SOL    HW122607   1.322   3.483   2.620
 7236SOL    HW222608   1.379   3.372   2.515
 7237SOL     OW22609   5.479   1.066   0.234
 7237SOL    HW122610   5.450   0.974   0.209
 7237SOL    HW222611   5.431   1.133   0.177
 7238SOL     OW22612   3.972   3.044   0.133
 7238SOL    HW122613   3.876   3.070   0.137
 7238SOL    HW222614   3.981   2.947   0.155
 7239SOL     OW22615   0.303   2.442   2.149
 7239SOL    HW122616   0.339   2.420   2.059
 7239SOL    HW222617   0.373   2.423   2.218
 7240SOL     OW22618   6.870   1.897   6.763
 7240SOL    HW122619   6.834   1.841   6.688
 7240SOL    HW222620   6.917   1.838   6.829
 7241SOL     OW22621   2.033   1.210   1.162
 7241SOL    HW122622   2.021   1.242   1.068
 7241SOL    HW222623   2.052   1.288   1.221
 7242SOL     OW22624   6.483   5.151   4.586
 7242SOL    HW122625   6.533   5.211   4.523
 7242SOL    HW222626   6.392   5.132   4.549
 7243SOL     OW22627   6.080   4.464   6.255
 7243SOL    HW122628   6.074   4.380   6.200
 7243SOL    HW222629   6.025   4.454   6.338
 7244SOL     OW22630   0.580   5.612   6.867
 7244SOL    HW122631   0.489   5.610   6.827
 7244SOL    HW222632   0.634   5.685   6.826
 7245SOL     OW22633   0.953   3.277   0.418
 7245SOL    HW122634   0.892   3.314   0.347
 7245SOL    HW222635   1.027   3.342   0.436
 7246SOL     OW22636   3.580   6.752   4.048
 7246SOL    HW122637   3.519   6.683   4.088
 7246SOL    HW222638   3.673   6.715   4.042
 7247SOL     OW22639   3.082   3.716   5.270
 7247SOL    HW122640   3.071   3.745   5.175
 7247SOL    HW222641   3.088   3.617   5.274
 7248SOL     OW22642   3.646   1.281   4.887
 7248SOL    HW122643   3.664   1.247   4.795
 7248SOL    HW222644   3.617   1.377   4.881
 7249SOL     OW22645   3.931   5.419   2.337
 7249SOL    HW122646   3.849   5.400   2.283
 7249SOL    HW222647   3.908   5.484   2.410
 7250SOL     OW22648   5.155   5.471   5.777
 7250SOL    HW122649   5.112   5.548   5.730
 7250SOL    HW222650   5.218   5.505   5.847
 7251SOL     OW22651   6.761   5.512   5.631
 7251SOL    HW122652   6.788   5.575   5.558
 7251SOL    HW222653   6.824   5.520   5.707
 7252SOL     OW22654   3.380   4.127   2.311
 7252SOL    HW122655   3.366   4.094   2.217
 7252SOL    HW222656   3.347   4.222   2.318
 7253SOL     OW22657   1.621   5.782   5.317
 7253SOL    HW122658   1.600   5.876   5.293
 7253SOL    HW222659   1.717   5.775   5.344
 7254SOL     OW22660   5.333   3.733   3.799
 7254SOL    HW122661   5.263   3.718   3.729
 7254SOL    HW222662   5.420   3.756   3.756
 7255SOL     OW22663   5.041   3.265   6.497
 7255SOL    HW122664   4.980   3.320   6.440
 7255SOL    HW222665   5.127   3.315   6.510
 7256SOL     OW22666   3.407   6.873   5.610
 7256SOL    HW122667   3.395   6.914   5.520
 7256SOL    HW222668   3.336   6.907   5.672
 7257SOL     OW22669   0.782   1.816   4.473
 7257SOL    HW122670   0.699   1.789   4.424
 7257SOL    HW222671   0.831   1.885   4.421
 7258SOL     OW22672   6.037   2.289   3.363
 7258SOL    HW122673   6.066   2.221   3.430
 7258SOL    HW222674   6.078   2.267   3.274
 7259SOL     OW22675   1.243   4.346   2.944
 7259SOL    HW122676   1.289   4.417   2.891
 7259SOL    HW222677   1.255   4.365   3.042
 7260SOL     OW22678   5.675   3.257   1.401
 7260SOL    HW122679   5.597   3.238   1.342
 7260SOL    HW222680   5.642   3.274   1.494
 7261SOL     OW22681   6.898   4.054   6.506
 7261SOL    HW122682   6.870   4.054   6.602
 7261SOL    HW222683   6.818   4.043   6.448
 7262SOL     OW22684   6.308   1.574   5.681
 7262SOL    HW122685   6.341   1.549   5.589
 7262SOL    HW222686   6.371   1.640   5.722
 7263SOL     OW22687   0.197   5.167   0.036
 7263SOL    HW122688   0.182   5.144   0.132
 7263SOL    HW222689   0.221   5.264   0.029
 7264SOL     OW22690   6.251   1.517   0.907
 7264SOL    HW122691   6.241   1.499   0.809
 7264SOL    HW222692   6.334   1.571   0.922
 7265SOL     OW22693   4.349   5.704   5.658
 7265SOL    HW122694   4.356   5.778   5.591
 7265SOL    HW222695   4.265   5.652   5.642
 7266SOL     OW22696   7.006   0.782   3.716
 7266SOL    HW122697   0.024   0.826   3.638
 7266SOL    HW222698   0.000   0.684   3.714
 7267SOL     OW22699   6.373   5.511   4.349
 7267SOL    HW122700   6.309   5.558   4.288
 7267SOL    HW222701   6.354   5.413   4.349
 7268SOL     OW22702   6.133   6.150   4.253
 7268SOL    HW122703   6.089   6.222   4.200
 7268SOL    HW222704   6.172   6.189   4.336
 7269SOL     OW22705   2.607   4.695   5.107
 7269SOL    HW122706   2.570   4.658   5.193
 7269SOL    HW222707   2.705   4.675   5.102
 7270SOL     OW22708   0.543   1.714   4.349
 7270SOL    HW122709   0.547   1.621   4.387
 7270SOL    HW222710   0.458   1.758   4.377
 7271SOL     OW22711   0.901   4.118   3.809
 7271SOL    HW122712   0.807   4.152   3.820
 7271SOL    HW222713   0.951   4.130   3.895
 7272SOL     OW22714   6.106   5.353   3.073
 7272SOL    HW122715   6.190   5.328   3.024
 7272SOL    HW222716   6.034   5.288   3.052
 7273SOL     OW22717   0.025   2.486   5.506
 7273SOL    HW122718   6.976   2.506   5.570
 7273SOL    HW222719   0.038   2.387   5.500
 7274SOL     OW22720   0.398   4.329   6.967
 7274SOL    HW122721   0.427   4.241   6.930
 7274SOL    HW222722   0.317   4.316   7.024
 7275SOL     OW22723   6.507   0.181   2.929
 7275SOL    HW122724   6.512   0.144   2.836
 7275SOL    HW222725   6.512   0.281   2.925
 7276SOL     OW22726   4.753   6.794   3.955
 7276SOL    HW122727   4.744   6.861   4.028
 7276SOL    HW222728   4.663   6.778   3.913
 7277SOL     OW22729   4.258   0.498   5.812
 7277SOL    HW122730   4.322   0.575   5.818
 7277SOL    HW222731   4.174   0.528   5.766
 7278SOL     OW22732   2.904   3.684   2.671
 7278SOL    HW122733   2.871   3.657   2.581
 7278SOL    HW222734   2.963   3.611   2.707
 7279SOL     OW22735   3.674   6.305   6.122
 7279SOL    HW122736   3.681   6.355   6.035
 7279SOL    HW222737   3.651   6.369   6.195
 7280SOL     OW22738   4.608   1.385   5.953
 7280SOL    HW122739   4.544   1.346   6.019
 7280SOL    HW222740   4.702   1.367   5.983
 7281SOL     OW22741   4.127   1.169   6.922
 7281SOL    HW122742   4.178   1.222   6.989
 7281SOL    HW222743   4.090   1.231   6.852
 7282SOL     OW22744   6.502   5.393   1.845
 7282SOL    HW122745   6.594   5.360   1.822
 7282SOL    HW222746   6.438   5.316   1.841
 7283SOL     OW22747   1.992   0.811   3.979
 7283SOL    HW122748   2.085   0.777   3.967
 7283SOL    HW222749   1.984   0.901   3.937
 7284SOL     OW22750   0.030   4.007   5.266
 7284SOL    HW122751   7.006   3.921   5.251
 7284SOL    HW222752   0.060   4.044   5.178
 7285SOL     OW22753   5.293   5.722   2.178
 7285SOL    HW122754   5.338   5.792   2.122
 7285SOL    HW222755   5.234   5.767   2.245
 7286SOL     OW22756   2.113   3.008   1.293
 7286SOL    HW122757   2.152   3.088   1.338
 7286SOL    HW222758   2.016   3.001   1.316
 7287SOL     OW22759   6.410   1.050   6.367
 7287SOL    HW122760   6.372   1.125   6.421
 7287SOL    HW222761   6.337   1.008   6.312
 7288SOL     OW22762   3.906   0.129   6.594
 7288SOL    HW122763   3.903   0.104   6.497
 7288SOL    HW222764   3.905   0.229   6.603
 7289SOL     OW22765   5.023   1.928   3.255
 7289SOL    HW122766   5.069   2.014   3.233
 7289SOL    HW222767   5.050   1.899   3.347
 7290SOL     OW22768   2.469   5.167   4.608
 7290SOL    HW122769   2.512   5.134   4.692
 7290SOL    HW222770   2.384   5.215   4.630
 7291SOL     OW22771   2.828   5.947   1.735
 7291SOL    HW122772   2.828   6.032   1.788
 7291SOL    HW222773   2.771   5.959   1.654
 7292SOL     OW22774   2.540   6.726   3.771
 7292SOL    HW122775   2.484   6.767   3.842
 7292SOL    HW222776   2.607   6.793   3.738
 7293SOL     OW22777   1.653   2.185   5.228
 7293SOL    HW122778   1.562   2.147   5.241
 7293SOL    HW222779   1.679   2.237   5.310
 7294SOL     OW22780   2.854   4.677   0.577
 7294SOL    HW122781   2.837   4.578   0.575
 7294SOL    HW222782   2.906   4.703   0.496
 7295SOL     OW22783   6.673   0.644   0.848
 7295SOL    HW122784   6.727   0.560   0.854
 7295SOL    HW222785   6.706   0.709   0.917
 7296SOL     OW22786   3.138   4.969   0.944
 7296SOL    HW122787   3.085   4.957   1.028
 7296SOL    HW222788   3.232   4.994   0.968
 7297SOL     OW22789   4.795   6.754   1.490
 7297SOL    HW122790   4.707   6.801   1.484
 7297SOL    HW222791   4.780   6.655   1.489
 7298SOL     OW22792   6.204   3.782   4.200
 7298SOL    HW122793   6.190   3.871   4.157
 7298SOL    HW222794   6.176   3.710   4.137
 7299SOL     OW22795   6.265   3.336   6.995
 7299SOL    HW122796   6.191   3.269   7.004
 7299SOL    HW222797   6.301   3.333   6.901
 7300SOL     OW22798   5.250   5.266   1.005
 7300SOL    HW122799   5.245   5.341   0.938
 7300SOL    HW222800   5.327   5.281   1.066
 7301SOL     OW22801   6.949   6.867   6.135
 7301SOL    HW122802   6.953   6.812   6.052
 7301SOL    HW222803   6.871   6.838   6.190
 7302SOL     OW22804   5.946   1.014   6.511
 7302SOL    HW122805   5.883   1.022   6.588
 7302SOL    HW222806   6.031   1.062   6.533
 7303SOL     OW22807   3.232   0.577   0.049
 7303SOL    HW122808   3.199   0.483   0.057
 7303SOL    HW222809   3.162   0.633   0.005
 7304SOL     OW22810   4.523   4.099   5.881
 7304SOL    HW122811   4.443   4.090   5.821
 7304SOL    HW222812   4.505   4.053   5.968
 7305SOL     OW22813   4.771   1.417   0.746
 7305SOL    HW122814   4.812   1.367   0.822
 7305SOL    HW222815   4.842   1.465   0.695
 7306SOL     OW22816   4.505   5.181   1.577
 7306SOL    HW122817   4.544   5.163   1.668
 7306SOL    HW222818   4.425   5.123   1.563
 7307SOL     OW22819   4.001   6.746   1.891
 7307SOL    HW122820   4.042   6.771   1.803
 7307SOL    HW222821   3.906   6.777   1.894
 7308SOL     OW22822   6.609   3.222   4.780
 7308SOL    HW122823   6.547   3.267   4.844
 7308SOL    HW222824   6.556   3.167   4.716
 7309SOL     OW22825   5.030   6.794   1.324
 7309SOL    HW122826   5.091   6.723   1.360
 7309SOL    HW222827   4.939   6.784   1.364
 7310SOL     OW22828   3.139   5.429   1.376
 7310SOL    HW122829   3.094   5.442   1.465
 7310SOL    HW222830   3.237   5.422   1.390
 7311SOL     OW22831   2.732   2.135   1.978
 7311SOL    HW122832   2.790   2.213   2.000
 7311SOL    HW222833   2.636   2.165   1.972
 7312SOL     OW22834   6.579   1.690   5.750
 7312SOL    HW122835   6.610   1.779   5.715
 7312SOL    HW222836   6.590   1.688   5.849
 7313SOL     OW22837   3.837   2.496   6.356
 7313SOL    HW122838   3.898   2.444   6.416
 7313SOL    HW222839   3.827   2.589   6.390
 7314SOL     OW22840   0.230   3.427   4.785
 7314SOL    HW122841   0.165   3.494   4.822
 7314SOL    HW222842   0.298   3.404   4.855
 7315SOL     OW22843   6.761   6.835   3.790
 7315SOL    HW122844   6.795   6.924   3.759
 7315SOL    HW222845   6.663   6.828   3.768
 7316SOL     OW22846   3.716   3.534   5.720
 7316SOL    HW122847   3.632   3.531   5.665
 7316SOL    HW222848   3.752   3.442   5.730
 7317SOL     OW22849   3.116   1.101   3.320
 7317SOL    HW122850   3.071   1.180   3.362
 7317SOL    HW222851   3.122   1.027   3.387
 7318SOL     OW22852   1.328   2.646   1.195
 7318SOL    HW122853   1.285   2.694   1.273
 7318SOL    HW222854   1.427   2.655   1.201
 7319SOL     OW22855   6.047   4.479   6.747
 7319SOL    HW122856   5.974   4.544   6.728
 7319SOL    HW222857   6.089   4.501   6.835
 7320SOL     OW22858   0.383   3.324   2.345
 7320SOL    HW122859   0.397   3.417   2.379
 7320SOL    HW222860   0.431   3.260   2.405
 7321SOL     OW22861   2.233   1.569   4.516
 7321SOL    HW122862   2.219   1.482   4.469
 7321SOL    HW222863   2.149   1.623   4.511
 7322SOL     OW22864   0.827   4.128   2.977
 7322SOL    HW122865   0.770   4.065   2.923
 7322SOL    HW222866   0.852   4.207   2.921
 7323SOL     OW22867   2.013   2.599   3.569
 7323SOL    HW122868   1.989   2.508   3.604
 7323SOL    HW222869   2.063   2.650   3.638
 7324SOL     OW22870   6.443   0.653   3.250
 7324SOL    HW122871   6.384   0.627   3.326
 7324SOL    HW222872   6.472   0.748   3.262
 7325SOL     OW22873   3.340   6.711   6.540
 7325SOL    HW122874   3.305   6.618   6.550
 7325SOL    HW222875   3.437   6.713   6.563
 7326SOL     OW22876   2.562   6.814   5.626
 7326SOL    HW122877   2.486   6.750   5.613
 7326SOL    HW222878   2.628   6.801   5.552
 7327SOL     OW22879   1.574   2.841   6.440
 7327SOL    HW122880   1.493   2.878   6.396
 7327SOL    HW222881   1.586   2.883   6.530
 7328SOL     OW22882   2.476   0.028   6.844
 7328SOL    HW122883   2.533   7.005   6.777
 7328SOL    HW222884   2.401   0.074   6.798
 7329SOL     OW22885   3.919   3.275   0.977
 7329SOL    HW122886   3.957   3.362   0.944
 7329SOL    HW222887   3.994   3.213   1.001
 7330SOL     OW22888   3.634   1.221   6.839
 7330SOL    HW122889   3.546   1.191   6.801
 7330SOL    HW222890   3.663   1.159   6.911
 7331SOL     OW22891   5.068   0.843   2.602
 7331SOL    HW122892   4.991   0.820   2.661
 7331SOL    HW222893   5.154   0.831   2.653
 7332SOL     OW22894   3.125   5.416   0.454
 7332SOL    HW122895   3.093   5.330   0.495
 7332SOL    HW222896   3.216   5.437   0.490
 7333SOL     OW22897   0.969   4.910   2.912
 7333SOL    HW122898   0.970   4.861   2.999
 7333SOL    HW222899   0.875   4.920   2.880
 7334SOL     OW22900   3.967   6.083   5.120
 7334SOL    HW122901   3.870   6.109   5.116
 7334SOL    HW222902   4.018   6.157   5.164
 7335SOL     OW22903   1.927   1.875   2.722
 7335SOL    HW122904   1.986   1.799   2.750
 7335SOL    HW222905   1.860   1.893   2.794
 7336SOL     OW22906   2.618   6.013   4.193
 7336SOL    HW122907   2.521   5.995   4.207
 7336SOL    HW222908   2.632   6.111   4.178
 7337SOL     OW22909   0.134   3.248   2.248
 7337SOL    HW122910   0.220   3.284   2.284
 7337SOL    HW222911   0.092   3.315   2.187
 7338SOL     OW22912   6.670   2.101   1.078
 7338SOL    HW122913   6.689   2.167   1.151
 7338SOL    HW222914   6.673   2.008   1.116
 7339SOL     OW22915   6.599   5.618   4.746
 7339SOL    HW122916   6.554   5.657   4.666
 7339SOL    HW222917   6.575   5.522   4.754
 7340SOL     OW22918   2.278   6.760   0.007
 7340SOL    HW122919   2.182   6.776   0.030
 7340SOL    HW222920   2.283   6.691   6.959
 7341SOL     OW22921   6.264   2.407   6.438
 7341SOL    HW122922   6.305   2.474   6.376
 7341SOL    HW222923   6.330   2.336   6.460
 7342SOL     OW22924   0.139   6.944   2.464
 7342SOL    HW122925   0.098   6.987   2.545
 7342SOL    HW222926   0.067   6.917   2.401
 7343SOL     OW22927   5.673   3.722   0.599
 7343SOL    HW122928   5.751   3.711   0.538
 7343SOL    HW222929   5.689   3.800   0.660
 7344SOL     OW22930   1.458   6.027   6.469
 7344SOL    HW122931   1.509   6.103   6.429
 7344SOL    HW222932   1.472   5.944   6.415
 7345SOL     OW22933   3.669   4.618   5.819
 7345SOL    HW122934   3.618   4.655   5.742
 7345SOL    HW222935   3.621   4.538   5.855
 7346SOL     OW22936   4.900   5.373   3.231
 7346SOL    HW122937   4.821   5.433   3.237
 7346SOL    HW222938   4.886   5.305   3.159
 7347SOL     OW22939   5.939   2.478   6.288
 7347SOL    HW122940   5.962   2.472   6.385
 7347SOL    HW222941   5.898   2.567   6.269
 7348SOL     OW22942   0.882   4.540   2.230
 7348SOL    HW122943   0.849   4.630   2.202
 7348SOL    HW222944   0.805   4.485   2.262
 7349SOL     OW22945   3.761   1.710   1.469
 7349SOL    HW122946   3.683   1.724   1.408
 7349SOL    HW222947   3.807   1.624   1.447
 7350SOL     OW22948   3.179   0.428   5.405
 7350SOL    HW122949   3.102   0.443   5.467
 7350SOL    HW222950   3.156   0.464   5.314
 7351SOL     OW22951   3.655   5.092   4.041
 7351SOL    HW122952   3.719   5.164   4.069
 7351SOL    HW222953   3.609   5.054   4.121
 7352SOL     OW22954   6.895   2.504   3.418
 7352SOL    HW122955   6.982   2.484   3.373
 7352SOL    HW222956   6.867   2.598   3.398
 7353SOL     OW22957   6.274   0.380   6.538
 7353SOL    HW122958   6.245   0.438   6.462
 7353SOL    HW222959   6.293   0.438   6.618
 7354SOL     OW22960   1.057   1.184   2.495
 7354SOL    HW122961   1.137   1.145   2.449
 7354SOL    HW222962   1.086   1.226   2.581
 7355SOL     OW22963   1.088   2.124   6.809
 7355SOL    HW122964   1.090   2.218   6.841
 7355SOL    HW222965   1.012   2.075   6.852
 7356SOL     OW22966   4.415   3.736   5.851
 7356SOL    HW122967   4.372   3.778   5.772
 7356SOL    HW222968   4.460   3.806   5.906
 7357SOL     OW22969   5.273   6.236   2.526
 7357SOL    HW122970   5.232   6.155   2.569
 7357SOL    HW222971   5.349   6.207   2.467
 7358SOL     OW22972   5.423   1.602   3.326
 7358SOL    HW122973   5.329   1.571   3.338
 7358SOL    HW222974   5.448   1.597   3.229
 7359SOL     OW22975   4.719   0.075   6.956
 7359SOL    HW122976   4.676   0.163   6.974
 7359SOL    HW222977   4.649   0.005   6.946
 7360SOL     OW22978   2.898   3.346   5.207
 7360SOL    HW122979   2.882   3.252   5.235
 7360SOL    HW222980   2.922   3.348   5.110
 7361SOL     OW22981   5.032   0.468   2.785
 7361SOL    HW122982   5.072   0.555   2.814
 7361SOL    HW222983   5.081   0.393   2.829
 7362SOL     OW22984   3.887   5.448   6.818
 7362SOL    HW122985   3.808   5.397   6.785
 7362SOL    HW222986   3.940   5.483   6.741
 7363SOL     OW22987   4.005   6.987   1.543
 7363SOL    HW122988   3.920   0.002   1.577
 7363SOL    HW222989   4.028   0.002   1.454
 7364SOL     OW22990   5.351   0.066   1.767
 7364SOL    HW122991   5.450   0.079   1.757
 7364SOL    HW222992   5.307   0.073   1.677
 7365SOL     OW22993   5.597   4.964   2.009
 7365SOL    HW122994   5.508   4.936   2.045
 7365SOL    HW222995   5.597   4.956   1.910
 7366SOL     OW22996   1.850   1.366   4.115
 7366SOL    HW122997   1.945   1.396   4.126
 7366SOL    HW222998   1.795   1.398   4.193
 7367SOL     OW22999   4.535   0.481   6.354
 7367SOL    HW123000   4.619   0.532   6.374
 7367SOL    HW223001   4.469   0.543   6.309
 7368SOL     OW23002   4.108   3.541   3.162
 7368SOL    HW123003   4.132   3.596   3.241
 7368SOL    HW223004   4.160   3.572   3.082
 7369SOL     OW23005   5.891   2.491   1.271
 7369SOL    HW123006   5.831   2.460   1.198
 7369SOL    HW223007   5.934   2.412   1.315
 7370SOL     OW23008   2.091   2.197   4.371
 7370SOL    HW123009   2.020   2.137   4.333
 7370SOL    HW223010   2.135   2.152   4.448
 7371SOL     OW23011   4.139   0.745   4.023
 7371SOL    HW123012   4.134   0.844   4.030
 7371SOL    HW223013   4.114   0.703   4.110
 7372SOL     OW23014   4.894   0.463   4.843
 7372SOL    HW123015   4.929   0.555   4.861
 7372SOL    HW223016   4.854   0.460   4.751
 7373SOL     OW23017   5.599   3.332   4.606
 7373SOL    HW123018   5.688   3.304   4.643
 7373SOL    HW223019   5.531   3.331   4.680
 7374SOL     OW23020   6.985   1.799   5.849
 7374SOL    HW123021   6.932   1.733   5.902
 7374SOL    HW223022   6.982   1.888   5.895
 7375SOL     OW23023   2.048   3.177   2.328
 7375SOL    HW123024   2.093   3.108   2.272
 7375SOL    HW223025   2.102   3.193   2.410
 7376SOL     OW23026   0.211   3.996   0.296
 7376SOL    HW123027   0.288   4.059   0.286
 7376SOL    HW223028   0.134   4.030   0.242
 7377SOL     OW23029   3.126   6.090   0.168
 7377SOL    HW123030   3.063   6.060   0.096
 7377SOL    HW223031   3.129   6.020   0.240
 7378SOL     OW23032   1.440   6.252   4.344
 7378SOL    HW123033   1.523   6.228   4.294
 7378SOL    HW223034   1.379   6.304   4.283
 7379SOL     OW23035   4.162   0.840   0.908
 7379SOL    HW123036   4.062   0.848   0.902
 7379SOL    HW223037   4.202   0.930   0.923
 7380SOL     OW23038   5.246   3.162   2.517
 7380SOL    HW123039   5.173   3.162   2.585
 7380SOL    HW223040   5.223   3.225   2.443
 7381SOL     OW23041   3.853   0.918   0.649
 7381SOL    HW123042   3.871   0.850   0.720
 7381SOL    HW223043   3.932   0.979   0.642
 7382SOL     OW23044   6.647   1.097   6.243
 7382SOL    HW123045   6.623   1.152   6.163
 7382SOL    HW223046   6.563   1.074   6.294
 7383SOL     OW23047   2.210   6.748   0.714
 7383SOL    HW123048   2.232   6.655   0.744
 7383SOL    HW223049   2.295   6.798   0.695
 7384SOL     OW23050   0.459   0.180   1.078
 7384SOL    HW123051   0.487   0.128   1.159
 7384SOL    HW223052   0.466   0.278   1.096
 7385SOL     OW23053   5.916   4.717   2.723
 7385SOL    HW123054   5.953   4.799   2.767
 7385SOL    HW223055   5.898   4.647   2.792
 7386SOL     OW23056   6.235   3.820   0.518
 7386SOL    HW123057   6.218   3.764   0.599
 7386SOL    HW223058   6.179   3.903   0.522
 7387SOL     OW23059   6.370   5.683   5.624
 7387SOL    HW123060   6.448   5.746   5.624
 7387SOL    HW223061   6.403   5.591   5.602
 7388SOL     OW23062   2.148   5.822   2.613
 7388SOL    HW123063   2.115   5.773   2.693
 7388SOL    HW223064   2.231   5.872   2.637
 7389SOL     OW23065   5.652   3.376   0.629
 7389SOL    HW123066   5.661   3.278   0.616
 7389SOL    HW223067   5.624   3.419   0.543
 7390SOL     OW23068   2.270   1.922   2.774
 7390SOL    HW123069   2.334   1.900   2.701
 7390SOL    HW223070   2.294   1.870   2.856
 7391SOL     OW23071   3.625   3.275   3.520
 7391SOL    HW123072   3.542   3.227   3.549
 7391SOL    HW223073   3.675   3.218   3.454
 7392SOL     OW23074   3.277   6.029   6.668
 7392SOL    HW123075   3.333   6.093   6.721
 7392SOL    HW223076   3.198   6.002   6.723
 7393SOL     OW23077   5.186   5.632   4.274
 7393SOL    HW123078   5.207   5.698   4.346
 7393SOL    HW223079   5.262   5.629   4.209
 7394SOL     OW23080   2.237   1.854   5.926
 7394SOL    HW123081   2.218   1.926   5.993
 7394SOL    HW223082   2.213   1.887   5.835
 7395SOL     OW23083   2.706   5.611   0.805
 7395SOL    HW123084   2.621   5.558   0.811
 7395SOL    HW223085   2.707   5.680   0.878
 7396SOL     OW23086   2.614   5.286   2.015
 7396SOL    HW123087   2.533   5.343   2.028
 7396SOL    HW223088   2.610   5.243   1.925
 7397SOL     OW23089   5.447   4.047   3.971
 7397SOL    HW123090   5.455   4.086   4.062
 7397SOL    HW223091   5.442   3.947   3.977
 7398SOL     OW23092   2.366   4.295   2.553
 7398SOL    HW123093   2.310   4.213   2.564
 7398SOL    HW223094   2.458   4.270   2.523
 7399SOL     OW23095   5.342   2.254   4.930
 7399SOL    HW123096   5.291   2.314   4.990
 7399SOL    HW223097   5.339   2.160   4.965
 7400SOL     OW23098   5.466   2.816   5.804
 7400SOL    HW123099   5.562   2.832   5.826
 7400SOL    HW223100   5.457   2.790   5.708
 7401SOL     OW23101   1.477   2.756   3.990
 7401SOL    HW123102   1.395   2.717   3.949
 7401SOL    HW223103   1.451   2.831   4.052
 7402SOL     OW23104   3.488   6.257   5.365
 7402SOL    HW123105   3.496   6.292   5.458
 7402SOL    HW223106   3.406   6.200   5.358
 7403SOL     OW23107   1.293   3.439   4.772
 7403SOL    HW123108   1.199   3.473   4.773
 7403SOL    HW223109   1.313   3.393   4.858
 7404SOL     OW23110   3.096   3.950   0.641
 7404SOL    HW123111   3.028   3.983   0.576
 7404SOL    HW223112   3.100   3.850   0.637
 7405SOL     OW23113   3.469   6.372   4.876
 7405SOL    HW123114   3.513   6.441   4.933
 7405SOL    HW223115   3.462   6.286   4.927
 7406SOL     OW23116   0.875   1.079   4.809
 7406SOL    HW123117   0.852   1.166   4.853
 7406SOL    HW223118   0.928   1.023   4.873
 7407SOL     OW23119   0.740   5.639   5.625
 7407SOL    HW123120   0.680   5.694   5.682
 7407SOL    HW223121   0.699   5.627   5.534
 7408SOL     OW23122   3.446   4.301   5.382
 7408SOL    HW123123   3.495   4.343   5.458
 7408SOL    HW223124   3.353   4.339   5.378
 7409SOL     OW23125   6.503   3.745   0.566
 7409SOL    HW123126   6.493   3.765   0.663
 7409SOL    HW223127   6.415   3.756   0.520
 7410SOL     OW23128   0.178   0.252   1.224
 7410SOL    HW123129   0.237   0.313   1.171
 7410SOL    HW223130   0.142   0.302   1.303
 7411SOL     OW23131   1.627   2.314   4.978
 7411SOL    HW123132   1.712   2.283   4.936
 7411SOL    HW223133   1.619   2.275   5.070
 7412SOL     OW23134   4.733   6.827   6.769
 7412SOL    HW123135   4.753   6.737   6.808
 7412SOL    HW223136   4.780   6.836   6.681
 7413SOL     OW23137   4.250   6.847   2.997
 7413SOL    HW123138   4.338   6.816   2.960
 7413SOL    HW223139   4.200   6.769   3.034
 7414SOL     OW23140   2.766   2.017   4.226
 7414SOL    HW123141   2.862   2.042   4.234
 7414SOL    HW223142   2.758   1.919   4.211
 7415SOL     OW23143   3.814   6.487   6.490
 7415SOL    HW123144   3.869   6.493   6.406
 7415SOL    HW223145   3.851   6.550   6.558
 7416SOL     OW23146   0.877   0.958   2.228
 7416SOL    HW123147   0.829   0.952   2.316
 7416SOL    HW223148   0.830   1.024   2.169
 7417SOL     OW23149   0.660   1.142   3.579
 7417SOL    HW123150   0.760   1.155   3.581
 7417SOL    HW223151   0.634   1.091   3.497
 7418SOL     OW23152   2.089   3.946   6.018
 7418SOL    HW123153   2.059   3.873   6.079
 7418SOL    HW223154   2.075   3.918   5.923
 7419SOL     OW23155   0.075   3.526   3.848
 7419SOL    HW123156   0.047   3.620   3.868
 7419SOL    HW223157   0.164   3.527   3.801
 7420SOL     OW23158   6.457   6.836   1.348
 7420SOL    HW123159   6.463   6.797   1.440
 7420SOL    HW223160   6.536   6.807   1.294
 7421SOL     OW23161   4.825   4.267   1.629
 7421SOL    HW123162   4.917   4.290   1.659
 7421SOL    HW223163   4.779   4.349   1.595
 7422SOL     OW23164   5.159   1.955   2.903
 7422SOL    HW123165   5.231   1.941   2.834
 7422SOL    HW223166   5.151   1.872   2.958
 7423SOL     OW23167   5.453   1.861   6.182
 7423SOL    HW123168   5.422   1.903   6.267
 7423SOL    HW223169   5.537   1.906   6.152
 7424SOL     OW23170   0.985   1.737   3.860
 7424SOL    HW123171   0.953   1.671   3.928
 7424SOL    HW223172   0.978   1.697   3.769
 7425SOL     OW23173   6.007   0.632   0.479
 7425SOL    HW123174   6.009   0.706   0.547
 7425SOL    HW223175   6.063   0.658   0.401
 7426SOL     OW23176   3.680   3.456   6.208
 7426SOL    HW123177   3.612   3.408   6.263
 7426SOL    HW223178   3.652   3.453   6.112
 7427SOL     OW23179   2.967   1.258   3.987
 7427SOL    HW123180   3.065   1.268   4.005
 7427SOL    HW223181   2.936   1.334   3.929
 7428SOL     OW23182   4.503   6.124   5.405
 7428SOL    HW123183   4.461   6.214   5.411
 7428SOL    HW223184   4.591   6.125   5.451
 7429SOL     OW23185   1.426   6.725   2.531
 7429SOL    HW123186   1.469   6.807   2.569
 7429SOL    HW223187   1.327   6.730   2.543
 7430SOL     OW23188   6.891   5.175   2.563
 7430SOL    HW123189   6.864   5.227   2.483
 7430SOL    HW223190   6.974   5.215   2.603
 7431SOL     OW23191   1.749   1.631   3.723
 7431SOL    HW123192   1.828   1.596   3.774
 7431SOL    HW223193   1.684   1.557   3.708
 7432SOL     OW23194   2.289   0.055   3.366
 7432SOL    HW123195   2.313   0.007   3.450
 7432SOL    HW223196   2.232   7.021   3.309
 7433SOL     OW23197   3.122   0.257   6.615
 7433SOL    HW123198   3.071   0.264   6.529
 7433SOL    HW223199   3.117   0.163   6.649
 7434SOL     OW23200   4.040   6.549   5.168
 7434SOL    HW123201   4.075   6.510   5.083
 7434SOL    HW223202   3.950   6.588   5.153
 7435SOL     OW23203   5.055   4.882   3.086
 7435SOL    HW123204   5.072   4.945   3.162
 7435SOL    HW223205   5.119   4.806   3.091
 7436SOL     OW23206   5.209   2.646   6.405
 7436SOL    HW123207   5.182   2.742   6.393
 7436SOL    HW223208   5.178   2.594   6.326
 7437SOL     OW23209   3.815   6.573   0.987
 7437SOL    HW123210   3.723   6.535   0.982
 7437SOL    HW223211   3.827   6.639   0.913
 7438SOL     OW23212   2.550   0.651   0.262
 7438SOL    HW123213   2.600   0.697   0.188
 7438SOL    HW223214   2.466   0.612   0.225
 7439SOL     OW23215   1.138   4.316   6.093
 7439SOL    HW123216   1.110   4.397   6.042
 7439SOL    HW223217   1.102   4.321   6.186
 7440SOL     OW23218   5.602   3.864   4.313
 7440SOL    HW123219   5.548   3.832   4.391
 7440SOL    HW223220   5.602   3.964   4.311
 7441SOL     OW23221   6.007   5.715   1.303
 7441SOL    HW123222   6.027   5.654   1.380
 7441SOL    HW223223   6.042   5.806   1.323
 7442SOL     OW23224   5.146   1.076   5.473
 7442SOL    HW123225   5.173   1.147   5.538
 7442SOL    HW223226   5.147   1.114   5.380
 7443SOL     OW23227   0.138   0.807   1.685
 7443SOL    HW123228   0.194   0.890   1.691
 7443SOL    HW223229   0.182   0.740   1.625
 7444SOL     OW23230   1.597   6.152   6.827
 7444SOL    HW123231   1.522   6.166   6.763
 7444SOL    HW223232   1.684   6.175   6.782
 7445SOL     OW23233   5.013   6.417   1.397
 7445SOL    HW123234   4.969   6.408   1.308
 7445SOL    HW223235   4.944   6.425   1.469
 7446SOL     OW23236   5.315   3.947   0.316
 7446SOL    HW123237   5.369   3.879   0.365
 7446SOL    HW223238   5.375   4.006   0.262
 7447SOL     OW23239   0.623   4.628   1.074
 7447SOL    HW123240   0.646   4.539   1.113
 7447SOL    HW223241   0.610   4.695   1.147
 7448SOL     OW23242   4.468   5.223   6.549
 7448SOL    HW123243   4.511   5.284   6.615
 7448SOL    HW223244   4.528   5.211   6.470
 7449SOL     OW23245   0.577   4.264   6.614
 7449SOL    HW123246   0.483   4.247   6.586
 7449SOL    HW223247   0.597   4.215   6.698
 7450SOL     OW23248   5.575   2.294   5.051
 7450SOL    HW123249   5.641   2.238   5.000
 7450SOL    HW223250   5.486   2.288   5.006
 7451SOL     OW23251   5.391   4.833   3.249
 7451SOL    HW123252   5.338   4.835   3.334
 7451SOL    HW223253   5.488   4.834   3.270
 7452SOL     OW23254   6.070   5.346   5.298
 7452SOL    HW123255   6.119   5.318   5.215
 7452SOL    HW223256   6.132   5.338   5.376
 7453SOL     OW23257   3.932   6.212   6.170
 7453SOL    HW123258   3.840   6.251   6.164
 7453SOL    HW223259   3.944   6.144   6.098
 7454SOL     OW23260   4.081   2.243   0.780
 7454SOL    HW123261   4.135   2.160   0.764
 7454SOL    HW223262   4.142   2.316   0.811
 7455SOL     OW23263   6.782   2.745   3.413
 7455SOL    HW123264   6.834   2.817   3.458
 7455SOL    HW223265   6.717   2.706   3.478
 7456SOL     OW23266   3.044   2.247   5.519
 7456SOL    HW123267   3.073   2.184   5.447
 7456SOL    HW223268   2.954   2.285   5.497
 7457SOL     OW23269   2.498   0.389   2.965
 7457SOL    HW123270   2.482   0.459   3.035
 7457SOL    HW223271   2.490   0.431   2.874
 7458SOL     OW23272   1.608   5.181   5.452
 7458SOL    HW123273   1.513   5.185   5.421
 7458SOL    HW223274   1.611   5.193   5.551
 7459SOL     OW23275   5.978   0.731   2.736
 7459SOL    HW123276   5.987   0.801   2.806
 7459SOL    HW223277   6.013   0.644   2.771
 7460SOL     OW23278   1.713   6.523   1.119
 7460SOL    HW123279   1.624   6.563   1.138
 7460SOL    HW223280   1.780   6.557   1.186
 7461SOL     OW23281   1.586   4.934   6.097
 7461SOL    HW123282   1.594   5.033   6.101
 7461SOL    HW223283   1.580   4.897   6.190
 7462SOL     OW23284   1.292   4.870   0.443
 7462SOL    HW123285   1.211   4.919   0.412
 7462SOL    HW223286   1.292   4.777   0.407
 7463SOL     OW23287   3.377   5.055   1.048
 7463SOL    HW123288   3.421   5.142   1.025
 7463SOL    HW223289   3.427   5.011   1.123
 7464SOL     OW23290   6.163   5.948   5.509
 7464SOL    HW123291   6.210   5.868   5.546
 7464SOL    HW223292   6.068   5.947   5.540
 7465SOL     OW23293   1.645   5.118   0.301
 7465SOL    HW123294   1.678   5.208   0.331
 7465SOL    HW223295   1.722   5.066   0.264
 7466SOL     OW23296   0.485   6.870   5.069
 7466SOL    HW123297   0.449   6.961   5.088
 7466SOL    HW223298   0.553   6.875   4.996
 7467SOL     OW23299   0.117   2.784   5.804
 7467SOL    HW123300   0.178   2.784   5.883
 7467SOL    HW223301   0.122   2.696   5.758
 7468SOL     OW23302   5.973   3.927   6.088
 7468SOL    HW123303   6.032   3.994   6.043
 7468SOL    HW223304   5.927   3.872   6.018
 7469SOL     OW23305   6.417   2.266   1.443
 7469SOL    HW123306   6.378   2.232   1.528
 7469SOL    HW223307   6.374   2.220   1.365
 7470SOL     OW23308   5.838   2.850   3.910
 7470SOL    HW123309   5.895   2.927   3.937
 7470SOL    HW223310   5.877   2.765   3.945
 7471SOL     OW23311   4.880   6.206   5.735
 7471SOL    HW123312   4.791   6.236   5.768
 7471SOL    HW223313   4.889   6.107   5.746
 7472SOL     OW23314   5.918   6.190   5.263
 7472SOL    HW123315   5.908   6.202   5.362
 7472SOL    HW223316   5.837   6.145   5.226
 7473SOL     OW23317   4.456   5.739   4.230
 7473SOL    HW123318   4.366   5.782   4.237
 7473SOL    HW223319   4.498   5.764   4.142
 7474SOL     OW23320   5.909   1.883   5.893
 7474SOL    HW123321   5.958   1.935   5.963
 7474SOL    HW223322   5.929   1.922   5.803
 7475SOL     OW23323   4.749   2.651   0.464
 7475SOL    HW123324   4.705   2.563   0.451
 7475SOL    HW223325   4.710   2.718   0.401
 7476SOL     OW23326   1.469   0.386   2.586
 7476SOL    HW123327   1.565   0.374   2.609
 7476SOL    HW223328   1.457   0.382   2.487
 7477SOL     OW23329   0.876   4.303   4.983
 7477SOL    HW123330   0.974   4.321   4.994
 7477SOL    HW223331   0.856   4.289   4.886
 7478SOL     OW23332   0.891   0.638   5.521
 7478SOL    HW123333   0.938   0.711   5.571
 7478SOL    HW223334   0.793   0.654   5.523
 7479SOL     OW23335   5.799   3.043   0.197
 7479SOL    HW123336   5.725   2.980   0.220
 7479SOL    HW223337   5.870   2.994   0.147
 7480SOL     OW23338   3.646   4.996   2.747
 7480SOL    HW123339   3.600   4.918   2.788
 7480SOL    HW223340   3.586   5.039   2.679
 7481SOL     OW23341   0.317   4.137   6.634
 7481SOL    HW123342   0.340   4.067   6.702
 7481SOL    HW223343   0.258   4.097   6.563
 7482SOL     OW23344   4.084   2.013   2.739
 7482SOL    HW123345   4.061   1.924   2.779
 7482SOL    HW223346   4.179   2.011   2.707
 7483SOL     OW23347   5.119   2.348   5.712
 7483SOL    HW123348   5.120   2.448   5.711
 7483SOL    HW223349   5.079   2.314   5.627
 7484SOL     OW23350   3.287   6.841   4.183
 7484SOL    HW123351   3.359   6.774   4.167
 7484SOL    HW223352   3.326   6.933   4.187
 7485SOL     OW23353   3.215   0.140   5.444
 7485SOL    HW123354   3.196   0.238   5.442
 7485SOL    HW223355   3.137   0.091   5.483
 7486SOL     OW23356   2.943   6.323   1.393
 7486SOL    HW123357   2.993   6.295   1.311
 7486SOL    HW223358   2.910   6.417   1.382
 7487SOL     OW23359   4.386   6.752   4.399
 7487SOL    HW123360   4.286   6.752   4.404
 7487SOL    HW223361   4.422   6.680   4.458
 7488SOL     OW23362   1.073   6.057   4.011
 7488SOL    HW123363   1.171   6.034   4.006
 7488SOL    HW223364   1.021   5.991   3.958
 7489SOL     OW23365   5.505   3.357   6.695
 7489SOL    HW123366   5.523   3.455   6.684
 7489SOL    HW223367   5.571   3.318   6.759
 7490SOL     OW23368   1.200   2.359   2.242
 7490SOL    HW123369   1.288   2.396   2.271
 7490SOL    HW223370   1.196   2.261   2.263
 7491SOL     OW23371   4.326   2.792   7.019
 7491SOL    HW123372   4.386   2.862   0.033
 7491SOL    HW223373   4.248   2.835   6.974
 7492SOL     OW23374   1.508   0.346   4.338
 7492SOL    HW123375   1.510   0.444   4.357
 7492SOL    HW223376   1.433   0.325   4.275
 7493SOL     OW23377   6.907   4.321   5.092
 7493SOL    HW123378   6.993   4.337   5.141
 7493SOL    HW223379   6.836   4.296   5.157
 7494SOL     OW23380   6.528   0.971   2.337
 7494SOL    HW123381   6.476   0.943   2.257
 7494SOL    HW223382   6.483   1.048   2.381
 7495SOL     OW23383   1.433   3.573   5.575
 7495SOL    HW123384   1.485   3.646   5.531
 7495SOL    HW223385   1.496   3.502   5.607
 7496SOL     OW23386   5.832   4.812   2.483
 7496SOL    HW123387   5.855   4.775   2.573
 7496SOL    HW223388   5.750   4.869   2.491
 7497SOL     OW23389   0.250   6.234   0.527
 7497SOL    HW123390   0.257   6.258   0.624
 7497SOL    HW223391   0.207   6.309   0.477
 7498SOL     OW23392   2.768   6.729   2.849
 7498SOL    HW123393   2.838   6.663   2.876
 7498SOL    HW223394   2.761   6.731   2.749
 7499SOL     OW23395   3.829   2.014   3.729
 7499SOL    HW123396   3.845   1.931   3.676
 7499SOL    HW223397   3.911   2.036   3.782
 7500SOL     OW23398   3.405   6.812   3.137
 7500SOL    HW123399   3.406   6.846   3.043
 7500SOL    HW223400   3.406   6.889   3.201
 7501SOL     OW23401   6.156   2.358   4.940
 7501SOL    HW123402   6.152   2.342   5.039
 7501SOL    HW223403   6.206   2.282   4.897
 7502SOL     OW23404   4.397   0.660   4.508
 7502SOL    HW123405   4.391   0.655   4.408
 7502SOL    HW223406   4.349   0.741   4.541
 7503SOL     OW23407   1.776   6.318   1.522
 7503SOL    HW123408   1.848   6.249   1.511
 7503SOL    HW223409   1.775   6.350   1.616
 7504SOL     OW23410   6.264   6.545   4.093
 7504SOL    HW123411   6.345   6.601   4.075
 7504SOL    HW223412   6.189   6.603   4.124
 7505SOL     OW23413   0.641   6.440   5.095
 7505SOL    HW123414   0.663   6.375   5.167
 7505SOL    HW223415   0.575   6.507   5.129
 7506SOL     OW23416   3.200   1.835   3.230
 7506SOL    HW123417   3.180   1.740   3.207
 7506SOL    HW223418   3.225   1.884   3.146
 7507SOL     OW23419   6.464   4.219   5.254
 7507SOL    HW123420   6.421   4.135   5.222
 7507SOL    HW223421   6.399   4.269   5.313
 7508SOL     OW23422   2.678   5.851   6.960
 7508SOL    HW123423   2.648   5.857   0.029
 7508SOL    HW223424   2.633   5.921   6.905
 7509SOL     OW23425   6.093   4.664   0.994
 7509SOL    HW123426   6.082   4.641   0.897
 7509SOL    HW223427   6.004   4.669   1.038
 7510SOL     OW23428   3.731   3.385   3.741
 7510SOL    HW123429   3.749   3.479   3.711
 7510SOL    HW223430   3.709   3.329   3.661
 7511SOL     OW23431   3.940   6.306   3.688
 7511SOL    HW123432   3.990   6.230   3.646
 7511SOL    HW223433   3.999   6.387   3.690
 7512SOL     OW23434   3.763   0.373   6.432
 7512SOL    HW123435   3.853   0.406   6.462
 7512SOL    HW223436   3.717   0.328   6.508
 7513SOL     OW23437   1.243   2.127   2.339
 7513SOL    HW123438   1.197   2.038   2.339
 7513SOL    HW223439   1.341   2.113   2.325
 7514SOL     OW23440   1.015   4.513   1.595
 7514SOL    HW123441   0.943   4.550   1.653
 7514SOL    HW223442   1.077   4.457   1.650
 7515SOL     OW23443   0.119   5.168   4.899
 7515SOL    HW123444   0.063   5.093   4.865
 7515SOL    HW223445   0.092   5.253   4.853
 7516SOL     OW23446   1.509   6.440   5.034
 7516SOL    HW123447   1.555   6.353   5.055
 7516SOL    HW223448   1.558   6.515   5.079
 7517SOL     OW23449   0.544   1.220   6.605
 7517SOL    HW123450   0.540   1.203   6.507
 7517SOL    HW223451   0.527   1.135   6.655
 7518SOL     OW23452   4.655   2.586   3.353
 7518SOL    HW123453   4.591   2.539   3.293
 7518SOL    HW223454   4.695   2.664   3.305
 7519SOL     OW23455   3.847   5.998   4.558
 7519SOL    HW123456   3.929   5.996   4.501
 7519SOL    HW223457   3.777   6.054   4.514
 7520SOL     OW23458   1.633   2.229   0.583
 7520SOL    HW123459   1.722   2.274   0.596
 7520SOL    HW223460   1.608   2.180   0.666
 7521SOL     OW23461   3.802   1.824   5.143
 7521SOL    HW123462   3.754   1.749   5.188
 7521SOL    HW223463   3.763   1.838   5.052
 7522SOL     OW23464   2.338   6.963   3.611
 7522SOL    HW123465   2.308   6.966   3.707
 7522SOL    HW223466   2.303   6.879   3.569
 7523SOL     OW23467   5.694   1.210   0.328
 7523SOL    HW123468   5.759   1.234   0.256
 7523SOL    HW223469   5.616   1.161   0.287
 7524SOL     OW23470   0.027   3.224   4.396
 7524SOL    HW123471   0.056   3.219   4.492
 7524SOL    HW223472   6.956   3.254   4.392
 7525SOL     OW23473   4.662   5.754   6.560
 7525SOL    HW123474   4.722   5.799   6.494
 7525SOL    HW223475   4.585   5.814   6.582
 7526SOL     OW23476   2.474   3.278   1.692
 7526SOL    HW123477   2.433   3.351   1.748
 7526SOL    HW223478   2.518   3.319   1.612
 7527SOL     OW23479   4.019   4.772   3.631
 7527SOL    HW123480   4.109   4.729   3.631
 7527SOL    HW223481   3.964   4.736   3.555
 7528SOL     OW23482   6.065   3.287   6.655
 7528SOL    HW123483   5.991   3.326   6.601
 7528SOL    HW223484   6.103   3.357   6.716
 7529SOL     OW23485   6.076   3.021   4.461
 7529SOL    HW123486   6.062   3.084   4.537
 7529SOL    HW223487   6.103   2.931   4.496
 7530SOL     OW23488   0.446   2.063   2.091
 7530SOL    HW123489   0.423   2.028   2.001
 7530SOL    HW223490   0.538   2.101   2.090
 7531SOL     OW23491   4.163   1.926   3.093
 7531SOL    HW123492   4.070   1.948   3.122
 7531SOL    HW223493   4.182   1.970   3.005
 7532SOL     OW23494   4.684   5.421   6.621
 7532SOL    HW123495   4.730   5.436   6.534
 7532SOL    HW223496   4.588   5.446   6.613
 7533SOL     OW23497   4.608   4.266   1.366
 7533SOL    HW123498   4.621   4.365   1.358
 7533SOL    HW223499   4.589   4.243   1.462
 7534SOL     OW23500   4.230   0.198   4.664
 7534SOL    HW123501   4.241   0.157   4.574
 7534SOL    HW223502   4.258   0.294   4.661
 7535SOL     OW23503   0.755   5.659   3.822
 7535SOL    HW123504   0.775   5.715   3.742
 7535SOL    HW223505   0.806   5.573   3.816
 7536SOL     OW23506   5.006   6.214   4.825
 7536SOL    HW123507   4.986   6.309   4.802
 7536SOL    HW223508   4.945   6.154   4.774
 7537SOL     OW23509   2.621   6.463   3.451
 7537SOL    HW123510   2.712   6.448   3.491
 7537SOL    HW223511   2.590   6.555   3.473
 7538SOL     OW23512   0.691   3.830   0.728
 7538SOL    HW123513   0.609   3.886   0.721
 7538SOL    HW223514   0.772   3.890   0.725
 7539SOL     OW23515   0.127   6.859   3.680
 7539SOL    HW123516   0.138   6.821   3.772
 7539SOL    HW223517   0.110   6.957   3.687
 7540SOL     OW23518   6.508   5.293   2.637
 7540SOL    HW123519   6.474   5.204   2.605
 7540SOL    HW223520   6.526   5.352   2.558
 7541SOL     OW23521   1.603   4.588   6.917
 7541SOL    HW123522   1.528   4.621   6.976
 7541SOL    HW223523   1.568   4.574   6.824
 7542SOL     OW23524   5.739   5.848   5.092
 7542SOL    HW123525   5.833   5.835   5.123
 7542SOL    HW223526   5.731   5.817   4.997
 7543SOL     OW23527   2.234   0.983   6.926
 7543SOL    HW123528   2.182   1.058   6.886
 7543SOL    HW223529   2.323   1.017   6.956
 7544SOL     OW23530   6.921   2.682   4.405
 7544SOL    HW123531   6.867   2.691   4.489
 7544SOL    HW223532   6.864   2.645   4.332
 7545SOL     OW23533   0.862   4.794   6.591
 7545SOL    HW123534   0.816   4.824   6.674
 7545SOL    HW223535   0.794   4.763   6.524
 7546SOL     OW23536   3.066   2.941   1.398
 7546SOL    HW123537   3.058   2.909   1.492
 7546SOL    HW223538   3.002   3.016   1.383
 7547SOL     OW23539   4.981   0.413   1.683
 7547SOL    HW123540   4.940   0.322   1.677
 7547SOL    HW223541   4.930   0.470   1.747
 7548SOL     OW23542   3.537   2.121   6.288
 7548SOL    HW123543   3.568   2.128   6.382
 7548SOL    HW223544   3.470   2.193   6.269
 7549SOL     OW23545   5.115   2.369   4.264
 7549SOL    HW123546   5.054   2.404   4.192
 7549SOL    HW223547   5.199   2.423   4.266
 7550SOL     OW23548   2.392   4.434   4.581
 7550SOL    HW123549   2.428   4.351   4.623
 7550SOL    HW223550   2.422   4.514   4.634
 7551SOL     OW23551   5.885   2.877   6.040
 7551SOL    HW123552   5.875   2.920   6.130
 7551SOL    HW223553   5.890   2.778   6.050
 7552SOL     OW23554   2.606   6.278   5.209
 7552SOL    HW123555   2.692   6.239   5.241
 7552SOL    HW223556   2.585   6.243   5.118
 7553SOL     OW23557   6.048   6.515   5.992
 7553SOL    HW123558   6.118   6.505   6.063
 7553SOL    HW223559   5.978   6.445   6.006
 7554SOL     OW23560   4.874   0.840   1.159
 7554SOL    HW123561   4.891   0.795   1.247
 7554SOL    HW223562   4.789   0.892   1.165
 7555SOL     OW23563   3.726   4.847   5.220
 7555SOL    HW123564   3.770   4.885   5.139
 7555SOL    HW223565   3.628   4.867   5.217
 7556SOL     OW23566   0.457   6.475   0.705
 7556SOL    HW123567   0.511   6.500   0.784
 7556SOL    HW223568   0.394   6.401   0.730
 7557SOL     OW23569   4.615   0.293   0.259
 7557SOL    HW123570   4.610   0.195   0.240
 7557SOL    HW223571   4.636   0.307   0.356
 7558SOL     OW23572   1.281   1.479   4.207
 7558SOL    HW123573   1.300   1.556   4.146
 7558SOL    HW223574   1.282   1.511   4.302
 7559SOL     OW23575   3.175   1.420   4.659
 7559SOL    HW123576   3.207   1.488   4.726
 7559SOL    HW223577   3.099   1.368   4.698
 7560SOL     OW23578   0.663   1.167   5.671
 7560SOL    HW123579   0.588   1.211   5.622
 7560SOL    HW223580   0.666   1.201   5.765
 7561SOL     OW23581   5.775   2.054   5.434
 7561SOL    HW123582   5.725   2.138   5.412
 7561SOL    HW223583   5.836   2.031   5.358
 7562SOL     OW23584   1.448   5.467   4.150
 7562SOL    HW123585   1.412   5.430   4.235
 7562SOL    HW223586   1.428   5.403   4.075
 7563SOL     OW23587   3.466   5.414   2.573
 7563SOL    HW123588   3.481   5.315   2.577
 7563SOL    HW223589   3.403   5.441   2.646
 7564SOL     OW23590   4.092   1.760   5.144
 7564SOL    HW123591   4.010   1.814   5.165
 7564SOL    HW223592   4.172   1.820   5.142
 7565SOL     OW23593   6.097   4.186   6.161
 7565SOL    HW123594   6.055   4.166   6.249
 7565SOL    HW223595   6.194   4.207   6.173
 7566SOL     OW23596   4.392   4.703   1.595
 7566SOL    HW123597   4.390   4.628   1.661
 7566SOL    HW223598   4.484   4.712   1.558
 7567SOL     OW23599   1.768   0.664   4.193
 7567SOL    HW123600   1.736   0.698   4.104
 7567SOL    HW223601   1.767   0.739   4.259
 7568SOL     OW23602   6.052   5.216   1.577
 7568SOL    HW123603   6.077   5.313   1.572
 7568SOL    HW223604   6.049   5.187   1.672
 7569SOL     OW23605   4.438   3.916   0.215
 7569SOL    HW123606   4.530   3.879   0.229
 7569SOL    HW223607   4.371   3.854   0.255
 7570SOL     OW23608   0.430   2.622   2.808
 7570SOL    HW123609   0.422   2.698   2.744
 7570SOL    HW223610   0.472   2.543   2.762
 7571SOL     OW23611   4.560   2.185   3.179
 7571SOL    HW123612   4.586   2.091   3.205
 7571SOL    HW223613   4.538   2.188   3.082
 7572SOL     OW23614   4.231   0.070   2.916
 7572SOL    HW123615   4.232   7.003   2.954
 7572SOL    HW223616   4.151   0.081   2.857
 7573SOL     OW23617   5.317   6.756   5.671
 7573SOL    HW123618   5.410   6.785   5.692
 7573SOL    HW223619   5.254   6.832   5.684
 7574SOL     OW23620   0.468   1.511   3.637
 7574SOL    HW123621   0.512   1.553   3.558
 7574SOL    HW223622   0.504   1.419   3.650
 7575SOL     OW23623   0.268   6.668   1.769
 7575SOL    HW123624   0.215   6.701   1.847
 7575SOL    HW223625   0.343   6.731   1.750
 7576SOL     OW23626   5.431   3.232   0.849
 7576SOL    HW123627   5.476   3.174   0.782
 7576SOL    HW223628   5.455   3.202   0.941
 7577SOL     OW23629   1.361   6.990   0.821
 7577SOL    HW123630   1.314   6.979   0.908
 7577SOL    HW223631   1.410   0.052   0.821
 7578SOL     OW23632   6.777   5.706   3.397
 7578SOL    HW123633   6.786   5.606   3.396
 7578SOL    HW223634   6.750   5.738   3.307
 7579SOL     OW23635   0.255   1.099   0.273
 7579SOL    HW123636   0.163   1.096   0.311
 7579SOL    HW223637   0.292   1.192   0.282
 7580SOL     OW23638   2.199   4.633   3.565
 7580SOL    HW123639   2.287   4.650   3.521
 7580SOL    HW223640   2.208   4.645   3.664
 7581SOL     OW23641   6.899   0.952   2.806
 7581SOL    HW123642   6.955   0.872   2.824
 7581SOL    HW223643   6.859   0.946   2.715
 7582SOL     OW23644   2.951   1.736   5.691
 7582SOL    HW123645   2.934   1.826   5.729
 7582SOL    HW223646   3.015   1.743   5.614
 7583SOL     OW23647   5.150   3.063   2.161
 7583SOL    HW123648   5.158   2.972   2.203
 7583SOL    HW223649   5.057   3.098   2.175
 7584SOL     OW23650   0.275   0.996   3.685
 7584SOL    HW123651   0.263   0.939   3.604
 7584SOL    HW223652   0.357   0.967   3.734
 7585SOL     OW23653   1.087   1.083   0.058
 7585SOL    HW123654   1.085   1.030   6.998
 7585SOL    HW223655   1.180   1.115   0.075
 7586SOL     OW23656   1.087   1.506   2.428
 7586SOL    HW123657   1.081   1.409   2.407
 7586SOL    HW223658   1.012   1.555   2.384
 7587SOL     OW23659   3.761   0.406   1.332
 7587SOL    HW123660   3.856   0.390   1.360
 7587SOL    HW223661   3.745   0.365   1.242
 7588SOL     OW23662   1.728   2.383   4.502
 7588SOL    HW123663   1.663   2.443   4.546
 7588SOL    HW223664   1.767   2.428   4.421
 7589SOL     OW23665   0.093   0.647   3.156
 7589SOL    HW123666   0.081   0.742   3.186
 7589SOL    HW223667   0.016   0.593   3.190
 7590SOL     OW23668   6.956   1.059   6.904
 7590SOL    HW123669   0.009   1.119   6.889
 7590SOL    HW223670   6.886   1.106   6.957
 7591SOL     OW23671   4.042   3.177   5.231
 7591SOL    HW123672   4.024   3.260   5.284
 7591SOL    HW223673   4.047   3.199   5.134
 7592SOL     OW23674   0.060   6.537   5.035
 7592SOL    HW123675   0.029   6.473   4.964
 7592SOL    HW223676   7.011   6.551   5.101
 7593SOL     OW23677   1.010   1.361   5.898
 7593SOL    HW123678   1.107   1.372   5.921
 7593SOL    HW223679   1.002   1.301   5.819
 7594SOL     OW23680   0.019   4.875   6.628
 7594SOL    HW123681   0.048   4.789   6.672
 7594SOL    HW223682   0.004   4.944   6.699
 7595SOL     OW23683   0.268   2.631   6.181
 7595SOL    HW123684   0.183   2.676   6.207
 7595SOL    HW223685   0.346   2.686   6.211
 7596SOL     OW23686   3.284   0.986   5.556
 7596SOL    HW123687   3.269   0.887   5.557
 7596SOL    HW223688   3.307   1.016   5.463
 7597SOL     OW23689   2.007   4.557   2.302
 7597SOL    HW123690   2.087   4.570   2.360
 7597SOL    HW223691   2.013   4.469   2.255
 7598SOL     OW23692   6.497   1.274   3.425
 7598SOL    HW123693   6.524   1.260   3.330
 7598SOL    HW223694   6.431   1.349   3.429
 7599SOL     OW23695   3.571   3.225   0.534
 7599SOL    HW123696   3.515   3.161   0.587
 7599SOL    HW223697   3.579   3.311   0.585
 7600SOL     OW23698   1.372   6.543   4.554
 7600SOL    HW123699   1.331   6.470   4.608
 7600SOL    HW223700   1.329   6.546   4.464
 7601SOL     OW23701   3.269   6.628   2.301
 7601SOL    HW123702   3.272   6.642   2.202
 7601SOL    HW223703   3.342   6.565   2.328
 7602SOL     OW23704   6.911   1.343   0.641
 7602SOL    HW123705   7.002   1.384   0.645
 7602SOL    HW223706   6.917   1.245   0.661
 7603SOL     OW23707   3.646   0.209   5.422
 7603SOL    HW123708   3.689   0.204   5.332
 7603SOL    HW223709   3.572   0.275   5.420
 7604SOL     OW23710   0.220   2.404   5.069
 7604SOL    HW123711   0.144   2.351   5.108
 7604SOL    HW223712   0.183   2.484   5.021
 7605SOL     OW23713   1.925   6.854   0.684
 7605SOL    HW123714   1.951   6.926   0.748
 7605SOL    HW223715   1.957   6.766   0.720
 7606SOL     OW23716   6.644   1.619   3.191
 7606SOL    HW123717   6.561   1.675   3.188
 7606SOL    HW223718   6.686   1.627   3.281
 7607SOL     OW23719   2.519   6.242   5.924
 7607SOL    HW123720   2.617   6.223   5.935
 7607SOL    HW223721   2.474   6.237   6.012
 7608SOL     OW23722   5.828   2.771   6.353
 7608SOL    HW123723   5.749   2.791   6.410
 7608SOL    HW223724   5.851   2.851   6.298
 7609SOL     OW23725   0.753   1.875   4.748
 7609SOL    HW123726   0.772   1.863   4.650
 7609SOL    HW223727   0.747   1.972   4.769
 7610SOL     OW23728   3.876   4.970   5.036
 7610SOL    HW123729   3.961   4.935   4.997
 7610SOL    HW223730   3.808   4.980   4.963
 7611SOL     OW23731   4.958   3.531   0.493
 7611SOL    HW123732   4.916   3.621   0.505
 7611SOL    HW223733   5.056   3.538   0.510
 7612SOL     OW23734   3.414   1.867   3.404
 7612SOL    HW123735   3.363   1.849   3.321
 7612SOL    HW223736   3.466   1.785   3.430
 7613SOL     OW23737   0.584   1.214   1.738
 7613SOL    HW123738   0.573   1.273   1.657
 7613SOL    HW223739   0.680   1.188   1.748
 7614SOL     OW23740   4.518   3.892   0.706
 7614SOL    HW123741   4.430   3.845   0.715
 7614SOL    HW223742   4.592   3.832   0.737
 7615SOL     OW23743   5.888   3.528   5.116
 7615SOL    HW123744   5.829   3.487   5.046
 7615SOL    HW223745   5.980   3.488   5.108
 7616SOL     OW23746   6.565   0.202   3.365
 7616SOL    HW123747   6.632   0.236   3.431
 7616SOL    HW223748   6.508   0.278   3.333
 7617SOL     OW23749   5.447   5.087   3.639
 7617SOL    HW123750   5.525   5.148   3.650
 7617SOL    HW223751   5.441   5.026   3.718
 7618SOL     OW23752   2.479   2.256   0.672
 7618SOL    HW123753   2.463   2.219   0.763
 7618SOL    HW223754   2.392   2.269   0.625
 7619SOL     OW23755   1.000   1.650   4.436
 7619SOL    HW123756   0.918   1.694   4.472
 7619SOL    HW223757   0.990   1.551   4.443
 7620SOL     OW23758   4.075   4.341   1.227
 7620SOL    HW123759   4.084   4.368   1.131
 7620SOL    HW223760   4.028   4.253   1.233
 7621SOL     OW23761   6.148   4.234   0.107
 7621SOL    HW123762   6.132   4.278   0.195
 7621SOL    HW223763   6.064   4.188   0.077
 7622SOL     OW23764   3.214   3.857   1.401
 7622SOL    HW123765   3.138   3.848   1.336
 7622SOL    HW223766   3.178   3.858   1.494
 7623SOL     OW23767   4.705   4.605   0.638
 7623SOL    HW123768   4.804   4.612   0.645
 7623SOL    HW223769   4.680   4.509   0.622
 7624SOL     OW23770   0.830   3.193   2.409
 7624SOL    HW123771   0.740   3.152   2.426
 7624SOL    HW223772   0.836   3.281   2.457
 7625SOL     OW23773   5.529   0.689   1.379
 7625SOL    HW123774   5.598   0.621   1.352
 7625SOL    HW223775   5.572   0.779   1.387
 7626SOL     OW23776   4.699   1.462   5.427
 7626SOL    HW123777   4.628   1.511   5.376
 7626SOL    HW223778   4.658   1.415   5.504
 7627SOL     OW23779   4.275   2.309   6.685
 7627SOL    HW123780   4.354   2.250   6.673
 7627SOL    HW223781   4.303   2.396   6.726
 7628SOL     OW23782   3.223   2.511   0.343
 7628SOL    HW123783   3.303   2.503   0.282
 7628SOL    HW223784   3.146   2.463   0.303
 7629SOL     OW23785   6.303   3.119   3.582
 7629SOL    HW123786   6.241   3.084   3.652
 7629SOL    HW223787   6.350   3.042   3.538
 7630SOL     OW23788   1.113   6.600   5.137
 7630SOL    HW123789   1.105   6.611   5.038
 7630SOL    HW223790   1.033   6.640   5.182
 7631SOL     OW23791   1.313   0.748   5.982
 7631SOL    HW123792   1.263   0.828   6.018
 7631SOL    HW223793   1.311   0.751   5.882
 7632SOL     OW23794   5.103   5.782   0.181
 7632SOL    HW123795   5.179   5.777   0.116
 7632SOL    HW223796   5.128   5.734   0.265
 7633SOL     OW23797   6.570   1.226   1.420
 7633SOL    HW123798   6.538   1.142   1.377
 7633SOL    HW223799   6.517   1.243   1.503
 7634SOL     OW23800   6.820   2.218   0.319
 7634SOL    HW123801   6.856   2.299   0.273
 7634SOL    HW223802   6.777   2.244   0.405
 7635SOL     OW23803   2.599   3.872   5.663
 7635SOL    HW123804   2.663   3.802   5.632
 7635SOL    HW223805   2.649   3.941   5.716
 7636SOL     OW23806   0.225   4.111   4.359
 7636SOL    HW123807   0.250   4.027   4.407
 7636SOL    HW223808   0.270   4.189   4.402
 7637SOL     OW23809   0.791   6.383   4.308
 7637SOL    HW123810   0.830   6.337   4.388
 7637SOL    HW223811   0.711   6.436   4.336
 7638SOL     OW23812   0.419   6.254   1.627
 7638SOL    HW123813   0.343   6.301   1.581
 7638SOL    HW223814   0.505   6.289   1.590
 7639SOL     OW23815   1.470   0.835   0.090
 7639SOL    HW123816   1.480   0.928   0.055
 7639SOL    HW223817   1.469   0.837   0.190
 7640SOL     OW23818   3.126   0.791   0.422
 7640SOL    HW123819   3.161   0.829   0.336
 7640SOL    HW223820   3.027   0.780   0.416
 7641SOL     OW23821   0.570   4.500   3.589
 7641SOL    HW123822   0.529   4.420   3.632
 7641SOL    HW223823   0.505   4.540   3.525
 7642SOL     OW23824   5.947   0.965   3.363
 7642SOL    HW123825   5.909   0.873   3.369
 7642SOL    HW223826   5.873   1.032   3.353
 7643SOL     OW23827   5.368   3.805   3.005
 7643SOL    HW123828   5.365   3.740   3.081
 7643SOL    HW223829   5.277   3.818   2.968
 7644SOL     OW23830   5.317   3.703   1.094
 7644SOL    HW123831   5.402   3.756   1.095
 7644SOL    HW223832   5.332   3.615   1.048
 7645SOL     OW23833   3.255   5.017   6.299
 7645SOL    HW123834   3.332   4.975   6.346
 7645SOL    HW223835   3.223   5.096   6.351
 7646SOL     OW23836   6.716   2.099   1.751
 7646SOL    HW123837   6.797   2.122   1.697
 7646SOL    HW223838   6.744   2.067   1.842
 7647SOL     OW23839   6.740   2.567   5.358
 7647SOL    HW123840   6.703   2.648   5.403
 7647SOL    HW223841   6.766   2.589   5.264
 7648SOL     OW23842   2.997   1.562   1.537
 7648SOL    HW123843   2.991   1.462   1.535
 7648SOL    HW223844   3.093   1.590   1.532
 7649SOL     OW23845   4.564   1.739   5.369
 7649SOL    HW123846   4.612   1.826   5.384
 7649SOL    HW223847   4.515   1.713   5.452
 7650SOL     OW23848   3.724   2.272   0.630
 7650SOL    HW123849   3.643   2.258   0.573
 7650SOL    HW223850   3.766   2.361   0.608
 7651SOL     OW23851   3.043   4.973   5.874
 7651SOL    HW123852   3.073   4.878   5.882
 7651SOL    HW223853   2.948   4.976   5.843
 7652SOL     OW23854   0.398   1.057   4.147
 7652SOL    HW123855   0.395   1.100   4.057
 7652SOL    HW223856   0.339   0.976   4.148
 7653SOL     OW23857   0.867   1.075   6.376
 7653SOL    HW123858   0.885   1.086   6.474
 7653SOL    HW223859   0.886   0.980   6.349
 7654SOL     OW23860   5.821   2.001   6.572
 7654SOL    HW123861   5.761   1.934   6.529
 7654SOL    HW223862   5.773   2.089   6.579
 7655SOL     OW23863   2.990   1.432   2.793
 7655SOL    HW123864   3.033   1.520   2.773
 7655SOL    HW223865   2.892   1.445   2.811
 7656SOL     OW23866   0.033   3.078   6.453
 7656SOL    HW123867   7.008   3.002   6.494
 7656SOL    HW223868   0.103   3.042   6.392
 7657SOL     OW23869   0.916   4.353   4.314
 7657SOL    HW123870   0.906   4.286   4.387
 7657SOL    HW223871   0.991   4.415   4.336
 7658SOL     OW23872   2.479   1.111   1.062
 7658SOL    HW123873   2.477   1.179   0.989
 7658SOL    HW223874   2.421   1.033   1.037
 7659SOL     OW23875   4.676   3.916   5.700
 7659SOL    HW123876   4.727   3.944   5.619
 7659SOL    HW223877   4.595   3.974   5.711
 7660SOL     OW23878   6.953   5.355   4.718
 7660SOL    HW123879   7.012   5.421   4.672
 7660SOL    HW223880   6.903   5.401   4.792
 7661SOL     OW23881   4.680   2.304   5.607
 7661SOL    HW123882   4.765   2.254   5.591
 7661SOL    HW223883   4.698   2.402   5.611
 7662SOL     OW23884   6.571   0.415   1.146
 7662SOL    HW123885   6.595   0.343   1.081
 7662SOL    HW223886   6.650   0.473   1.163
 7663SOL     OW23887   7.009   5.856   5.587
 7663SOL    HW123888   0.070   5.820   5.624
 7663SOL    HW223889   7.015   5.863   5.488
 7664SOL     OW23890   4.193   2.042   1.961
 7664SOL    HW123891   4.124   2.012   1.896
 7664SOL    HW223892   4.275   1.987   1.951
 7665SOL     OW23893   4.663   0.577   5.197
 7665SOL    HW123894   4.640   0.666   5.235
 7665SOL    HW223895   4.592   0.548   5.134
 7666SOL     OW23896   5.320   4.325   3.908
 7666SOL    HW123897   5.371   4.241   3.891
 7666SOL    HW223898   5.301   4.371   3.821
 7667SOL     OW23899   4.157   5.937   1.759
 7667SOL    HW123900   4.138   5.969   1.666
 7667SOL    HW223901   4.144   5.838   1.764
 7668SOL     OW23902   2.220   5.933   0.340
 7668SOL    HW123903   2.193   5.917   0.435
 7668SOL    HW223904   2.318   5.953   0.336
 7669SOL     OW23905   2.258   0.729   5.579
 7669SOL    HW123906   2.190   0.655   5.574
 7669SOL    HW223907   2.211   0.817   5.583
 7670SOL     OW23908   0.811   6.737   0.345
 7670SOL    HW123909   0.779   6.668   0.280
 7670SOL    HW223910   0.906   6.759   0.326
 7671SOL     OW23911   3.854   6.870   1.165
 7671SOL    HW123912   3.933   6.810   1.153
 7671SOL    HW223913   3.784   6.823   1.219
 7672SOL     OW23914   4.855   5.148   3.051
 7672SOL    HW123915   4.822   5.054   3.042
 7672SOL    HW223916   4.946   5.155   3.010
 7673SOL     OW23917   1.754   6.303   4.709
 7673SOL    HW123918   1.733   6.348   4.623
 7673SOL    HW223919   1.671   6.294   4.764
 7674SOL     OW23920   4.436   6.113   4.493
 7674SOL    HW123921   4.521   6.075   4.459
 7674SOL    HW223922   4.419   6.202   4.450
 7675SOL     OW23923   4.921   6.466   3.559
 7675SOL    HW123924   4.839   6.419   3.592
 7675SOL    HW223925   4.894   6.548   3.509
 7676SOL     OW23926   3.314   2.956   5.663
 7676SOL    HW123927   3.392   2.938   5.602
 7676SOL    HW223928   3.337   2.926   5.755
 7677SOL     OW23929   5.838   4.402   0.630
 7677SOL    HW123930   5.877   4.394   0.722
 7677SOL    HW223931   5.907   4.440   0.568
 7678SOL     OW23932   1.630   0.583   4.676
 7678SOL    HW123933   1.665   0.673   4.701
 7678SOL    HW223934   1.705   0.518   4.671
 7679SOL     OW23935   2.927   5.538   5.653
 7679SOL    HW123936   2.831   5.564   5.654
 7679SOL    HW223937   2.938   5.449   5.698
 7680SOL     OW23938   2.315   6.791   5.088
 7680SOL    HW123939   2.335   6.876   5.138
 7680SOL    HW223940   2.379   6.782   5.012
 7681SOL     OW23941   2.854   3.519   6.659
 7681SOL    HW123942   2.947   3.503   6.627
 7681SOL    HW223943   2.794   3.448   6.622
 7682SOL     OW23944   2.554   1.308   2.540
 7682SOL    HW123945   2.472   1.281   2.489
 7682SOL    HW223946   2.635   1.289   2.484
 7683SOL     OW23947   0.633   5.949   4.336
 7683SOL    HW123948   0.631   5.936   4.237
 7683SOL    HW223949   0.707   5.894   4.375
 7684SOL     OW23950   4.046   2.938   1.250
 7684SOL    HW123951   4.051   2.840   1.271
 7684SOL    HW223952   4.008   2.986   1.329
 7685SOL     OW23953   2.870   0.486   0.152
 7685SOL    HW123954   2.958   0.453   0.120
 7685SOL    HW223955   2.820   0.528   0.075
 7686SOL     OW23956   5.946   0.033   4.438
 7686SOL    HW123957   5.864   0.009   4.489
 7686SOL    HW223958   6.026   0.029   4.499
 7687SOL     OW23959   5.939   4.551   5.271
 7687SOL    HW123960   5.907   4.613   5.343
 7687SOL    HW223961   5.890   4.464   5.277
 7688SOL     OW23962   6.907   4.224   6.217
 7688SOL    HW123963   6.899   4.313   6.173
 7688SOL    HW223964   6.926   4.237   6.314
 7689SOL     OW23965   4.795   0.504   1.453
 7689SOL    HW123966   4.849   0.447   1.514
 7689SOL    HW223967   4.744   0.572   1.507
 7690SOL     OW23968   5.950   5.296   1.131
 7690SOL    HW123969   5.892   5.293   1.213
 7690SOL    HW223970   5.970   5.392   1.109
 7691SOL     OW23971   4.597   4.378   3.202
 7691SOL    HW123972   4.537   4.454   3.176
 7691SOL    HW223973   4.624   4.327   3.121
 7692SOL     OW23974   2.330   6.951   2.751
 7692SOL    HW123975   2.375   6.868   2.785
 7692SOL    HW223976   2.344   0.001   2.815
 7693SOL     OW23977   1.989   1.697   0.951
 7693SOL    HW123978   1.983   1.664   0.857
 7693SOL    HW223979   1.994   1.797   0.951
 7694SOL     OW23980   5.322   1.638   5.476
 7694SOL    HW123981   5.411   1.655   5.518
 7694SOL    HW223982   5.334   1.610   5.380
 7695SOL     OW23983   4.819   0.211   4.018
 7695SOL    HW123984   4.914   0.224   4.046
 7695SOL    HW223985   4.809   0.235   3.921
 7696SOL     OW23986   1.220   2.842   6.063
 7696SOL    HW123987   1.212   2.875   5.969
 7696SOL    HW223988   1.144   2.878   6.117
 7697SOL     OW23989   4.608   6.965   3.249
 7697SOL    HW123990   4.509   6.954   3.238
 7697SOL    HW223991   4.628   6.997   3.341
 7698SOL     OW23992   6.453   2.641   0.366
 7698SOL    HW123993   6.481   2.697   0.444
 7698SOL    HW223994   6.353   2.639   0.361
 7699SOL     OW23995   4.518   6.017   6.189
 7699SOL    HW123996   4.559   6.062   6.269
 7699SOL    HW223997   4.557   5.926   6.179
 7700SOL     OW23998   5.431   6.192   2.835
 7700SOL    HW123999   5.347   6.215   2.786
 7700SOL    HW224000   5.409   6.171   2.930
 7701SOL     OW24001   1.284   2.495   6.466
 7701SOL    HW124002   1.337   2.417   6.432
 7701SOL    HW224003   1.337   2.545   6.534
 7702SOL     OW24004   4.497   0.144   4.445
 7702SOL    HW124005   4.584   0.098   4.427
 7702SOL    HW224006   4.425   0.075   4.458
 7703SOL     OW24007   6.501   6.851   4.996
 7703SOL    HW124008   6.575   6.787   4.975
 7703SOL    HW224009   6.441   6.811   5.065
 7704SOL     OW24010   0.257   1.616   4.888
 7704SOL    HW124011   0.268   1.616   4.987
 7704SOL    HW224012   0.298   1.699   4.850
 7705SOL     OW24013   0.809   4.941   6.852
 7705SOL    HW124014   0.803   4.978   6.944
 7705SOL    HW224015   0.719   4.906   6.824
 7706SOL     OW24016   3.263   2.960   2.510
 7706SOL    HW124017   3.285   2.888   2.444
 7706SOL    HW224018   3.210   3.032   2.465
 7707SOL     OW24019   6.404   4.067   6.308
 7707SOL    HW124020   6.412   4.143   6.243
 7707SOL    HW224021   6.438   3.984   6.265
 7708SOL     OW24022   2.609   6.921   4.497
 7708SOL    HW124023   2.682   6.878   4.444
 7708SOL    HW224024   2.641   6.940   4.590
 7709SOL     OW24025   7.016   4.659   1.446
 7709SOL    HW124026   0.006   4.563   1.420
 7709SOL    HW224027   0.074   4.711   1.430
 7710SOL     OW24028   0.078   2.925   1.193
 7710SOL    HW124029   0.095   2.968   1.282
 7710SOL    HW224030   0.088   2.826   1.201
 7711SOL     OW24031   0.436   4.677   5.041
 7711SOL    HW124032   0.517   4.620   5.031
 7711SOL    HW224033   0.357   4.620   5.063
 7712SOL     OW24034   0.218   4.808   5.766
 7712SOL    HW124035   0.230   4.821   5.864
 7712SOL    HW224036   0.306   4.821   5.719
 7713SOL     OW24037   1.852   4.575   0.033
 7713SOL    HW124038   1.769   4.585   7.003
 7713SOL    HW224039   1.832   4.520   0.114
 7714SOL     OW24040   6.012   1.180   5.172
 7714SOL    HW124041   6.022   1.084   5.198
 7714SOL    HW224042   5.958   1.228   5.241
 7715SOL     OW24043   3.474   3.291   5.715
 7715SOL    HW124044   3.484   3.376   5.663
 7715SOL    HW224045   3.499   3.213   5.657
 7716SOL     OW24046   1.343   6.379   5.748
 7716SOL    HW124047   1.308   6.302   5.803
 7716SOL    HW224048   1.380   6.344   5.662
 7717SOL     OW24049   0.311   1.634   6.815
 7717SOL    HW124050   0.385   1.633   6.881
 7717SOL    HW224051   0.321   1.714   6.755
 7718SOL     OW24052   1.127   3.763   2.876
 7718SOL    HW124053   1.121   3.847   2.929
 7718SOL    HW224054   1.046   3.706   2.892
 7719SOL     OW24055   2.173   4.702   4.957
 7719SOL    HW124056   2.264   4.743   4.946
 7719SOL    HW224057   2.172   4.612   4.913
 7720SOL     OW24058   4.649   1.006   0.053
 7720SOL    HW124059   4.623   1.073   7.009
 7720SOL    HW224060   4.664   0.917   0.010
 7721SOL     OW24061   0.244   0.730   2.752
 7721SOL    HW124062   0.329   0.715   2.802
 7721SOL    HW224063   0.253   0.810   2.693
 7722SOL     OW24064   1.402   6.228   3.740
 7722SOL    HW124065   1.441   6.310   3.782
 7722SOL    HW224066   1.305   6.221   3.763
 7723SOL     OW24067   4.683   4.330   0.323
 7723SOL    HW124068   4.640   4.335   0.413
 7723SOL    HW224069   4.620   4.286   0.259
 7724SOL     OW24070   1.997   3.850   1.418
 7724SOL    HW124071   2.010   3.943   1.454
 7724SOL    HW224072   2.084   3.801   1.421
 7725SOL     OW24073   5.413   2.756   3.347
 7725SOL    HW124074   5.391   2.658   3.348
 7725SOL    HW224075   5.433   2.786   3.440
 7726SOL     OW24076   0.954   3.087   5.837
 7726SOL    HW124077   0.905   3.016   5.888
 7726SOL    HW224078   0.961   3.170   5.893
 7727SOL     OW24079   4.414   0.967   2.133
 7727SOL    HW124080   4.408   0.883   2.188
 7727SOL    HW224081   4.465   1.036   2.183
 7728SOL     OW24082   2.002   3.309   4.555
 7728SOL    HW124083   2.046   3.285   4.641
 7728SOL    HW224084   1.973   3.226   4.508
 7729SOL     OW24085   7.024   2.012   3.829
 7729SOL    HW124086   0.063   2.064   3.885
 7729SOL    HW224087   6.987   2.070   3.757
 7730SOL     OW24088   6.480   4.395   4.997
 7730SOL    HW124089   6.569   4.435   4.978
 7730SOL    HW224090   6.484   4.345   5.084
 7731SOL     OW24091   6.673   6.346   6.719
 7731SOL    HW124092   6.683   6.278   6.791
 7731SOL    HW224093   6.761   6.391   6.703
 7732SOL     OW24094   4.173   7.014   6.491
 7732SOL    HW124095   4.105   6.950   6.455
 7732SOL    HW224096   4.144   0.083   6.471
 7733SOL     OW24097   6.182   5.674   1.673
 7733SOL    HW124098   6.263   5.674   1.733
 7733SOL    HW224099   6.130   5.758   1.688
 7734SOL     OW24100   3.341   3.942   4.834
 7734SOL    HW124101   3.249   3.960   4.868
 7734SOL    HW224102   3.406   3.942   4.910
 7735SOL     OW24103   6.740   5.929   0.568
 7735SOL    HW124104   6.812   5.998   0.574
 7735SOL    HW224105   6.781   5.838   0.563
 7736SOL     OW24106   2.226   2.829   0.129
 7736SOL    HW124107   2.265   2.880   0.205
 7736SOL    HW224108   2.297   2.813   0.060
 7737SOL     OW24109   4.209   5.148   1.024
 7737SOL    HW124110   4.276   5.112   1.088
 7737SOL    HW224111   4.211   5.096   0.939
 7738SOL     OW24112   1.922   0.271   5.547
 7738SOL    HW124113   1.888   0.240   5.458
 7738SOL    HW224114   1.897   0.205   5.617
 7739SOL     OW24115   1.580   2.045   0.774
 7739SOL    HW124116   1.630   1.987   0.840
 7739SOL    HW224117   1.561   1.992   0.691
 7740SOL     OW24118   1.337   0.575   4.736
 7740SOL    HW124119   1.435   0.566   4.755
 7740SOL    HW224120   1.303   0.661   4.774
 7741SOL     OW24121   1.595   4.319   6.673
 7741SOL    HW124122   1.655   4.398   6.662
 7741SOL    HW224123   1.628   4.262   6.749
 7742SOL     OW24124   4.234   2.046   4.289
 7742SOL    HW124125   4.190   1.967   4.247
 7742SOL    HW224126   4.301   2.014   4.357
 7743SOL     OW24127   5.092   1.947   5.680
 7743SOL    HW124128   5.063   1.920   5.772
 7743SOL    HW224129   5.083   1.870   5.617
 7744SOL     OW24130   0.372   6.095   4.676
 7744SOL    HW124131   0.363   6.170   4.742
 7744SOL    HW224132   0.450   6.112   4.616
 7745SOL     OW24133   2.459   6.724   0.934
 7745SOL    HW124134   2.444   6.782   0.855
 7745SOL    HW224135   2.469   6.780   1.016
 7746SOL     OW24136   1.183   5.873   0.988
 7746SOL    HW124137   1.147   5.784   0.960
 7746SOL    HW224138   1.118   5.944   0.962
 7747SOL     OW24139   0.874   5.966   6.911
 7747SOL    HW124140   0.913   5.874   6.915
 7747SOL    HW224141   0.933   6.030   6.961
 7748SOL     OW24142   4.784   2.296   5.996
 7748SOL    HW124143   4.694   2.325   5.963
 7748SOL    HW224144   4.773   2.246   6.082
 7749SOL     OW24145   3.997   3.937   4.526
 7749SOL    HW124146   4.086   3.981   4.529
 7749SOL    HW224147   3.941   3.969   4.603
 7750SOL     OW24148   5.882   4.248   5.317
 7750SOL    HW124149   5.920   4.157   5.332
 7750SOL    HW224150   5.834   4.250   5.229
 7751SOL     OW24151   6.887   1.238   5.267
 7751SOL    HW124152   6.955   1.310   5.253
 7751SOL    HW224153   6.913   1.156   5.217
 7752SOL     OW24154   6.465   5.657   5.338
 7752SOL    HW124155   6.498   5.673   5.432
 7752SOL    HW224156   6.500   5.729   5.278
 7753SOL     OW24157   2.289   1.178   4.620
 7753SOL    HW124158   2.204   1.129   4.639
 7753SOL    HW224159   2.275   1.239   4.541
 7754SOL     OW24160   6.328   0.688   1.549
 7754SOL    HW124161   6.371   0.624   1.485
 7754SOL    HW224162   6.258   0.741   1.501
 7755SOL     OW24163   1.121   5.845   5.446
 7755SOL    HW124164   1.201   5.806   5.400
 7755SOL    HW224165   1.086   5.780   5.513
 7756SOL     OW24166   3.826   5.757   2.221
 7756SOL    HW124167   3.872   5.846   2.228
 7756SOL    HW224168   3.883   5.695   2.167
 7757SOL     OW24169   4.913   6.568   5.841
 7757SOL    HW124170   4.974   6.496   5.807
 7757SOL    HW224171   4.899   6.636   5.768
 7758SOL     OW24172   2.178   2.258   5.264
 7758SOL    HW124173   2.118   2.316   5.210
 7758SOL    HW224174   2.210   2.308   5.345
 7759SOL     OW24175   1.938   0.519   5.274
 7759SOL    HW124176   1.956   0.561   5.186
 7759SOL    HW224177   1.857   0.561   5.316
 7760SOL     OW24178   4.855   2.867   2.334
 7760SOL    HW124179   4.769   2.818   2.348
 7760SOL    HW224180   4.897   2.887   2.422
 7761SOL     OW24181   3.596   0.060   6.370
 7761SOL    HW124182   3.555   0.072   6.461
 7761SOL    HW224183   3.693   0.086   6.374
 7762SOL     OW24184   3.263   1.788   0.459
 7762SOL    HW124185   3.174   1.763   0.498
 7762SOL    HW224186   3.331   1.793   0.532
 7763SOL     OW24187   1.655   1.765   0.847
 7763SOL    HW124188   1.559   1.741   0.858
 7763SOL    HW224189   1.700   1.764   0.937
 7764SOL     OW24190   3.115   3.078   2.719
 7764SOL    HW124191   3.137   3.167   2.679
 7764SOL    HW224192   3.149   3.005   2.659
 7765SOL     OW24193   6.853   2.636   2.662
 7765SOL    HW124194   6.947   2.608   2.685
 7765SOL    HW224195   6.792   2.558   2.672
 7766SOL     OW24196   6.928   2.634   6.787
 7766SOL    HW124197   6.845   2.580   6.784
 7766SOL    HW224198   6.974   2.630   6.699
 7767SOL     OW24199   5.161   4.929   5.002
 7767SOL    HW124200   5.236   4.935   4.936
 7767SOL    HW224201   5.107   5.013   5.000
 7768SOL     OW24202   3.455   5.128   2.594
 7768SOL    HW124203   3.366   5.101   2.630
 7768SOL    HW224204   3.451   5.127   2.494
 7769SOL     OW24205   5.874   2.018   1.533
 7769SOL    HW124206   5.857   1.922   1.511
 7769SOL    HW224207   5.856   2.034   1.630
 7770SOL     OW24208   3.486   5.325   1.062
 7770SOL    HW124209   3.536   5.337   0.976
 7770SOL    HW224210   3.409   5.388   1.065
 7771SOL     OW24211   2.333   1.578   5.339
 7771SOL    HW124212   2.374   1.647   5.280
 7771SOL    HW224213   2.299   1.621   5.422
 7772SOL     OW24214   5.329   1.486   4.609
 7772SOL    HW124215   5.393   1.482   4.686
 7772SOL    HW224216   5.346   1.569   4.556
 7773SOL     OW24217   4.126   4.547   5.769
 7773SOL    HW124218   4.090   4.613   5.702
 7773SOL    HW224219   4.059   4.474   5.783
 7774SOL     OW24220   4.808   1.844   6.297
 7774SOL    HW124221   4.800   1.779   6.372
 7774SOL    HW224222   4.809   1.794   6.210
 7775SOL     OW24223   2.819   6.930   2.619
 7775SOL    HW124224   2.760   6.851   2.601
 7775SOL    HW224225   2.893   6.904   2.681
 7776SOL     OW24226   3.830   3.628   6.628
 7776SOL    HW124227   3.773   3.677   6.562
 7776SOL    HW224228   3.778   3.552   6.667
 7777SOL     OW24229   1.792   1.278   6.893
 7777SOL    HW124230   1.727   1.204   6.911
 7777SOL    HW224231   1.871   1.241   6.844
 7778SOL     OW24232   5.996   0.890   0.325
 7778SOL    HW124233   5.922   0.867   0.262
 7778SOL    HW224234   5.958   0.921   0.412
 7779SOL     OW24235   3.771   3.237   6.536
 7779SOL    HW124236   3.742   3.230   6.632
 7779SOL    HW224237   3.719   3.309   6.491
 7780SOL     OW24238   1.563   6.720   4.549
 7780SOL    HW124239   1.611   6.696   4.634
 7780SOL    HW224240   1.475   6.673   4.546
 7781SOL     OW24241   1.679   4.907   4.699
 7781SOL    HW124242   1.726   4.820   4.681
 7781SOL    HW224243   1.615   4.895   4.774
 7782SOL     OW24244   3.311   4.535   6.614
 7782SOL    HW124245   3.291   4.621   6.661
 7782SOL    HW224246   3.313   4.460   6.680
 7783SOL     OW24247   3.215   5.211   6.501
 7783SOL    HW124248   3.295   5.193   6.558
 7783SOL    HW224249   3.217   5.306   6.470
 7784SOL     OW24250   0.497   2.569   6.833
 7784SOL    HW124251   0.569   2.580   6.902
 7784SOL    HW224252   0.408   2.571   6.877
 7785SOL     OW24253   2.708   5.845   4.386
 7785SOL    HW124254   2.692   5.916   4.317
 7785SOL    HW224255   2.642   5.771   4.374
 7786SOL     OW24256   3.077   4.185   5.164
 7786SOL    HW124257   3.055   4.116   5.094
 7786SOL    HW224258   3.019   4.265   5.150
 7787SOL     OW24259   2.685   2.621   5.357
 7787SOL    HW124260   2.660   2.717   5.363
 7787SOL    HW224261   2.783   2.611   5.375
 7788SOL     OW24262   0.855   1.493   0.091
 7788SOL    HW124263   0.931   1.467   0.031
 7788SOL    HW224264   0.794   1.415   0.103
 7789SOL     OW24265   2.437   0.652   1.095
 7789SOL    HW124266   2.505   0.695   1.155
 7789SOL    HW224267   2.419   0.559   1.128
 7790SOL     OW24268   5.501   3.084   2.410
 7790SOL    HW124269   5.511   3.148   2.333
 7790SOL    HW224270   5.408   3.088   2.445
 7791SOL     OW24271   1.691   4.833   5.147
 7791SOL    HW124272   1.781   4.862   5.115
 7791SOL    HW224273   1.682   4.854   5.245
 7792SOL     OW24274   2.640   5.404   6.115
 7792SOL    HW124275   2.594   5.471   6.174
 7792SOL    HW224276   2.730   5.440   6.089
 7793SOL     OW24277   1.087   1.173   6.199
 7793SOL    HW124278   1.142   1.187   6.281
 7793SOL    HW224279   0.996   1.213   6.213
 7794SOL     OW24280   5.478   5.810   3.479
 7794SOL    HW124281   5.414   5.812   3.556
 7794SOL    HW224282   5.509   5.717   3.464
 7795SOL     OW24283   2.452   4.458   5.565
 7795SOL    HW124284   2.354   4.440   5.568
 7795SOL    HW224285   2.502   4.372   5.564
 7796SOL     OW24286   4.085   3.609   3.660
 7796SOL    HW124287   4.145   3.529   3.660
 7796SOL    HW224288   4.041   3.618   3.749
 7797SOL     OW24289   0.768   0.285   2.635
 7797SOL    HW124290   0.715   0.215   2.586
 7797SOL    HW224291   0.706   0.347   2.682
 7798SOL     OW24292   3.904   5.573   0.023
 7798SOL    HW124293   3.972   5.641   7.021
 7798SOL    HW224294   3.906   5.497   6.983
 7799SOL     OW24295   0.242   5.272   1.637
 7799SOL    HW124296   0.144   5.285   1.651
 7799SOL    HW224297   0.282   5.230   1.718
 7800SOL     OW24298   0.868   5.887   2.292
 7800SOL    HW124299   0.955   5.891   2.342
 7800SOL    HW224300   0.792   5.885   2.358
 7801SOL     OW24301   3.714   2.024   6.516
 7801SOL    HW124302   3.766   1.965   6.455
 7801SOL    HW224303   3.649   1.969   6.569
 7802SOL     OW24304   5.796   1.993   2.028
 7802SOL    HW124305   5.810   2.004   1.930
 7802SOL    HW224306   5.873   1.945   2.068
 7803SOL     OW24307   4.266   4.325   5.493
 7803SOL    HW124308   4.203   4.379   5.436
 7803SOL    HW224309   4.333   4.385   5.535
 7804SOL     OW24310   4.710   2.140   6.203
 7804SOL    HW124311   4.693   2.231   6.242
 7804SOL    HW224312   4.626   2.107   6.159
 7805SOL     OW24313   5.087   3.604   1.889
 7805SOL    HW124314   5.053   3.698   1.885
 7805SOL    HW224315   5.032   3.547   1.828
 7806SOL     OW24316   5.416   2.622   6.568
 7806SOL    HW124317   5.351   2.630   6.493
 7806SOL    HW224318   5.421   2.526   6.597
 7807SOL     OW24319   0.137   4.366   6.681
 7807SOL    HW124320   0.109   4.375   6.586
 7807SOL    HW224321   0.218   4.307   6.686
 7808SOL     OW24322   0.274   1.653   5.179
 7808SOL    HW124323   0.365   1.690   5.199
 7808SOL    HW224324   0.205   1.705   5.230
 7809SOL     OW24325   2.390   5.338   4.867
 7809SOL    HW124326   2.304   5.289   4.862
 7809SOL    HW224327   2.372   5.437   4.872
 7810SOL     OW24328   2.829   0.845   6.797
 7810SOL    HW124329   2.747   0.806   6.757
 7810SOL    HW224330   2.805   0.919   6.859
 7811SOL     OW24331   6.413   4.521   3.878
 7811SOL    HW124332   6.494   4.492   3.827
 7811SOL    HW224333   6.354   4.442   3.894
 7812SOL     OW24334   1.612   1.821   3.560
 7812SOL    HW124335   1.679   1.802   3.489
 7812SOL    HW224336   1.632   1.766   3.641
 7813SOL     OW24337   6.518   3.208   0.408
 7813SOL    HW124338   6.533   3.246   0.317
 7813SOL    HW224339   6.448   3.138   0.403
 7814SOL     OW24340   0.789   3.535   3.140
 7814SOL    HW124341   0.780   3.467   3.213
 7814SOL    HW224342   0.700   3.577   3.122
 7815SOL     OW24343   6.609   1.696   6.021
 7815SOL    HW124344   6.593   1.744   6.107
 7815SOL    HW224345   6.595   1.598   6.036
 7816SOL     OW24346   1.323   4.188   5.020
 7816SOL    HW124347   1.388   4.262   5.038
 7816SOL    HW224348   1.371   4.100   5.026
 7817SOL     OW24349   5.911   3.996   4.475
 7817SOL    HW124350   5.903   3.907   4.430
 7817SOL    HW224351   5.824   4.045   4.469
 7818SOL     OW24352   5.271   6.025   2.055
 7818SOL    HW124353   5.183   5.980   2.039
 7818SOL    HW224354   5.255   6.122   2.072
 7819SOL     OW24355   6.710   1.765   1.568
 7819SOL    HW124356   6.726   1.762   1.666
 7819SOL    HW224357   6.638   1.832   1.548
 7820SOL     OW24358   1.666   0.569   6.618
 7820SOL    HW124359   1.759   0.532   6.612
 7820SOL    HW224360   1.640   0.578   6.714
 7821SOL     OW24361   3.085   5.546   2.001
 7821SOL    HW124362   3.079   5.642   2.026
 7821SOL    HW224363   3.180   5.523   1.980
 7822SOL     OW24364   1.420   6.023   4.889
 7822SOL    HW124365   1.328   6.051   4.863
 7822SOL    HW224366   1.418   5.984   4.981
 7823SOL     OW24367   1.667   4.687   4.904
 7823SOL    HW124368   1.690   4.733   4.990
 7823SOL    HW224369   1.567   4.679   4.896
 7824SOL     OW24370   0.214   2.535   5.731
 7824SOL    HW124371   0.307   2.511   5.761
 7824SOL    HW224372   0.203   2.510   5.635
 7825SOL     OW24373   2.971   1.168   6.695
 7825SOL    HW124374   3.034   1.216   6.634
 7825SOL    HW224375   3.005   1.075   6.711
 7826SOL     OW24376   0.482   3.047   6.394
 7826SOL    HW124377   0.489   3.144   6.416
 7826SOL    HW224378   0.483   2.993   6.478
 7827SOL     OW24379   6.342   6.063   4.557
 7827SOL    HW124380   6.328   6.132   4.628
 7827SOL    HW224381   6.262   6.002   4.554
 7828SOL     OW24382   0.881   4.672   0.010
 7828SOL    HW124383   0.902   4.617   0.090
 7828SOL    HW224384   0.790   4.713   0.020
 7829SOL     OW24385   4.113   2.951   0.839
 7829SOL    HW124386   4.034   2.891   0.849
 7829SOL    HW224387   4.110   2.995   0.750
 7830SOL     OW24388   2.536   5.047   4.379
 7830SOL    HW124389   2.507   5.115   4.446
 7830SOL    HW224390   2.573   4.967   4.426
 7831SOL     OW24391   1.954   1.184   0.268
 7831SOL    HW124392   2.039   1.135   0.250
 7831SOL    HW224393   1.935   1.181   0.366
 7832SOL     OW24394   6.522   0.680   4.880
 7832SOL    HW124395   6.426   0.670   4.854
 7832SOL    HW224396   6.573   0.599   4.850
 7833SOL     OW24397   1.463   0.627   3.884
 7833SOL    HW124398   1.440   0.609   3.788
 7833SOL    HW224399   1.544   0.575   3.909
 7834SOL     OW24400   6.482   3.310   5.009
 7834SOL    HW124401   6.500   3.392   5.064
 7834SOL    HW224402   6.384   3.296   5.000
 7835SOL     OW24403   4.038   2.297   5.304
 7835SOL    HW124404   4.074   2.378   5.258
 7835SOL    HW224405   4.076   2.292   5.396
 7836SOL     OW24406   3.451   3.575   4.603
 7836SOL    HW124407   3.495   3.545   4.519
 7836SOL    HW224408   3.487   3.665   4.630
 7837SOL     OW24409   6.832   5.972   6.418
 7837SOL    HW124410   6.926   5.986   6.451
 7837SOL    HW224411   6.833   5.910   6.340
 7838SOL     OW24412   4.674   5.448   1.194
 7838SOL    HW124413   4.711   5.358   1.219
 7838SOL    HW224414   4.750   5.511   1.173
 7839SOL     OW24415   5.876   3.200   4.362
 7839SOL    HW124416   5.923   3.122   4.404
 7839SOL    HW224417   5.906   3.285   4.404
 7840SOL     OW24418   1.905   3.276   3.878
 7840SOL    HW124419   1.960   3.353   3.912
 7840SOL    HW224420   1.964   3.196   3.867
 7841SOL     OW24421   4.485   2.028   6.087
 7841SOL    HW124422   4.518   1.934   6.077
 7841SOL    HW224423   4.414   2.030   6.158
 7842SOL     OW24424   1.480   0.751   2.275
 7842SOL    HW124425   1.564   0.720   2.319
 7842SOL    HW224426   1.487   0.848   2.253
 7843SOL     OW24427   7.010   6.370   3.008
 7843SOL    HW124428   0.027   6.455   2.977
 7843SOL    HW224429   0.031   6.293   2.964
 7844SOL     OW24430   3.455   1.194   2.655
 7844SOL    HW124431   3.408   1.271   2.698
 7844SOL    HW224432   3.479   1.218   2.561
 7845SOL     OW24433   6.862   3.265   1.447
 7845SOL    HW124434   6.838   3.290   1.353
 7845SOL    HW224435   6.830   3.173   1.467
 7846SOL     OW24436   1.155   1.925   0.275
 7846SOL    HW124437   1.132   1.862   0.348
 7846SOL    HW224438   1.251   1.952   0.283
 7847SOL     OW24439   5.560   3.428   5.242
 7847SOL    HW124440   5.514   3.500   5.191
 7847SOL    HW224441   5.523   3.339   5.216
 7848SOL     OW24442   3.329   4.143   0.946
 7848SOL    HW124443   3.366   4.206   1.015
 7848SOL    HW224444   3.232   4.162   0.932
 7849SOL     OW24445   4.634   4.507   7.021
 7849SOL    HW124446   4.598   4.520   0.089
 7849SOL    HW224447   4.567   4.456   6.967
 7850SOL     OW24448   6.793   1.316   3.391
 7850SOL    HW124449   6.825   1.237   3.442
 7850SOL    HW224450   6.720   1.362   3.441
 7851SOL     OW24451   0.555   4.458   2.120
 7851SOL    HW124452   0.551   4.551   2.156
 7851SOL    HW224453   0.611   4.401   2.180
 7852SOL     OW24454   1.242   2.653   6.841
 7852SOL    HW124455   1.230   2.568   6.891
 7852SOL    HW224456   1.165   2.714   6.860
 7853SOL     OW24457   3.939   2.976   1.738
 7853SOL    HW124458   3.924   2.983   1.837
 7853SOL    HW224459   4.028   2.933   1.721
 7854SOL     OW24460   4.624   2.196   6.948
 7854SOL    HW124461   4.596   2.182   6.853
 7854SOL    HW224462   4.589   2.284   6.981
 7855SOL     OW24463   5.193   0.141   4.838
 7855SOL    HW124464   5.126   0.194   4.890
 7855SOL    HW224465   5.284   0.155   4.876
 7856SOL     OW24466   2.166   6.339   4.706
 7856SOL    HW124467   2.087   6.376   4.755
 7856SOL    HW224468   2.153   6.352   4.608
 7857SOL     OW24469   5.909   4.580   1.186
 7857SOL    HW124470   5.918   4.559   1.283
 7857SOL    HW224471   5.862   4.505   1.140
 7858SOL     OW24472   0.414   4.410   5.885
 7858SOL    HW124473   0.479   4.478   5.852
 7858SOL    HW224474   0.365   4.445   5.965
 7859SOL     OW24475   5.641   2.231   0.417
 7859SOL    HW124476   5.580   2.151   0.424
 7859SOL    HW224477   5.601   2.308   0.467
 7860SOL     OW24478   2.553   1.032   4.459
 7860SOL    HW124479   2.581   1.082   4.541
 7860SOL    HW224480   2.456   1.009   4.466
 7861SOL     OW24481   2.576   6.485   1.040
 7861SOL    HW124482   2.567   6.451   1.133
 7861SOL    HW224483   2.517   6.565   1.029
 7862SOL     OW24484   2.485   5.972   0.276
 7862SOL    HW124485   2.557   5.934   0.335
 7862SOL    HW224486   2.473   6.069   0.297
 7863SOL     OW24487   6.848   4.136   3.773
 7863SOL    HW124488   6.885   4.050   3.737
 7863SOL    HW224489   6.749   4.138   3.757
 7864SOL     OW24490   1.799   6.146   5.416
 7864SOL    HW124491   1.825   6.242   5.403
 7864SOL    HW224492   1.872   6.098   5.465
 7865SOL     OW24493   5.640   5.124   3.074
 7865SOL    HW124494   5.565   5.126   3.140
 7865SOL    HW224495   5.652   5.031   3.040
 7866SOL     OW24496   0.609   6.758   5.857
 7866SOL    HW124497   0.555   6.842   5.857
 7866SOL    HW224498   0.702   6.779   5.825
 7867SOL     OW24499   5.797   6.022   3.473
 7867SOL    HW124500   5.793   6.122   3.478
 7867SOL    HW224501   5.757   5.991   3.387
 7868SOL     OW24502   3.160   6.111   1.586
 7868SOL    HW124503   3.080   6.170   1.575
 7868SOL    HW224504   3.149   6.055   1.668
 7869SOL     OW24505   5.665   5.189   5.755
 7869SOL    HW124506   5.599   5.131   5.803
 7869SOL    HW224507   5.721   5.133   5.694
 7870SOL     OW24508   5.525   6.031   4.434
 7870SOL    HW124509   5.546   5.933   4.429
 7870SOL    HW224510   5.548   6.075   4.347
 7871SOL     OW24511   5.367   1.455   1.815
 7871SOL    HW124512   5.464   1.457   1.839
 7871SOL    HW224513   5.318   1.398   1.880
 7872SOL     OW24514   1.932   5.624   3.061
 7872SOL    HW124515   1.923   5.674   3.148
 7872SOL    HW224516   1.943   5.526   3.080
 7873SOL     OW24517   6.001   1.535   7.010
 7873SOL    HW124518   6.012   1.474   6.931
 7873SOL    HW224519   6.084   1.589   7.023
 7874SOL     OW24520   5.501   2.277   0.787
 7874SOL    HW124521   5.545   2.322   0.710
 7874SOL    HW224522   5.407   2.309   0.795
 7875SOL     OW24523   5.687   4.386   6.657
 7875SOL    HW124524   5.675   4.462   6.721
 7875SOL    HW224525   5.653   4.302   6.698
 7876SOL     OW24526   1.139   6.756   2.850
 7876SOL    HW124527   1.209   6.685   2.850
 7876SOL    HW224528   1.138   6.803   2.938
 7877SOL     OW24529   6.966   2.216   2.794
 7877SOL    HW124530   0.021   2.274   2.781
 7877SOL    HW224531   6.883   2.271   2.785
 7878SOL     OW24532   3.961   4.799   2.795
 7878SOL    HW124533   3.923   4.858   2.724
 7878SOL    HW224534   3.928   4.827   2.884
 7879SOL     OW24535   3.076   5.058   3.016
 7879SOL    HW124536   2.998   5.089   3.070
 7879SOL    HW224537   3.045   4.993   2.947
 7880SOL     OW24538   1.472   4.132   2.073
 7880SOL    HW124539   1.535   4.194   2.026
 7880SOL    HW224540   1.519   4.046   2.093
 7881SOL     OW24541   4.863   4.317   4.425
 7881SOL    HW124542   4.956   4.293   4.453
 7881SOL    HW224543   4.806   4.235   4.425
 7882SOL     OW24544   1.628   3.453   0.697
 7882SOL    HW124545   1.598   3.527   0.756
 7882SOL    HW224546   1.611   3.365   0.742
 7883SOL     OW24547   0.994   0.596   5.261
 7883SOL    HW124548   1.081   0.582   5.309
 7883SOL    HW224549   0.922   0.613   5.328
 7884SOL     OW24550   0.841   2.671   4.225
 7884SOL    HW124551   0.828   2.760   4.181
 7884SOL    HW224552   0.754   2.639   4.263
 7885SOL     OW24553   6.574   5.706   6.441
 7885SOL    HW124554   6.500   5.685   6.377
 7885SOL    HW224555   6.588   5.805   6.443
 7886SOL     OW24556   4.569   4.798   0.199
 7886SOL    HW124557   4.541   4.702   0.194
 7886SOL    HW224558   4.508   4.847   0.261
 7887SOL     OW24559   4.548   2.163   6.672
 7887SOL    HW124560   4.550   2.065   6.652
 7887SOL    HW224561   4.564   2.215   6.588
 7888SOL     OW24562   5.438   0.679   5.035
 7888SOL    HW124563   5.464   0.771   5.005
 7888SOL    HW224564   5.357   0.649   4.984
 7889SOL     OW24565   1.230   5.866   2.648
 7889SOL    HW124566   1.215   5.868   2.549
 7889SOL    HW224567   1.232   5.960   2.683
 7890SOL     OW24568   1.762   3.147   2.803
 7890SOL    HW124569   1.849   3.098   2.804
 7890SOL    HW224570   1.768   3.225   2.867
 7891SOL     OW24571   1.463   4.604   3.159
 7891SOL    HW124572   1.533   4.548   3.204
 7891SOL    HW224573   1.462   4.696   3.199
 7892SOL     OW24574   1.959   2.658   5.765
 7892SOL    HW124575   1.962   2.685   5.861
 7892SOL    HW224576   2.047   2.618   5.738
 7893SOL     OW24577   5.966   6.339   1.518
 7893SOL    HW124578   6.001   6.383   1.436
 7893SOL    HW224579   5.947   6.243   1.499
 7894SOL     OW24580   2.986   0.117   2.085
 7894SOL    HW124581   2.900   0.106   2.035
 7894SOL    HW224582   3.013   0.030   2.126
 7895SOL     OW24583   6.922   1.756   3.325
 7895SOL    HW124584   6.843   1.789   3.377
 7895SOL    HW224585   6.926   1.803   3.237
 7896SOL     OW24586   4.678   1.962   5.451
 7896SOL    HW124587   4.760   2.019   5.447
 7896SOL    HW224588   4.607   2.010   5.502
 7897SOL     OW24589   2.943   3.246   6.109
 7897SOL    HW124590   2.918   3.300   6.029
 7897SOL    HW224591   2.982   3.159   6.079
 7898SOL     OW24592   4.357   2.341   3.466
 7898SOL    HW124593   4.271   2.296   3.489
 7898SOL    HW224594   4.342   2.411   3.397
 7899SOL     OW24595   5.130   1.125   2.882
 7899SOL    HW124596   5.221   1.139   2.843
 7899SOL    HW224597   5.118   1.186   2.960
 7900SOL     OW24598   1.574   5.765   0.667
 7900SOL    HW124599   1.500   5.803   0.612
 7900SOL    HW224600   1.606   5.834   0.732
 7901SOL     OW24601   6.157   5.700   0.289
 7901SOL    HW124602   6.147   5.761   0.368
 7901SOL    HW224603   6.075   5.643   0.280
 7902SOL     OW24604   5.073   3.958   6.889
 7902SOL    HW124605   5.088   4.053   6.864
 7902SOL    HW224606   5.090   3.945   6.986
 7903SOL     OW24607   0.524   2.036   6.879
 7903SOL    HW124608   0.561   2.121   6.843
 7903SOL    HW224609   0.447   2.056   6.940
 7904SOL     OW24610   6.271   0.893   2.833
 7904SOL    HW124611   6.297   0.805   2.875
 7904SOL    HW224612   6.262   0.881   2.734
 7905SOL     OW24613   3.594   1.253   0.649
 7905SOL    HW124614   3.674   1.228   0.704
 7905SOL    HW224615   3.558   1.341   0.679
 7906SOL     OW24616   6.200   5.790   6.780
 7906SOL    HW124617   6.244   5.719   6.725
 7906SOL    HW224618   6.238   5.789   6.873
 7907SOL     OW24619   6.688   3.101   2.100
 7907SOL    HW124620   6.691   3.182   2.160
 7907SOL    HW224621   6.610   3.044   2.127
 7908SOL     OW24622   6.030   1.883   3.720
 7908SOL    HW124623   5.932   1.870   3.738
 7908SOL    HW224624   6.083   1.820   3.777
 7909SOL     OW24625   4.582   4.783   5.160
 7909SOL    HW124626   4.627   4.806   5.075
 7909SOL    HW224627   4.609   4.848   5.231
 7910SOL     OW24628   5.741   3.759   5.889
 7910SOL    HW124629   5.671   3.688   5.898
 7910SOL    HW224630   5.716   3.821   5.815
 7911SOL     OW24631   5.955   4.998   6.846
 7911SOL    HW124632   5.906   4.979   6.931
 7911SOL    HW224633   5.999   4.914   6.813
 7912SOL     OW24634   6.471   5.179   5.644
 7912SOL    HW124635   6.396   5.114   5.656
 7912SOL    HW224636   6.554   5.130   5.617
 7913SOL     OW24637   0.501   5.635   6.458
 7913SOL    HW124638   0.446   5.629   6.375
 7913SOL    HW224639   0.560   5.555   6.465
 7914SOL     OW24640   7.014   3.582   2.442
 7914SOL    HW124641   6.997   3.491   2.403
 7914SOL    HW224642   0.050   3.572   2.521
 7915SOL     OW24643   4.224   1.935   2.326
 7915SOL    HW124644   4.162   1.868   2.284
 7915SOL    HW224645   4.210   2.024   2.284
 7916SOL     OW24646   4.738   3.424   5.525
 7916SOL    HW124647   4.729   3.337   5.574
 7916SOL    HW224648   4.712   3.499   5.586
 7917SOL     OW24649   3.150   4.036   4.042
 7917SOL    HW124650   3.120   3.995   4.128
 7917SOL    HW224651   3.161   4.135   4.054
 7918SOL     OW24652   6.264   2.044   2.560
 7918SOL    HW124653   6.283   1.993   2.476
 7918SOL    HW224654   6.194   1.996   2.613
 7919SOL     OW24655   5.601   4.965   1.733
 7919SOL    HW124656   5.562   4.920   1.653
 7919SOL    HW224657   5.699   4.981   1.718
 7920SOL     OW24658   1.151   5.697   1.785
 7920SOL    HW124659   1.164   5.786   1.830
 7920SOL    HW224660   1.240   5.658   1.763
 7921SOL     OW24661   3.663   6.559   1.692
 7921SOL    HW124662   3.648   6.463   1.715
 7921SOL    HW224663   3.761   6.578   1.689
 7922SOL     OW24664   0.474   5.059   6.986
 7922SOL    HW124665   0.464   5.033   6.890
 7922SOL    HW224666   0.389   5.100   7.019
 7923SOL     OW24667   1.314   1.513   2.848
 7923SOL    HW124668   1.357   1.490   2.935
 7923SOL    HW224669   1.226   1.557   2.865
 7924SOL     OW24670   2.329   0.284   3.971
 7924SOL    HW124671   2.368   0.286   4.063
 7924SOL    HW224672   2.375   0.351   3.914
 7925SOL     OW24673   6.918   0.117   6.803
 7925SOL    HW124674   6.962   0.164   6.726
 7925SOL    HW224675   6.855   0.048   6.768
 7926SOL     OW24676   3.109   0.189   1.640
 7926SOL    HW124677   3.012   0.176   1.657
 7926SOL    HW224678   3.125   0.280   1.603
 7927SOL     OW24679   4.449   4.509   4.404
 7927SOL    HW124680   4.395   4.573   4.458
 7927SOL    HW224681   4.495   4.444   4.464
 7928SOL     OW24682   1.629   5.214   1.176
 7928SOL    HW124683   1.660   5.124   1.144
 7928SOL    HW224684   1.610   5.210   1.274
 7929SOL     OW24685   3.852   3.960   4.303
 7929SOL    HW124686   3.879   3.929   4.395
 7929SOL    HW224687   3.767   4.013   4.310
 7930SOL     OW24688   5.292   5.890   4.736
 7930SOL    HW124689   5.209   5.888   4.791
 7930SOL    HW224690   5.287   5.965   4.670
 7931SOL     OW24691   1.711   3.005   0.848
 7931SOL    HW124692   1.763   3.049   0.921
 7931SOL    HW224693   1.773   2.977   0.775
 7932SOL     OW24694   3.275   0.045   0.747
 7932SOL    HW124695   3.252   0.104   0.824
 7932SOL    HW224696   3.316   6.986   0.780
 7933SOL     OW24697   1.399   0.561   0.227
 7933SOL    HW124698   1.368   0.468   0.211
 7933SOL    HW224699   1.335   0.625   0.184
 7934SOL     OW24700   3.502   3.529   5.542
 7934SOL    HW124701   3.504   3.623   5.508
 7934SOL    HW224702   3.465   3.468   5.472
 7935SOL     OW24703   4.272   6.340   1.568
 7935SOL    HW124704   4.176   6.328   1.594
 7935SOL    HW224705   4.309   6.420   1.617
 7936SOL     OW24706   4.475   5.596   3.166
 7936SOL    HW124707   4.529   5.657   3.107
 7936SOL    HW224708   4.535   5.556   3.236
 7937SOL     OW24709   6.377   6.177   5.567
 7937SOL    HW124710   6.342   6.083   5.571
 7937SOL    HW224711   6.330   6.233   5.635
 7938SOL     OW24712   5.789   4.526   4.945
 7938SOL    HW124713   5.793   4.573   4.856
 7938SOL    HW224714   5.879   4.491   4.968
 7939SOL     OW24715   0.772   0.338   4.509
 7939SOL    HW124716   0.866   0.322   4.537
 7939SOL    HW224717   0.768   0.345   4.409
 7940SOL     OW24718   1.765   5.881   0.881
 7940SOL    HW124719   1.732   5.824   0.957
 7940SOL    HW224720   1.816   5.824   0.816
 7941SOL     OW24721   0.237   0.126   0.441
 7941SOL    HW124722   0.301   0.201   0.426
 7941SOL    HW224723   0.225   0.075   0.356
 7942SOL     OW24724   1.557   0.968   1.322
 7942SOL    HW124725   1.609   0.981   1.406
 7942SOL    HW224726   1.561   0.871   1.296
 7943SOL     OW24727   5.805   2.119   0.986
 7943SOL    HW124728   5.775   2.068   0.905
 7943SOL    HW224729   5.830   2.213   0.959
 7944SOL     OW24730   0.666   4.338   2.323
 7944SOL    HW124731   0.642   4.241   2.332
 7944SOL    HW224732   0.664   4.381   2.413
 7945SOL     OW24733   5.397   6.370   1.715
 7945SOL    HW124734   5.475   6.310   1.697
 7945SOL    HW224735   5.371   6.417   1.631
 7946SOL     OW24736   1.362   1.870   5.689
 7946SOL    HW124737   1.436   1.817   5.647
 7946SOL    HW224738   1.294   1.893   5.620
 7947SOL     OW24739   3.780   4.043   6.255
 7947SOL    HW124740   3.777   3.946   6.230
 7947SOL    HW224741   3.716   4.061   6.329
 7948SOL     OW24742   0.806   5.290   0.375
 7948SOL    HW124743   0.850   5.215   0.325
 7948SOL    HW224744   0.837   5.288   0.470
 7949SOL     OW24745   6.379   4.459   4.345
 7949SOL    HW124746   6.442   4.522   4.299
 7949SOL    HW224747   6.409   4.365   4.330
 7950SOL     OW24748   3.096   5.311   4.697
 7950SOL    HW124749   3.081   5.368   4.616
 7950SOL    HW224750   3.101   5.369   4.778
 7951SOL     OW24751   2.610   3.209   1.153
 7951SOL    HW124752   2.526   3.262   1.146
 7951SOL    HW224753   2.689   3.268   1.138
 7952SOL     OW24754   4.918   4.250   0.228
 7952SOL    HW124755   4.833   4.281   0.270
 7952SOL    HW224756   4.918   4.151   0.221
 7953SOL     OW24757   2.204   3.164   2.571
 7953SOL    HW124758   2.294   3.147   2.531
 7953SOL    HW224759   2.195   3.111   2.655
 7954SOL     OW24760   4.794   5.480   5.207
 7954SOL    HW124761   4.826   5.386   5.220
 7954SOL    HW224762   4.802   5.505   5.110
 7955SOL     OW24763   1.011   6.449   5.887
 7955SOL    HW124764   1.004   6.525   5.953
 7955SOL    HW224765   1.065   6.478   5.809
 7956SOL     OW24766   6.086   6.860   3.673
 7956SOL    HW124767   6.135   6.945   3.654
 7956SOL    HW224768   5.994   6.880   3.708
 7957SOL     OW24769   0.928   2.639   1.130
 7957SOL    HW124770   0.848   2.648   1.071
 7957SOL    HW224771   0.999   2.586   1.082
 7958SOL     OW24772   2.528   5.417   2.736
 7958SOL    HW124773   2.466   5.462   2.672
 7958SOL    HW224774   2.515   5.318   2.732
 7959SOL     OW24775   5.282   5.071   0.786
 7959SOL    HW124776   5.382   5.073   0.793
 7959SOL    HW224777   5.243   5.139   0.847
 7960SOL     OW24778   2.431   2.199   1.106
 7960SOL    HW124779   2.423   2.122   1.043
 7960SOL    HW224780   2.526   2.212   1.132
 7961SOL     OW24781   2.035   5.350   6.486
 7961SOL    HW124782   2.025   5.251   6.475
 7961SOL    HW224783   2.123   5.369   6.530
 7962SOL     OW24784   1.378   0.331   2.323
 7962SOL    HW124785   1.400   0.419   2.280
 7962SOL    HW224786   1.303   0.287   2.274
 7963SOL     OW24787   0.593   0.390   4.705
 7963SOL    HW124788   0.643   0.363   4.623
 7963SOL    HW224789   0.658   0.422   4.774
 7964SOL     OW24790   6.351   6.031   3.287
 7964SOL    HW124791   6.317   6.068   3.373
 7964SOL    HW224792   6.276   6.024   3.221
 7965SOL     OW24793   5.475   1.811   0.619
 7965SOL    HW124794   5.401   1.746   0.637
 7965SOL    HW224795   5.486   1.871   0.699
 7966SOL     OW24796   0.432   5.252   3.780
 7966SOL    HW124797   0.458   5.187   3.852
 7966SOL    HW224798   0.495   5.330   3.782
 7967SOL     OW24799   2.849   6.006   2.515
 7967SOL    HW124800   2.922   5.969   2.457
 7967SOL    HW224801   2.880   6.008   2.610
 7968SOL     OW24802   1.660   1.034   1.566
 7968SOL    HW124803   1.725   1.109   1.568
 7968SOL    HW224804   1.575   1.062   1.611
 7969SOL     OW24805   3.258   2.147   3.082
 7969SOL    HW124806   3.291   2.183   2.995
 7969SOL    HW224807   3.168   2.187   3.102
 7970SOL     OW24808   0.867   5.153   3.115
 7970SOL    HW124809   0.850   5.143   3.213
 7970SOL    HW224810   0.959   5.120   3.093
 7971SOL     OW24811   2.735   1.128   1.657
 7971SOL    HW124812   2.645   1.162   1.685
 7971SOL    HW224813   2.779   1.081   1.733
 7972SOL     OW24814   0.516   4.722   2.224
 7972SOL    HW124815   0.446   4.704   2.293
 7972SOL    HW224816   0.482   4.787   2.157
 7973SOL     OW24817   4.409   2.434   2.737
 7973SOL    HW124818   4.334   2.446   2.802
 7973SOL    HW224819   4.495   2.461   2.780
 7974SOL     OW24820   5.312   0.325   4.148
 7974SOL    HW124821   5.351   0.338   4.056
 7974SOL    HW224822   5.305   0.413   4.194
 7975SOL     OW24823   2.596   1.112   3.576
 7975SOL    HW124824   2.533   1.049   3.621
 7975SOL    HW224825   2.628   1.180   3.642
 7976SOL     OW24826   0.606   5.360   6.521
 7976SOL    HW124827   0.535   5.358   6.592
 7976SOL    HW224828   0.657   5.274   6.522
 7977SOL     OW24829   5.238   6.225   1.194
 7977SOL    HW124830   5.336   6.239   1.178
 7977SOL    HW224831   5.210   6.138   1.154
 7978SOL     OW24832   4.457   2.516   5.803
 7978SOL    HW124833   4.443   2.581   5.878
 7978SOL    HW224834   4.471   2.424   5.841
 7979SOL     OW24835   3.844   7.007   4.089
 7979SOL    HW124836   3.895   6.933   4.047
 7979SOL    HW224837   3.895   0.017   4.168
 7980SOL     OW24838   2.946   6.649   2.018
 7980SOL    HW124839   2.887   6.699   2.081
 7980SOL    HW224840   3.042   6.662   2.045
 7981SOL     OW24841   1.319   5.482   3.261
 7981SOL    HW124842   1.271   5.432   3.189
 7981SOL    HW224843   1.403   5.521   3.225
 7982SOL     OW24844   6.484   2.774   0.620
 7982SOL    HW124845   6.551   2.844   0.597
 7982SOL    HW224846   6.414   2.814   0.681
 7983SOL     OW24847   5.123   2.306   2.468
 7983SOL    HW124848   5.051   2.363   2.427
 7983SOL    HW224849   5.087   2.214   2.485
 7984SOL     OW24850   0.772   0.919   0.871
 7984SOL    HW124851   0.716   0.853   0.921
 7984SOL    HW224852   0.830   0.969   0.936
 7985SOL     OW24853   0.529   1.423   1.530
 7985SOL    HW124854   0.593   1.421   1.453
 7985SOL    HW224855   0.522   1.517   1.565
 7986SOL     OW24856   4.091   1.655   0.725
 7986SOL    HW124857   4.002   1.654   0.771
 7986SOL    HW224858   4.105   1.745   0.683
 7987SOL     OW24859   0.462   3.088   4.879
 7987SOL    HW124860   0.430   3.168   4.929
 7987SOL    HW224861   0.480   3.014   4.943
 7988SOL     OW24862   2.684   1.665   5.644
 7988SOL    HW124863   2.771   1.704   5.675
 7988SOL    HW224864   2.631   1.735   5.596
 7989SOL     OW24865   2.939   3.316   5.618
 7989SOL    HW124866   2.951   3.224   5.582
 7989SOL    HW224867   3.020   3.371   5.596
 7990SOL     OW24868   2.069   2.588   5.007
 7990SOL    HW124869   2.018   2.597   4.922
 7990SOL    HW224870   2.115   2.675   5.028
 7991SOL     OW24871   0.197   3.406   5.502
 7991SOL    HW124872   0.291   3.374   5.504
 7991SOL    HW224873   0.139   3.339   5.455
 7992SOL     OW24874   2.707   0.919   0.553
 7992SOL    HW124875   2.645   0.986   0.512
 7992SOL    HW224876   2.780   0.898   0.488
 7993SOL     OW24877   1.778   6.856   6.433
 7993SOL    HW124878   1.848   6.821   6.496
 7993SOL    HW224879   1.786   6.808   6.345
 7994SOL     OW24880   5.490   0.917   3.632
 7994SOL    HW124881   5.530   0.829   3.657
 7994SOL    HW224882   5.563   0.983   3.616
 7995SOL     OW24883   3.822   4.921   3.030
 7995SOL    HW124884   3.728   4.948   3.047
 7995SOL    HW224885   3.863   4.886   3.115
 7996SOL     OW24886   3.507   0.692   4.947
 7996SOL    HW124887   3.512   0.786   4.982
 7996SOL    HW224888   3.596   0.648   4.959
 7997SOL     OW24889   5.836   2.614   1.730
 7997SOL    HW124890   5.741   2.636   1.754
 7997SOL    HW224891   5.872   2.684   1.669
 7998SOL     OW24892   6.151   5.230   6.720
 7998SOL    HW124893   6.115   5.321   6.739
 7998SOL    HW224894   6.087   5.161   6.753
 7999SOL     OW24895   1.735   0.540   5.611
 7999SOL    HW124896   1.780   0.451   5.620
 7999SOL    HW224897   1.706   0.554   5.517
 8000SOL     OW24898   6.129   6.824   5.626
 8000SOL    HW124899   6.213   6.840   5.679
 8000SOL    HW224900   6.089   6.736   5.654
 8001SOL     OW24901   2.292   0.135   1.318
 8001SOL    HW124902   2.314   0.089   1.404
 8001SOL    HW224903   2.193   0.138   1.306
 8002SOL     OW24904   5.411   3.347   5.477
 8002SOL    HW124905   5.351   3.421   5.509
 8002SOL    HW224906   5.484   3.385   5.421
 8003SOL     OW24907   3.674   5.130   3.222
 8003SOL    HW124908   3.747   5.107   3.286
 8003SOL    HW224909   3.611   5.194   3.265
 8004SOL     OW24910   1.942   3.926   2.762
 8004SOL    HW124911   1.905   4.019   2.761
 8004SOL    HW224912   2.037   3.928   2.792
 8005SOL     OW24913   3.095   1.105   1.743
 8005SOL    HW124914   3.183   1.151   1.733
 8005SOL    HW224915   3.041   1.117   1.660
 8006SOL     OW24916   3.109   6.195   0.478
 8006SOL    HW124917   3.039   6.147   0.530
 8006SOL    HW224918   3.179   6.131   0.447
 8007SOL     OW24919   0.102   1.287   4.628
 8007SOL    HW124920   0.066   1.254   4.716
 8007SOL    HW224921   0.189   1.333   4.644
 8008SOL     OW24922   6.538   6.089   0.688
 8008SOL    HW124923   6.600   6.030   0.637
 8008SOL    HW224924   6.586   6.125   0.768
 8009SOL     OW24925   6.860   6.618   3.474
 8009SOL    HW124926   6.921   6.564   3.533
 8009SOL    HW224927   6.915   6.671   3.409
 8010SOL     OW24928   2.538   2.849   6.699
 8010SOL    HW124929   2.581   2.771   6.745
 8010SOL    HW224930   2.493   2.817   6.615
 8011SOL     OW24931   2.739   2.197   0.708
 8011SOL    HW124932   2.761   2.218   0.803
 8011SOL    HW224933   2.647   2.229   0.687
 8012SOL     OW24934   3.093   6.873   2.714
 8012SOL    HW124935   3.086   6.797   2.778
 8012SOL    HW224936   3.133   6.841   2.628
 8013SOL     OW24937   6.040   4.440   4.985
 8013SOL    HW124938   6.043   4.346   5.018
 8013SOL    HW224939   6.132   4.468   4.957
 8014SOL     OW24940   2.272   6.904   6.687
 8014SOL    HW124941   2.243   6.833   6.624
 8014SOL    HW224942   2.289   6.865   6.777
 8015SOL     OW24943   1.990   2.180   6.852
 8015SOL    HW124944   1.988   2.256   6.917
 8015SOL    HW224945   1.904   2.128   6.858
 8016SOL     OW24946   3.598   6.274   1.703
 8016SOL    HW124947   3.668   6.202   1.706
 8016SOL    HW224948   3.521   6.242   1.648
 8017SOL     OW24949   5.931   4.685   4.249
 8017SOL    HW124950   5.942   4.627   4.329
 8017SOL    HW224951   5.905   4.629   4.170
 8018SOL     OW24952   5.736   2.403   4.617
 8018SOL    HW124953   5.746   2.329   4.550
 8018SOL    HW224954   5.814   2.401   4.679
 8019SOL     OW24955   2.477   5.702   1.052
 8019SOL    HW124956   2.523   5.615   1.068
 8019SOL    HW224957   2.521   5.773   1.107
 8020SOL     OW24958   5.728   5.867   6.771
 8020SOL    HW124959   5.777   5.855   6.858
 8020SOL    HW224960   5.793   5.863   6.696
 8021SOL     OW24961   1.133   0.834   0.803
 8021SOL    HW124962   1.072   0.911   0.784
 8021SOL    HW224963   1.129   0.812   0.900
 8022SOL     OW24964   4.588   6.030   3.139
 8022SOL    HW124965   4.503   6.074   3.166
 8022SOL    HW224966   4.619   5.970   3.213
 8023SOL     OW24967   6.473   6.814   3.160
 8023SOL    HW124968   6.481   6.780   3.254
 8023SOL    HW224969   6.514   6.905   3.155
 8024SOL     OW24970   4.480   5.317   4.947
 8024SOL    HW124971   4.440   5.225   4.950
 8024SOL    HW224972   4.420   5.381   4.995
 8025SOL     OW24973   3.769   5.538   0.262
 8025SOL    HW124974   3.705   5.612   0.278
 8025SOL    HW224975   3.810   5.548   0.171
 8026SOL     OW24976   1.101   2.716   0.670
 8026SOL    HW124977   1.158   2.634   0.658
 8026SOL    HW224978   1.110   2.775   0.589
 8027SOL     OW24979   5.284   2.826   5.520
 8027SOL    HW124980   5.186   2.809   5.525
 8027SOL    HW224981   5.307   2.863   5.430
 8028SOL     OW24982   5.811   4.662   6.777
 8028SOL    HW124983   5.742   4.671   6.849
 8028SOL    HW224984   5.888   4.722   6.798
 8029SOL     OW24985   3.093   4.157   0.824
 8029SOL    HW124986   3.014   4.203   0.785
 8029SOL    HW224987   3.111   4.072   0.773
 8030SOL     OW24988   5.976   3.893   6.886
 8030SOL    HW124989   5.957   3.976   6.937
 8030SOL    HW224990   5.891   3.857   6.848
 8031SOL     OW24991   3.923   5.758   1.402
 8031SOL    HW124992   3.901   5.842   1.352
 8031SOL    HW224993   3.851   5.691   1.386
 8032SOL     OW24994   5.123   4.263   5.995
 8032SOL    HW124995   5.126   4.294   5.900
 8032SOL    HW224996   5.200   4.301   6.045
 8033SOL     OW24997   5.843   2.541   0.155
 8033SOL    HW124998   5.789   2.531   0.071
 8033SOL    HW224999   5.908   2.617   0.143
 8034SOL     OW25000   5.875   1.032   5.900
 8034SOL    HW125001   5.856   1.116   5.849
 8034SOL    HW225002   5.820   0.957   5.862
 8035SOL     OW25003   5.655   6.480   0.059
 8035SOL    HW125004   5.561   6.512   0.070
 8035SOL    HW225005   5.699   6.531   7.009
 8036SOL     OW25006   1.928   4.009   1.790
 8036SOL    HW125007   2.001   4.020   1.858
 8036SOL    HW225008   1.843   3.983   1.836
 8037SOL     OW25009   1.770   3.310   1.683
 8037SOL    HW125010   1.771   3.371   1.604
 8037SOL    HW225011   1.772   3.363   1.767
 8038SOL     OW25012   6.908   2.283   4.318
 8038SOL    HW125013   6.872   2.204   4.268
 8038SOL    HW225014   6.943   2.350   4.253
 8039SOL     OW25015   2.631   6.423   4.245
 8039SOL    HW125016   2.533   6.416   4.265
 8039SOL    HW225017   2.678   6.465   4.322
 8040SOL     OW25018   0.105   5.754   0.845
 8040SOL    HW125019   0.088   5.846   0.811
 8040SOL    HW225020   0.133   5.759   0.941
 8041SOL     OW25021   4.836   1.877   0.813
 8041SOL    HW125022   4.904   1.933   0.860
 8041SOL    HW225023   4.750   1.879   0.864
 8042SOL     OW25024   2.843   3.399   1.248
 8042SOL    HW125025   2.843   3.481   1.305
 8042SOL    HW225026   2.833   3.318   1.306
 8043SOL     OW25027   2.487   0.210   1.882
 8043SOL    HW125028   2.444   0.123   1.906
 8043SOL    HW225029   2.451   0.242   1.795
 8044SOL     OW25030   2.929   3.655   2.002
 8044SOL    HW125031   2.985   3.611   1.932
 8044SOL    HW225032   2.920   3.593   2.081
 8045SOL     OW25033   6.063   2.759   3.209
 8045SOL    HW125034   6.080   2.841   3.264
 8045SOL    HW225035   6.003   2.697   3.259
 8046SOL     OW25036   6.806   4.873   6.299
 8046SOL    HW125037   6.788   4.776   6.281
 8046SOL    HW225038   6.724   4.926   6.277
 8047SOL     OW25039   3.757   6.018   4.235
 8047SOL    HW125040   3.850   6.002   4.269
 8047SOL    HW225041   3.736   5.954   4.161
 8048SOL     OW25042   6.881   6.942   5.722
 8048SOL    HW125043   6.981   6.938   5.724
 8048SOL    HW225044   6.847   6.967   5.812
 8049SOL     OW25045   1.644   5.439   0.589
 8049SOL    HW125046   1.657   5.537   0.578
 8049SOL    HW225047   1.680   5.411   0.678
 8050SOL     OW25048   1.537   2.935   1.240
 8050SOL    HW125049   1.566   2.840   1.226
 8050SOL    HW225050   1.511   2.974   1.151
 8051SOL     OW25051   4.325   1.394   3.604
 8051SOL    HW125052   4.229   1.406   3.631
 8051SOL    HW225053   4.330   1.370   3.507
 8052SOL     OW25054   3.019   1.726   2.726
 8052SOL    HW125055   3.017   1.821   2.757
 8052SOL    HW225056   2.948   1.713   2.657
 8053SOL     OW25057   3.918   3.413   2.270
 8053SOL    HW125058   3.873   3.493   2.309
 8053SOL    HW225059   3.969   3.365   2.342
 8054SOL     OW25060   3.998   6.191   4.792
 8054SOL    HW125061   3.922   6.125   4.792
 8054SOL    HW225062   4.059   6.173   4.868
 8055SOL     OW25063   1.304   7.015   5.442
 8055SOL    HW125064   1.336   6.927   5.406
 8055SOL    HW225065   1.330   7.023   5.539
 8056SOL     OW25066   4.076   1.765   2.873
 8056SOL    HW125067   4.150   1.748   2.937
 8056SOL    HW225068   3.988   1.753   2.919
 8057SOL     OW25069   3.586   6.512   3.826
 8057SOL    HW125070   3.525   6.522   3.905
 8057SOL    HW225071   3.579   6.419   3.790
 8058SOL     OW25072   1.932   1.182   3.185
 8058SOL    HW125073   1.894   1.101   3.230
 8058SOL    HW225074   1.890   1.264   3.224
 8059SOL     OW25075   2.870   1.479   3.830
 8059SOL    HW125076   2.911   1.497   3.741
 8059SOL    HW225077   2.793   1.540   3.845
 8060SOL     OW25078   0.558   1.690   4.761
 8060SOL    HW125079   0.563   1.591   4.745
 8060SOL    HW225080   0.650   1.726   4.771
 8061SOL     OW25081   0.667   5.616   2.061
 8061SOL    HW125082   0.600   5.687   2.039
 8061SOL    HW225083   0.730   5.606   1.984
 8062SOL     OW25084   2.172   3.823   3.351
 8062SOL    HW125085   2.146   3.736   3.392
 8062SOL    HW225086   2.218   3.880   3.419
 8063SOL     OW25087   3.310   3.222   0.049
 8063SOL    HW125088   3.362   3.137   0.042
 8063SOL    HW225089   3.213   3.201   0.064
 8064SOL     OW25090   6.857   3.653   0.056
 8064SOL    HW125091   6.855   3.570   7.025
 8064SOL    HW225092   6.942   3.703   0.040
 8065SOL     OW25093   4.772   0.368   5.765
 8065SOL    HW125094   4.851   0.419   5.730
 8065SOL    HW225095   4.767   0.279   5.720
 8066SOL     OW25096   1.866   0.370   1.757
 8066SOL    HW125097   1.814   0.448   1.793
 8066SOL    HW225098   1.950   0.358   1.810
 8067SOL     OW25099   5.271   2.571   1.327
 8067SOL    HW125100   5.283   2.667   1.352
 8067SOL    HW225101   5.174   2.552   1.311
 8068SOL     OW25102   0.892   4.679   4.523
 8068SOL    HW125103   0.795   4.655   4.512
 8068SOL    HW225104   0.911   4.696   4.620
 8069SOL     OW25105   1.767   6.253   2.232
 8069SOL    HW125106   1.804   6.265   2.325
 8069SOL    HW225107   1.842   6.253   2.166
 8070SOL     OW25108   4.003   0.291   1.414
 8070SOL    HW125109   4.102   0.296   1.432
 8070SOL    HW225110   3.979   0.200   1.383
 8071SOL     OW25111   4.155   6.471   6.810
 8071SOL    HW125112   4.197   6.407   6.874
 8071SOL    HW225113   4.184   6.448   6.717
 8072SOL     OW25114   5.413   0.518   1.557
 8072SOL    HW125115   5.436   0.608   1.522
 8072SOL    HW225116   5.335   0.481   1.507
 8073SOL     OW25117   4.312   6.353   5.689
 8073SOL    HW125118   4.409   6.350   5.713
 8073SOL    HW225119   4.259   6.307   5.760
 8074SOL     OW25120   3.217   3.803   0.318
 8074SOL    HW125121   3.208   3.803   0.218
 8074SOL    HW225122   3.132   3.834   0.359
 8075SOL     OW25123   6.059   1.537   2.342
 8075SOL    HW125124   6.047   1.609   2.274
 8075SOL    HW225125   5.981   1.474   2.337
 8076SOL     OW25126   5.580   3.294   6.335
 8076SOL    HW125127   5.546   3.350   6.260
 8076SOL    HW225128   5.573   3.198   6.312
 8077SOL     OW25129   1.466   0.652   0.974
 8077SOL    HW125130   1.436   0.747   0.973
 8077SOL    HW225131   1.565   0.648   0.985
 8078SOL     OW25132   6.146   3.171   0.313
 8078SOL    HW125133   6.207   3.248   0.295
 8078SOL    HW225134   6.196   3.099   0.361
 8079SOL     OW25135   6.713   1.719   2.108
 8079SOL    HW125136   6.698   1.817   2.125
 8079SOL    HW225137   6.664   1.666   2.177
 8080SOL     OW25138   3.406   5.332   0.395
 8080SOL    HW125139   3.359   5.332   0.307
 8080SOL    HW225140   3.350   5.284   0.463
 8081SOL     OW25141   5.731   0.813   5.805
 8081SOL    HW125142   5.729   0.774   5.897
 8081SOL    HW225143   5.640   0.848   5.782
 8082SOL     OW25144   6.611   3.063   4.037
 8082SOL    HW125145   6.643   3.157   4.026
 8082SOL    HW225146   6.574   3.030   3.950
 8083SOL     OW25147   4.711   2.732   4.061
 8083SOL    HW125148   4.682   2.770   4.148
 8083SOL    HW225149   4.646   2.662   4.031
 8084SOL     OW25150   6.701   6.829   1.207
 8084SOL    HW125151   6.661   6.822   1.115
 8084SOL    HW225152   6.745   6.918   1.217
 8085SOL     OW25153   5.936   1.792   1.253
 8085SOL    HW125154   5.989   1.733   1.193
 8085SOL    HW225155   5.844   1.755   1.264
 8086SOL     OW25156   3.686   6.923   5.400
 8086SOL    HW125157   3.692   6.957   5.494
 8086SOL    HW225158   3.768   6.871   5.377
 8087SOL     OW25159   3.174   3.246   1.439
 8087SOL    HW125160   3.207   3.240   1.345
 8087SOL    HW225161   3.225   3.182   1.497
 8088SOL     OW25162   4.155   1.012   3.302
 8088SOL    HW125163   4.221   1.066   3.249
 8088SOL    HW225164   4.204   0.957   3.369
 8089SOL     OW25165   5.714   2.755   0.378
 8089SOL    HW125166   5.615   2.744   0.363
 8089SOL    HW225167   5.754   2.666   0.403
 8090SOL     OW25168   4.837   2.585   5.165
 8090SOL    HW125169   4.820   2.623   5.256
 8090SOL    HW225170   4.778   2.632   5.098
 8091SOL     OW25171   3.303   5.237   6.098
 8091SOL    HW125172   3.344   5.319   6.138
 8091SOL    HW225173   3.299   5.164   6.167
 8092SOL     OW25174   1.027   1.733   4.176
 8092SOL    HW125175   0.943   1.779   4.147
 8092SOL    HW225176   1.021   1.712   4.274
 8093SOL     OW25177   5.757   6.046   1.217
 8093SOL    HW125178   5.725   6.086   1.303
 8093SOL    HW225179   5.679   6.011   1.165
 8094SOL     OW25180   0.942   3.166   5.214
 8094SOL    HW125181   0.845   3.174   5.188
 8094SOL    HW225182   0.986   3.255   5.203
 8095SOL     OW25183   5.888   3.998   4.105
 8095SOL    HW125184   5.884   3.933   4.181
 8095SOL    HW225185   5.981   4.033   4.095
 8096SOL     OW25186   4.020   6.279   1.684
 8096SOL    HW125187   4.009   6.336   1.766
 8096SOL    HW225188   3.948   6.211   1.680
 8097SOL     OW25189   5.024   1.493   4.536
 8097SOL    HW125190   4.962   1.558   4.492
 8097SOL    HW225191   5.098   1.543   4.582
 8098SOL     OW25192   2.947   6.698   3.646
 8098SOL    HW125193   2.866   6.756   3.658
 8098SOL    HW225194   2.957   6.638   3.726
 8099SOL     OW25195   5.416   6.447   4.660
 8099SOL    HW125196   5.396   6.363   4.711
 8099SOL    HW225197   5.475   6.425   4.582
 8100SOL     OW25198   0.949   6.683   0.627
 8100SOL    HW125199   0.897   6.741   0.564
 8100SOL    HW225200   0.916   6.697   0.720
 8101SOL     OW25201   1.740   5.911   3.365
 8101SOL    HW125202   1.701   5.905   3.274
 8101SOL    HW225203   1.672   5.948   3.429
 8102SOL     OW25204   0.102   5.789   6.124
 8102SOL    HW125205   0.163   5.850   6.074
 8102SOL    HW225206   0.076   5.831   6.211
 8103SOL     OW25207   2.834   1.705   2.498
 8103SOL    HW125208   2.742   1.677   2.471
 8103SOL    HW225209   2.849   1.801   2.472
 8104SOL     OW25210   2.250   6.553   6.075
 8104SOL    HW125211   2.289   6.526   6.163
 8104SOL    HW225212   2.316   6.609   6.026
 8105SOL     OW25213   1.544   2.110   2.548
 8105SOL    HW125214   1.574   2.158   2.466
 8105SOL    HW225215   1.446   2.094   2.543
 8106SOL     OW25216   0.782   3.993   4.086
 8106SOL    HW125217   0.849   4.063   4.058
 8106SOL    HW225218   0.747   4.016   4.176
 8107SOL     OW25219   1.827   6.090   6.005
 8107SOL    HW125220   1.788   6.158   5.943
 8107SOL    HW225221   1.806   5.998   5.972
 8108SOL     OW25222   1.269   3.197   4.319
 8108SOL    HW125223   1.249   3.282   4.368
 8108SOL    HW225224   1.241   3.119   4.376
 8109SOL     OW25225   1.437   4.966   5.149
 8109SOL    HW125226   1.472   5.036   5.087
 8109SOL    HW225227   1.503   4.891   5.154
 8110SOL     OW25228   1.778   4.532   1.011
 8110SOL    HW125229   1.694   4.556   0.963
 8110SOL    HW225230   1.758   4.462   1.080
 8111SOL     OW25231   2.486   5.638   4.310
 8111SOL    HW125232   2.507   5.567   4.244
 8111SOL    HW225233   2.429   5.600   4.383
 8112SOL     OW25234   2.790   1.230   5.159
 8112SOL    HW125235   2.834   1.155   5.208
 8112SOL    HW225236   2.828   1.317   5.190
 8113SOL     OW25237   3.706   3.087   5.884
 8113SOL    HW125238   3.708   2.991   5.854
 8113SOL    HW225239   3.613   3.121   5.877
 8114SOL     OW25240   2.655   3.783   1.487
 8114SOL    HW125241   2.587   3.803   1.416
 8114SOL    HW225242   2.735   3.741   1.445
 8115SOL     OW25243   3.884   1.765   1.127
 8115SOL    HW125244   3.923   1.742   1.038
 8115SOL    HW225245   3.864   1.863   1.131
 8116SOL     OW25246   6.050   0.897   5.233
 8116SOL    HW125247   6.085   0.944   5.314
 8116SOL    HW225248   6.041   0.799   5.253
 8117SOL     OW25249   2.159   1.944   5.681
 8117SOL    HW125250   2.130   2.035   5.654
 8117SOL    HW225251   2.155   1.883   5.601
 8118SOL     OW25252   1.053   2.679   4.397
 8118SOL    HW125253   1.006   2.755   4.443
 8118SOL    HW225254   1.012   2.665   4.307
 8119SOL     OW25255   1.474   5.788   2.787
 8119SOL    HW125256   1.552   5.785   2.726
 8119SOL    HW225257   1.394   5.823   2.738
 8120SOL     OW25258   4.316   4.106   1.411
 8120SOL    HW125259   4.217   4.118   1.408
 8120SOL    HW225260   4.352   4.154   1.491
 8121SOL     OW25261   6.818   6.930   2.782
 8121SOL    HW125262   6.750   6.884   2.725
 8121SOL    HW225263   6.791   6.921   2.878
 8122SOL     OW25264   0.436   6.463   1.892
 8122SOL    HW125265   0.517   6.470   1.833
 8122SOL    HW225266   0.366   6.527   1.860
 8123SOL     OW25267   0.592   5.499   0.442
 8123SOL    HW125268   0.500   5.462   0.434
 8123SOL    HW225269   0.656   5.438   0.395
 8124SOL     OW25270   0.850   6.097   2.802
 8124SOL    HW125271   0.830   6.166   2.733
 8124SOL    HW225272   0.948   6.094   2.819
 8125SOL     OW25273   5.435   5.517   2.749
 8125SOL    HW125274   5.393   5.451   2.811
 8125SOL    HW225275   5.530   5.531   2.775
 8126SOL     OW25276   5.664   4.583   1.949
 8126SOL    HW125277   5.736   4.513   1.945
 8126SOL    HW225278   5.704   4.672   1.927
 8127SOL     OW25279   3.409   4.212   0.495
 8127SOL    HW125280   3.385   4.175   0.405
 8127SOL    HW225281   3.416   4.137   0.560
 8128SOL     OW25282   3.737   2.481   5.358
 8128SOL    HW125283   3.795   2.554   5.320
 8128SOL    HW225284   3.641   2.504   5.343
 8129SOL     OW25285   4.958   6.992   0.048
 8129SOL    HW125286   4.925   6.925   0.114
 8129SOL    HW225287   4.881   7.024   7.017
 8130SOL     OW25288   1.257   6.646   0.419
 8130SOL    HW125289   1.331   6.615   0.361
 8130SOL    HW225290   1.223   6.569   0.474
 8131SOL     OW25291   1.510   1.559   0.586
 8131SOL    HW125292   1.600   1.545   0.627
 8131SOL    HW225293   1.504   1.507   0.501
 8132SOL     OW25294   6.677   4.769   3.504
 8132SOL    HW125295   6.739   4.740   3.432
 8132SOL    HW225296   6.727   4.825   3.571
 8133SOL     OW25297   1.010   5.828   2.056
 8133SOL    HW125298   1.072   5.894   2.099
 8133SOL    HW225299   0.929   5.816   2.114
 8134SOL     OW25300   2.073   2.457   2.351
 8134SOL    HW125301   2.157   2.462   2.297
 8134SOL    HW225302   1.995   2.439   2.290
 8135SOL     OW25303   4.492   6.286   2.210
 8135SOL    HW125304   4.468   6.382   2.221
 8135SOL    HW225305   4.408   6.232   2.200
 8136SOL     OW25306   4.038   6.462   1.070
 8136SOL    HW125307   4.029   6.376   1.021
 8136SOL    HW225308   3.962   6.522   1.048
 8137SOL     OW25309   2.816   3.685   5.706
 8137SOL    HW125310   2.767   3.607   5.667
 8137SOL    HW225311   2.891   3.711   5.645
 8138SOL     OW25312   4.683   0.633   3.686
 8138SOL    HW125313   4.681   0.544   3.640
 8138SOL    HW225314   4.692   0.706   3.619
 8139SOL     OW25315   1.945   2.786   3.793
 8139SOL    HW125316   1.936   2.806   3.891
 8139SOL    HW225317   1.860   2.809   3.746
 8140SOL     OW25318   4.307   0.457   0.917
 8140SOL    HW125319   4.307   0.533   0.981
 8140SOL    HW225320   4.212   0.432   0.895
 8141SOL     OW25321   5.461   0.679   5.312
 8141SOL    HW125322   5.528   0.752   5.324
 8141SOL    HW225323   5.439   0.670   5.215
 8142SOL     OW25324   2.384   5.702   1.507
 8142SOL    HW125325   2.337   5.615   1.520
 8142SOL    HW225326   2.317   5.773   1.484
 8143SOL     OW25327   6.292   5.460   0.945
 8143SOL    HW125328   6.241   5.390   0.896
 8143SOL    HW225329   6.233   5.503   1.013
 8144SOL     OW25330   6.924   5.056   0.209
 8144SOL    HW125331   6.956   4.975   0.159
 8144SOL    HW225332   6.998   5.090   0.267
 8145SOL     OW25333   5.605   5.218   6.688
 8145SOL    HW125334   5.671   5.280   6.646
 8145SOL    HW225335   5.649   5.169   6.763
 8146SOL     OW25336   6.177   7.014   4.031
 8146SOL    HW125337   6.126   0.048   3.969
 8146SOL    HW225338   6.245   6.963   3.979
 8147SOL     OW25339   2.357   0.863   6.301
 8147SOL    HW125340   2.300   0.810   6.364
 8147SOL    HW225341   2.435   0.901   6.351
 8148SOL     OW25342   4.424   4.691   0.578
 8148SOL    HW125343   4.378   4.613   0.619
 8148SOL    HW225344   4.521   4.691   0.604
 8149SOL     OW25345   0.466   6.564   4.882
 8149SOL    HW125346   0.493   6.578   4.977
 8149SOL    HW225347   0.381   6.613   4.864
 8150SOL     OW25348   0.307   3.947   0.960
 8150SOL    HW125349   0.368   3.934   1.038
 8150SOL    HW225350   0.351   4.005   0.891
 8151SOL     OW25351   6.500   6.311   2.600
 8151SOL    HW125352   6.492   6.388   2.663
 8151SOL    HW225353   6.508   6.226   2.651
 8152SOL     OW25354   4.536   1.112   2.974
 8152SOL    HW125355   4.539   1.140   2.878
 8152SOL    HW225356   4.628   1.093   3.007
 8153SOL     OW25357   0.439   1.480   2.024
 8153SOL    HW125358   0.342   1.501   2.035
 8153SOL    HW225359   0.492   1.530   2.093
 8154SOL     OW25360   1.929   0.106   3.277
 8154SOL    HW125361   1.934   0.053   3.192
 8154SOL    HW225362   1.987   0.063   3.346
 8155SOL     OW25363   1.979   5.242   3.372
 8155SOL    HW125364   1.882   5.267   3.368
 8155SOL    HW225365   1.996   5.187   3.453
 8156SOL     OW25366   0.661   5.175   1.747
 8156SOL    HW125367   0.705   5.257   1.710
 8156SOL    HW225368   0.704   5.151   1.834
 8157SOL     OW25369   0.367   3.495   4.552
 8157SOL    HW125370   0.308   3.462   4.626
 8157SOL    HW225371   0.315   3.560   4.496
 8158SOL     OW25372   6.223   5.454   6.907
 8158SOL    HW125373   6.232   5.552   6.926
 8158SOL    HW225374   6.126   5.430   6.906
 8159SOL     OW25375   3.409   6.962   5.353
 8159SOL    HW125376   3.501   6.990   5.378
 8159SOL    HW225377   3.348   0.016   5.355
 8160SOL     OW25378   5.360   1.213   2.432
 8160SOL    HW125379   5.421   1.266   2.373
 8160SOL    HW225380   5.316   1.141   2.379
 8161SOL     OW25381   5.667   3.333   1.660
 8161SOL    HW125382   5.733   3.364   1.728
 8161SOL    HW225383   5.600   3.406   1.643
 8162SOL     OW25384   0.465   5.330   5.831
 8162SOL    HW125385   0.388   5.266   5.824
 8162SOL    HW225386   0.431   5.424   5.822
 8163SOL     OW25387   4.556   4.514   5.346
 8163SOL    HW125388   4.572   4.420   5.377
 8163SOL    HW225389   4.643   4.564   5.344
 8164SOL     OW25390   5.459   1.851   1.594
 8164SOL    HW125391   5.491   1.940   1.560
 8164SOL    HW225392   5.360   1.854   1.608
 8165SOL     OW25393   6.981   0.858   0.491
 8165SOL    HW125394   6.939   0.777   0.531
 8165SOL    HW225395   0.028   0.831   0.427
 8166SOL     OW25396   1.561   1.661   5.323
 8166SOL    HW125397   1.566   1.561   5.317
 8166SOL    HW225398   1.509   1.696   5.244
 8167SOL     OW25399   1.656   3.075   4.131
 8167SOL    HW125400   1.701   3.111   4.213
 8167SOL    HW225401   1.566   3.039   4.156
 8168SOL     OW25402   1.949   0.787   2.195
 8168SOL    HW125403   2.016   0.806   2.123
 8168SOL    HW225404   1.932   0.870   2.248
 8169SOL     OW25405   5.090   2.543   0.287
 8169SOL    HW125406   5.025   2.490   0.341
 8169SOL    HW225407   5.044   2.622   0.247
 8170SOL     OW25408   6.633   4.842   2.604
 8170SOL    HW125409   6.684   4.913   2.554
 8170SOL    HW225410   6.564   4.803   2.544
 8171SOL     OW25411   1.991   0.988   0.837
 8171SOL    HW125412   1.918   0.992   0.905
 8171SOL    HW225413   2.039   0.901   0.845
 8172SOL     OW25414   0.678   2.588   0.671
 8172SOL    HW125415   0.775   2.562   0.674
 8172SOL    HW225416   0.622   2.506   0.660
 8173SOL     OW25417   5.765   0.974   1.009
 8173SOL    HW125418   5.754   0.911   0.933
 8173SOL    HW225419   5.773   0.923   1.095
 8174SOL     OW25420   3.058   5.371   3.231
 8174SOL    HW125421   3.027   5.279   3.207
 8174SOL    HW225422   3.059   5.428   3.150
 8175SOL     OW25423   0.426   1.243   5.550
 8175SOL    HW125424   0.373   1.255   5.466
 8175SOL    HW225425   0.365   1.216   5.624
 8176SOL     OW25426   2.513   4.469   0.400
 8176SOL    HW125427   2.455   4.431   0.328
 8176SOL    HW225428   2.516   4.405   0.477
 8177SOL     OW25429   3.225   0.974   3.724
 8177SOL    HW125430   3.141   0.981   3.778
 8177SOL    HW225431   3.203   0.949   3.630
 8178SOL     OW25432   2.601   6.694   1.645
 8178SOL    HW125433   2.619   6.619   1.710
 8178SOL    HW225434   2.540   6.760   1.688
 8179SOL     OW25435   5.419   1.178   3.321
 8179SOL    HW125436   5.422   1.230   3.406
 8179SOL    HW225437   5.389   1.084   3.340
 8180SOL     OW25438   5.145   6.638   0.194
 8180SOL    HW125439   5.135   6.630   0.095
 8180SOL    HW225440   5.060   6.608   0.239
 8181SOL     OW25441   0.386   0.412   0.441
 8181SOL    HW125442   0.423   0.414   0.533
 8181SOL    HW225443   0.459   0.433   0.375
 8182SOL     OW25444   2.966   3.745   4.459
 8182SOL    HW125445   3.056   3.702   4.448
 8182SOL    HW225446   2.895   3.678   4.436
 8183SOL     OW25447   0.055   0.022   5.081
 8183SOL    HW125448   0.072   6.949   5.073
 8183SOL    HW225449   0.032   0.044   5.176
 8184SOL     OW25450   0.751   6.101   6.504
 8184SOL    HW125451   0.730   6.142   6.593
 8184SOL    HW225452   0.681   6.034   6.481
 8185SOL     OW25453   0.347   6.419   6.009
 8185SOL    HW125454   0.406   6.339   6.005
 8185SOL    HW225455   0.353   6.461   6.100
 8186SOL     OW25456   1.916   5.758   6.482
 8186SOL    HW125457   1.820   5.779   6.501
 8186SOL    HW225458   1.971   5.779   6.563
 8187SOL     OW25459   0.896   0.715   5.971
 8187SOL    HW125460   0.836   0.769   5.912
 8187SOL    HW225461   0.889   0.749   6.065
 8188SOL     OW25462   2.002   3.041   3.470
 8188SOL    HW125463   2.039   3.122   3.425
 8188SOL    HW225464   1.931   3.068   3.535
 8189SOL     OW25465   5.578   5.501   3.503
 8189SOL    HW125466   5.660   5.504   3.446
 8189SOL    HW225467   5.511   5.440   3.460
 8190SOL     OW25468   0.130   4.065   2.979
 8190SOL    HW125469   0.206   4.113   3.023
 8190SOL    HW225470   0.084   4.006   3.045
 8191SOL     OW25471   3.542   5.664   0.733
 8191SOL    HW125472   3.443   5.649   0.731
 8191SOL    HW225473   3.576   5.648   0.825
 8192SOL     OW25474   0.709   5.267   3.389
 8192SOL    HW125475   0.723   5.169   3.377
 8192SOL    HW225476   0.705   5.289   3.486
 8193SOL     OW25477   0.655   4.389   4.710
 8193SOL    HW125478   0.611   4.479   4.702
 8193SOL    HW225479   0.605   4.333   4.776
 8194SOL     OW25480   4.409   6.433   1.800
 8194SOL    HW125481   4.434   6.491   1.877
 8194SOL    HW225482   4.354   6.356   1.833
 8195SOL     OW25483   6.142   6.295   2.773
 8195SOL    HW125484   6.137   6.316   2.676
 8195SOL    HW225485   6.219   6.233   2.790
 8196SOL     OW25486   4.816   0.786   0.878
 8196SOL    HW125487   4.856   0.797   0.970
 8196SOL    HW225488   4.814   0.875   0.833
 8197SOL     OW25489   3.569   1.576   2.404
 8197SOL    HW125490   3.596   1.560   2.499
 8197SOL    HW225491   3.578   1.491   2.352
 8198SOL     OW25492   1.281   0.193   1.959
 8198SOL    HW125493   1.236   0.240   2.036
 8198SOL    HW225494   1.378   0.216   1.959
 8199SOL     OW25495   5.419   2.697   6.854
 8199SOL    HW125496   5.483   2.712   6.779
 8199SOL    HW225497   5.327   2.682   6.817
 8200SOL     OW25498   4.577   3.177   0.373
 8200SOL    HW125499   4.652   3.240   0.390
 8200SOL    HW225500   4.543   3.141   0.460
 8201SOL     OW25501   5.940   6.726   5.161
 8201SOL    HW125502   5.947   6.751   5.258
 8201SOL    HW225503   5.846   6.736   5.130
 8202SOL     OW25504   0.783   6.966   1.961
 8202SOL    HW125505   0.797   6.890   2.025
 8202SOL    HW225506   0.868   6.983   1.911
 8203SOL     OW25507   1.238   3.604   1.720
 8203SOL    HW125508   1.258   3.522   1.774
 8203SOL    HW225509   1.200   3.576   1.632
 8204SOL     OW25510   3.037   2.676   1.303
 8204SOL    HW125511   2.946   2.634   1.301
 8204SOL    HW225512   3.028   2.774   1.319
 8205SOL     OW25513   1.159   3.685   0.270
 8205SOL    HW125514   1.224   3.686   0.346
 8205SOL    HW225515   1.206   3.655   0.187
 8206SOL     OW25516   3.884   0.424   0.478
 8206SOL    HW125517   3.910   0.347   0.537
 8206SOL    HW225518   3.837   0.389   0.397
 8207SOL     OW25519   4.189   3.454   5.201
 8207SOL    HW125520   4.144   3.440   5.290
 8207SOL    HW225521   4.288   3.457   5.215
 8208SOL     OW25522   2.647   0.336   0.565
 8208SOL    HW125523   2.693   0.375   0.645
 8208SOL    HW225524   2.680   0.381   0.482
 8209SOL     OW25525   6.122   1.443   5.187
 8209SOL    HW125526   6.066   1.360   5.184
 8209SOL    HW225527   6.196   1.436   5.120
 8210SOL     OW25528   1.901   2.768   6.853
 8210SOL    HW125529   1.802   2.755   6.862
 8210SOL    HW225530   1.923   2.785   6.757
 8211SOL     OW25531   3.450   4.327   1.604
 8211SOL    HW125532   3.531   4.300   1.657
 8211SOL    HW225533   3.459   4.294   1.510
 8212SOL     OW25534   1.524   3.142   3.502
 8212SOL    HW125535   1.589   3.135   3.578
 8212SOL    HW225536   1.432   3.124   3.534
 8213SOL     OW25537   0.015   5.089   1.204
 8213SOL    HW125538   0.034   5.110   1.300
 8213SOL    HW225539   0.010   5.174   1.152
 8214SOL     OW25540   5.804   4.060   3.540
 8214SOL    HW125541   5.809   4.159   3.525
 8214SOL    HW225542   5.780   4.014   3.454
 8215SOL     OW25543   3.573   5.571   4.030
 8215SOL    HW125544   3.548   5.475   4.018
 8215SOL    HW225545   3.518   5.627   3.967
 8216SOL     OW25546   5.558   3.999   3.677
 8216SOL    HW125547   5.529   4.047   3.760
 8216SOL    HW225548   5.653   4.023   3.657
 8217SOL     OW25549   2.331   6.286   0.083
 8217SOL    HW125550   2.346   6.267   7.011
 8217SOL    HW225551   2.263   6.359   0.092
 8218SOL     OW25552   0.078   1.810   0.091
 8218SOL    HW125553   0.171   1.837   0.114
 8218SOL    HW225554   0.015   1.883   0.119
 8219SOL     OW25555   6.236   2.090   6.702
 8219SOL    HW125556   6.286   2.075   6.617
 8219SOL    HW225557   6.172   2.015   6.718
 8220SOL     OW25558   3.697   3.597   2.663
 8220SOL    HW125559   3.775   3.536   2.653
 8220SOL    HW225560   3.612   3.544   2.660
 8221SOL     OW25561   5.163   5.952   3.639
 8221SOL    HW125562   5.147   5.940   3.541
 8221SOL    HW225563   5.216   5.874   3.674
 8222SOL     OW25564   5.714   1.742   1.592
 8222SOL    HW125565   5.621   1.777   1.608
 8222SOL    HW225566   5.717   1.693   1.505
 8223SOL     OW25567   0.553   4.776   5.999
 8223SOL    HW125568   0.501   4.860   5.983
 8223SOL    HW225569   0.555   4.721   5.916
 8224SOL     OW25570   1.118   2.878   4.094
 8224SOL    HW125571   1.212   2.854   4.119
 8224SOL    HW225572   1.118   2.926   4.007
 8225SOL     OW25573   4.627   1.526   0.434
 8225SOL    HW125574   4.634   1.430   0.459
 8225SOL    HW225575   4.627   1.582   0.517
 8226SOL     OW25576   4.977   0.383   0.868
 8226SOL    HW125577   5.065   0.428   0.878
 8226SOL    HW225578   4.936   0.370   0.958
 8227SOL     OW25579   6.301   3.408   3.493
 8227SOL    HW125580   6.354   3.416   3.409
 8227SOL    HW225581   6.301   3.313   3.524
 8228SOL     OW25582   6.194   2.864   5.705
 8228SOL    HW125583   6.128   2.930   5.671
 8228SOL    HW225584   6.212   2.796   5.634
 8229SOL     OW25585   3.980   4.970   0.167
 8229SOL    HW125586   4.078   4.981   0.150
 8229SOL    HW225587   3.949   5.044   0.227
 8230SOL     OW25588   5.552   0.765   4.532
 8230SOL    HW125589   5.520   0.810   4.616
 8230SOL    HW225590   5.537   0.826   4.454
 8231SOL     OW25591   4.985   6.236   0.765
 8231SOL    HW125592   4.886   6.222   0.762
 8231SOL    HW225593   5.028   6.184   0.692
 8232SOL     OW25594   3.312   2.352   5.858
 8232SOL    HW125595   3.334   2.260   5.892
 8232SOL    HW225596   3.388   2.385   5.802
 8233SOL     OW25597   0.249   4.905   0.180
 8233SOL    HW125598   0.233   4.862   0.269
 8233SOL    HW225599   0.172   4.884   0.119
 8234SOL     OW25600   3.441   2.192   6.538
 8234SOL    HW125601   3.369   2.230   6.480
 8234SOL    HW225602   3.474   2.262   6.602
 8235SOL     OW25603   3.971   3.522   0.898
 8235SOL    HW125604   3.908   3.473   0.837
 8235SOL    HW225605   3.925   3.603   0.934
 8236SOL     OW25606   5.979   2.817   0.306
 8236SOL    HW125607   5.999   2.906   0.346
 8236SOL    HW225608   5.888   2.787   0.335
 8237SOL     OW25609   4.477   6.453   5.356
 8237SOL    HW125610   4.411   6.526   5.374
 8237SOL    HW225611   4.569   6.491   5.356
 8238SOL     OW25612   2.100   1.902   6.998
 8238SOL    HW125613   2.193   1.937   7.009
 8238SOL    HW225614   2.037   1.978   6.981
 8239SOL     OW25615   0.687   1.670   5.918
 8239SOL    HW125616   0.602   1.703   5.878
 8239SOL    HW225617   0.758   1.667   5.847
 8240SOL     OW25618   3.893   3.982   3.725
 8240SOL    HW125619   3.824   4.029   3.780
 8240SOL    HW225620   3.909   3.891   3.762
 8241SOL     OW25621   3.955   6.720   0.223
 8241SOL    HW125622   3.963   6.722   0.123
 8241SOL    HW225623   4.045   6.706   0.263
 8242SOL     OW25624   0.998   4.283   5.760
 8242SOL    HW125625   0.998   4.364   5.701
 8242SOL    HW225626   1.089   4.240   5.758
 8243SOL     OW25627   0.868   3.553   5.460
 8243SOL    HW125628   0.775   3.553   5.498
 8243SOL    HW225629   0.902   3.459   5.455
 8244SOL     OW25630   0.317   6.640   3.971
 8244SOL    HW125631   0.310   6.542   3.950
 8244SOL    HW225632   0.230   6.684   3.950
 8245SOL     OW25633   3.534   2.526   0.956
 8245SOL    HW125634   3.610   2.475   0.994
 8245SOL    HW225635   3.449   2.475   0.969
 8246SOL     OW25636   5.261   3.548   5.617
 8246SOL    HW125637   5.240   3.615   5.689
 8246SOL    HW225638   5.204   3.566   5.537
 8247SOL     OW25639   1.036   0.481   1.223
 8247SOL    HW125640   1.097   0.491   1.143
 8247SOL    HW225641   0.970   0.555   1.224
 8248SOL     OW25642   5.696   4.535   3.455
 8248SOL    HW125643   5.689   4.628   3.421
 8248SOL    HW225644   5.604   4.497   3.467
 8249SOL     OW25645   2.211   4.897   4.031
 8249SOL    HW125646   2.256   4.850   4.107
 8249SOL    HW225647   2.180   4.829   3.964
 8250SOL     OW25648   4.070   3.736   2.502
 8250SOL    HW125649   4.050   3.798   2.578
 8250SOL    HW225650   4.141   3.671   2.531
 8251SOL     OW25651   6.027   2.176   4.681
 8251SOL    HW125652   6.022   2.265   4.727
 8251SOL    HW225653   6.106   2.173   4.621
 8252SOL     OW25654   1.818   3.063   5.267
 8252SOL    HW125655   1.812   3.060   5.168
 8252SOL    HW225656   1.877   2.989   5.300
 8253SOL     OW25657   3.267   2.768   5.196
 8253SOL    HW125658   3.348   2.825   5.181
 8253SOL    HW225659   3.186   2.814   5.157
 8254SOL     OW25660   3.765   5.766   4.038
 8254SOL    HW125661   3.684   5.708   4.043
 8254SOL    HW225662   3.845   5.713   4.066
 8255SOL     OW25663   4.748   5.407   4.073
 8255SOL    HW125664   4.840   5.378   4.097
 8255SOL    HW225665   4.730   5.383   3.977
 8256SOL     OW25666   6.910   1.791   4.451
 8256SOL    HW125667   6.907   1.701   4.407
 8256SOL    HW225668   6.983   1.793   4.519
 8257SOL     OW25669   6.433   4.456   3.318
 8257SOL    HW125670   6.371   4.501   3.255
 8257SOL    HW225671   6.382   4.394   3.377
 8258SOL     OW25672   4.164   1.354   0.088
 8258SOL    HW125673   4.149   1.412   0.007
 8258SOL    HW225674   4.124   1.399   0.168
 8259SOL     OW25675   3.843   2.130   2.280
 8259SOL    HW125676   3.778   2.162   2.211
 8259SOL    HW225677   3.936   2.150   2.250
 8260SOL     OW25678   2.679   6.134   0.613
 8260SOL    HW125679   2.738   6.203   0.570
 8260SOL    HW225680   2.680   6.051   0.558
 8261SOL     OW25681   5.230   1.307   2.013
 8261SOL    HW125682   5.240   1.208   2.023
 8261SOL    HW225683   5.158   1.340   2.074
 8262SOL     OW25684   1.103   2.514   1.352
 8262SOL    HW125685   1.012   2.476   1.334
 8262SOL    HW225686   1.110   2.604   1.309
 8263SOL     OW25687   6.699   1.580   1.396
 8263SOL    HW125688   6.699   1.656   1.460
 8263SOL    HW225689   6.656   1.608   1.310
 8264SOL     OW25690   2.020   5.077   3.111
 8264SOL    HW125691   1.963   5.143   3.062
 8264SOL    HW225692   2.040   5.110   3.203
 8265SOL     OW25693   1.905   0.524   2.074
 8265SOL    HW125694   1.864   0.578   2.000
 8265SOL    HW225695   1.956   0.585   2.135
 8266SOL     OW25696   3.411   6.752   2.709
 8266SOL    HW125697   3.463   6.769   2.626
 8266SOL    HW225698   3.409   6.836   2.764
 8267SOL     OW25699   1.308   3.284   1.033
 8267SOL    HW125700   1.369   3.303   1.110
 8267SOL    HW225701   1.225   3.339   1.042
 8268SOL     OW25702   2.610   6.564   5.420
 8268SOL    HW125703   2.663   6.647   5.440
 8268SOL    HW225704   2.617   6.500   5.496
 8269SOL     OW25705   6.000   2.061   1.208
 8269SOL    HW125706   5.973   1.975   1.252
 8269SOL    HW225707   5.942   2.077   1.128
 8270SOL     OW25708   3.973   6.494   4.067
 8270SOL    HW125709   3.945   6.405   4.031
 8270SOL    HW225710   3.922   6.567   4.022
 8271SOL     OW25711   6.775   1.583   2.766
 8271SOL    HW125712   6.815   1.506   2.717
 8271SOL    HW225713   6.805   1.581   2.861
 8272SOL     OW25714   3.312   1.095   3.096
 8272SOL    HW125715   3.264   1.106   3.183
 8272SOL    HW225716   3.303   1.000   3.065
 8273SOL     OW25717   2.376   6.308   0.957
 8273SOL    HW125718   2.378   6.211   0.983
 8273SOL    HW225719   2.462   6.352   0.983
 8274SOL     OW25720   5.179   5.374   3.168
 8274SOL    HW125721   5.164   5.307   3.095
 8274SOL    HW225722   5.092   5.394   3.213
 8275SOL     OW25723   4.975   1.919   5.907
 8275SOL    HW125724   4.988   2.018   5.918
 8275SOL    HW225725   5.000   1.873   5.992
 8276SOL     OW25726   1.027   2.036   3.821
 8276SOL    HW125727   0.954   2.086   3.867
 8276SOL    HW225728   0.994   1.945   3.795
 8277SOL     OW25729   0.021   6.817   6.998
 8277SOL    HW125730   0.117   6.844   6.998
 8277SOL    HW225731   6.992   6.881   0.028
 8278SOL     OW25732   2.126   2.153   0.443
 8278SOL    HW125733   2.107   2.061   0.407
 8278SOL    HW225734   2.067   2.219   0.396
 8279SOL     OW25735   0.244   6.107   4.044
 8279SOL    HW125736   0.320   6.046   4.066
 8279SOL    HW225737   0.162   6.077   4.093
 8280SOL     OW25738   3.385   2.854   5.901
 8280SOL    HW125739   3.474   2.822   5.934
 8280SOL    HW225740   3.313   2.824   5.965
 8281SOL     OW25741   0.018   5.592   1.644
 8281SOL    HW125742   0.101   5.648   1.643
 8281SOL    HW225743   0.034   5.507   1.595
 8282SOL     OW25744   5.423   2.201   5.571
 8282SOL    HW125745   5.485   2.206   5.493
 8282SOL    HW225746   5.329   2.188   5.538
 8283SOL     OW25747   2.134   4.203   6.035
 8283SOL    HW125748   2.081   4.243   5.960
 8283SOL    HW225749   2.120   4.104   6.037
 8284SOL     OW25750   6.905   4.479   2.240
 8284SOL    HW125751   6.848   4.412   2.288
 8284SOL    HW225752   6.853   4.520   2.165
 8285SOL     OW25753   3.699   3.147   5.329
 8285SOL    HW125754   3.794   3.117   5.339
 8285SOL    HW225755   3.694   3.219   5.259
 8286SOL     OW25756   6.325   2.135   6.111
 8286SOL    HW125757   6.399   2.199   6.088
 8286SOL    HW225758   6.246   2.187   6.144
 8287SOL     OW25759   1.942   5.543   5.012
 8287SOL    HW125760   1.978   5.563   5.102
 8287SOL    HW225761   1.970   5.451   4.984
 8288SOL     OW25762   2.398   2.709   3.176
 8288SOL    HW125763   2.450   2.633   3.215
 8288SOL    HW225764   2.378   2.776   3.248
 8289SOL     OW25765   0.507   6.188   0.022
 8289SOL    HW125766   0.503   6.288   0.011
 8289SOL    HW225767   0.429   6.158   0.077
 8290SOL     OW25768   6.557   2.406   0.558
 8290SOL    HW125769   6.553   2.443   0.465
 8290SOL    HW225770   6.467   2.373   0.584
 8291SOL     OW25771   4.608   0.235   6.440
 8291SOL    HW125772   4.563   0.310   6.392
 8291SOL    HW225773   4.553   0.207   6.519
 8292SOL     OW25774   3.121   6.594   6.771
 8292SOL    HW125775   3.202   6.536   6.782
 8292SOL    HW225776   3.052   6.545   6.717
 8293SOL     OW25777   5.365   5.859   6.172
 8293SOL    HW125778   5.289   5.817   6.123
 8293SOL    HW225779   5.446   5.862   6.113
 8294SOL     OW25780   5.415   2.408   6.850
 8294SOL    HW125781   5.404   2.507   6.860
 8294SOL    HW225782   5.330   2.362   6.876
 8295SOL     OW25783   4.791   4.147   1.218
 8295SOL    HW125784   4.726   4.201   1.272
 8295SOL    HW225785   4.762   4.144   1.123
 8296SOL     OW25786   2.056   5.601   6.840
 8296SOL    HW125787   2.030   5.506   6.822
 8296SOL    HW225788   2.073   5.613   6.938
 8297SOL     OW25789   6.628   2.549   2.950
 8297SOL    HW125790   6.706   2.605   2.979
 8297SOL    HW225791   6.556   2.608   2.913
 8298SOL     OW25792   4.833   0.928   1.462
 8298SOL    HW125793   4.777   0.940   1.544
 8298SOL    HW225794   4.869   1.017   1.433
 8299SOL     OW25795   6.143   2.058   2.055
 8299SOL    HW125796   6.073   2.011   2.001
 8299SOL    HW225797   6.217   1.994   2.076
 8300SOL     OW25798   0.818   4.831   4.144
 8300SOL    HW125799   0.837   4.908   4.082
 8300SOL    HW225800   0.765   4.863   4.222
 8301SOL     OW25801   3.672   2.780   0.106
 8301SOL    HW125802   3.607   2.853   0.124
 8301SOL    HW225803   3.734   2.808   0.033
 8302SOL     OW25804   5.970   6.213   6.678
 8302SOL    HW125805   6.034   6.138   6.657
 8302SOL    HW225806   5.917   6.235   6.596
 8303SOL     OW25807   0.264   6.696   4.773
 8303SOL    HW125808   0.295   6.787   4.747
 8303SOL    HW225809   0.222   6.652   4.694
 8304SOL     OW25810   0.867   3.899   6.883
 8304SOL    HW125811   0.891   3.994   6.905
 8304SOL    HW225812   0.886   3.881   6.787
 8305SOL     OW25813   3.806   5.248   3.700
 8305SOL    HW125814   3.809   5.148   3.692
 8305SOL    HW225815   3.787   5.273   3.795
 8306SOL     OW25816   0.741   2.837   3.901
 8306SOL    HW125817   0.646   2.831   3.932
 8306SOL    HW225818   0.798   2.870   3.976
 8307SOL     OW25819   4.347   6.029   1.126
 8307SOL    HW125820   4.381   6.052   1.217
 8307SOL    HW225821   4.331   5.930   1.120
 8308SOL     OW25822   3.936   6.750   2.505
 8308SOL    HW125823   3.920   6.685   2.430
 8308SOL    HW225824   3.880   6.724   2.584
 8309SOL     OW25825   5.488   5.657   1.919
 8309SOL    HW125826   5.547   5.735   1.899
 8309SOL    HW225827   5.402   5.666   1.869
 8310SOL     OW25828   6.929   4.688   0.801
 8310SOL    HW125829   6.947   4.590   0.808
 8310SOL    HW225830   7.011   4.735   0.767
 8311SOL     OW25831   6.477   0.713   6.953
 8311SOL    HW125832   6.500   0.625   6.995
 8311SOL    HW225833   6.426   0.769   7.018
 8312SOL     OW25834   5.362   6.915   1.397
 8312SOL    HW125835   5.335   6.840   1.458
 8312SOL    HW225836   5.305   6.995   1.416
 8313SOL     OW25837   3.254   1.525   2.285
 8313SOL    HW125838   3.278   1.483   2.197
 8313SOL    HW225839   3.330   1.512   2.349
 8314SOL     OW25840   6.584   0.571   2.334
 8314SOL    HW125841   6.583   0.489   2.391
 8314SOL    HW225842   6.623   0.549   2.245
 8315SOL     OW25843   5.022   3.627   0.251
 8315SOL    HW125844   5.000   3.570   0.330
 8315SOL    HW225845   5.122   3.630   0.239
 8316SOL     OW25846   1.327   3.991   0.137
 8316SOL    HW125847   1.357   4.011   0.231
 8316SOL    HW225848   1.407   3.984   0.078
 8317SOL     OW25849   2.328   4.327   2.065
 8317SOL    HW125850   2.339   4.327   2.164
 8317SOL    HW225851   2.385   4.399   2.025
 8318SOL     OW25852   4.178   1.307   4.725
 8318SOL    HW125853   4.138   1.258   4.803
 8318SOL    HW225854   4.277   1.292   4.723
 8319SOL     OW25855   3.398   1.235   5.340
 8319SOL    HW125856   3.381   1.308   5.407
 8319SOL    HW225857   3.313   1.212   5.293
 8320SOL     OW25858   2.826   4.386   1.113
 8320SOL    HW125859   2.819   4.346   1.022
 8320SOL    HW225860   2.920   4.417   1.129
 8321SOL     OW25861   0.858   0.013   0.942
 8321SOL    HW125862   0.776   0.012   0.999
 8321SOL    HW225863   0.878   0.106   0.914
 8322SOL     OW25864   6.599   0.017   6.850
 8322SOL    HW125865   6.508   7.001   6.838
 8322SOL    HW225866   6.619   0.026   6.948
 8323SOL     OW25867   0.803   1.610   2.645
 8323SOL    HW125868   0.822   1.580   2.552
 8323SOL    HW225869   0.704   1.615   2.659
 8324SOL     OW25870   6.397   0.729   2.465
 8324SOL    HW125871   6.381   0.809   2.408
 8324SOL    HW225872   6.462   0.668   2.419
 8325SOL     OW25873   3.081   3.403   4.228
 8325SOL    HW125874   3.013   3.354   4.173
 8325SOL    HW225875   3.155   3.342   4.253
 8326SOL     OW25876   4.134   2.866   5.576
 8326SOL    HW125877   4.088   2.807   5.642
 8326SOL    HW225878   4.163   2.950   5.621
 8327SOL     OW25879   5.511   2.488   6.222
 8327SOL    HW125880   5.478   2.575   6.184
 8327SOL    HW225881   5.572   2.443   6.157
 8328SOL     OW25882   2.221   2.105   6.116
 8328SOL    HW125883   2.229   2.200   6.144
 8328SOL    HW225884   2.149   2.060   6.169
 8329SOL     OW25885   6.601   2.794   5.385
 8329SOL    HW125886   6.661   2.860   5.431
 8329SOL    HW225887   6.524   2.842   5.343
 8330SOL     OW25888   1.905   6.477   0.908
 8330SOL    HW125889   1.896   6.466   0.809
 8330SOL    HW225890   1.819   6.508   0.946
 8331SOL     OW25891   2.505   6.706   1.362
 8331SOL    HW125892   2.531   6.785   1.306
 8331SOL    HW225893   2.539   6.719   1.456
 8332SOL     OW25894   4.613   5.243   2.325
 8332SOL    HW125895   4.581   5.335   2.303
 8332SOL    HW225896   4.713   5.240   2.316
 8333SOL     OW25897   0.555   5.447   0.048
 8333SOL    HW125898   0.583   5.534   0.007
 8333SOL    HW225899   0.456   5.434   0.036
 8334SOL     OW25900   6.252   1.740   3.832
 8334SOL    HW125901   6.280   1.721   3.926
 8334SOL    HW225902   6.328   1.783   3.783
 8335SOL     OW25903   6.088   6.175   5.804
 8335SOL    HW125904   6.051   6.268   5.797
 8335SOL    HW225905   6.024   6.118   5.857
 8336SOL     OW25906   1.036   1.754   1.607
 8336SOL    HW125907   1.000   1.699   1.682
 8336SOL    HW225908   0.975   1.747   1.528
 8337SOL     OW25909   0.763   6.303   2.637
 8337SOL    HW125910   0.784   6.366   2.713
 8337SOL    HW225911   0.701   6.348   2.573
 8338SOL     OW25912   1.564   4.689   1.445
 8338SOL    HW125913   1.649   4.695   1.393
 8338SOL    HW225914   1.493   4.742   1.399
 8339SOL     OW25915   5.212   1.900   2.442
 8339SOL    HW125916   5.235   1.915   2.538
 8339SOL    HW225917   5.197   1.803   2.426
 8340SOL     OW25918   4.840   4.140   0.536
 8340SOL    HW125919   4.745   4.110   0.538
 8340SOL    HW225920   4.878   4.127   0.444
 8341SOL     OW25921   2.600   5.814   1.351
 8341SOL    HW125922   2.552   5.885   1.299
 8341SOL    HW225923   2.533   5.747   1.384
 8342SOL     OW25924   4.134   1.079   0.710
 8342SOL    HW125925   4.198   1.067   0.634
 8342SOL    HW225926   4.184   1.110   0.791
 8343SOL     OW25927   1.279   5.193   6.038
 8343SOL    HW125928   1.242   5.111   6.082
 8343SOL    HW225929   1.232   5.274   6.074
 8344SOL     OW25930   4.629   6.320   5.833
 8344SOL    HW125931   4.606   6.406   5.787
 8344SOL    HW225932   4.660   6.339   5.926
 8345SOL     OW25933   6.015   1.203   2.796
 8345SOL    HW125934   6.004   1.117   2.846
 8345SOL    HW225935   5.926   1.241   2.773
 8346SOL     OW25936   2.895   5.574   1.397
 8346SOL    HW125937   2.887   5.662   1.350
 8346SOL    HW225938   2.969   5.520   1.355
 8347SOL     OW25939   3.895   6.983   5.173
 8347SOL    HW125940   3.976   7.018   5.220
 8347SOL    HW225941   3.924   6.927   5.095
 8348SOL     OW25942   0.753   0.763   0.617
 8348SOL    HW125943   0.811   0.810   0.683
 8348SOL    HW225944   0.731   0.671   0.651
 8349SOL     OW25945   5.493   3.918   1.157
 8349SOL    HW125946   5.592   3.925   1.170
 8349SOL    HW225947   5.452   3.881   1.240
 8350SOL     OW25948   6.622   1.144   5.205
 8350SOL    HW125949   6.612   1.049   5.234
 8350SOL    HW225950   6.712   1.179   5.231
 8351SOL     OW25951   3.678   6.288   4.296
 8351SOL    HW125952   3.670   6.259   4.391
 8351SOL    HW225953   3.718   6.213   4.242
 8352SOL     OW25954   6.773   6.218   2.313
 8352SOL    HW125955   6.821   6.161   2.381
 8352SOL    HW225956   6.816   6.207   2.224
 8353SOL     OW25957   6.930   3.250   2.393
 8353SOL    HW125958   7.008   3.219   2.339
 8353SOL    HW225959   6.957   3.259   2.489
 8354SOL     OW25960   2.693   1.070   6.869
 8354SOL    HW125961   2.648   1.082   6.781
 8354SOL    HW225962   2.755   1.147   6.885
 8355SOL     OW25963   3.863   6.931   6.738
 8355SOL    HW125964   3.764   6.928   6.754
 8355SOL    HW225965   3.885   7.013   6.686
 8356SOL     OW25966   2.256   6.020   0.067
 8356SOL    HW125967   2.301   6.105   0.093
 8356SOL    HW225968   2.226   5.972   0.150
 8357SOL     OW25969   4.505   5.876   4.881
 8357SOL    HW125970   4.418   5.916   4.855
 8357SOL    HW225971   4.490   5.788   4.926
 8358SOL     OW25972   1.860   2.896   5.673
 8358SOL    HW125973   1.884   2.808   5.716
 8358SOL    HW225974   1.885   2.894   5.577
 8359SOL     OW25975   4.412   5.209   4.479
 8359SOL    HW125976   4.490   5.211   4.417
 8359SOL    HW225977   4.430   5.269   4.557
 8360SOL     OW25978   5.397   0.052   2.916
 8360SOL    HW125979   5.362   6.985   2.901
 8360SOL    HW225980   5.497   0.051   2.914
 8361SOL     OW25981   1.897   0.528   2.547
 8361SOL    HW125982   1.931   0.552   2.638
 8361SOL    HW225983   1.916   0.432   2.528
 8362SOL     OW25984   2.727   2.066   0.472
 8362SOL    HW125985   2.730   2.086   0.570
 8362SOL    HW225986   2.633   2.067   0.440
 8363SOL     OW25987   0.258   3.084   0.272
 8363SOL    HW125988   0.197   3.026   0.218
 8363SOL    HW225989   0.352   3.051   0.264
 8364SOL     OW25990   6.745   3.751   3.261
 8364SOL    HW125991   6.746   3.653   3.242
 8364SOL    HW225992   6.651   3.785   3.259
 8365SOL     OW25993   1.847   3.442   6.475
 8365SOL    HW125994   1.866   3.540   6.473
 8365SOL    HW225995   1.844   3.411   6.570
 8366SOL     OW25996   3.582   6.637   2.885
 8366SOL    HW125997   3.518   6.569   2.923
 8366SOL    HW225998   3.531   6.712   2.845
 8367SOL     OW25999   5.624   6.446   4.117
 8367SOL    HW126000   5.684   6.423   4.041
 8367SOL    HW226001   5.529   6.443   4.087
 8368SOL     OW26002   2.557   5.654   5.926
 8368SOL    HW126003   2.547   5.562   5.888
 8368SOL    HW226004   2.557   5.721   5.852
 8369SOL     OW26005   1.853   1.349   0.522
 8369SOL    HW126006   1.789   1.275   0.541
 8369SOL    HW226007   1.803   1.430   0.490
 8370SOL     OW26008   1.385   1.547   6.374
 8370SOL    HW126009   1.441   1.590   6.444
 8370SOL    HW226010   1.303   1.509   6.416
 8371SOL     OW26011   1.393   3.012   1.024
 8371SOL    HW126012   1.338   3.093   1.043
 8371SOL    HW226013   1.363   2.971   0.937
 8372SOL     OW26014   6.578   0.816   2.911
 8372SOL    HW126015   6.548   0.908   2.934
 8372SOL    HW226016   6.587   0.807   2.812
 8373SOL     OW26017   1.524   5.788   5.592
 8373SOL    HW126018   1.559   5.804   5.500
 8373SOL    HW226019   1.446   5.725   5.588
 8374SOL     OW26020   6.502   0.153   0.059
 8374SOL    HW126021   6.421   0.141   0.001
 8374SOL    HW226022   6.473   0.154   0.155
 8375SOL     OW26023   3.866   6.861   6.152
 8375SOL    HW126024   3.853   6.872   6.054
 8375SOL    HW226025   3.938   6.794   6.169
 8376SOL     OW26026   2.718   1.160   4.273
 8376SOL    HW126027   2.645   1.112   4.322
 8376SOL    HW226028   2.699   1.258   4.271
 8377SOL     OW26029   5.735   4.618   1.490
 8377SOL    HW126030   5.824   4.574   1.478
 8377SOL    HW226031   5.664   4.563   1.446
 8378SOL     OW26032   4.883   3.157   2.876
 8378SOL    HW126033   4.932   3.243   2.884
 8378SOL    HW226034   4.853   3.126   2.966
 8379SOL     OW26035   6.227   2.865   2.328
 8379SOL    HW126036   6.141   2.816   2.319
 8379SOL    HW226037   6.239   2.926   2.249
 8380SOL     OW26038   4.323   1.821   3.301
 8380SOL    HW126039   4.265   1.826   3.219
 8380SOL    HW226040   4.274   1.859   3.379
 8381SOL     OW26041   1.784   5.353   5.341
 8381SOL    HW126042   1.877   5.316   5.340
 8381SOL    HW226043   1.721   5.285   5.376
 8382SOL     OW26044   1.121   3.148   2.083
 8382SOL    HW126045   1.109   3.247   2.091
 8382SOL    HW226046   1.188   3.128   2.012
 8383SOL     OW26047   2.652   2.407   5.861
 8383SOL    HW126048   2.685   2.490   5.905
 8383SOL    HW226049   2.709   2.330   5.889
 8384SOL     OW26050   0.405   6.755   2.088
 8384SOL    HW126051   0.311   6.787   2.078
 8384SOL    HW226052   0.457   6.777   2.005
 8385SOL     OW26053   5.068   2.704   1.955
 8385SOL    HW126054   5.045   2.771   2.026
 8385SOL    HW226055   4.996   2.704   1.885
 8386SOL     OW26056   0.983   4.302   2.847
 8386SOL    HW126057   1.001   4.226   2.785
 8386SOL    HW226058   1.067   4.353   2.863
 8387SOL     OW26059   0.374   2.999   1.195
 8387SOL    HW126060   0.313   2.963   1.125
 8387SOL    HW226061   0.369   2.941   1.276
 8388SOL     OW26062   2.366   0.851   2.234
 8388SOL    HW126063   2.400   0.768   2.189
 8388SOL    HW226064   2.443   0.911   2.255
 8389SOL     OW26065   5.364   2.902   1.715
 8389SOL    HW126066   5.460   2.874   1.726
 8389SOL    HW226067   5.309   2.822   1.691
 8390SOL     OW26068   5.288   1.898   5.305
 8390SOL    HW126069   5.311   1.845   5.387
 8390SOL    HW226070   5.215   1.851   5.254
 8391SOL     OW26071   6.465   0.762   1.022
 8391SOL    HW126072   6.538   0.700   0.992
 8391SOL    HW226073   6.390   0.758   0.956
 8392SOL     OW26074   5.606   3.162   4.990
 8392SOL    HW126075   5.543   3.167   5.068
 8392SOL    HW226076   5.553   3.165   4.905
 8393SOL     OW26077   5.222   0.122   1.512
 8393SOL    HW126078   5.213   0.221   1.500
 8393SOL    HW226079   5.131   0.080   1.518
 8394SOL     OW26080   6.056   3.291   1.620
 8394SOL    HW126081   6.010   3.204   1.634
 8394SOL    HW226082   6.149   3.275   1.589
 8395SOL     OW26083   1.960   0.952   5.052
 8395SOL    HW126084   2.010   1.027   5.008
 8395SOL    HW226085   1.976   0.954   5.150
 8396SOL     OW26086   4.264   5.881   5.233
 8396SOL    HW126087   4.209   5.943   5.178
 8396SOL    HW226088   4.321   5.824   5.174
 8397SOL     OW26089   6.445   1.035   3.004
 8397SOL    HW126090   6.362   1.024   2.949
 8397SOL    HW226091   6.441   1.123   3.051
 8398SOL     OW26092   5.011   2.183   5.942
 8398SOL    HW126093   4.927   2.236   5.956
 8398SOL    HW226094   5.056   2.216   5.858
 8399SOL     OW26095   0.124   5.029   0.850
 8399SOL    HW126096   0.172   4.996   0.931
 8399SOL    HW226097   0.030   5.055   0.875
 8400SOL     OW26098   1.182   2.267   4.637
 8400SOL    HW126099   1.257   2.234   4.579
 8400SOL    HW226100   1.185   2.218   4.724
 8401SOL     OW26101   2.647   0.228   5.598
 8401SOL    HW126102   2.564   0.276   5.626
 8401SOL    HW226103   2.658   0.145   5.652
 8402SOL     OW26104   4.078   0.773   5.521
 8402SOL    HW126105   4.145   0.847   5.522
 8402SOL    HW226106   3.987   0.810   5.503
 8403SOL     OW26107   6.096   5.356   4.530
 8403SOL    HW126108   6.094   5.455   4.546
 8403SOL    HW226109   6.150   5.337   4.448
 8404SOL     OW26110   1.989   1.731   6.816
 8404SOL    HW126111   1.896   1.702   6.842
 8404SOL    HW226112   2.029   1.785   6.890
 8405SOL     OW26113   4.116   1.114   4.947
 8405SOL    HW126114   4.029   1.155   4.977
 8405SOL    HW226115   4.175   1.100   5.027
 8406SOL     OW26116   4.529   0.816   6.080
 8406SOL    HW126117   4.480   0.901   6.059
 8406SOL    HW226118   4.613   0.838   6.129
 8407SOL     OW26119   3.489   6.977   4.402
 8407SOL    HW126120   3.543   0.035   4.387
 8407SOL    HW226121   3.551   6.899   4.415
 8408SOL     OW26122   4.237   1.178   1.799
 8408SOL    HW126123   4.195   1.121   1.728
 8408SOL    HW226124   4.300   1.243   1.757
 8409SOL     OW26125   4.780   2.520   1.875
 8409SOL    HW126126   4.738   2.434   1.843
 8409SOL    HW226127   4.823   2.566   1.797
 8410SOL     OW26128   6.910   1.635   1.928
 8410SOL    HW126129   6.990   1.690   1.903
 8410SOL    HW226130   6.856   1.683   1.996
 8411SOL     OW26131   1.671   5.706   0.395
 8411SOL    HW126132   1.595   5.725   0.458
 8411SOL    HW226133   1.740   5.777   0.404
 8412SOL     OW26134   3.219   2.594   5.954
 8412SOL    HW126135   3.149   2.621   5.887
 8412SOL    HW226136   3.238   2.496   5.945
 8413SOL     OW26137   3.969   5.366   5.453
 8413SOL    HW126138   3.881   5.388   5.497
 8413SOL    HW226139   4.034   5.337   5.523
 8414SOL     OW26140   1.041   0.912   1.998
 8414SOL    HW126141   0.987   0.933   2.079
 8414SOL    HW226142   1.119   0.855   2.025
 8415SOL     OW26143   2.408   0.549   5.113
 8415SOL    HW126144   2.376   0.475   5.054
 8415SOL    HW226145   2.357   0.632   5.092
 8416SOL     OW26146   6.642   1.621   5.294
 8416SOL    HW126147   6.666   1.714   5.321
 8416SOL    HW226148   6.574   1.584   5.357
 8417SOL     OW26149   1.537   4.201   5.438
 8417SOL    HW126150   1.561   4.292   5.473
 8417SOL    HW226151   1.572   4.191   5.345
 8418SOL     OW26152   1.216   6.312   2.414
 8418SOL    HW126153   1.137   6.276   2.463
 8418SOL    HW226154   1.299   6.263   2.443
 8419SOL     OW26155   4.862   1.488   3.678
 8419SOL    HW126156   4.843   1.500   3.776
 8419SOL    HW226157   4.783   1.517   3.625
 8420SOL     OW26158   2.482   0.116   2.939
 8420SOL    HW126159   2.491   0.214   2.957
 8420SOL    HW226160   2.573   0.075   2.934
 8421SOL     OW26161   4.742   6.334   6.123
 8421SOL    HW126162   4.723   6.396   6.200
 8421SOL    HW226163   4.792   6.254   6.157
 8422SOL     OW26164   4.595   2.469   2.928
 8422SOL    HW126165   4.527   2.467   3.001
 8422SOL    HW226166   4.653   2.550   2.938
 8423SOL     OW26167   6.376   4.820   6.684
 8423SOL    HW126168   6.389   4.728   6.721
 8423SOL    HW226169   6.434   4.832   6.603
 8424SOL     OW26170   2.072   0.190   3.908
 8424SOL    HW126171   2.002   0.257   3.884
 8424SOL    HW226172   2.156   0.239   3.934
 8425SOL     OW26173   4.063   3.253   2.752
 8425SOL    HW126174   4.149   3.290   2.715
 8425SOL    HW226175   4.059   3.271   2.850
 8426SOL     OW26176   3.330   2.959   2.237
 8426SOL    HW126177   3.363   2.926   2.149
 8426SOL    HW226178   3.235   2.989   2.229
 8427SOL     OW26179   3.584   3.888   3.675
 8427SOL    HW126180   3.547   3.845   3.593
 8427SOL    HW226181   3.610   3.818   3.741
 8428SOL     OW26182   6.949   6.905   0.731
 8428SOL    HW126183   6.992   6.865   0.650
 8428SOL    HW226184   6.944   6.837   0.804
 8429SOL     OW26185   1.739   5.512   6.308
 8429SOL    HW126186   1.707   5.590   6.255
 8429SOL    HW226187   1.796   5.453   6.249
 8430SOL     OW26188   3.894   6.800   4.941
 8430SOL    HW126189   3.816   6.743   4.915
 8430SOL    HW226190   3.891   6.886   4.890
 8431SOL     OW26191   3.232   4.024   5.946
 8431SOL    HW126192   3.164   4.095   5.968
 8431SOL    HW226193   3.309   4.032   6.009
 8432SOL     OW26194   6.129   5.575   6.383
 8432SOL    HW126195   6.050   5.604   6.330
 8432SOL    HW226196   6.212   5.584   6.328
 8433SOL     OW26197   5.282   2.753   0.758
 8433SOL    HW126198   5.215   2.710   0.697
 8433SOL    HW226199   5.300   2.694   0.836
 8434SOL     OW26200   2.584   5.824   5.525
 8434SOL    HW126201   2.505   5.820   5.586
 8434SOL    HW226202   2.663   5.859   5.575
 8435SOL     OW26203   4.793   1.136   3.010
 8435SOL    HW126204   4.863   1.065   3.010
 8435SOL    HW226205   4.809   1.198   3.087
 8436SOL     OW26206   2.246   6.166   2.546
 8436SOL    HW126207   2.313   6.148   2.474
 8436SOL    HW226208   2.253   6.261   2.576
 8437SOL     OW26209   2.138   3.865   2.397
 8437SOL    HW126210   2.200   3.787   2.407
 8437SOL    HW226211   2.121   3.881   2.299
 8438SOL     OW26212   1.475   4.172   2.411
 8438SOL    HW126213   1.530   4.252   2.385
 8438SOL    HW226214   1.411   4.198   2.483
 8439SOL     OW26215   6.099   5.391   3.768
 8439SOL    HW126216   6.167   5.443   3.819
 8439SOL    HW226217   6.009   5.432   3.782
 8440SOL     OW26218   1.779   1.212   2.731
 8440SOL    HW126219   1.724   1.137   2.766
 8440SOL    HW226220   1.857   1.175   2.679
 8441SOL     OW26221   5.947   1.059   4.453
 8441SOL    HW126222   5.981   1.095   4.540
 8441SOL    HW226223   5.849   1.077   4.446
 8442SOL     OW26224   3.410   1.453   5.532
 8442SOL    HW126225   3.324   1.411   5.560
 8442SOL    HW226226   3.404   1.552   5.542
 8443SOL     OW26227   1.015   4.061   2.714
 8443SOL    HW126228   0.946   3.994   2.687
 8443SOL    HW226229   1.081   4.019   2.776
 8444SOL     OW26230   4.957   4.934   4.121
 8444SOL    HW126231   4.917   5.021   4.148
 8444SOL    HW226232   5.022   4.948   4.046
 8445SOL     OW26233   4.412   6.227   6.674
 8445SOL    HW126234   4.393   6.131   6.689
 8445SOL    HW226235   4.506   6.247   6.703
 8446SOL     OW26236   6.619   6.043   4.588
 8446SOL    HW126237   6.526   6.075   4.573
 8446SOL    HW226238   6.620   5.982   4.668
 8447SOL     OW26239   3.694   2.045   3.034
 8447SOL    HW126240   3.707   2.107   2.957
 8447SOL    HW226241   3.617   2.077   3.090
 8448SOL     OW26242   4.659   6.305   2.901
 8448SOL    HW126243   4.590   6.369   2.867
 8448SOL    HW226244   4.747   6.325   2.857
 8449SOL     OW26245   2.093   2.552   3.307
 8449SOL    HW126246   2.118   2.457   3.290
 8449SOL    HW226247   2.064   2.562   3.403
 8450SOL     OW26248   0.098   0.876   0.053
 8450SOL    HW126249   0.008   0.841   0.080
 8450SOL    HW226250   0.090   0.971   0.025
 8451SOL     OW26251   4.403   2.468   1.140
 8451SOL    HW126252   4.468   2.450   1.213
 8451SOL    HW226253   4.411   2.564   1.111
 8452SOL     OW26254   5.517   1.990   5.218
 8452SOL    HW126255   5.526   2.089   5.226
 8452SOL    HW226256   5.451   1.957   5.285
 8453SOL     OW26257   0.473   5.872   0.724
 8453SOL    HW126258   0.386   5.909   0.691
 8453SOL    HW226259   0.548   5.909   0.669
 8454SOL     OW26260   7.018   4.049   0.120
 8454SOL    HW126261   6.947   4.033   0.052
 8454SOL    HW226262   6.976   4.081   0.206
 8455SOL     OW26263   0.329   0.530   3.103
 8455SOL    HW126264   0.239   0.574   3.112
 8455SOL    HW226265   0.325   0.461   3.031
 8456SOL     OW26266   6.002   1.210   3.631
 8456SOL    HW126267   5.975   1.278   3.699
 8456SOL    HW226268   5.974   1.119   3.662
 8457SOL     OW26269   6.454   6.554   4.814
 8457SOL    HW126270   6.382   6.513   4.871
 8457SOL    HW226271   6.527   6.488   4.798
 8458SOL     OW26272   0.339   6.337   6.743
 8458SOL    HW126273   0.245   6.318   6.770
 8458SOL    HW226274   0.380   6.401   6.808
 8459SOL     OW26275   1.928   5.918   3.680
 8459SOL    HW126276   2.009   5.863   3.658
 8459SOL    HW226277   1.951   5.985   3.750
 8460SOL     OW26278   3.686   4.190   4.601
 8460SOL    HW126279   3.597   4.201   4.645
 8460SOL    HW226280   3.673   4.182   4.502
 8461SOL     OW26281   6.489   4.032   3.481
 8461SOL    HW126282   6.531   4.022   3.390
 8461SOL    HW226283   6.418   3.962   3.491
 8462SOL     OW26284   1.961   2.754   1.875
 8462SOL    HW126285   1.980   2.851   1.859
 8462SOL    HW226286   1.984   2.731   1.969
 8463SOL     OW26287   5.294   0.995   2.272
 8463SOL    HW126288   5.273   0.990   2.174
 8463SOL    HW226289   5.355   0.919   2.297
 8464SOL     OW26290   6.274   2.552   4.799
 8464SOL    HW126291   6.372   2.554   4.820
 8464SOL    HW226292   6.225   2.505   4.872
 8465SOL     OW26293   1.157   2.350   0.298
 8465SOL    HW126294   1.249   2.326   0.328
 8465SOL    HW226295   1.098   2.270   0.306
 8466SOL     OW26296   0.683   6.198   3.440
 8466SOL    HW126297   0.775   6.162   3.453
 8466SOL    HW226298   0.646   6.227   3.528
 8467SOL     OW26299   2.818   5.295   0.323
 8467SOL    HW126300   2.846   5.378   0.372
 8467SOL    HW226301   2.770   5.321   0.239
 8468SOL     OW26302   4.409   1.633   0.295
 8468SOL    HW126303   4.481   1.588   0.348
 8468SOL    HW226304   4.359   1.697   0.354
 8469SOL     OW26305   3.833   2.315   7.006
 8469SOL    HW126306   3.873   2.398   6.967
 8469SOL    HW226307   3.734   2.317   6.994
 8470SOL     OW26308   2.183   2.362   6.219
 8470SOL    HW126309   2.096   2.370   6.266
 8470SOL    HW226310   2.187   2.427   6.143
 8471SOL     OW26311   3.492   0.914   3.811
 8471SOL    HW126312   3.504   0.822   3.848
 8471SOL    HW226313   3.396   0.926   3.783
 8472SOL     OW26314   1.752   6.224   3.884
 8472SOL    HW126315   1.778   6.321   3.884
 8472SOL    HW226316   1.703   6.203   3.968
 8473SOL     OW26317   6.581   5.493   0.144
 8473SOL    HW126318   6.592   5.400   0.180
 8473SOL    HW226319   6.636   5.503   0.061
 8474SOL     OW26320   3.693   4.043   1.461
 8474SOL    HW126321   3.673   4.032   1.558
 8474SOL    HW226322   3.704   3.953   1.419
 8475SOL     OW26323   4.826   1.089   3.311
 8475SOL    HW126324   4.918   1.050   3.319
 8475SOL    HW226325   4.808   1.148   3.389
 8476SOL     OW26326   4.672   0.235   2.575
 8476SOL    HW126327   4.744   0.305   2.581
 8476SOL    HW226328   4.590   0.274   2.534
 8477SOL     OW26329   3.126   1.269   1.005
 8477SOL    HW126330   3.047   1.210   1.023
 8477SOL    HW226331   3.186   1.270   1.085
 8478SOL     OW26332   1.326   0.482   5.657
 8478SOL    HW126333   1.257   0.506   5.589
 8478SOL    HW226334   1.281   0.447   5.739
 8479SOL     OW26335   5.199   0.968   1.502
 8479SOL    HW126336   5.197   0.875   1.466
 8479SOL    HW226337   5.106   1.000   1.518
 8480SOL     OW26338   1.835   1.145   1.342
 8480SOL    HW126339   1.911   1.167   1.280
 8480SOL    HW226340   1.858   1.174   1.435
 8481SOL     OW26341   4.009   0.236   4.364
 8481SOL    HW126342   3.989   0.306   4.432
 8481SOL    HW226343   4.080   0.175   4.399
 8482SOL     OW26344   0.919   0.208   2.259
 8482SOL    HW126345   0.933   0.110   2.272
 8482SOL    HW226346   0.824   0.231   2.279
 8483SOL     OW26347   4.147   5.984   1.494
 8483SOL    HW126348   4.119   5.890   1.472
 8483SOL    HW226349   4.147   6.038   1.410
 8484SOL     OW26350   1.019   4.757   4.744
 8484SOL    HW126351   1.022   4.729   4.840
 8484SOL    HW226352   1.079   4.836   4.731
 8485SOL     OW26353   2.483   3.302   6.123
 8485SOL    HW126354   2.412   3.306   6.053
 8485SOL    HW226355   2.549   3.230   6.100
 8486SOL     OW26356   4.575   0.837   2.764
 8486SOL    HW126357   4.586   0.763   2.697
 8486SOL    HW226358   4.586   0.925   2.717
 8487SOL     OW26359   4.079   0.137   0.965
 8487SOL    HW126360   4.142   0.060   0.974
 8487SOL    HW226361   4.099   0.205   1.035
 8488SOL     OW26362   5.171   2.897   4.583
 8488SOL    HW126363   5.249   2.960   4.588
 8488SOL    HW226364   5.186   2.833   4.507
 8489SOL     OW26365   4.104   5.211   2.311
 8489SOL    HW126366   4.036   5.284   2.314
 8489SOL    HW226367   4.130   5.184   2.404
 8490SOL     OW26368   4.059   5.423   2.978
 8490SOL    HW126369   4.027   5.513   2.949
 8490SOL    HW226370   4.105   5.431   3.067
 8491SOL     OW26371   2.292   0.954   2.666
 8491SOL    HW126372   2.255   0.964   2.759
 8491SOL    HW226373   2.219   0.926   2.604
 8492SOL     OW26374   5.898   3.114   4.996
 8492SOL    HW126375   5.799   3.114   5.008
 8492SOL    HW226376   5.942   3.093   5.083
 8493SOL     OW26377   3.815   2.153   0.854
 8493SOL    HW126378   3.754   2.190   0.784
 8493SOL    HW226379   3.908   2.186   0.839
 8494SOL     OW26380   4.080   5.780   6.672
 8494SOL    HW126381   4.088   5.685   6.643
 8494SOL    HW226382   4.137   5.838   6.612
 8495SOL     OW26383   6.896   2.372   0.998
 8495SOL    HW126384   6.993   2.354   1.017
 8495SOL    HW226385   6.862   2.303   0.935
 8496SOL     OW26386   6.731   2.988   3.067
 8496SOL    HW126387   6.769   2.919   3.005
 8496SOL    HW226388   6.687   3.060   3.013
 8497SOL     OW26389   6.185   5.776   3.376
 8497SOL    HW126390   6.153   5.690   3.336
 8497SOL    HW226391   6.284   5.785   3.362
 8498SOL     OW26392   0.283   0.727   0.672
 8498SOL    HW126393   0.283   0.691   0.578
 8498SOL    HW226394   0.275   0.826   0.669
 8499SOL     OW26395   3.552   4.242   6.678
 8499SOL    HW126396   3.583   4.155   6.715
 8499SOL    HW226397   3.530   4.231   6.581
 8500SOL     OW26398   3.092   0.642   5.916
 8500SOL    HW126399   3.006   0.684   5.946
 8500SOL    HW226400   3.159   0.713   5.897
 8501SOL     OW26401   2.100   4.058   6.534
 8501SOL    HW126402   2.052   4.065   6.621
 8501SOL    HW226403   2.036   4.070   6.458
 8502SOL     OW26404   6.743   0.778   2.333
 8502SOL    HW126405   6.679   0.855   2.344
 8502SOL    HW226406   6.692   0.692   2.336
 8503SOL     OW26407   2.912   5.697   2.838
 8503SOL    HW126408   2.949   5.638   2.909
 8503SOL    HW226409   2.907   5.647   2.751
 8504SOL     OW26410   1.553   5.913   3.895
 8504SOL    HW126411   1.554   5.939   3.799
 8504SOL    HW226412   1.552   5.813   3.902
 8505SOL     OW26413   5.101   3.206   3.596
 8505SOL    HW126414   5.055   3.230   3.510
 8505SOL    HW226415   5.161   3.282   3.622
 8506SOL     OW26416   1.279   6.392   0.104
 8506SOL    HW126417   1.297   6.306   0.056
 8506SOL    HW226418   1.196   6.383   0.159
 8507SOL     OW26419   1.269   0.931   5.229
 8507SOL    HW126420   1.352   0.894   5.270
 8507SOL    HW226421   1.285   0.951   5.132
 8508SOL     OW26422   1.100   2.165   6.290
 8508SOL    HW126423   1.056   2.249   6.258
 8508SOL    HW226424   1.118   2.105   6.212
 8509SOL     OW26425   6.374   1.920   4.755
 8509SOL    HW126426   6.436   1.849   4.788
 8509SOL    HW226427   6.286   1.880   4.733
 8510SOL     OW26428   5.472   7.013   2.352
 8510SOL    HW126429   5.526   0.055   2.301
 8510SOL    HW226430   5.526   6.930   2.366
 8511SOL     OW26431   6.200   4.558   1.810
 8511SOL    HW126432   6.114   4.605   1.828
 8511SOL    HW226433   6.211   4.544   1.712
 8512SOL     OW26434   4.369   1.783   0.041
 8512SOL    HW126435   4.352   1.730   0.124
 8512SOL    HW226436   4.357   1.881   0.061
 8513SOL     OW26437   6.895   3.922   1.123
 8513SOL    HW126438   6.921   3.951   1.031
 8513SOL    HW226439   6.977   3.911   1.179
 8514SOL     OW26440   2.399   2.263   5.550
 8514SOL    HW126441   2.431   2.193   5.486
 8514SOL    HW226442   2.388   2.223   5.641
 8515SOL     OW26443   1.313   0.482   1.124
 8515SOL    HW126444   1.376   0.533   1.065
 8515SOL    HW226445   1.317   0.518   1.217
 8516SOL     OW26446   5.692   2.319   3.434
 8516SOL    HW126447   5.655   2.237   3.391
 8516SOL    HW226448   5.659   2.324   3.529
 8517SOL     OW26449   1.908   2.194   5.122
 8517SOL    HW126450   1.814   2.178   5.151
 8517SOL    HW226451   1.948   2.266   5.179
 8518SOL     OW26452   5.086   5.005   7.008
 8518SOL    HW126453   5.139   4.924   0.009
 8518SOL    HW226454   5.110   5.032   6.915
 8519SOL     OW26455   1.554   3.631   0.912
 8519SOL    HW126456   1.596   3.674   0.993
 8519SOL    HW226457   1.455   3.626   0.925
 8520SOL     OW26458   4.200   3.675   5.649
 8520SOL    HW126459   4.128   3.615   5.614
 8520SOL    HW226460   4.246   3.720   5.572
 8521SOL     OW26461   2.258   5.867   5.875
 8521SOL    HW126462   2.220   5.798   5.937
 8521SOL    HW226463   2.222   5.957   5.900
 8522SOL     OW26464   1.050   6.182   0.519
 8522SOL    HW126465   1.092   6.266   0.484
 8522SOL    HW226466   1.029   6.121   0.443
 8523SOL     OW26467   2.651   0.822   0.030
 8523SOL    HW126468   2.726   0.881   0.059
 8523SOL    HW226469   2.565   0.872   0.034
 8524SOL     OW26470   2.356   5.619   4.898
 8524SOL    HW126471   2.447   5.630   4.937
 8524SOL    HW226472   2.288   5.661   4.958
 8525SOL     OW26473   6.987   4.372   1.372
 8525SOL    HW126474   6.958   4.321   1.454
 8525SOL    HW226475   6.933   4.341   1.293
 8526SOL     OW26476   2.189   6.234   0.493
 8526SOL    HW126477   2.172   6.135   0.490
 8526SOL    HW226478   2.280   6.251   0.530
 8527SOL     OW26479   3.365   0.756   5.798
 8527SOL    HW126480   3.369   0.748   5.698
 8527SOL    HW226481   3.414   0.838   5.827
 8528SOL     OW26482   4.899   2.093   0.424
 8528SOL    HW126483   4.860   2.004   0.399
 8528SOL    HW226484   4.918   2.146   0.341
 8529SOL     OW26485   1.376   6.188   6.676
 8529SOL    HW126486   1.293   6.237   6.650
 8529SOL    HW226487   1.413   6.138   6.598
 8530SOL     OW26488   3.292   4.148   4.312
 8530SOL    HW126489   3.355   4.217   4.277
 8530SOL    HW226490   3.329   4.057   4.295
 8531SOL     OW26491   6.909   5.436   3.520
 8531SOL    HW126492   6.941   5.490   3.599
 8531SOL    HW226493   6.984   5.426   3.455
 8532SOL     OW26494   2.391   5.587   4.571
 8532SOL    HW126495   2.467   5.546   4.621
 8532SOL    HW226496   2.381   5.683   4.599
 8533SOL     OW26497   1.893   5.812   5.341
 8533SOL    HW126498   1.948   5.761   5.276
 8533SOL    HW226499   1.938   5.812   5.430
 8534SOL     OW26500   3.557   2.058   3.774
 8534SOL    HW126501   3.510   2.109   3.702
 8534SOL    HW226502   3.652   2.042   3.748
 8535SOL     OW26503   6.291   0.713   3.054
 8535SOL    HW126504   6.237   0.790   3.090
 8535SOL    HW226505   6.359   0.686   3.122
 8536SOL     OW26506   0.132   0.922   4.298
 8536SOL    HW126507   0.171   0.923   4.390
 8536SOL    HW226508   0.112   0.827   4.271
 8537SOL     OW26509   6.942   1.282   3.024
 8537SOL    HW126510   6.982   1.287   2.932
 8537SOL    HW226511   6.880   1.205   3.030
 8538SOL     OW26512   1.727   2.473   6.895
 8538SOL    HW126513   1.675   2.553   6.926
 8538SOL    HW226514   1.665   2.410   6.848
 8539SOL     OW26515   6.068   2.623   2.650
 8539SOL    HW126516   6.128   2.546   2.671
 8539SOL    HW226517   6.031   2.661   2.734
 8540SOL     OW26518   4.454   6.748   0.331
 8540SOL    HW126519   4.526   6.748   0.261
 8540SOL    HW226520   4.469   6.824   0.394
 8541SOL     OW26521   1.852   2.400   3.986
 8541SOL    HW126522   1.813   2.422   3.896
 8541SOL    HW226523   1.906   2.477   4.019
 8542SOL     OW26524   4.044   4.419   6.949
 8542SOL    HW126525   4.053   4.445   0.020
 8542SOL    HW226526   3.981   4.482   6.903
 8543SOL     OW26527   2.159   2.679   6.525
 8543SOL    HW126528   2.157   2.597   6.581
 8543SOL    HW226529   2.102   2.666   6.444
 8544SOL     OW26530   6.465   2.901   3.538
 8544SOL    HW126531   6.521   2.854   3.470
 8544SOL    HW226532   6.399   2.836   3.578
 8545SOL     OW26533   5.231   6.636   4.662
 8545SOL    HW126534   5.298   6.561   4.659
 8545SOL    HW226535   5.223   6.676   4.571
 8546SOL     OW26536   4.453   1.634   5.145
 8546SOL    HW126537   4.403   1.706   5.096
 8546SOL    HW226538   4.513   1.677   5.213
 8547SOL     OW26539   1.119   4.297   3.624
 8547SOL    HW126540   1.131   4.209   3.579
 8547SOL    HW226541   1.023   4.311   3.646
 8548SOL     OW26542   5.551   1.346   5.778
 8548SOL    HW126543   5.546   1.396   5.692
 8548SOL    HW226544   5.642   1.304   5.786
 8549SOL     OW26545   6.314   3.650   4.801
 8549SOL    HW126546   6.320   3.745   4.833
 8549SOL    HW226547   6.377   3.593   4.853
 8550SOL     OW26548   1.051   4.038   6.340
 8550SOL    HW126549   0.967   4.003   6.382
 8550SOL    HW226550   1.067   3.991   6.253
 8551SOL     OW26551   3.614   4.231   0.200
 8551SOL    HW126552   3.680   4.238   0.275
 8551SOL    HW226553   3.629   4.306   0.136
 8552SOL     OW26554   2.765   6.623   4.088
 8552SOL    HW126555   2.679   6.617   4.037
 8552SOL    HW226556   2.758   6.568   4.171
 8553SOL     OW26557   5.797   7.002   0.466
 8553SOL    HW126558   5.770   6.916   0.508
 8553SOL    HW226559   5.871   6.985   0.401
 8554SOL     OW26560   6.162   3.530   6.773
 8554SOL    HW126561   6.131   3.594   6.703
 8554SOL    HW226562   6.212   3.580   6.844
 8555SOL     OW26563   1.399   0.138   4.049
 8555SOL    HW126564   1.350   0.152   3.963
 8555SOL    HW226565   1.365   0.202   4.117
 8556SOL     OW26566   6.386   0.305   3.622
 8556SOL    HW126567   6.485   0.305   3.609
 8556SOL    HW226568   6.341   0.315   3.533
 8557SOL     OW26569   0.534   0.531   1.374
 8557SOL    HW126570   0.612   0.587   1.399
 8557SOL    HW226571   0.465   0.536   1.446
 8558SOL     OW26572   1.570   4.853   2.008
 8558SOL    HW126573   1.645   4.789   2.023
 8558SOL    HW226574   1.606   4.946   2.006
 8559SOL     OW26575   1.276   0.337   0.159
 8559SOL    HW126576   1.245   0.263   0.218
 8559SOL    HW226577   1.331   0.300   0.084
 8560SOL     OW26578   6.223   1.770   0.125
 8560SOL    HW126579   6.189   1.780   0.031
 8560SOL    HW226580   6.150   1.793   0.189
 8561SOL     OW26581   4.761   6.427   3.984
 8561SOL    HW126582   4.758   6.410   4.083
 8561SOL    HW226583   4.693   6.497   3.961
 8562SOL     OW26584   3.331   6.746   4.733
 8562SOL    HW126585   3.363   6.729   4.639
 8562SOL    HW226586   3.410   6.759   4.793
 8563SOL     OW26587   2.241   2.760   5.799
 8563SOL    HW126588   2.243   2.804   5.709
 8563SOL    HW226589   2.301   2.680   5.798
 8564SOL     OW26590   0.964   0.337   4.040
 8564SOL    HW126591   1.038   0.387   3.994
 8564SOL    HW226592   0.924   0.272   3.976
 8565SOL     OW26593   3.528   6.751   2.119
 8565SOL    HW126594   3.435   6.789   2.126
 8565SOL    HW226595   3.594   6.825   2.129
 8566SOL     OW26596   2.307   2.810   3.477
 8566SOL    HW126597   2.314   2.789   3.574
 8566SOL    HW226598   2.230   2.872   3.462
 8567SOL     OW26599   4.906   0.332   1.136
 8567SOL    HW126600   4.900   0.233   1.125
 8567SOL    HW226601   4.826   0.365   1.186
 8568SOL     OW26602   4.930   1.296   0.335
 8568SOL    HW126603   4.878   1.212   0.318
 8568SOL    HW226604   4.926   1.354   0.253
 8569SOL     OW26605   4.321   1.732   4.527
 8569SOL    HW126606   4.246   1.675   4.561
 8569SOL    HW226607   4.300   1.828   4.545
 8570SOL     OW26608   0.336   3.771   0.010
 8570SOL    HW126609   0.359   3.690   6.980
 8570SOL    HW226610   0.237   3.776   0.023
 8571SOL     OW26611   6.717   4.283   5.274
 8571SOL    HW126612   6.770   4.234   5.343
 8571SOL    HW226613   6.620   4.260   5.284
 8572SOL     OW26614   2.799   4.689   5.387
 8572SOL    HW126615   2.865   4.640   5.330
 8572SOL    HW226616   2.706   4.661   5.362
 8573SOL     OW26617   3.681   5.825   5.290
 8573SOL    HW126618   3.726   5.902   5.335
 8573SOL    HW226619   3.607   5.859   5.232
 8574SOL     OW26620   0.816   3.942   5.203
 8574SOL    HW126621   0.758   3.940   5.284
 8574SOL    HW226622   0.885   3.870   5.209
 8575SOL     OW26623   3.256   3.461   6.940
 8575SOL    HW126624   3.173   3.517   6.931
 8575SOL    HW226625   3.235   3.377   6.990
 8576SOL     OW26626   1.788   0.197   1.384
 8576SOL    HW126627   1.754   0.191   1.290
 8576SOL    HW226628   1.711   0.191   1.448
 8577SOL     OW26629   6.485   5.939   3.017
 8577SOL    HW126630   6.569   5.968   3.064
 8577SOL    HW226631   6.416   5.914   3.085
 8578SOL     OW26632   4.191   6.957   3.757
 8578SOL    HW126633   4.151   0.022   3.739
 8578SOL    HW226634   4.183   6.899   3.676
 8579SOL     OW26635   1.150   5.365   3.081
 8579SOL    HW126636   1.060   5.406   3.067
 8579SOL    HW226637   1.139   5.266   3.092
 8580SOL     OW26638   2.687   4.391   6.668
 8580SOL    HW126639   2.661   4.297   6.648
 8580SOL    HW226640   2.786   4.402   6.656
 8581SOL     OW26641   2.660   2.488   1.531
 8581SOL    HW126642   2.752   2.452   1.546
 8581SOL    HW226643   2.656   2.583   1.560
 8582SOL     OW26644   4.123   3.770   1.312
 8582SOL    HW126645   4.124   3.693   1.376
 8582SOL    HW226646   4.194   3.835   1.337
 8583SOL     OW26647   6.017   0.018   6.368
 8583SOL    HW126648   6.025   6.980   6.446
 8583SOL    HW226649   5.960   0.096   6.394
 8584SOL     OW26650   6.787   5.462   6.944
 8584SOL    HW126651   6.747   5.457   6.853
 8584SOL    HW226652   6.829   5.374   6.967
 8585SOL     OW26653   0.180   1.719   0.854
 8585SOL    HW126654   0.229   1.710   0.941
 8585SOL    HW226655   0.212   1.802   0.807
 8586SOL     OW26656   4.003   5.609   4.100
 8586SOL    HW126657   3.969   5.532   4.153
 8586SOL    HW226658   4.059   5.575   4.024
 8587SOL     OW26659   6.974   1.828   1.473
 8587SOL    HW126660   6.992   1.753   1.409
 8587SOL    HW226661   6.881   1.820   1.508
 8588SOL     OW26662   4.736   2.622   0.157
 8588SOL    HW126663   4.771   2.573   0.077
 8588SOL    HW226664   4.807   2.683   0.193
 8589SOL     OW26665   3.038   2.184   4.529
 8589SOL    HW126666   2.955   2.233   4.557
 8589SOL    HW226667   3.099   2.175   4.608
 8590SOL     OW26668   6.180   4.522   5.427
 8590SOL    HW126669   6.114   4.535   5.353
 8590SOL    HW226670   6.252   4.591   5.419
 8591SOL     OW26671   1.042   3.105   6.740
 8591SOL    HW126672   0.956   3.068   6.705
 8591SOL    HW226673   1.087   3.158   6.669
 8592SOL     OW26674   5.968   5.437   6.820
 8592SOL    HW126675   5.994   5.506   6.753
 8592SOL    HW226676   5.868   5.431   6.825
 8593SOL     OW26677   1.127   0.348   2.626
 8593SOL    HW126678   1.206   0.352   2.565
 8593SOL    HW226679   1.146   0.401   2.708
 8594SOL     OW26680   3.952   3.335   4.178
 8594SOL    HW126681   3.979   3.427   4.151
 8594SOL    HW226682   3.889   3.297   4.110
 8595SOL     OW26683   1.796   1.802   1.932
 8595SOL    HW126684   1.816   1.814   1.835
 8595SOL    HW226685   1.795   1.704   1.954
 8596SOL     OW26686   6.354   5.165   2.277
 8596SOL    HW126687   6.308   5.238   2.227
 8596SOL    HW226688   6.447   5.194   2.301
 8597SOL     OW26689   1.561   1.230   1.285
 8597SOL    HW126690   1.659   1.242   1.294
 8597SOL    HW226691   1.540   1.132   1.281
 8598SOL     OW26692   5.080   4.850   0.541
 8598SOL    HW126693   5.001   4.821   0.486
 8598SOL    HW226694   5.085   4.796   0.624
 8599SOL     OW26695   1.462   3.433   2.331
 8599SOL    HW126696   1.439   3.452   2.236
 8599SOL    HW226697   1.535   3.494   2.361
 8600SOL     OW26698   6.376   4.498   6.672
 8600SOL    HW126699   6.448   4.443   6.715
 8600SOL    HW226700   6.350   4.457   6.585
 8601SOL     OW26701   0.062   6.793   3.925
 8601SOL    HW126702   7.005   6.735   3.929
 8601SOL    HW226703   0.046   6.877   3.977
 8602SOL     OW26704   3.088   6.380   2.129
 8602SOL    HW126705   3.032   6.421   2.201
 8602SOL    HW226706   3.115   6.450   2.063
 8603SOL     OW26707   4.225   3.277   0.799
 8603SOL    HW126708   4.259   3.197   0.749
 8603SOL    HW226709   4.134   3.300   0.766
 8604SOL     OW26710   5.069   2.876   2.695
 8604SOL    HW126711   5.111   2.798   2.649
 8604SOL    HW226712   5.123   2.900   2.776
 8605SOL     OW26713   2.327   0.009   1.563
 8605SOL    HW126714   2.402   6.996   1.618
 8605SOL    HW226715   2.240   7.019   1.609
 8606SOL     OW26716   4.050   4.719   5.562
 8606SOL    HW126717   3.989   4.762   5.495
 8606SOL    HW226718   4.139   4.702   5.520
 8607SOL     OW26719   4.643   6.011   1.801
 8607SOL    HW126720   4.634   6.074   1.724
 8607SOL    HW226721   4.554   5.973   1.823
 8608SOL     OW26722   4.942   6.132   2.078
 8608SOL    HW126723   4.869   6.066   2.064
 8608SOL    HW226724   4.971   6.169   1.990
 8609SOL     OW26725   3.914   0.784   5.050
 8609SOL    HW126726   3.828   0.765   5.096
 8609SOL    HW226727   3.984   0.806   5.117
 8610SOL     OW26728   0.324   6.360   3.929
 8610SOL    HW126729   0.306   6.330   3.836
 8610SOL    HW226730   0.275   6.301   3.994
 8611SOL     OW26731   1.869   1.955   3.272
 8611SOL    HW126732   1.949   1.898   3.290
 8611SOL    HW226733   1.860   2.024   3.343
 8612SOL     OW26734   4.278   3.062   5.316
 8612SOL    HW126735   4.270   2.964   5.336
 8612SOL    HW226736   4.187   3.099   5.299
 8613SOL     OW26737   1.334   1.171   0.152
 8613SOL    HW126738   1.353   1.260   0.111
 8613SOL    HW226739   1.384   1.162   0.239
 8614SOL     OW26740   0.764   1.553   3.189
 8614SOL    HW126741   0.771   1.465   3.143
 8614SOL    HW226742   0.800   1.625   3.129
 8615SOL     OW26743   4.213   2.731   5.342
 8615SOL    HW126744   4.168   2.793   5.406
 8615SOL    HW226745   4.154   2.653   5.323
 8616SOL     OW26746   1.575   3.640   0.249
 8616SOL    HW126747   1.548   3.668   0.341
 8616SOL    HW226748   1.501   3.586   0.208
 8617SOL     OW26749   5.901   3.022   0.833
 8617SOL    HW126750   5.814   3.058   0.800
 8617SOL    HW226751   5.967   3.096   0.842
 8618SOL     OW26752   4.930   0.573   3.874
 8618SOL    HW126753   4.990   0.646   3.844
 8618SOL    HW226754   4.842   0.579   3.826
 8619SOL     OW26755   4.586   5.710   0.659
 8619SOL    HW126756   4.549   5.617   0.653
 8619SOL    HW226757   4.512   5.776   0.645
 8620SOL     OW26758   6.339   6.617   3.018
 8620SOL    HW126759   6.277   6.594   3.093
 8620SOL    HW226760   6.400   6.691   3.048
 8621SOL     OW26761   6.157   0.932   3.168
 8621SOL    HW126762   6.091   0.954   3.240
 8621SOL    HW226763   6.227   1.004   3.165
 8622SOL     OW26764   5.189   5.263   0.217
 8622SOL    HW126765   5.112   5.318   0.185
 8622SOL    HW226766   5.155   5.193   0.280
 8623SOL     OW26767   6.203   3.577   2.744
 8623SOL    HW126768   6.220   3.479   2.751
 8623SOL    HW226769   6.282   3.622   2.703
 8624SOL     OW26770   0.767   4.987   3.354
 8624SOL    HW126771   0.820   4.911   3.391
 8624SOL    HW226772   0.670   4.971   3.370
 8625SOL     OW26773   3.722   0.629   4.609
 8625SOL    HW126774   3.726   0.640   4.708
 8625SOL    HW226775   3.757   0.711   4.565
 8626SOL     OW26776   2.933   3.740   2.966
 8626SOL    HW126777   2.965   3.821   3.015
 8626SOL    HW226778   2.912   3.764   2.871
 8627SOL     OW26779   1.960   0.209   6.527
 8627SOL    HW126780   2.057   0.186   6.534
 8627SOL    HW226781   1.946   0.304   6.554
 8628SOL     OW26782   5.048   0.959   0.203
 8628SOL    HW126783   5.108   0.995   0.274
 8628SOL    HW226784   4.952   0.975   0.229
 8629SOL     OW26785   1.260   4.596   4.162
 8629SOL    HW126786   1.267   4.634   4.070
 8629SOL    HW226787   1.164   4.594   4.190
 8630SOL     OW26788   5.595   4.590   4.219
 8630SOL    HW126789   5.515   4.535   4.243
 8630SOL    HW226790   5.671   4.567   4.280
 8631SOL     OW26791   3.690   6.109   5.047
 8631SOL    HW126792   3.625   6.044   5.086
 8631SOL    HW226793   3.757   6.059   4.991
 8632SOL     OW26794   4.371   0.403   3.605
 8632SOL    HW126795   4.336   0.496   3.604
 8632SOL    HW226796   4.349   0.358   3.519
 8633SOL     OW26797   6.073   1.174   3.921
 8633SOL    HW126798   6.030   1.235   3.987
 8633SOL    HW226799   6.086   1.084   3.962
 8634SOL     OW26800   6.701   5.176   1.796
 8634SOL    HW126801   6.622   5.171   1.857
 8634SOL    HW226802   6.715   5.087   1.753
 8635SOL     OW26803   6.079   4.173   5.044
 8635SOL    HW126804   6.104   4.124   4.961
 8635SOL    HW226805   6.129   4.135   5.122
 8636SOL     OW26806   5.731   5.482   0.781
 8636SOL    HW126807   5.656   5.547   0.791
 8636SOL    HW226808   5.818   5.531   0.777
 8637SOL     OW26809   2.611   0.400   1.683
 8637SOL    HW126810   2.538   0.359   1.628
 8637SOL    HW226811   2.580   0.489   1.718
 8638SOL     OW26812   3.714   4.979   0.423
 8638SOL    HW126813   3.669   5.021   0.345
 8638SOL    HW226814   3.690   4.882   0.427
 8639SOL     OW26815   6.531   2.951   2.392
 8639SOL    HW126816   6.489   2.936   2.302
 8639SOL    HW226817   6.618   2.903   2.396
 8640SOL     OW26818   5.089   5.918   1.043
 8640SOL    HW126819   5.177   5.936   0.999
 8640SOL    HW226820   5.019   5.904   0.973
 8641SOL     OW26821   5.657   4.812   3.323
 8641SOL    HW126822   5.732   4.789   3.262
 8641SOL    HW226823   5.682   4.891   3.379
 8642SOL     OW26824   4.464   1.387   1.390
 8642SOL    HW126825   4.413   1.425   1.312
 8642SOL    HW226826   4.515   1.460   1.436
 8643SOL     OW26827   4.488   0.663   5.864
 8643SOL    HW126828   4.484   0.735   5.932
 8643SOL    HW226829   4.544   0.693   5.786
 8644SOL     OW26830   6.429   3.546   5.135
 8644SOL    HW126831   6.460   3.525   5.228
 8644SOL    HW226832   6.413   3.644   5.126
 8645SOL     OW26833   5.853   4.889   1.540
 8645SOL    HW126834   5.799   4.807   1.524
 8645SOL    HW226835   5.909   4.909   1.459
 8646SOL     OW26836   5.074   0.952   0.623
 8646SOL    HW126837   5.150   0.924   0.682
 8646SOL    HW226838   5.044   0.874   0.568
 8647SOL     OW26839   4.297   4.792   0.910
 8647SOL    HW126840   4.393   4.782   0.884
 8647SOL    HW226841   4.252   4.855   0.846
 8648SOL     OW26842   5.359   1.865   4.413
 8648SOL    HW126843   5.297   1.827   4.481
 8648SOL    HW226844   5.328   1.957   4.387
 8649SOL     OW26845   6.790   4.581   5.331
 8649SOL    HW126846   6.883   4.597   5.365
 8649SOL    HW226847   6.782   4.486   5.299
 8650SOL     OW26848   1.930   4.862   2.615
 8650SOL    HW126849   1.948   4.948   2.568
 8650SOL    HW226850   2.003   4.844   2.682
 8651SOL     OW26851   3.147   1.430   0.752
 8651SOL    HW126852   3.109   1.381   0.830
 8651SOL    HW226853   3.245   1.441   0.764
 8652SOL     OW26854   1.221   3.334   3.841
 8652SOL    HW126855   1.136   3.366   3.799
 8652SOL    HW226856   1.255   3.404   3.904
 8653SOL     OW26857   6.858   3.398   6.957
 8653SOL    HW126858   6.850   3.317   7.014
 8653SOL    HW226859   6.822   3.379   6.866
 8654SOL     OW26860   0.869   6.880   3.192
 8654SOL    HW126861   0.952   6.897   3.139
 8654SOL    HW226862   0.859   6.950   3.263
 8655SOL     OW26863   5.922   5.798   4.211
 8655SOL    HW126864   5.848   5.750   4.164
 8655SOL    HW226865   5.885   5.876   4.262
 8656SOL     OW26866   5.942   2.266   1.388
 8656SOL    HW126867   5.903   2.197   1.450
 8656SOL    HW226868   5.986   2.220   1.311
 8657SOL     OW26869   3.642   3.983   6.841
 8657SOL    HW126870   3.667   3.893   6.875
 8657SOL    HW226871   3.686   4.053   6.897
 8658SOL     OW26872   6.699   5.192   0.263
 8658SOL    HW126873   6.640   5.118   0.295
 8658SOL    HW226874   6.789   5.155   0.240
 8659SOL     OW26875   5.346   0.532   4.357
 8659SOL    HW126876   5.315   0.619   4.398
 8659SOL    HW226877   5.372   0.469   4.430
 8660SOL     OW26878   5.588   4.470   1.298
 8660SOL    HW126879   5.653   4.418   1.243
 8660SOL    HW226880   5.502   4.421   1.303
 8661SOL     OW26881   6.451   3.818   1.681
 8661SOL    HW126882   6.376   3.776   1.733
 8661SOL    HW226883   6.509   3.746   1.643
 8662SOL     OW26884   0.225   6.777   0.820
 8662SOL    HW126885   0.270   6.865   0.829
 8662SOL    HW226886   0.219   6.752   0.724
 8663SOL     OW26887   2.672   5.511   0.085
 8663SOL    HW126888   2.608   5.566   0.140
 8663SOL    HW226889   2.642   5.512   7.014
 8664SOL     OW26890   4.415   5.518   0.575
 8664SOL    HW126891   4.456   5.470   0.497
 8664SOL    HW226892   4.331   5.471   0.601
 8665SOL     OW26893   5.508   5.328   5.315
 8665SOL    HW126894   5.542   5.242   5.277
 8665SOL    HW226895   5.539   5.404   5.258
 8666SOL     OW26896   5.330   3.099   4.525
 8666SOL    HW126897   5.283   3.174   4.571
 8666SOL    HW226898   5.393   3.137   4.457
 8667SOL     OW26899   4.622   1.753   3.722
 8667SOL    HW126900   4.689   1.818   3.685
 8667SOL    HW226901   4.555   1.730   3.651
 8668SOL     OW26902   4.100   1.835   4.164
 8668SOL    HW126903   4.019   1.846   4.221
 8668SOL    HW226904   4.128   1.739   4.164
 8669SOL     OW26905   4.027   0.634   5.739
 8669SOL    HW126906   4.040   0.669   5.646
 8669SOL    HW226907   3.945   0.578   5.742
 8670SOL     OW26908   3.819   5.319   4.141
 8670SOL    HW126909   3.748   5.388   4.131
 8670SOL    HW226910   3.871   5.336   4.224
 8671SOL     OW26911   5.482   6.744   3.277
 8671SOL    HW126912   5.389   6.756   3.311
 8671SOL    HW226913   5.487   6.776   3.182
 8672SOL     OW26914   3.648   5.000   4.623
 8672SOL    HW126915   3.550   4.988   4.607
 8672SOL    HW226916   3.697   4.993   4.536
 8673SOL     OW26917   5.776   1.963   0.718
 8673SOL    HW126918   5.822   1.896   0.777
 8673SOL    HW226919   5.729   1.916   0.644
 8674SOL     OW26920   0.617   6.916   2.815
 8674SOL    HW126921   0.666   6.900   2.901
 8674SOL    HW226922   0.681   6.950   2.746
 8675SOL     OW26923   1.990   1.133   2.569
 8675SOL    HW126924   2.049   1.054   2.555
 8675SOL    HW226925   2.044   1.217   2.557
 8676SOL     OW26926   4.180   0.318   3.047
 8676SOL    HW126927   4.202   0.234   2.998
 8676SOL    HW226928   4.084   0.315   3.076
 8677SOL     OW26929   2.665   4.407   5.959
 8677SOL    HW126930   2.727   4.333   5.985
 8677SOL    HW226931   2.719   4.485   5.925
 8678SOL     OW26932   1.227   6.758   6.140
 8678SOL    HW126933   1.286   6.834   6.168
 8678SOL    HW226934   1.141   6.761   6.191
 8679SOL     OW26935   6.882   2.494   4.879
 8679SOL    HW126936   6.857   2.420   4.816
 8679SOL    HW226937   6.980   2.491   4.897
 8680SOL     OW26938   1.513   3.306   0.242
 8680SOL    HW126939   1.500   3.350   0.331
 8680SOL    HW226940   1.602   3.332   0.205
 8681SOL     OW26941   3.360   4.048   0.685
 8681SOL    HW126942   3.272   4.031   0.642
 8681SOL    HW226943   3.347   4.069   0.782
 8682SOL     OW26944   1.997   6.056   2.886
 8682SOL    HW126945   2.093   6.065   2.861
 8682SOL    HW226946   1.939   6.097   2.815
 8683SOL     OW26947   6.791   3.178   0.099
 8683SOL    HW126948   6.848   3.191   0.180
 8683SOL    HW226949   6.699   3.212   0.116
 8684SOL     OW26950   6.411   2.889   4.188
 8684SOL    HW126951   6.330   2.944   4.204
 8684SOL    HW226952   6.471   2.935   4.123
 8685SOL     OW26953   1.552   2.293   5.943
 8685SOL    HW126954   1.596   2.383   5.947
 8685SOL    HW226955   1.513   2.279   5.852
 8686SOL     OW26956   6.593   2.673   3.621
 8686SOL    HW126957   6.544   2.587   3.607
 8686SOL    HW226958   6.574   2.707   3.713
 8687SOL     OW26959   3.610   0.005   3.613
 8687SOL    HW126960   3.641   6.986   3.697
 8687SOL    HW226961   3.572   0.095   3.634
 8688SOL     OW26962   2.505   0.676   2.056
 8688SOL    HW126963   2.526   0.732   1.976
 8688SOL    HW226964   2.554   0.589   2.049
 8689SOL     OW26965   4.655   5.820   0.921
 8689SOL    HW126966   4.582   5.779   0.976
 8689SOL    HW226967   4.645   5.790   0.826
 8690SOL     OW26968   0.346   1.621   2.892
 8690SOL    HW126969   0.367   1.523   2.896
 8690SOL    HW226970   0.307   1.650   2.980
 8691SOL     OW26971   5.251   2.182   0.105
 8691SOL    HW126972   5.225   2.185   0.201
 8691SOL    HW226973   5.203   2.254   0.054
 8692SOL     OW26974   2.108   1.651   4.047
 8692SOL    HW126975   2.117   1.551   4.049
 8692SOL    HW226976   2.086   1.685   4.138
 8693SOL     OW26977   5.227   2.337   0.790
 8693SOL    HW126978   5.187   2.312   0.878
 8693SOL    HW226979   5.164   2.311   0.716
 8694SOL     OW26980   5.032   6.950   5.900
 8694SOL    HW126981   5.028   0.018   5.937
 8694SOL    HW226982   5.051   6.954   5.802
 8695SOL     OW26983   4.450   4.508   5.637
 8695SOL    HW126984   4.401   4.525   5.723
 8695SOL    HW226985   4.542   4.546   5.644
 8696SOL     OW26986   2.231   5.398   1.764
 8696SOL    HW126987   2.164   5.324   1.769
 8696SOL    HW226988   2.278   5.396   1.676
 8697SOL     OW26989   6.112   4.181   1.039
 8697SOL    HW126990   6.178   4.244   0.997
 8697SOL    HW226991   6.160   4.114   1.095
 8698SOL     OW26992   5.194   5.677   4.605
 8698SOL    HW126993   5.273   5.623   4.632
 8698SOL    HW226994   5.199   5.767   4.648
 8699SOL     OW26995   1.321   1.906   5.101
 8699SOL    HW126996   1.253   1.839   5.129
 8699SOL    HW226997   1.337   1.970   5.176
 8700SOL     OW26998   3.015   1.301   5.854
 8700SOL    HW126999   2.973   1.384   5.891
 8700SOL    HW227000   3.113   1.318   5.838
 8701SOL     OW27001   0.535   1.745   5.137
 8701SOL    HW127002   0.575   1.822   5.187
 8701SOL    HW227003   0.518   1.773   5.042
 8702SOL     OW27004   5.152   6.103   0.141
 8702SOL    HW127005   5.167   6.016   0.188
 8702SOL    HW227006   5.231   6.163   0.157
 8703SOL     OW27007   2.327   5.787   0.863
 8703SOL    HW127008   2.381   5.777   0.780
 8703SOL    HW227009   2.368   5.732   0.936
 8704SOL     OW27010   0.079   4.203   1.831
 8704SOL    HW127011   7.024   4.172   1.884
 8704SOL    HW227012   0.086   4.303   1.837
 8705SOL     OW27013   5.107   0.606   5.940
 8705SOL    HW127014   5.123   0.578   6.034
 8705SOL    HW227015   5.021   0.658   5.935
 8706SOL     OW27016   5.279   1.409   0.239
 8706SOL    HW127017   5.329   1.360   0.167
 8706SOL    HW227018   5.262   1.503   0.209
 8707SOL     OW27019   5.273   2.456   5.948
 8707SOL    HW127020   5.249   2.376   5.892
 8707SOL    HW227021   5.371   2.473   5.941
 8708SOL     OW27022   3.846   1.430   1.618
 8708SOL    HW127023   3.781   1.409   1.691
 8708SOL    HW227024   3.925   1.479   1.657
 8709SOL     OW27025   0.044   3.929   0.878
 8709SOL    HW127026   7.012   3.848   0.868
 8709SOL    HW227027   0.138   3.902   0.894
 8710SOL     OW27028   1.814   3.374   3.388
 8710SOL    HW127029   1.785   3.337   3.300
 8710SOL    HW227030   1.736   3.420   3.432
 8711SOL     OW27031   6.617   0.798   3.542
 8711SOL    HW127032   6.648   0.835   3.630
 8711SOL    HW227033   6.559   0.865   3.496
 8712SOL     OW27034   3.422   1.563   5.066
 8712SOL    HW127035   3.409   1.548   4.968
 8712SOL    HW227036   3.340   1.533   5.116
 8713SOL     OW27037   0.279   4.741   3.663
 8713SOL    HW127038   0.256   4.654   3.707
 8713SOL    HW227039   0.320   4.723   3.574
 8714SOL     OW27040   1.585   1.407   5.331
 8714SOL    HW127041   1.639   1.364   5.403
 8714SOL    HW227042   1.523   1.339   5.292
 8715SOL     OW27043   6.211   1.777   1.436
 8715SOL    HW127044   6.127   1.806   1.391
 8715SOL    HW227045   6.213   1.814   1.529
 8716SOL     OW27046   1.326   1.948   1.019
 8716SOL    HW127047   1.378   1.874   1.060
 8716SOL    HW227048   1.334   2.030   1.074
 8717SOL     OW27049   3.837   3.550   1.225
 8717SOL    HW127050   3.765   3.483   1.241
 8717SOL    HW227051   3.924   3.513   1.258
 8718SOL     OW27052   6.064   3.307   5.371
 8718SOL    HW127053   6.066   3.212   5.405
 8718SOL    HW227054   5.973   3.346   5.387
 8719SOL     OW27055   0.022   0.291   5.966
 8719SOL    HW127056   6.979   0.322   5.900
 8719SOL    HW227057   7.001   0.245   6.042
 8720SOL     OW27058   4.804   4.003   5.922
 8720SOL    HW127059   4.756   3.980   5.837
 8720SOL    HW227060   4.770   4.090   5.957
 8721SOL     OW27061   0.071   2.367   3.897
 8721SOL    HW127062   0.124   2.282   3.905
 8721SOL    HW227063   0.060   2.390   3.800
 8722SOL     OW27064   3.928   2.341   0.285
 8722SOL    HW127065   4.010   2.398   0.281
 8722SOL    HW227066   3.846   2.398   0.275
 8723SOL     OW27067   6.787   5.012   1.273
 8723SOL    HW127068   6.867   5.054   1.230
 8723SOL    HW227069   6.816   4.937   1.332
 8724SOL     OW27070   5.156   0.488   6.168
 8724SOL    HW127071   5.190   0.402   6.205
 8724SOL    HW227072   5.170   0.561   6.236
 8725SOL     OW27073   2.859   5.729   0.549
 8725SOL    HW127074   2.912   5.664   0.494
 8725SOL    HW227075   2.821   5.682   0.628
 8726SOL     OW27076   6.146   0.529   1.285
 8726SOL    HW127077   6.204   0.454   1.255
 8726SOL    HW227078   6.153   0.605   1.220
 8727SOL     OW27079   6.514   5.952   1.220
 8727SOL    HW127080   6.610   5.978   1.230
 8727SOL    HW227081   6.457   6.011   1.277
 8728SOL     OW27082   2.919   6.983   5.197
 8728SOL    HW127083   3.003   6.933   5.218
 8728SOL    HW227084   2.939   0.056   5.193
 8729SOL     OW27085   5.524   5.924   4.033
 8729SOL    HW127086   5.574   6.001   4.073
 8729SOL    HW227087   5.431   5.922   4.070
 8730SOL     OW27088   0.421   5.740   2.012
 8730SOL    HW127089   0.426   5.818   2.074
 8730SOL    HW227090   0.325   5.715   1.997
 8731SOL     OW27091   1.259   1.323   2.678
 8731SOL    HW127092   1.283   1.360   2.588
 8731SOL    HW227093   1.279   1.392   2.748
 8732SOL     OW27094   5.417   3.851   1.430
 8732SOL    HW127095   5.439   3.753   1.434
 8732SOL    HW227096   5.332   3.864   1.380
 8733SOL     OW27097   1.200   6.599   1.326
 8733SOL    HW127098   1.132   6.600   1.252
 8733SOL    HW227099   1.287   6.565   1.291
 8734SOL     OW27100   6.768   5.763   1.352
 8734SOL    HW127101   6.859   5.738   1.321
 8734SOL    HW227102   6.774   5.808   1.442
 8735SOL     OW27103   6.973   1.690   6.903
 8735SOL    HW127104   0.016   1.713   6.974
 8735SOL    HW227105   7.016   1.629   6.836
 8736SOL     OW27106   0.548   4.530   6.609
 8736SOL    HW127107   0.546   4.549   6.707
 8736SOL    HW227108   0.571   4.434   6.594
 8737SOL     OW27109   4.153   5.986   6.240
 8737SOL    HW127110   4.177   5.915   6.174
 8737SOL    HW227111   4.190   6.074   6.210
 8738SOL     OW27112   0.742   4.003   4.344
 8738SOL    HW127113   0.836   3.998   4.379
 8738SOL    HW227114   0.679   3.966   4.413
 8739SOL     OW27115   0.149   3.098   5.055
 8739SOL    HW127116   0.167   3.001   5.040
 8739SOL    HW227117   0.086   3.132   4.985
 8740SOL     OW27118   2.096   6.306   1.005
 8740SOL    HW127119   2.182   6.338   0.965
 8740SOL    HW227120   2.028   6.379   1.002
 8741SOL     OW27121   1.318   3.676   2.625
 8741SOL    HW127122   1.409   3.713   2.643
 8741SOL    HW227123   1.250   3.731   2.674
 8742SOL     OW27124   4.632   0.053   2.049
 8742SOL    HW127125   4.548   0.007   2.079
 8742SOL    HW227126   4.640   0.142   2.095
 8743SOL     OW27127   2.543   4.912   2.791
 8743SOL    HW127128   2.458   4.884   2.837
 8743SOL    HW227129   2.621   4.870   2.836
 8744SOL     OW27130   3.698   2.046   6.085
 8744SOL    HW127131   3.620   2.053   6.147
 8744SOL    HW227132   3.767   2.115   6.110
 8745SOL     OW27133   6.714   2.470   6.295
 8745SOL    HW127134   6.797   2.508   6.336
 8745SOL    HW227135   6.721   2.370   6.290
 8746SOL     OW27136   5.183   4.765   5.620
 8746SOL    HW127137   5.122   4.689   5.643
 8746SOL    HW227138   5.198   4.767   5.521
 8747SOL     OW27139   1.845   2.281   4.223
 8747SOL    HW127140   1.844   2.312   4.128
 8747SOL    HW227141   1.887   2.351   4.280
 8748SOL     OW27142   1.929   6.757   6.694
 8748SOL    HW127143   1.849   6.697   6.686
 8748SOL    HW227144   1.906   6.836   6.750
 8749SOL     OW27145   3.579   0.478   3.464
 8749SOL    HW127146   3.631   0.410   3.413
 8749SOL    HW227147   3.634   0.514   3.539
 8750SOL     OW27148   2.066   1.390   4.867
 8750SOL    HW127149   2.053   1.424   4.961
 8750SOL    HW227150   2.007   1.310   4.853
 8751SOL     OW27151   1.576   6.803   2.909
 8751SOL    HW127152   1.603   6.893   2.876
 8751SOL    HW227153   1.534   6.812   3.000
 8752SOL     OW27154   1.661   2.182   6.163
 8752SOL    HW127155   1.698   2.256   6.219
 8752SOL    HW227156   1.613   2.221   6.084
 8753SOL     OW27157   5.177   1.775   4.592
 8753SOL    HW127158   5.120   1.819   4.523
 8753SOL    HW227159   5.133   1.783   4.681
 8754SOL     OW27160   1.551   1.728   5.576
 8754SOL    HW127161   1.559   1.711   5.478
 8754SOL    HW227162   1.584   1.649   5.627
 8755SOL     OW27163   1.777   2.056   1.034
 8755SOL    HW127164   1.778   2.152   1.060
 8755SOL    HW227165   1.713   2.006   1.092
 8756SOL     OW27166   2.028   3.532   4.249
 8756SOL    HW127167   1.971   3.451   4.239
 8756SOL    HW227168   2.061   3.538   4.343
 8757SOL     OW27169   4.834   5.876   5.066
 8757SOL    HW127170   4.758   5.938   5.086
 8757SOL    HW227171   4.844   5.809   5.139
 8758SOL     OW27172   6.262   6.304   1.208
 8758SOL    HW127173   6.190   6.373   1.211
 8758SOL    HW227174   6.223   6.217   1.177
 8759SOL     OW27175   5.243   0.717   5.731
 8759SOL    HW127176   5.204   0.694   5.820
 8759SOL    HW227177   5.335   0.754   5.743
 8760SOL     OW27178   1.624   2.026   4.107
 8760SOL    HW127179   1.645   2.116   4.145
 8760SOL    HW227180   1.660   2.019   4.014
 8761SOL     OW27181   4.604   6.796   0.090
 8761SOL    HW127182   4.579   6.851   0.010
 8761SOL    HW227183   4.676   6.844   0.141
 8762SOL     OW27184   0.862   4.037   0.670
 8762SOL    HW127185   0.874   4.135   0.685
 8762SOL    HW227186   0.920   4.008   0.594
 8763SOL     OW27187   0.250   6.297   6.336
 8763SOL    HW127188   0.155   6.290   6.305
 8763SOL    HW227189   0.265   6.235   6.413
 8764SOL     OW27190   4.038   1.758   4.832
 8764SOL    HW127191   4.057   1.743   4.929
 8764SOL    HW227192   3.943   1.731   4.812
 8765SOL     OW27193   6.312   0.278   4.339
 8765SOL    HW127194   6.355   0.299   4.427
 8765SOL    HW227195   6.332   0.183   4.314
 8766SOL     OW27196   2.216   4.642   2.506
 8766SOL    HW127197   2.201   4.725   2.453
 8766SOL    HW227198   2.203   4.661   2.603
 8767SOL     OW27199   4.278   1.227   3.876
 8767SOL    HW127200   4.305   1.151   3.817
 8767SOL    HW227201   4.241   1.301   3.819
 8768SOL     OW27202   1.298   3.270   0.084
 8768SOL    HW127203   1.379   3.242   0.135
 8768SOL    HW227204   1.320   3.276   7.011
 8769SOL     OW27205   1.516   0.293   5.527
 8769SOL    HW127206   1.508   0.250   5.438
 8769SOL    HW227207   1.439   0.355   5.541
 8770SOL     OW27208   5.338   2.593   1.912
 8770SOL    HW127209   5.397   2.565   1.988
 8770SOL    HW227210   5.247   2.618   1.948
 8771SOL     OW27211   1.256   1.506   6.619
 8771SOL    HW127212   1.186   1.435   6.612
 8771SOL    HW227213   1.224   1.578   6.682
 8772SOL     OW27214   5.067   1.008   6.951
 8772SOL    HW127215   5.159   1.030   6.919
 8772SOL    HW227216   5.070   0.991   0.025
 8773SOL     OW27217   2.640   2.351   3.160
 8773SOL    HW127218   2.682   2.368   3.250
 8773SOL    HW227219   2.580   2.272   3.166
 8774SOL     OW27220   1.071   0.765   0.314
 8774SOL    HW127221   1.138   0.816   0.369
 8774SOL    HW227222   1.034   0.690   0.369
 8775SOL     OW27223   6.860   0.044   3.664
 8775SOL    HW127224   6.955   0.049   3.693
 8775SOL    HW227225   6.854   7.023   3.576
 8776SOL     OW27226   3.306   3.247   4.986
 8776SOL    HW127227   3.317   3.160   4.939
 8776SOL    HW227228   3.320   3.322   4.921
 8777SOL     OW27229   6.690   6.317   1.512
 8777SOL    HW127230   6.740   6.403   1.513
 8777SOL    HW227231   6.747   6.245   1.552
 8778SOL     OW27232   0.413   2.316   3.263
 8778SOL    HW127233   0.372   2.278   3.180
 8778SOL    HW227234   0.479   2.387   3.239
 8779SOL     OW27235   1.344   4.618   0.308
 8779SOL    HW127236   1.371   4.633   0.213
 8779SOL    HW227237   1.425   4.617   0.367
 8780SOL     OW27238   1.434   5.903   4.317
 8780SOL    HW127239   1.479   5.828   4.365
 8780SOL    HW227240   1.392   5.965   4.383
 8781SOL     OW27241   0.444   1.849   2.274
 8781SOL    HW127242   0.348   1.830   2.296
 8781SOL    HW227243   0.452   1.941   2.236
 8782SOL     OW27244   3.842   1.648   2.957
 8782SOL    HW127245   3.761   1.706   2.967
 8782SOL    HW227246   3.826   1.560   3.001
 8783SOL     OW27247   5.722   3.434   4.908
 8783SOL    HW127248   5.723   3.334   4.898
 8783SOL    HW227249   5.628   3.467   4.901
 8784SOL     OW27250   5.334   4.420   5.212
 8784SOL    HW127251   5.383   4.491   5.161
 8784SOL    HW227252   5.326   4.447   5.307
 8785SOL     OW27253   5.986   4.746   6.226
 8785SOL    HW127254   6.003   4.712   6.134
 8785SOL    HW227255   6.017   4.679   6.293
 8786SOL     OW27256   2.010   6.659   6.951
 8786SOL    HW127257   1.935   6.688   7.010
 8786SOL    HW227258   1.979   6.660   6.855
 8787SOL     OW27259   0.975   3.655   0.864
 8787SOL    HW127260   0.910   3.686   0.933
 8787SOL    HW227261   0.948   3.690   0.774
 8788SOL     OW27262   1.070   1.688   5.039
 8788SOL    HW127263   0.996   1.713   5.101
 8788SOL    HW227264   1.075   1.754   4.964
 8789SOL     OW27265   0.030   6.548   6.393
 8789SOL    HW127266   0.108   6.499   6.357
 8789SOL    HW227267   6.975   6.487   6.397
 8790SOL     OW27268   5.773   1.573   0.137
 8790SOL    HW127269   5.852   1.571   0.075
 8790SOL    HW227270   5.724   1.659   0.126
 8791SOL     OW27271   4.934   6.720   5.587
 8791SOL    HW127272   4.878   6.679   5.515
 8791SOL    HW227273   5.031   6.704   5.568
 8792SOL     OW27274   5.170   0.183   3.232
 8792SOL    HW127275   5.227   0.265   3.241
 8792SOL    HW227276   5.147   0.168   3.136
 8793SOL     OW27277   0.923   5.831   4.380
 8793SOL    HW127278   0.933   5.759   4.312
 8793SOL    HW227279   0.885   5.793   4.464
 8794SOL     OW27280   2.055   6.672   2.535
 8794SOL    HW127281   2.059   6.574   2.555
 8794SOL    HW227282   1.989   6.689   2.463
 8795SOL     OW27283   1.963   6.046   5.609
 8795SOL    HW127284   1.990   5.951   5.620
 8795SOL    HW227285   2.030   6.106   5.652
 8796SOL     OW27286   5.551   2.551   5.169
 8796SOL    HW127287   5.460   2.535   5.206
 8796SOL    HW227288   5.584   2.468   5.125
 8797SOL     OW27289   0.398   6.549   6.568
 8797SOL    HW127290   0.326   6.618   6.561
 8797SOL    HW227291   0.385   6.496   6.652
 8798SOL     OW27292   4.602   3.769   5.353
 8798SOL    HW127293   4.681   3.825   5.377
 8798SOL    HW227294   4.628   3.702   5.284
 8799SOL     OW27295   3.636   5.508   2.941
 8799SOL    HW127296   3.549   5.539   2.980
 8799SOL    HW227297   3.648   5.411   2.959
 8800SOL     OW27298   4.386   4.974   6.540
 8800SOL    HW127299   4.431   5.064   6.542
 8800SOL    HW227300   4.369   4.944   6.634
 8801SOL     OW27301   2.686   0.506   4.945
 8801SOL    HW127302   2.586   0.509   4.935
 8801SOL    HW227303   2.719   0.414   4.925
 8802SOL     OW27304   2.646   6.694   2.580
 8802SOL    HW127305   2.658   6.596   2.592
 8802SOL    HW227306   2.562   6.712   2.530
 8803SOL     OW27307   4.292   6.263   0.602
 8803SOL    HW127308   4.279   6.172   0.562
 8803SOL    HW227309   4.281   6.257   0.701
 8804SOL     OW27310   4.360   0.490   1.252
 8804SOL    HW127311   4.312   0.554   1.192
 8804SOL    HW227312   4.440   0.534   1.291
 8805SOL     OW27313   0.542   0.443   2.750
 8805SOL    HW127314   0.474   0.413   2.816
 8805SOL    HW227315   0.606   0.507   2.793
 8806SOL     OW27316   1.922   4.829   6.971
 8806SOL    HW127317   1.903   4.738   7.009
 8806SOL    HW227318   1.917   4.825   6.871
 8807SOL     OW27319   1.203   6.201   6.384
 8807SOL    HW127320   1.224   6.151   6.300
 8807SOL    HW227321   1.143   6.144   6.442
 8808SOL     OW27322   6.214   1.042   0.658
 8808SOL    HW127323   6.289   1.053   0.723
 8808SOL    HW227324   6.250   1.033   0.565
 8809SOL     OW27325   5.781   3.912   1.199
 8809SOL    HW127326   5.812   3.869   1.284
 8809SOL    HW227327   5.822   3.864   1.121
 8810SOL     OW27328   4.585   1.834   4.065
 8810SOL    HW127329   4.537   1.753   4.030
 8810SOL    HW227330   4.564   1.846   4.162
 8811SOL     OW27331   0.842   1.055   2.993
 8811SOL    HW127332   0.912   1.020   2.931
 8811SOL    HW227333   0.752   1.041   2.954
 8812SOL     OW27334   2.498   0.566   0.853
 8812SOL    HW127335   2.441   0.588   0.932
 8812SOL    HW227336   2.592   0.594   0.871
 8813SOL     OW27337   1.914   5.400   1.417
 8813SOL    HW127338   1.874   5.351   1.340
 8813SOL    HW227339   1.846   5.464   1.454
 8814SOL     OW27340   5.811   1.092   6.287
 8814SOL    HW127341   5.868   1.076   6.367
 8814SOL    HW227342   5.845   1.172   6.238
 8815SOL     OW27343   0.627   5.851   2.460
 8815SOL    HW127344   0.556   5.920   2.443
 8815SOL    HW227345   0.670   5.869   2.548
 8816SOL     OW27346   1.063   5.563   1.293
 8816SOL    HW127347   1.050   5.577   1.392
 8816SOL    HW227348   1.121   5.636   1.257
 8817SOL     OW27349   1.885   5.187   5.671
 8817SOL    HW127350   1.881   5.285   5.691
 8817SOL    HW227351   1.901   5.174   5.573
 8818SOL     OW27352   0.380   5.256   4.129
 8818SOL    HW127353   0.385   5.336   4.069
 8818SOL    HW227354   0.290   5.213   4.119
 8819SOL     OW27355   4.796   6.697   4.279
 8819SOL    HW127356   4.721   6.750   4.242
 8819SOL    HW227357   4.882   6.724   4.235
 8820SOL     OW27358   1.530   2.700   3.610
 8820SOL    HW127359   1.586   2.733   3.686
 8820SOL    HW227360   1.558   2.606   3.586
 8821SOL     OW27361   2.008   1.070   6.011
 8821SOL    HW127362   2.106   1.078   6.024
 8821SOL    HW227363   1.987   1.067   5.913
 8822SOL     OW27364   6.840   2.688   3.068
 8822SOL    HW127365   6.893   2.763   3.107
 8822SOL    HW227366   6.887   2.602   3.085
 8823SOL     OW27367   2.139   6.014   1.930
 8823SOL    HW127368   2.054   6.039   1.882
 8823SOL    HW227369   2.116   5.965   2.014
 8824SOL     OW27370   3.636   4.052   0.719
 8824SOL    HW127371   3.538   4.034   0.729
 8824SOL    HW227372   3.665   4.029   0.626
 8825SOL     OW27373   1.145   1.432   1.450
 8825SOL    HW127374   1.189   1.427   1.539
 8825SOL    HW227375   1.208   1.470   1.383
 8826SOL     OW27376   5.155   1.444   6.927
 8826SOL    HW127377   5.185   1.364   6.978
 8826SOL    HW227378   5.089   1.496   6.981
 8827SOL     OW27379   1.185   1.745   3.548
 8827SOL    HW127380   1.157   1.840   3.555
 8827SOL    HW227381   1.104   1.687   3.539
 8828SOL     OW27382   2.513   6.798   2.914
 8828SOL    HW127383   2.490   6.791   3.011
 8828SOL    HW227384   2.610   6.779   2.901
 8829SOL     OW27385   0.189   1.834   0.504
 8829SOL    HW127386   0.213   1.900   0.432
 8829SOL    HW227387   0.093   1.809   0.495
 8830SOL     OW27388   0.582   2.478   1.101
 8830SOL    HW127389   0.511   2.457   1.034
 8830SOL    HW227390   0.625   2.565   1.078
 8831SOL     OW27391   6.569   0.455   2.686
 8831SOL    HW127392   6.480   0.473   2.729
 8831SOL    HW227393   6.642   0.475   2.752
 8832SOL     OW27394   6.822   1.006   2.546
 8832SOL    HW127395   6.778   1.085   2.589
 8832SOL    HW227396   6.884   1.037   2.474
 8833SOL     OW27397   2.198   4.553   4.086
 8833SOL    HW127398   2.135   4.557   4.164
 8833SOL    HW227399   2.289   4.526   4.118
 8834SOL     OW27400   6.029   3.935   4.847
 8834SOL    HW127401   5.996   4.009   4.789
 8834SOL    HW227402   6.047   3.854   4.792
 8835SOL     OW27403   6.927   6.423   6.720
 8835SOL    HW127404   6.927   6.511   6.768
 8835SOL    HW227405   6.999   6.365   6.758
 8836SOL     OW27406   4.982   1.650   0.772
 8836SOL    HW127407   4.945   1.743   0.768
 8836SOL    HW227408   4.962   1.603   0.686
 8837SOL     OW27409   0.314   1.017   1.721
 8837SOL    HW127410   0.379   1.093   1.729
 8837SOL    HW227411   0.222   1.050   1.743
 8838SOL     OW27412   2.608   5.779   4.017
 8838SOL    HW127413   2.616   5.864   4.068
 8838SOL    HW227414   2.513   5.764   3.990
 8839SOL     OW27415   6.524   6.411   3.908
 8839SOL    HW127416   6.532   6.362   3.821
 8839SOL    HW227417   6.448   6.373   3.960
 8840SOL     OW27418   5.081   1.984   2.209
 8840SOL    HW127419   5.116   1.956   2.298
 8840SOL    HW227420   5.013   2.056   2.221
 8841SOL     OW27421   1.740   0.852   4.694
 8841SOL    HW127422   1.808   0.923   4.675
 8841SOL    HW227423   1.653   0.877   4.651
 8842SOL     OW27424   2.092   3.033   1.934
 8842SOL    HW127425   2.170   3.066   1.881
 8842SOL    HW227426   2.119   3.023   2.030
 8843SOL     OW27427   0.099   3.188   4.659
 8843SOL    HW127428   0.135   3.108   4.706
 8843SOL    HW227429   0.146   3.270   4.692
 8844SOL     OW27430   6.639   1.550   6.730
 8844SOL    HW127431   6.598   1.618   6.791
 8844SOL    HW227432   6.710   1.500   6.780
 8845SOL     OW27433   5.309   4.307   6.990
 8845SOL    HW127434   5.365   4.339   6.914
 8845SOL    HW227435   5.212   4.326   6.971
 8846SOL     OW27436   1.899   4.673   3.782
 8846SOL    HW127437   1.833   4.714   3.845
 8846SOL    HW227438   1.855   4.595   3.736
 8847SOL     OW27439   2.764   0.455   2.887
 8847SOL    HW127440   2.688   0.393   2.910
 8847SOL    HW227441   2.828   0.409   2.826
 8848SOL     OW27442   1.803   0.460   3.010
 8848SOL    HW127443   1.785   0.399   2.933
 8848SOL    HW227444   1.858   0.537   2.980
 8849SOL     OW27445   3.004   6.959   0.915
 8849SOL    HW127446   3.002   6.993   0.821
 8849SOL    HW227447   2.961   0.000   0.976
 8850SOL     OW27448   3.859   2.811   6.937
 8850SOL    HW127449   3.799   2.795   6.859
 8850SOL    HW227450   3.947   2.846   6.906
 8851SOL     OW27451   1.343   3.652   2.983
 8851SOL    HW127452   1.382   3.573   2.936
 8851SOL    HW227453   1.262   3.683   2.934
 8852SOL     OW27454   0.963   1.619   5.812
 8852SOL    HW127455   0.988   1.527   5.839
 8852SOL    HW227456   0.988   1.683   5.885
 8853SOL     OW27457   4.955   1.220   0.878
 8853SOL    HW127458   4.985   1.238   0.972
 8853SOL    HW227459   5.024   1.255   0.814
 8854SOL     OW27460   0.603   2.393   4.630
 8854SOL    HW127461   0.684   2.447   4.607
 8854SOL    HW227462   0.620   2.296   4.610
 8855SOL     OW27463   5.558   5.055   0.803
 8855SOL    HW127464   5.637   5.070   0.862
 8855SOL    HW227465   5.525   4.961   0.813
 8856SOL     OW27466   6.930   6.560   5.592
 8856SOL    HW127467   6.927   6.478   5.650
 8856SOL    HW227468   7.025   6.592   5.585
 8857SOL     OW27469   6.476   1.429   6.033
 8857SOL    HW127470   6.399   1.450   6.095
 8857SOL    HW227471   6.470   1.334   6.004
 8858SOL     OW27472   5.817   6.000   4.386
 8858SOL    HW127473   5.740   5.943   4.413
 8858SOL    HW227474   5.810   6.089   4.431
 8859SOL     OW27475   0.948   6.813   3.821
 8859SOL    HW127476   0.973   6.905   3.851
 8859SOL    HW227477   1.030   6.763   3.793
 8860SOL     OW27478   0.379   4.127   2.698
 8860SOL    HW127479   0.281   4.112   2.704
 8860SOL    HW227480   0.398   4.223   2.678
 8861SOL     OW27481   4.567   2.773   0.852
 8861SOL    HW127482   4.564   2.870   0.877
 8861SOL    HW227483   4.475   2.742   0.826
 8862SOL     OW27484   4.850   4.588   4.816
 8862SOL    HW127485   4.940   4.594   4.859
 8862SOL    HW227486   4.781   4.568   4.885
 8863SOL     OW27487   2.220   3.958   3.598
 8863SOL    HW127488   2.125   3.989   3.596
 8863SOL    HW227489   2.245   3.932   3.691
 8864SOL     OW27490   6.238   1.669   5.319
 8864SOL    HW127491   6.224   1.708   5.228
 8864SOL    HW227492   6.149   1.646   5.360
 8865SOL     OW27493   2.570   1.656   0.427
 8865SOL    HW127494   2.476   1.624   0.433
 8865SOL    HW227495   2.630   1.593   0.477
 8866SOL     OW27496   5.928   6.791   2.107
 8866SOL    HW127497   5.877   6.802   2.192
 8866SOL    HW227498   5.953   6.881   2.070
 8867SOL     OW27499   6.163   4.037   2.707
 8867SOL    HW127500   6.068   4.044   2.738
 8867SOL    HW227501   6.169   3.971   2.632
 8868SOL     OW27502   6.856   3.204   3.595
 8868SOL    HW127503   6.777   3.169   3.544
 8868SOL    HW227504   6.910   3.127   3.629
 8869SOL     OW27505   3.658   6.938   3.360
 8869SOL    HW127506   3.632   6.974   3.450
 8869SOL    HW227507   3.656   6.838   3.362
 8870SOL     OW27508   1.047   0.727   2.991
 8870SOL    HW127509   1.129   0.732   3.047
 8870SOL    HW227510   1.045   0.804   2.927
 8871SOL     OW27511   6.817   0.539   2.823
 8871SOL    HW127512   6.825   0.557   2.725
 8871SOL    HW227513   6.888   0.590   2.872
 8872SOL     OW27514   6.172   4.678   3.970
 8872SOL    HW127515   6.127   4.761   4.003
 8872SOL    HW227516   6.266   4.676   4.004
 8873SOL     OW27517   2.264   1.661   2.669
 8873SOL    HW127518   2.261   1.669   2.569
 8873SOL    HW227519   2.188   1.605   2.700
 8874SOL     OW27520   3.381   6.417   1.082
 8874SOL    HW127521   3.304   6.407   1.019
 8874SOL    HW227522   3.378   6.343   1.150
 8875SOL     OW27523   6.704   3.297   3.971
 8875SOL    HW127524   6.701   3.366   3.899
 8875SOL    HW227525   6.686   3.340   4.059
 8876SOL     OW27526   4.252   0.303   6.459
 8876SOL    HW127527   4.333   0.362   6.466
 8876SOL    HW227528   4.235   0.281   6.363
 8877SOL     OW27529   1.390   3.969   1.298
 8877SOL    HW127530   1.401   3.874   1.327
 8877SOL    HW227531   1.335   4.019   1.365
 8878SOL     OW27532   4.752   3.650   1.092
 8878SOL    HW127533   4.845   3.641   1.055
 8878SOL    HW227534   4.712   3.559   1.103
 8879SOL     OW27535   6.533   4.957   3.143
 8879SOL    HW127536   6.499   5.043   3.104
 8879SOL    HW227537   6.628   4.943   3.116
 8880SOL     OW27538   4.254   1.000   3.731
 8880SOL    HW127539   4.318   0.975   3.804
 8880SOL    HW227540   4.293   0.977   3.642
 8881SOL     OW27541   4.190   4.724   4.321
 8881SOL    HW127542   4.150   4.632   4.320
 8881SOL    HW227543   4.234   4.740   4.410
 8882SOL     OW27544   4.392   0.550   0.567
 8882SOL    HW127545   4.430   0.478   0.625
 8882SOL    HW227546   4.325   0.603   0.618
 8883SOL     OW27547   6.777   6.005   5.192
 8883SOL    HW127548   6.811   6.008   5.098
 8883SOL    HW227549   6.712   6.079   5.207
 8884SOL     OW27550   5.263   3.284   5.087
 8884SOL    HW127551   5.198   3.343   5.136
 8884SOL    HW227552   5.221   3.253   5.002
 8885SOL     OW27553   5.826   6.107   0.820
 8885SOL    HW127554   5.876   6.183   0.779
 8885SOL    HW227555   5.876   6.074   0.900
 8886SOL     OW27556   4.601   6.438   6.485
 8886SOL    HW127557   4.569   6.344   6.477
 8886SOL    HW227558   4.539   6.499   6.437
 8887SOL     OW27559   4.638   0.731   2.061
 8887SOL    HW127560   4.655   0.776   2.149
 8887SOL    HW227561   4.571   0.658   2.074
 8888SOL     OW27562   2.735   1.988   2.574
 8888SOL    HW127563   2.771   1.967   2.665
 8888SOL    HW227564   2.732   2.087   2.560
 8889SOL     OW27565   1.192   5.672   6.417
 8889SOL    HW127566   1.273   5.614   6.412
 8889SOL    HW227567   1.206   5.746   6.482
 8890SOL     OW27568   0.694   6.578   0.181
 8890SOL    HW127569   0.632   6.508   0.217
 8890SOL    HW227570   0.642   6.639   0.121
 8891SOL     OW27571   6.297   3.929   6.538
 8891SOL    HW127572   6.310   3.971   6.448
 8891SOL    HW227573   6.373   3.953   6.598
 8892SOL     OW27574   3.168   5.484   4.470
 8892SOL    HW127575   3.110   5.565   4.478
 8892SOL    HW227576   3.135   5.426   4.396
 8893SOL     OW27577   1.057   5.380   5.030
 8893SOL    HW127578   0.984   5.315   5.050
 8893SOL    HW227579   1.137   5.360   5.087
 8894SOL     OW27580   5.061   1.963   1.037
 8894SOL    HW127581   5.067   2.010   0.949
 8894SOL    HW227582   5.106   2.017   1.107
 8895SOL     OW27583   0.180   3.467   0.521
 8895SOL    HW127584   0.262   3.460   0.579
 8895SOL    HW227585   0.184   3.551   0.468
 8896SOL     OW27586   0.336   2.330   4.511
 8896SOL    HW127587   0.408   2.377   4.563
 8896SOL    HW227588   0.247   2.356   4.547
 8897SOL     OW27589   1.523   4.232   4.515
 8897SOL    HW127590   1.575   4.180   4.583
 8897SOL    HW227591   1.580   4.305   4.478
 8898SOL     OW27592   4.430   4.690   2.871
 8898SOL    HW127593   4.351   4.681   2.811
 8898SOL    HW227594   4.469   4.782   2.862
 8899SOL     OW27595   0.930   3.579   4.610
 8899SOL    HW127596   0.837   3.552   4.638
 8899SOL    HW227597   0.994   3.557   4.683
 8900SOL     OW27598   5.042   2.460   3.839
 8900SOL    HW127599   5.020   2.362   3.840
 8900SOL    HW227600   5.015   2.499   3.752
 8901SOL     OW27601   1.438   3.822   4.759
 8901SOL    HW127602   1.409   3.763   4.683
 8901SOL    HW227603   1.524   3.867   4.736
 8902SOL     OW27604   0.469   4.493   0.235
 8902SOL    HW127605   0.473   4.451   0.325
 8902SOL    HW227606   0.452   4.423   0.166
 8903SOL     OW27607   1.253   6.597   5.421
 8903SOL    HW127608   1.352   6.608   5.424
 8903SOL    HW227609   1.216   6.650   5.345
 8904SOL     OW27610   0.306   0.843   3.457
 8904SOL    HW127611   0.367   0.807   3.528
 8904SOL    HW227612   0.355   0.849   3.370
 8905SOL     OW27613   0.849   3.835   2.567
 8905SOL    HW127614   0.767   3.810   2.619
 8905SOL    HW227615   0.858   3.775   2.487
 8906SOL     OW27616   6.295   6.846   0.040
 8906SOL    HW127617   6.220   6.895   7.020
 8906SOL    HW227618   6.274   6.835   0.137
 8907SOL     OW27619   2.777   3.579   5.338
 8907SOL    HW127620   2.784   3.670   5.299
 8907SOL    HW227621   2.808   3.511   5.271
 8908SOL     OW27622   1.546   5.196   7.014
 8908SOL    HW127623   1.575   5.147   0.072
 8908SOL    HW227624   1.498   5.280   0.015
 8909SOL     OW27625   2.196   6.873   0.993
 8909SOL    HW127626   2.110   6.899   1.038
 8909SOL    HW227627   2.177   6.804   0.923
 8910SOL     OW27628   1.982   0.358   3.207
 8910SOL    HW127629   1.958   0.266   3.240
 8910SOL    HW227630   1.918   0.386   3.137
 8911SOL     OW27631   4.313   2.407   3.898
 8911SOL    HW127632   4.308   2.308   3.884
 8911SOL    HW227633   4.266   2.431   3.983
 8912SOL     OW27634   3.666   3.685   4.333
 8912SOL    HW127635   3.694   3.693   4.237
 8912SOL    HW227636   3.626   3.595   4.349
 8913SOL     OW27637   5.472   6.661   6.638
 8913SOL    HW127638   5.418   6.745   6.645
 8913SOL    HW227639   5.423   6.587   6.685
 8914SOL     OW27640   4.568   5.110   6.299
 8914SOL    HW127641   4.509   5.033   6.274
 8914SOL    HW227642   4.645   5.115   6.236
 8915SOL     OW27643   1.511   1.262   3.293
 8915SOL    HW127644   1.554   1.329   3.353
 8915SOL    HW227645   1.439   1.213   3.343
 8916SOL     OW27646   4.611   1.517   1.026
 8916SOL    HW127647   4.582   1.436   0.976
 8916SOL    HW227648   4.708   1.535   1.007
 8917SOL     OW27649   6.124   1.881   0.884
 8917SOL    HW127650   6.221   1.858   0.881
 8917SOL    HW227651   6.108   1.966   0.833
 8918SOL     OW27652   0.919   3.563   2.865
 8918SOL    HW127653   0.948   3.494   2.931
 8918SOL    HW227654   0.943   3.533   2.773
 8919SOL     OW27655   6.324   3.536   1.595
 8919SOL    HW127656   6.263   3.599   1.644
 8919SOL    HW227657   6.323   3.447   1.640
 8920SOL     OW27658   6.529   1.357   0.264
 8920SOL    HW127659   6.456   1.421   0.287
 8920SOL    HW227660   6.497   1.293   0.194
 8921SOL     OW27661   2.053   2.808   2.363
 8921SOL    HW127662   1.995   2.822   2.442
 8921SOL    HW227663   2.139   2.766   2.392
 8922SOL     OW27664   4.101   6.314   4.273
 8922SOL    HW127665   4.033   6.358   4.215
 8922SOL    HW227666   4.083   6.337   4.369
 8923SOL     OW27667   2.065   1.780   4.294
 8923SOL    HW127668   2.018   1.868   4.289
 8923SOL    HW227669   2.010   1.717   4.349
 8924SOL     OW27670   6.022   5.260   5.023
 8924SOL    HW127671   5.962   5.184   5.002
 8924SOL    HW227672   5.990   5.342   4.976
 8925SOL     OW27673   1.130   6.188   2.779
 8925SOL    HW127674   1.222   6.205   2.743
 8925SOL    HW227675   1.103   6.263   2.839
 8926SOL     OW27676   5.388   1.966   6.412
 8926SOL    HW127677   5.468   2.014   6.449
 8926SOL    HW227678   5.365   1.889   6.472
 8927SOL     OW27679   1.486   1.081   5.619
 8927SOL    HW127680   1.407   1.081   5.680
 8927SOL    HW227681   1.455   1.076   5.524
 8928SOL     OW27682   1.293   6.096   5.245
 8928SOL    HW127683   1.260   6.172   5.188
 8928SOL    HW227684   1.232   6.018   5.233
 8929SOL     OW27685   0.107   2.409   4.630
 8929SOL    HW127686   0.115   2.369   4.721
 8929SOL    HW227687   0.012   2.436   4.614
 8930SOL     OW27688   2.419   4.372   3.891
 8930SOL    HW127689   2.330   4.330   3.909
 8930SOL    HW227690   2.463   4.326   3.813
 8931SOL     OW27691   4.000   2.671   0.865
 8931SOL    HW127692   4.094   2.676   0.896
 8931SOL    HW227693   3.946   2.618   0.930
 8932SOL     OW27694   0.446   3.464   3.294
 8932SOL    HW127695   0.453   3.538   3.361
 8932SOL    HW227696   0.519   3.398   3.310
 8933SOL     OW27697   3.744   2.099   4.950
 8933SOL    HW127698   3.758   2.131   5.043
 8933SOL    HW227699   3.832   2.095   4.902
 8934SOL     OW27700   3.704   5.812   3.481
 8934SOL    HW127701   3.717   5.759   3.397
 8934SOL    HW227702   3.764   5.891   3.481
 8935SOL     OW27703   0.122   4.120   1.097
 8935SOL    HW127704   0.185   4.196   1.114
 8935SOL    HW227705   0.159   4.062   1.025
 8936SOL     OW27706   2.418   2.076   0.852
 8936SOL    HW127707   2.477   2.021   0.794
 8936SOL    HW227708   2.323   2.050   0.837
 8937SOL     OW27709   0.275   5.828   5.687
 8937SOL    HW127710   0.283   5.926   5.666
 8937SOL    HW227711   0.265   5.777   5.602
 8938SOL     OW27712   5.448   5.335   1.203
 8938SOL    HW127713   5.488   5.286   1.281
 8938SOL    HW227714   5.519   5.388   1.158
 8939SOL     OW27715   4.933   2.407   4.782
 8939SOL    HW127716   4.844   2.435   4.746
 8939SOL    HW227717   4.990   2.488   4.798
 8940SOL     OW27718   6.013   0.943   2.890
 8940SOL    HW127719   6.111   0.923   2.890
 8940SOL    HW227720   5.974   0.919   2.978
 8941SOL     OW27721   5.007   2.112   6.199
 8941SOL    HW127722   5.019   2.147   6.106
 8941SOL    HW227723   4.916   2.072   6.208
 8942SOL     OW27724   0.497   2.471   5.751
 8942SOL    HW127725   0.544   2.443   5.667
 8942SOL    HW227726   0.562   2.519   5.811
 8943SOL     OW27727   4.866   3.980   0.746
 8943SOL    HW127728   4.857   4.034   0.662
 8943SOL    HW227729   4.871   4.041   0.825
 8944SOL     OW27730   4.408   5.726   1.017
 8944SOL    HW127731   4.372   5.675   1.095
 8944SOL    HW227732   4.331   5.764   0.964
 8945SOL     OW27733   2.032   0.871   4.246
 8945SOL    HW127734   1.990   0.842   4.160
 8945SOL    HW227735   2.042   0.791   4.306
 8946SOL     OW27736   3.471   1.750   4.553
 8946SOL    HW127737   3.375   1.765   4.530
 8946SOL    HW227738   3.514   1.837   4.576
 8947SOL     OW27739   4.240   4.035   5.380
 8947SOL    HW127740   4.162   3.998   5.329
 8947SOL    HW227741   4.237   4.135   5.377
 8948SOL     OW27742   6.397   5.165   3.046
 8948SOL    HW127743   6.443   5.247   3.079
 8948SOL    HW227744   6.322   5.141   3.108
 8949SOL     OW27745   2.019   6.292   0.286
 8949SOL    HW127746   2.079   6.242   0.349
 8949SOL    HW227747   2.072   6.357   0.233
 8950SOL     OW27748   4.818   2.868   4.815
 8950SOL    HW127749   4.825   2.915   4.727
 8950SOL    HW227750   4.855   2.926   4.887
 8951SOL     OW27751   1.891   2.545   5.476
 8951SOL    HW127752   1.821   2.602   5.520
 8951SOL    HW227753   1.980   2.565   5.515
 8952SOL     OW27754   6.596   0.833   2.645
 8952SOL    HW127755   6.674   0.863   2.590
 8952SOL    HW227756   6.530   0.788   2.585
 8953SOL     OW27757   1.346   3.572   0.127
 8953SOL    HW127758   1.335   3.473   0.119
 8953SOL    HW227759   1.343   3.613   0.036
 8954SOL     OW27760   1.991   5.714   5.847
 8954SOL    HW127761   2.002   5.729   5.946
 8954SOL    HW227762   1.893   5.706   5.826
 8955SOL     OW27763   6.319   3.822   2.965
 8955SOL    HW127764   6.241   3.766   2.937
 8955SOL    HW227765   6.364   3.861   2.885
 8956SOL     OW27766   1.218   1.006   6.038
 8956SOL    HW127767   1.178   1.084   6.086
 8956SOL    HW227768   1.252   1.035   5.949
 8957SOL     OW27769   3.305   4.931   2.091
 8957SOL    HW127770   3.253   4.846   2.084
 8957SOL    HW227771   3.382   4.918   2.153
 8958SOL     OW27772   2.139   6.901   4.525
 8958SOL    HW127773   2.112   6.983   4.473
 8958SOL    HW227774   2.104   6.820   4.479
 8959SOL     OW27775   2.088   4.420   0.733
 8959SOL    HW127776   2.056   4.403   0.826
 8959SOL    HW227777   2.075   4.337   0.678
 8960SOL     OW27778   3.856   5.992   1.285
 8960SOL    HW127779   3.792   5.996   1.208
 8960SOL    HW227780   3.941   6.039   1.260
 8961SOL     OW27781   0.926   1.696   3.426
 8961SOL    HW127782   1.001   1.711   3.361
 8961SOL    HW227783   0.841   1.732   3.387
 8962SOL     OW27784   5.792   0.449   3.376
 8962SOL    HW127785   5.803   0.398   3.291
 8962SOL    HW227786   5.776   0.386   3.452
 8963SOL     OW27787   6.134   1.072   4.261
 8963SOL    HW127788   6.124   1.012   4.182
 8963SOL    HW227789   6.049   1.073   4.313
 8964SOL     OW27790   5.673   5.278   2.789
 8964SOL    HW127791   5.683   5.376   2.800
 8964SOL    HW227792   5.596   5.245   2.842
 8965SOL     OW27793   1.597   5.120   1.956
 8965SOL    HW127794   1.590   5.177   1.875
 8965SOL    HW227795   1.562   5.169   2.036
 8966SOL     OW27796   2.524   2.868   5.554
 8966SOL    HW127797   2.489   2.951   5.596
 8966SOL    HW227798   2.596   2.829   5.611
 8967SOL     OW27799   4.066   0.622   0.378
 8967SOL    HW127800   4.145   0.598   0.321
 8967SOL    HW227801   4.010   0.541   0.393
 8968SOL     OW27802   4.904   5.337   1.904
 8968SOL    HW127803   4.833   5.333   1.834
 8968SOL    HW227804   4.993   5.354   1.860
 8969SOL     OW27805   6.507   0.902   4.563
 8969SOL    HW127806   6.407   0.901   4.558
 8969SOL    HW227807   6.541   0.808   4.558
 8970SOL     OW27808   3.658   2.342   1.452
 8970SOL    HW127809   3.624   2.291   1.373
 8970SOL    HW227810   3.614   2.432   1.455
 8971SOL     OW27811   4.173   5.776   2.514
 8971SOL    HW127812   4.181   5.873   2.538
 8971SOL    HW227813   4.077   5.750   2.509
 8972SOL     OW27814   5.729   0.172   4.876
 8972SOL    HW127815   5.792   0.231   4.826
 8972SOL    HW227816   5.781   0.116   4.940
 8973SOL     OW27817   1.732   5.602   6.947
 8973SOL    HW127818   1.727   5.698   6.919
 8973SOL    HW227819   1.640   5.563   6.948
 8974SOL     OW27820   0.662   3.110   4.695
 8974SOL    HW127821   0.640   3.064   4.609
 8974SOL    HW227822   0.584   3.104   4.757
 8975SOL     OW27823   3.043   6.928   0.149
 8975SOL    HW127824   2.950   6.964   0.151
 8975SOL    HW227825   3.050   6.857   0.079
 8976SOL     OW27826   0.598   5.584   4.130
 8976SOL    HW127827   0.688   5.625   4.117
 8976SOL    HW227828   0.557   5.564   4.041
 8977SOL     OW27829   5.888   1.466   5.977
 8977SOL    HW127830   5.803   1.505   5.941
 8977SOL    HW227831   5.965   1.522   5.947
 8978SOL     OW27832   5.543   6.226   1.014
 8978SOL    HW127833   5.505   6.227   0.922
 8978SOL    HW227834   5.517   6.141   1.060
 8979SOL     OW27835   1.897   4.046   4.705
 8979SOL    HW127836   1.988   4.082   4.683
 8979SOL    HW227837   1.883   4.050   4.804
 8980SOL     OW27838   3.630   2.981   4.386
 8980SOL    HW127839   3.552   2.931   4.348
 8980SOL    HW227840   3.642   2.957   4.482
 8981SOL     OW27841   3.641   1.847   4.925
 8981SOL    HW127842   3.645   1.946   4.914
 8981SOL    HW227843   3.547   1.816   4.909
 8982SOL     OW27844   2.953   4.397   0.783
 8982SOL    HW127845   2.899   4.457   0.841
 8982SOL    HW227846   2.919   4.402   0.689
 8983SOL     OW27847   4.767   5.225   0.335
 8983SOL    HW127848   4.823   5.206   0.254
 8983SOL    HW227849   4.688   5.164   0.336
 8984SOL     OW27850   1.872   5.678   3.314
 8984SOL    HW127851   1.886   5.618   3.394
 8984SOL    HW227852   1.849   5.770   3.346
 8985SOL     OW27853   3.547   2.998   6.273
 8985SOL    HW127854   3.561   2.963   6.366
 8985SOL    HW227855   3.635   3.005   6.226
 8986SOL     OW27856   3.738   6.018   2.880
 8986SOL    HW127857   3.754   5.919   2.873
 8986SOL    HW227858   3.805   6.057   2.943
 8987SOL     OW27859   5.213   6.277   2.142
 8987SOL    HW127860   5.212   6.371   2.177
 8987SOL    HW227861   5.147   6.222   2.193
 8988SOL     OW27862   0.592   5.262   4.827
 8988SOL    HW127863   0.678   5.284   4.781
 8988SOL    HW227864   0.591   5.303   4.918
 8989SOL     OW27865   3.519   2.858   6.510
 8989SOL    HW127866   3.469   2.773   6.524
 8989SOL    HW227867   3.602   2.857   6.565
 8990SOL     OW27868   0.321   5.971   3.595
 8990SOL    HW127869   0.253   6.001   3.661
 8990SOL    HW227870   0.283   5.976   3.502
 8991SOL     OW27871   0.927   2.221   5.257
 8991SOL    HW127872   0.963   2.314   5.251
 8991SOL    HW227873   1.002   2.156   5.268
 8992SOL     OW27874   6.070   2.069   6.327
 8992SOL    HW127875   6.147   2.072   6.391
 8992SOL    HW227876   5.994   2.125   6.362
 8993SOL     OW27877   4.601   2.663   6.614
 8993SOL    HW127878   4.583   2.640   6.710
 8993SOL    HW227879   4.691   2.706   6.607
 8994SOL     OW27880   1.573   5.099   4.171
 8994SOL    HW127881   1.653   5.052   4.208
 8994SOL    HW227882   1.530   5.153   4.244
 8995SOL     OW27883   6.991   1.586   1.010
 8995SOL    HW127884   0.001   1.493   1.002
 8995SOL    HW227885   0.009   1.643   0.940
 8996SOL     OW27886   4.977   5.050   6.180
 8996SOL    HW127887   4.998   5.003   6.094
 8996SOL    HW227888   5.046   5.026   6.249
 8997SOL     OW27889   5.133   1.250   4.703
 8997SOL    HW127890   5.194   1.285   4.774
 8997SOL    HW227891   5.140   1.309   4.622
 8998SOL     OW27892   6.651   3.471   4.215
 8998SOL    HW127893   6.707   3.521   4.150
 8998SOL    HW227894   6.620   3.533   4.287
 8999SOL     OW27895   4.432   6.612   5.807
 8999SOL    HW127896   4.364   6.539   5.818
 8999SOL    HW227897   4.490   6.617   5.888
 9000SOL     OW27898   2.007   3.682   1.727
 9000SOL    HW127899   1.940   3.625   1.774
 9000SOL    HW227900   1.997   3.777   1.756
 9001SOL     OW27901   0.798   5.144   2.569
 9001SOL    HW127902   0.749   5.230   2.557
 9001SOL    HW227903   0.794   5.116   2.665
 9002SOL     OW27904   1.122   4.465   6.804
 9002SOL    HW127905   1.070   4.459   6.719
 9002SOL    HW227906   1.190   4.392   6.807
 9003SOL     OW27907   5.336   0.674   1.192
 9003SOL    HW127908   5.409   0.690   1.257
 9003SOL    HW227909   5.319   0.758   1.139
 9004SOL     OW27910   4.219   4.750   0.421
 9004SOL    HW127911   4.211   4.692   0.340
 9004SOL    HW227912   4.295   4.717   0.478
 9005SOL     OW27913   5.451   1.263   5.496
 9005SOL    HW127914   5.433   1.213   5.412
 9005SOL    HW227915   5.369   1.263   5.554
 9006SOL     OW27916   3.347   6.187   0.779
 9006SOL    HW127917   3.409   6.260   0.751
 9006SOL    HW227918   3.308   6.144   0.698
 9007SOL     OW27919   2.863   0.981   3.198
 9007SOL    HW127920   2.950   0.994   3.246
 9007SOL    HW227921   2.869   1.022   3.107
 9008SOL     OW27922   6.864   5.775   2.739
 9008SOL    HW127923   6.778   5.762   2.789
 9008SOL    HW227924   6.940   5.736   2.793
 9009SOL     OW27925   4.178   5.719   0.861
 9009SOL    HW127926   4.210   5.624   0.862
 9009SOL    HW227927   4.143   5.741   0.770
 9010SOL     OW27928   1.606   6.633   4.273
 9010SOL    HW127929   1.696   6.630   4.231
 9010SOL    HW227930   1.613   6.665   4.368
 9011SOL     OW27931   3.838   1.289   2.200
 9011SOL    HW127932   3.857   1.386   2.186
 9011SOL    HW227933   3.775   1.256   2.129
 9012SOL     OW27934   2.029   5.842   6.728
 9012SOL    HW127935   2.033   5.755   6.777
 9012SOL    HW227936   2.018   5.917   6.793
 9013SOL     OW27937   1.354   6.488   4.251
 9013SOL    HW127938   1.443   6.522   4.223
 9013SOL    HW227939   1.289   6.498   4.175
 9014SOL     OW27940   5.665   2.679   3.216
 9014SOL    HW127941   5.706   2.760   3.173
 9014SOL    HW227942   5.588   2.708   3.274
 9015SOL     OW27943   5.484   1.992   0.406
 9015SOL    HW127944   5.480   1.922   0.478
 9015SOL    HW227945   5.421   1.967   0.332
 9016SOL     OW27946   5.424   5.548   5.871
 9016SOL    HW127947   5.441   5.474   5.806
 9016SOL    HW227948   5.453   5.635   5.832
 9017SOL     OW27949   3.286   1.066   4.694
 9017SOL    HW127950   3.365   1.011   4.667
 9017SOL    HW227951   3.224   1.076   4.617
 9018SOL     OW27952   4.296   3.748   6.235
 9018SOL    HW127953   4.280   3.656   6.200
 9018SOL    HW227954   4.209   3.789   6.261
 9019SOL     OW27955   0.345   3.181   3.437
 9019SOL    HW127956   0.248   3.158   3.445
 9019SOL    HW227957   0.364   3.266   3.485
 9020SOL     OW27958   5.595   6.074   1.780
 9020SOL    HW127959   5.677   6.129   1.795
 9020SOL    HW227960   5.546   6.061   1.866
 9021SOL     OW27961   6.923   1.026   3.849
 9021SOL    HW127962   6.979   1.063   3.923
 9021SOL    HW227963   6.972   0.954   3.801
 9022SOL     OW27964   4.640   2.836   6.270
 9022SOL    HW127965   4.549   2.807   6.301
 9022SOL    HW227966   4.634   2.929   6.233
 9023SOL     OW27967   5.102   3.854   0.847
 9023SOL    HW127968   5.181   3.874   0.790
 9023SOL    HW227969   5.021   3.898   0.810
 9024SOL     OW27970   1.875   5.126   6.336
 9024SOL    HW127971   1.906   5.032   6.354
 9024SOL    HW227972   1.776   5.127   6.325
 9025SOL     OW27973   0.809   5.531   0.821
 9025SOL    HW127974   0.849   5.442   0.842
 9025SOL    HW227975   0.726   5.518   0.767
 9026SOL     OW27976   4.081   1.535   0.289
 9026SOL    HW127977   4.148   1.501   0.355
 9026SOL    HW227978   4.003   1.574   0.337
 9027SOL     OW27979   6.989   3.911   3.318
 9027SOL    HW127980   0.048   3.869   3.282
 9027SOL    HW227981   6.911   3.852   3.298
 9028SOL     OW27982   3.391   4.210   5.772
 9028SOL    HW127983   3.348   4.136   5.823
 9028SOL    HW227984   3.403   4.182   5.677
 9029SOL     OW27985   4.214   6.881   5.133
 9029SOL    HW127986   4.281   6.812   5.161
 9029SOL    HW227987   4.171   6.853   5.047
 9030SOL     OW27988   2.447   1.811   3.341
 9030SOL    HW127989   2.466   1.858   3.255
 9030SOL    HW227990   2.405   1.722   3.321
 9031SOL     OW27991   4.529   0.379   4.562
 9031SOL    HW127992   4.458   0.433   4.606
 9031SOL    HW227993   4.495   0.287   4.544
 9032SOL     OW27994   4.762   4.014   1.736
 9032SOL    HW127995   4.751   4.106   1.700
 9032SOL    HW227996   4.679   3.961   1.718
 9033SOL     OW27997   1.582   5.867   3.157
 9033SOL    HW127998   1.630   5.869   3.069
 9033SOL    HW227999   1.518   5.944   3.162
 9034SOL     OW28000   3.666   6.244   4.569
 9034SOL    HW128001   3.568   6.244   4.589
 9034SOL    HW228002   3.706   6.331   4.600
 9035SOL     OW28003   0.984   5.062   0.297
 9035SOL    HW128004   1.031   5.109   0.371
 9035SOL    HW228005   1.051   5.018   0.237
 9036SOL     OW28006   1.493   3.328   6.282
 9036SOL    HW128007   1.468   3.419   6.314
 9036SOL    HW228008   1.590   3.326   6.260
 9037SOL     OW28009   0.876   2.077   2.736
 9037SOL    HW128010   0.816   2.038   2.666
 9037SOL    HW228011   0.900   2.171   2.712
 9038SOL     OW28012   4.258   3.075   5.804
 9038SOL    HW128013   4.353   3.068   5.833
 9038SOL    HW228014   4.250   3.144   5.732
 9039SOL     OW28015   3.674   5.357   0.453
 9039SOL    HW128016   3.584   5.325   0.425
 9039SOL    HW228017   3.708   5.424   0.387
 9040SOL     OW28018   2.236   1.881   1.219
 9040SOL    HW128019   2.290   1.928   1.289
 9040SOL    HW228020   2.163   1.941   1.187
 9041SOL     OW28021   6.897   2.148   1.473
 9041SOL    HW128022   6.940   2.061   1.450
 9041SOL    HW228023   6.966   2.212   1.507
 9042SOL     OW28024   4.226   5.952   6.520
 9042SOL    HW128025   4.198   5.950   6.424
 9042SOL    HW228026   4.210   6.044   6.556
 9043SOL     OW28027   3.143   1.663   0.107
 9043SOL    HW128028   3.068   1.649   0.172
 9043SOL    HW228029   3.224   1.694   0.156
 9044SOL     OW28030   0.857   0.553   6.515
 9044SOL    HW128031   0.772   0.604   6.525
 9044SOL    HW228032   0.846   0.485   6.442
 9045SOL     OW28033   3.678   0.840   3.049
 9045SOL    HW128034   3.658   0.918   2.990
 9045SOL    HW228035   3.754   0.862   3.110
 9046SOL     OW28036   3.163   4.039   2.843
 9046SOL    HW128037   3.250   3.996   2.866
 9046SOL    HW228038   3.118   3.988   2.769
 9047SOL     OW28039   1.086   3.872   6.106
 9047SOL    HW128040   1.151   3.887   6.031
 9047SOL    HW228041   1.064   3.775   6.112
 9048SOL     OW28042   6.300   1.756   5.949
 9048SOL    HW128043   6.389   1.715   5.931
 9048SOL    HW228044   6.275   1.816   5.873
 9049SOL     OW28045   3.303   6.453   6.568
 9049SOL    HW128046   3.246   6.422   6.492
 9049SOL    HW228047   3.385   6.397   6.573
 9050SOL     OW28048   0.405   4.781   0.742
 9050SOL    HW128049   0.462   4.707   0.777
 9050SOL    HW228050   0.435   4.867   0.784
 9051SOL     OW28051   2.314   1.615   1.182
 9051SOL    HW128052   2.262   1.568   1.111
 9051SOL    HW228053   2.275   1.706   1.197
 9052SOL     OW28054   1.415   2.957   4.810
 9052SOL    HW128055   1.414   2.895   4.888
 9052SOL    HW228056   1.436   2.905   4.727
 9053SOL     OW28057   1.632   1.143   0.535
 9053SOL    HW128058   1.548   1.140   0.481
 9053SOL    HW228059   1.702   1.087   0.491
 9054SOL     OW28060   2.505   5.661   3.488
 9054SOL    HW128061   2.405   5.669   3.480
 9054SOL    HW228062   2.533   5.695   3.578
 9055SOL     OW28063   0.167   3.869   4.779
 9055SOL    HW128064   0.220   3.909   4.705
 9055SOL    HW228065   0.129   3.781   4.749
 9056SOL     OW28066   6.506   2.098   2.667
 9056SOL    HW128067   6.574   2.085   2.594
 9056SOL    HW228068   6.415   2.080   2.631
 9057SOL     OW28069   4.566   2.400   4.217
 9057SOL    HW128070   4.544   2.306   4.241
 9057SOL    HW228071   4.659   2.421   4.248
 9058SOL     OW28072   1.833   0.845   6.054
 9058SOL    HW128073   1.900   0.914   6.030
 9058SOL    HW228074   1.797   0.803   5.971
 9059SOL     OW28075   1.218   2.129   3.035
 9059SOL    HW128076   1.161   2.106   3.114
 9059SOL    HW228077   1.192   2.071   2.957
 9060SOL     OW28078   5.315   2.602   4.915
 9060SOL    HW128079   5.247   2.592   4.842
 9060SOL    HW228080   5.284   2.554   4.996
 9061SOL     OW28081   4.326   5.566   2.584
 9061SOL    HW128082   4.276   5.644   2.548
 9061SOL    HW228083   4.272   5.522   2.657
 9062SOL     OW28084   1.916   5.760   0.705
 9062SOL    HW128085   1.980   5.696   0.747
 9062SOL    HW228086   1.890   5.727   0.614
 9063SOL     OW28087   3.307   1.445   1.909
 9063SOL    HW128088   3.232   1.494   1.862
 9063SOL    HW228089   3.268   1.375   1.969
 9064SOL     OW28090   5.877   3.474   6.885
 9064SOL    HW128091   5.968   3.433   6.879
 9064SOL    HW228092   5.818   3.415   6.940
 9065SOL     OW28093   2.416   0.912   0.297
 9065SOL    HW128094   2.468   0.828   0.309
 9065SOL    HW228095   2.445   0.979   0.365
 9066SOL     OW28096   4.865   6.608   0.307
 9066SOL    HW128097   4.846   6.597   0.404
 9066SOL    HW228098   4.868   6.519   0.262
 9067SOL     OW28099   2.048   6.322   3.126
 9067SOL    HW128100   1.972   6.262   3.151
 9067SOL    HW228101   2.017   6.387   3.057
 9068SOL     OW28102   1.831   6.233   6.703
 9068SOL    HW128103   1.885   6.293   6.762
 9068SOL    HW228104   1.819   6.276   6.614
 9069SOL     OW28105   1.537   2.335   6.760
 9069SOL    HW128106   1.473   2.262   6.738
 9069SOL    HW228107   1.578   2.370   6.676
 9070SOL     OW28108   1.400   4.315   3.758
 9070SOL    HW128109   1.407   4.414   3.767
 9070SOL    HW228110   1.342   4.292   3.680
 9071SOL     OW28111   5.603   6.704   6.884
 9071SOL    HW128112   5.538   6.777   6.906
 9071SOL    HW228113   5.588   6.672   6.791
 9072SOL     OW28114   5.427   4.924   6.651
 9072SOL    HW128115   5.496   4.869   6.698
 9072SOL    HW228116   5.459   4.946   6.559
 9073SOL     OW28117   1.787   0.635   1.864
 9073SOL    HW128118   1.687   0.634   1.852
 9073SOL    HW228119   1.825   0.713   1.814
 9074SOL     OW28120   1.042   6.298   3.003
 9074SOL    HW128121   1.006   6.210   3.032
 9074SOL    HW228122   1.122   6.321   3.059
 9075SOL     OW28123   0.128   0.986   2.633
 9075SOL    HW128124   0.104   1.031   2.547
 9075SOL    HW228125   0.045   0.975   2.688
 9076SOL     OW28126   6.379   1.241   5.353
 9076SOL    HW128127   6.327   1.156   5.352
 9076SOL    HW228128   6.449   1.238   5.282
 9077SOL     OW28129   5.806   6.249   1.826
 9077SOL    HW128130   5.896   6.216   1.798
 9077SOL    HW228131   5.791   6.341   1.788
 9078SOL     OW28132   3.223   3.009   4.808
 9078SOL    HW128133   3.262   2.978   4.722
 9078SOL    HW228134   3.144   3.068   4.789
 9079SOL     OW28135   3.431   0.640   6.032
 9079SOL    HW128136   3.448   0.541   6.026
 9079SOL    HW228137   3.408   0.675   5.942
 9080SOL     OW28138   5.027   2.070   0.794
 9080SOL    HW128139   5.086   2.082   0.714
 9080SOL    HW228140   4.933   2.050   0.763
 9081SOL     OW28141   5.631   0.165   2.213
 9081SOL    HW128142   5.670   0.175   2.122
 9081SOL    HW228143   5.679   0.225   2.277
 9082SOL     OW28144   3.196   1.649   3.845
 9082SOL    HW128145   3.177   1.557   3.811
 9082SOL    HW228146   3.209   1.711   3.768
 9083SOL     OW28147   4.290   4.659   4.601
 9083SOL    HW128148   4.388   4.664   4.624
 9083SOL    HW228149   4.242   4.610   4.673
 9084SOL     OW28150   3.586   3.741   2.938
 9084SOL    HW128151   3.623   3.661   2.891
 9084SOL    HW228152   3.644   3.820   2.920
 9085SOL     OW28153   0.839   2.036   0.511
 9085SOL    HW128154   0.783   1.965   0.470
 9085SOL    HW228155   0.893   1.997   0.586
 9086SOL     OW28156   0.213   3.743   0.684
 9086SOL    HW128157   0.251   3.693   0.762
 9086SOL    HW228158   0.288   3.786   0.634
 9087SOL     OW28159   4.433   3.850   1.293
 9087SOL    HW128160   4.390   3.928   1.338
 9087SOL    HW228161   4.454   3.874   1.198
 9088SOL     OW28162   5.425   6.693   0.564
 9088SOL    HW128163   5.394   6.606   0.527
 9088SOL    HW228164   5.394   6.768   0.505
 9089SOL     OW28165   4.388   0.592   5.423
 9089SOL    HW128166   4.385   0.689   5.444
 9089SOL    HW228167   4.477   0.555   5.448
 9090SOL     OW28168   6.432   1.438   4.206
 9090SOL    HW128169   6.427   1.345   4.243
 9090SOL    HW228170   6.449   1.434   4.107
 9091SOL     OW28171   2.966   3.015   6.828
 9091SOL    HW128172   2.990   3.101   6.871
 9091SOL    HW228173   2.867   3.001   6.833
 9092SOL     OW28174   0.063   2.661   6.532
 9092SOL    HW128175   0.012   2.747   6.528
 9092SOL    HW228176   0.151   2.673   6.485
 9093SOL     OW28177   1.493   6.050   5.713
 9093SOL    HW128178   1.446   5.964   5.694
 9093SOL    HW228179   1.457   6.090   5.797
 9094SOL     OW28180   0.638   3.696   1.930
 9094SOL    HW128181   0.676   3.619   1.980
 9094SOL    HW228182   0.583   3.663   1.854
 9095SOL     OW28183   6.540   5.862   5.201
 9095SOL    HW128184   6.635   5.894   5.207
 9095SOL    HW228185   6.478   5.936   5.226
 9096SOL     OW28186   6.626   5.702   2.869
 9096SOL    HW128187   6.564   5.625   2.852
 9096SOL    HW228188   6.573   5.786   2.879
 9097SOL     OW28189   1.469   2.014   6.227
 9097SOL    HW128190   1.551   2.064   6.199
 9097SOL    HW228191   1.488   1.961   6.310
 9098SOL     OW28192   1.584   3.727   4.205
 9098SOL    HW128193   1.540   3.656   4.151
 9098SOL    HW228194   1.683   3.711   4.207
 9099SOL     OW28195   2.957   2.530   6.815
 9099SOL    HW128196   2.909   2.485   6.740
 9099SOL    HW228197   2.924   2.624   6.825
 9100SOL     OW28198   1.191   4.567   3.173
 9100SOL    HW128199   1.164   4.527   3.261
 9100SOL    HW228200   1.290   4.582   3.173
 9101SOL     OW28201   1.038   2.290   1.052
 9101SOL    HW128202   1.075   2.366   0.999
 9101SOL    HW228203   0.947   2.314   1.086
 9102SOL     OW28204   4.530   6.639   3.048
 9102SOL    HW128205   4.528   6.645   2.948
 9102SOL    HW228206   4.622   6.614   3.078
 9103SOL     OW28207   6.473   0.673   0.667
 9103SOL    HW128208   6.488   0.743   0.596
 9103SOL    HW228209   6.551   0.671   0.729
 9104SOL     OW28210   5.810   2.244   6.283
 9104SOL    HW128211   5.840   2.330   6.241
 9104SOL    HW228212   5.784   2.260   6.378
 9105SOL     OW28213   1.649   1.006   5.837
 9105SOL    HW128214   1.705   0.924   5.846
 9105SOL    HW228215   1.597   1.001   5.751
 9106SOL     OW28216   1.417   4.106   0.366
 9106SOL    HW128217   1.490   4.134   0.303
 9106SOL    HW228218   1.429   4.152   0.454
 9107SOL     OW28219   2.338   1.475   0.539
 9107SOL    HW128220   2.256   1.480   0.483
 9107SOL    HW228221   2.327   1.531   0.621
 9108SOL     OW28222   5.708   5.620   6.051
 9108SOL    HW128223   5.610   5.637   6.041
 9108SOL    HW228224   5.752   5.620   5.961
 9109SOL     OW28225   5.151   3.688   2.304
 9109SOL    HW128226   5.179   3.636   2.224
 9109SOL    HW228227   5.051   3.695   2.305
 9110SOL     OW28228   1.997   6.408   4.099
 9110SOL    HW128229   2.020   6.312   4.113
 9110SOL    HW228230   1.922   6.433   4.161
 9111SOL     OW28231   4.407   2.377   6.226
 9111SOL    HW128232   4.335   2.441   6.255
 9111SOL    HW228233   4.496   2.420   6.235
 9112SOL     OW28234   1.418   5.291   1.658
 9112SOL    HW128235   1.515   5.291   1.682
 9112SOL    HW228236   1.365   5.263   1.739
 9113SOL     OW28237   5.622   1.210   3.908
 9113SOL    HW128238   5.653   1.302   3.881
 9113SOL    HW228239   5.571   1.216   3.994
 9114SOL     OW28240   1.417   6.243   5.504
 9114SOL    HW128241   1.435   6.154   5.545
 9114SOL    HW228242   1.339   6.235   5.441
 9115SOL     OW28243   4.933   4.596   4.395
 9115SOL    HW128244   4.893   4.639   4.314
 9115SOL    HW228245   4.882   4.514   4.418
 9116SOL     OW28246   1.405   0.191   3.220
 9116SOL    HW128247   1.439   0.263   3.281
 9116SOL    HW228248   1.457   0.107   3.235
 9117SOL     OW28249   2.649   6.418   0.320
 9117SOL    HW128250   2.597   6.496   0.285
 9117SOL    HW228251   2.721   6.450   0.381
 9118SOL     OW28252   6.217   4.347   2.187
 9118SOL    HW128253   6.224   4.326   2.285
 9118SOL    HW228254   6.162   4.429   2.174
 9119SOL     OW28255   3.435   0.118   0.167
 9119SOL    HW128256   3.366   0.067   0.117
 9119SOL    HW228257   3.403   0.134   0.261
 9120SOL     OW28258   6.076   3.714   4.672
 9120SOL    HW128259   6.105   3.768   4.593
 9120SOL    HW228260   6.155   3.672   4.715
 9121SOL     OW28261   3.109   0.870   4.753
 9121SOL    HW128262   3.137   0.952   4.703
 9121SOL    HW228263   3.176   0.798   4.738
 9122SOL     OW28264   1.460   3.688   2.136
 9122SOL    HW128265   1.395   3.618   2.166
 9122SOL    HW228266   1.431   3.724   2.047
 9123SOL     OW28267   0.025   6.319   4.170
 9123SOL    HW128268   7.011   6.411   4.173
 9123SOL    HW228269   0.049   6.296   4.075
 9124SOL     OW28270   2.800   5.296   0.804
 9124SOL    HW128271   2.737   5.271   0.731
 9124SOL    HW228272   2.805   5.396   0.811
 9125SOL     OW28273   5.243   6.553   1.378
 9125SOL    HW128274   5.164   6.492   1.370
 9125SOL    HW228275   5.322   6.510   1.334
 9126SOL     OW28276   4.104   4.353   0.958
 9126SOL    HW128277   4.043   4.411   0.904
 9126SOL    HW228278   4.193   4.398   0.969
 9127SOL     OW28279   6.838   5.032   4.800
 9127SOL    HW128280   6.865   5.044   4.704
 9127SOL    HW228281   6.750   5.078   4.815
 9128SOL     OW28282   5.502   4.334   5.745
 9128SOL    HW128283   5.563   4.311   5.820
 9128SOL    HW228284   5.535   4.293   5.660
 9129SOL     OW28285   0.958   2.860   0.903
 9129SOL    HW128286   0.895   2.803   0.956
 9129SOL    HW228287   0.951   2.837   0.806
 9130SOL     OW28288   3.064   3.719   4.984
 9130SOL    HW128289   2.999   3.645   4.971
 9130SOL    HW228290   3.151   3.696   4.939
 9131SOL     OW28291   4.545   2.432   0.456
 9131SOL    HW128292   4.504   2.397   0.372
 9131SOL    HW228293   4.592   2.358   0.504
 9132SOL     OW28294   0.671   3.961   3.745
 9132SOL    HW128295   0.769   3.976   3.756
 9132SOL    HW228296   0.655   3.871   3.706
 9133SOL     OW28297   5.692   0.546   0.833
 9133SOL    HW128298   5.741   0.492   0.902
 9133SOL    HW228299   5.724   0.522   0.742
 9134SOL     OW28300   4.746   4.932   1.010
 9134SOL    HW128301   4.740   5.025   0.975
 9134SOL    HW228302   4.709   4.928   1.103
 9135SOL     OW28303   6.216   6.626   2.332
 9135SOL    HW128304   6.227   6.691   2.257
 9135SOL    HW228305   6.221   6.533   2.296
 9136SOL     OW28306   6.300   4.318   6.919
 9136SOL    HW128307   6.240   4.286   6.993
 9136SOL    HW228308   6.254   4.306   6.831
 9137SOL     OW28309   5.186   6.158   5.614
 9137SOL    HW128310   5.098   6.125   5.580
 9137SOL    HW228311   5.171   6.236   5.675
 9138SOL     OW28312   2.616   3.729   0.253
 9138SOL    HW128313   2.668   3.650   0.219
 9138SOL    HW228314   2.524   3.727   0.215
 9139SOL     OW28315   6.459   6.930   0.601
 9139SOL    HW128316   6.529   6.860   0.615
 9139SOL    HW228317   6.368   6.888   0.611
 9140SOL     OW28318   2.036   3.664   3.587
 9140SOL    HW128319   2.049   3.756   3.624
 9140SOL    HW228320   1.969   3.668   3.512
 9141SOL     OW28321   6.962   5.273   5.172
 9141SOL    HW128322   6.916   5.309   5.254
 9141SOL    HW228323   6.895   5.227   5.114
 9142SOL     OW28324   1.128   4.450   4.516
 9142SOL    HW128325   1.111   4.547   4.497
 9142SOL    HW228326   1.077   4.423   4.597
 9143SOL     OW28327   6.470   4.225   2.302
 9143SOL    HW128328   6.391   4.275   2.338
 9143SOL    HW228329   6.468   4.131   2.335
 9144SOL     OW28330   2.994   4.571   5.537
 9144SOL    HW128331   3.042   4.502   5.484
 9144SOL    HW228332   2.949   4.635   5.476
 9145SOL     OW28333   1.699   5.882   5.845
 9145SOL    HW128334   1.629   5.892   5.915
 9145SOL    HW228335   1.658   5.893   5.754
 9146SOL     OW28336   5.759   2.998   3.062
 9146SOL    HW128337   5.675   2.961   3.023
 9146SOL    HW228338   5.835   2.982   2.999
 9147SOL     OW28339   4.297   0.205   5.071
 9147SOL    HW128340   4.280   0.291   5.119
 9147SOL    HW228341   4.368   0.219   5.002
 9148SOL     OW28342   5.651   5.779   1.445
 9148SOL    HW128343   5.675   5.747   1.537
 9148SOL    HW228344   5.585   5.853   1.451
 9149SOL     OW28345   0.103   3.885   1.276
 9149SOL    HW128346   0.058   3.907   1.363
 9149SOL    HW228347   0.123   3.970   1.227
 9150SOL     OW28348   2.781   3.226   0.038
 9150SOL    HW128349   2.728   3.296   7.015
 9150SOL    HW228350   2.781   3.141   7.009
 9151SOL     OW28351   1.620   3.131   3.866
 9151SOL    HW128352   1.608   3.138   3.965
 9151SOL    HW228353   1.695   3.191   3.837
 9152SOL     OW28354   1.830   4.181   2.728
 9152SOL    HW128355   1.793   4.233   2.651
 9152SOL    HW228356   1.756   4.159   2.792
 9153SOL     OW28357   0.756   3.280   6.367
 9153SOL    HW128358   0.777   3.365   6.415
 9153SOL    HW228359   0.835   3.219   6.371
 9154SOL     OW28360   5.881   5.234   2.948
 9154SOL    HW128361   5.826   5.261   2.869
 9154SOL    HW228362   5.826   5.178   3.010
 9155SOL     OW28363   1.419   6.125   2.742
 9155SOL    HW128364   1.471   6.080   2.816
 9155SOL    HW228365   1.455   6.217   2.728
 9156SOL     OW28366   6.499   3.832   6.167
 9156SOL    HW128367   6.584   3.849   6.118
 9156SOL    HW228368   6.430   3.799   6.103
 9157SOL     OW28369   1.676   4.444   5.879
 9157SOL    HW128370   1.774   4.449   5.900
 9157SOL    HW228371   1.649   4.524   5.826
 9158SOL     OW28372   6.670   3.934   4.635
 9158SOL    HW128373   6.769   3.931   4.624
 9158SOL    HW228374   6.647   4.002   4.704
 9159SOL     OW28375   2.206   1.377   4.028
 9159SOL    HW128376   2.252   1.354   3.943
 9159SOL    HW228377   2.233   1.312   4.099
 9160SOL     OW28378   1.374   3.867   0.762
 9160SOL    HW128379   1.353   3.926   0.840
 9160SOL    HW228380   1.301   3.874   0.694
 9161SOL     OW28381   6.208   4.264   2.454
 9161SOL    HW128382   6.156   4.197   2.507
 9161SOL    HW228383   6.283   4.299   2.510
 9162SOL     OW28384   4.158   2.328   1.700
 9162SOL    HW128385   4.059   2.336   1.711
 9162SOL    HW228386   4.201   2.328   1.791
 9163SOL     OW28387   2.342   2.161   3.449
 9163SOL    HW128388   2.382   2.250   3.471
 9163SOL    HW228389   2.331   2.108   3.533
 9164SOL     OW28390   2.592   6.402   6.633
 9164SOL    HW128391   2.545   6.328   6.584
 9164SOL    HW228392   2.582   6.487   6.581
 9165SOL     OW28393   5.661   1.811   5.840
 9165SOL    HW128394   5.753   1.847   5.859
 9165SOL    HW228395   5.602   1.885   5.811
 9166SOL     OW28396   5.189   6.497   1.854
 9166SOL    HW128397   5.237   6.454   1.778
 9166SOL    HW228398   5.091   6.502   1.834
 9167SOL     OW28399   1.886   1.294   4.528
 9167SOL    HW128400   1.928   1.379   4.496
 9167SOL    HW228401   1.922   1.218   4.474
 9168SOL     OW28402   6.238   5.989   4.974
 9168SOL    HW128403   6.267   5.993   5.070
 9168SOL    HW228404   6.312   5.952   4.918
 9169SOL     OW28405   6.820   6.109   1.632
 9169SOL    HW128406   6.764   6.061   1.700
 9169SOL    HW228407   6.901   6.053   1.611
 9170SOL     OW28408   1.221   1.118   5.770
 9170SOL    HW128409   1.252   1.210   5.793
 9170SOL    HW228410   1.121   1.116   5.769
 9171SOL     OW28411   3.822   5.547   6.211
 9171SOL    HW128412   3.870   5.484   6.151
 9171SOL    HW228413   3.878   5.566   6.292
 9172SOL     OW28414   4.754   1.661   5.056
 9172SOL    HW128415   4.658   1.655   5.082
 9172SOL    HW228416   4.768   1.615   4.968
 9173SOL     OW28417   5.366   3.872   5.352
 9173SOL    HW128418   5.421   3.955   5.358
 9173SOL    HW228419   5.285   3.881   5.409
 9174SOL     OW28420   0.036   5.114   1.479
 9174SOL    HW128421   0.133   5.100   1.461
 9174SOL    HW228422   0.013   5.210   1.463
 9175SOL     OW28423   2.414   6.908   0.706
 9175SOL    HW128424   2.513   6.914   0.719
 9175SOL    HW228425   2.375   7.000   0.705
 9176SOL     OW28426   1.519   1.685   2.518
 9176SOL    HW128427   1.583   1.751   2.557
 9176SOL    HW228428   1.570   1.604   2.487
 9177SOL     OW28429   0.575   5.913   3.626
 9177SOL    HW128430   0.611   5.862   3.548
 9177SOL    HW228431   0.482   5.944   3.606
 9178SOL     OW28432   1.411   4.434   1.531
 9178SOL    HW128433   1.436   4.432   1.628
 9178SOL    HW228434   1.434   4.524   1.492
 9179SOL     OW28435   3.395   5.632   4.328
 9179SOL    HW128436   3.421   5.707   4.267
 9179SOL    HW228437   3.318   5.660   4.385
 9180SOL     OW28438   0.287   1.030   5.699
 9180SOL    HW128439   0.212   0.965   5.686
 9180SOL    HW228440   0.297   1.052   5.796
 9181SOL     OW28441   2.450   2.364   3.599
 9181SOL    HW128442   2.466   2.407   3.688
 9181SOL    HW228443   2.424   2.434   3.533
 9182SOL     OW28444   0.709   1.847   2.431
 9182SOL    HW128445   0.756   1.784   2.493
 9182SOL    HW228446   0.617   1.812   2.410
 9183SOL     OW28447   2.021   1.705   6.366
 9183SOL    HW128448   1.945   1.640   6.366
 9183SOL    HW228449   2.091   1.675   6.302
 9184SOL     OW28450   3.801   3.018   0.951
 9184SOL    HW128451   3.844   3.108   0.945
 9184SOL    HW228452   3.750   3.011   1.037
 9185SOL     OW28453   1.480   0.778   6.638
 9185SOL    HW128454   1.466   0.813   6.731
 9185SOL    HW228455   1.515   0.685   6.643
 9186SOL     OW28456   4.895   0.551   6.239
 9186SOL    HW128457   4.986   0.510   6.241
 9186SOL    HW228458   4.862   0.553   6.145
 9187SOL     OW28459   5.858   2.389   0.953
 9187SOL    HW128460   5.789   2.461   0.957
 9187SOL    HW228461   5.945   2.428   0.924
 9188SOL     OW28462   1.627   0.206   1.607
 9188SOL    HW128463   1.542   0.252   1.629
 9188SOL    HW228464   1.704   0.259   1.641
 9189SOL     OW28465   3.937   1.161   5.714
 9189SOL    HW128466   3.969   1.085   5.771
 9189SOL    HW228467   3.862   1.131   5.656
 9190SOL     OW28468   4.853   1.320   5.064
 9190SOL    HW128469   4.881   1.224   5.056
 9190SOL    HW228470   4.763   1.325   5.107
 9191SOL     OW28471   5.622   0.128   1.703
 9191SOL    HW128472   5.615   0.218   1.747
 9191SOL    HW228473   5.685   0.071   1.755
 9192SOL     OW28474   5.056   3.591   4.159
 9192SOL    HW128475   5.103   3.648   4.226
 9192SOL    HW228476   5.030   3.504   4.202
 9193SOL     OW28477   4.012   3.056   3.151
 9193SOL    HW128478   4.051   2.968   3.124
 9193SOL    HW228479   3.955   3.043   3.232
 9194SOL     OW28480   4.212   5.348   2.731
 9194SOL    HW128481   4.142   5.297   2.681
 9194SOL    HW228482   4.179   5.369   2.823
 9195SOL     OW28483   0.920   2.689   2.781
 9195SOL    HW128484   0.860   2.637   2.719
 9195SOL    HW228485   0.999   2.723   2.730
 9196SOL     OW28486   5.015   6.804   4.169
 9196SOL    HW128487   5.005   6.832   4.073
 9196SOL    HW228488   5.036   6.884   4.225
 9197SOL     OW28489   4.389   1.772   6.254
 9197SOL    HW128490   4.325   1.696   6.242
 9197SOL    HW228491   4.463   1.764   6.187
 9198SOL     OW28492   6.160   2.245   5.184
 9198SOL    HW128493   6.247   2.231   5.230
 9198SOL    HW228494   6.108   2.160   5.183
 9199SOL     OW28495   1.891   3.088   6.344
 9199SOL    HW128496   1.899   2.995   6.382
 9199SOL    HW228497   1.968   3.143   6.375
 9200SOL     OW28498   5.615   5.949   0.785
 9200SOL    HW128499   5.706   5.989   0.799
 9200SOL    HW228500   5.597   5.881   0.855
 9201SOL     OW28501   1.034   4.290   2.226
 9201SOL    HW128502   1.011   4.387   2.225
 9201SOL    HW228503   1.129   4.278   2.199
 9202SOL     OW28504   2.878   5.865   4.017
 9202SOL    HW128505   2.871   5.950   3.964
 9202SOL    HW228506   2.799   5.807   3.996
 9203SOL     OW28507   4.733   0.551   6.676
 9203SOL    HW128508   4.771   0.475   6.623
 9203SOL    HW228509   4.771   0.550   6.768
 9204SOL     OW28510   5.391   4.742   2.534
 9204SOL    HW128511   5.310   4.718   2.481
 9204SOL    HW228512   5.368   4.817   2.597
 9205SOL     OW28513   4.901   2.940   1.803
 9205SOL    HW128514   4.994   2.954   1.835
 9205SOL    HW228515   4.837   2.990   1.861
 9206SOL     OW28516   0.132   5.827   3.405
 9206SOL    HW128517   0.159   5.913   3.362
 9206SOL    HW228518   0.130   5.754   3.336
 9207SOL     OW28519   4.211   6.331   6.527
 9207SOL    HW128520   4.293   6.290   6.568
 9207SOL    HW228521   4.237   6.409   6.471
 9208SOL     OW28522   4.556   4.224   1.612
 9208SOL    HW128523   4.493   4.258   1.682
 9208SOL    HW228524   4.650   4.246   1.638
 9209SOL     OW28525   3.641   0.065   2.845
 9209SOL    HW128526   3.648   0.164   2.855
 9209SOL    HW228527   3.718   0.020   2.891
 9210SOL     OW28528   1.390   6.363   0.591
 9210SOL    HW128529   1.296   6.381   0.620
 9210SOL    HW228530   1.411   6.419   0.511
 9211SOL     OW28531   4.619   1.364   6.241
 9211SOL    HW128532   4.707   1.407   6.259
 9211SOL    HW228533   4.601   1.294   6.310
 9212SOL     OW28534   5.525   4.091   5.288
 9212SOL    HW128535   5.615   4.050   5.282
 9212SOL    HW228536   5.505   4.141   5.203
 9213SOL     OW28537   6.615   6.684   1.944
 9213SOL    HW128538   6.579   6.778   1.946
 9213SOL    HW228539   6.664   6.666   2.029
 9214SOL     OW28540   2.139   2.558   5.552
 9214SOL    HW128541   2.155   2.473   5.603
 9214SOL    HW228542   2.224   2.608   5.543
 9215SOL     OW28543   0.183   3.088   3.162
 9215SOL    HW128544   0.210   3.031   3.240
 9215SOL    HW228545   0.226   3.178   3.169
 9216SOL     OW28546   2.447   6.015   3.717
 9216SOL    HW128547   2.499   6.095   3.686
 9216SOL    HW228548   2.508   5.936   3.720
 9217SOL     OW28549   3.897   1.633   6.619
 9217SOL    HW128550   3.874   1.697   6.692
 9217SOL    HW228551   3.991   1.649   6.589
 9218SOL     OW28552   5.471   5.658   6.578
 9218SOL    HW128553   5.392   5.599   6.595
 9218SOL    HW228554   5.441   5.742   6.534
 9219SOL     OW28555   2.723   2.302   5.507
 9219SOL    HW128556   2.697   2.253   5.424
 9219SOL    HW228557   2.658   2.282   5.580
 9220SOL     OW28558   0.441   6.368   3.385
 9220SOL    HW128559   0.533   6.363   3.346
 9220SOL    HW228560   0.434   6.308   3.464
 9221SOL     OW28561   2.435   1.362   0.929
 9221SOL    HW128562   2.374   1.390   1.003
 9221SOL    HW228563   2.530   1.383   0.953
 9222SOL     OW28564   1.386   3.684   4.536
 9222SOL    HW128565   1.390   3.584   4.539
 9222SOL    HW228566   1.344   3.713   4.451
 9223SOL     OW28567   6.890   3.272   4.835
 9223SOL    HW128568   6.799   3.238   4.809
 9223SOL    HW228569   6.957   3.240   4.768
 9224SOL     OW28570   2.493   5.108   3.267
 9224SOL    HW128571   2.562   5.140   3.332
 9224SOL    HW228572   2.447   5.186   3.226
 9225SOL     OW28573   5.910   6.018   5.941
 9225SOL    HW128574   5.867   6.014   6.031
 9225SOL    HW228575   5.932   5.925   5.910
 9226SOL     OW28576   0.892   0.737   6.954
 9226SOL    HW128577   0.891   0.770   6.860
 9226SOL    HW228578   0.985   0.710   6.979
 9227SOL     OW28579   2.925   3.835   0.350
 9227SOL    HW128580   2.905   3.926   0.387
 9227SOL    HW228581   2.845   3.802   0.298
 9228SOL     OW28582   3.838   2.914   4.949
 9228SOL    HW128583   3.793   2.845   4.892
 9228SOL    HW228584   3.867   2.991   4.892
 9229SOL     OW28585   6.836   5.138   0.563
 9229SOL    HW128586   6.934   5.155   0.554
 9229SOL    HW228587   6.786   5.189   0.493
 9230SOL     OW28588   4.472   1.251   4.659
 9230SOL    HW128589   4.550   1.295   4.615
 9230SOL    HW228590   4.402   1.232   4.590
 9231SOL     OW28591   6.580   6.011   1.976
 9231SOL    HW128592   6.482   6.008   1.956
 9231SOL    HW228593   6.605   6.103   2.006
 9232SOL     OW28594   0.983   5.482   2.499
 9232SOL    HW128595   1.080   5.477   2.473
 9232SOL    HW228596   0.930   5.518   2.422
 9233SOL     OW28597   1.143   6.567   5.687
 9233SOL    HW128598   1.198   6.489   5.715
 9233SOL    HW228599   1.156   6.583   5.589
 9234SOL     OW28600   2.778   3.494   6.244
 9234SOL    HW128601   2.735   3.437   6.174
 9234SOL    HW228602   2.801   3.438   6.323
 9235SOL     OW28603   1.815   2.228   3.406
 9235SOL    HW128604   1.742   2.181   3.455
 9235SOL    HW228605   1.776   2.283   3.332
 9236SOL     OW28606   1.766   3.321   6.237
 9236SOL    HW128607   1.795   3.233   6.275
 9236SOL    HW228608   1.810   3.395   6.289
 9237SOL     OW28609   6.493   5.446   2.395
 9237SOL    HW128610   6.403   5.491   2.401
 9237SOL    HW228611   6.534   5.465   2.306
 9238SOL     OW28612   1.612   3.021   4.554
 9238SOL    HW128613   1.663   3.049   4.636
 9238SOL    HW228614   1.590   2.924   4.560
 9239SOL     OW28615   0.752   4.449   6.854
 9239SOL    HW128616   0.799   4.527   6.895
 9239SOL    HW228617   0.653   4.460   6.864
 9240SOL     OW28618   4.168   1.829   3.549
 9240SOL    HW128619   4.075   1.798   3.527
 9240SOL    HW228620   4.163   1.905   3.614
 9241SOL     OW28621   5.624   0.354   0.388
 9241SOL    HW128622   5.597   0.425   0.453
 9241SOL    HW228623   5.675   0.283   0.435
 9242SOL     OW28624   1.605   2.457   0.869
 9242SOL    HW128625   1.566   2.541   0.904
 9242SOL    HW228626   1.538   2.383   0.877
 9243SOL     OW28627   1.793   0.253   0.001
 9243SOL    HW128628   1.789   0.317   0.079
 9243SOL    HW228629   1.751   0.296   6.946
 9244SOL     OW28630   3.343   6.267   5.861
 9244SOL    HW128631   3.406   6.198   5.827
 9244SOL    HW228632   3.386   6.357   5.857
 9245SOL     OW28633   1.805   5.231   2.727
 9245SOL    HW128634   1.747   5.154   2.701
 9245SOL    HW228635   1.855   5.263   2.646
 9246SOL     OW28636   5.141   6.961   6.820
 9246SOL    HW128637   5.111   0.024   6.857
 9246SOL    HW228638   5.171   6.973   6.725
 9247SOL     OW28639   4.094   5.949   2.816
 9247SOL    HW128640   4.094   5.990   2.725
 9247SOL    HW228641   4.181   5.903   2.832
 9248SOL     OW28642   2.130   0.745   6.781
 9248SOL    HW128643   2.146   0.814   6.852
 9248SOL    HW228644   2.063   0.678   6.815
 9249SOL     OW28645   2.472   6.603   0.655
 9249SOL    HW128646   2.480   6.618   0.753
 9249SOL    HW228647   2.484   6.506   0.634
 9250SOL     OW28648   0.148   2.879   3.414
 9250SOL    HW128649   0.096   2.867   3.329
 9250SOL    HW228650   0.218   2.808   3.421
 9251SOL     OW28651   3.409   1.504   0.866
 9251SOL    HW128652   3.485   1.463   0.915
 9251SOL    HW228653   3.364   1.571   0.924
 9252SOL     OW28654   5.927   1.261   4.919
 9252SOL    HW128655   6.002   1.325   4.904
 9252SOL    HW228656   5.945   1.206   5.000
 9253SOL     OW28657   1.450   5.534   5.027
 9253SOL    HW128658   1.399   5.504   4.947
 9253SOL    HW228659   1.548   5.527   5.010
 9254SOL     OW28660   0.171   5.084   2.430
 9254SOL    HW128661   0.147   4.987   2.438
 9254SOL    HW228662   0.136   5.120   2.344
 9255SOL     OW28663   6.542   4.489   0.552
 9255SOL    HW128664   6.601   4.409   0.541
 9255SOL    HW228665   6.516   4.499   0.648
 9256SOL     OW28666   3.243   6.570   0.712
 9256SOL    HW128667   3.247   6.506   0.788
 9256SOL    HW228668   3.177   6.537   0.644
 9257SOL     OW28669   5.740   5.551   4.480
 9257SOL    HW128670   5.698   5.545   4.571
 9257SOL    HW228671   5.775   5.461   4.453
 9258SOL     OW28672   3.680   5.623   0.960
 9258SOL    HW128673   3.614   5.623   1.035
 9258SOL    HW228674   3.756   5.563   0.983
 9259SOL     OW28675   0.915   1.939   6.914
 9259SOL    HW128676   0.900   1.845   6.882
 9259SOL    HW228677   0.852   1.960   6.989
 9260SOL     OW28678   5.169   3.887   4.649
 9260SOL    HW128679   5.178   3.800   4.696
 9260SOL    HW228680   5.103   3.878   4.575
 9261SOL     OW28681   2.305   1.532   1.427
 9261SOL    HW128682   2.303   1.552   1.329
 9261SOL    HW228683   2.251   1.600   1.477
 9262SOL     OW28684   6.955   6.204   6.007
 9262SOL    HW128685   6.948   6.147   5.925
 9262SOL    HW228686   6.866   6.244   6.027
 9263SOL     OW28687   2.040   4.816   3.439
 9263SOL    HW128688   2.058   4.888   3.507
 9263SOL    HW228689   2.074   4.729   3.473
 9264SOL     OW28690   5.736   4.454   6.170
 9264SOL    HW128691   5.826   4.496   6.171
 9264SOL    HW228692   5.738   4.368   6.221
 9265SOL     OW28693   5.876   1.308   1.583
 9265SOL    HW128694   5.926   1.297   1.669
 9265SOL    HW228695   5.828   1.396   1.583
 9266SOL     OW28696   1.775   4.373   0.672
 9266SOL    HW128697   1.821   4.327   0.596
 9266SOL    HW228698   1.743   4.305   0.737
 9267SOL     OW28699   6.697   1.174   4.325
 9267SOL    HW128700   6.749   1.186   4.241
 9267SOL    HW228701   6.753   1.203   4.403
 9268SOL     OW28702   0.378   0.251   1.652
 9268SOL    HW128703   0.467   0.296   1.647
 9268SOL    HW228704   0.371   0.201   1.738
 9269SOL     OW28705   3.730   1.042   6.994
 9269SOL    HW128706   3.814   1.043   0.023
 9269SOL    HW228707   3.709   0.947   6.968
 9270SOL     OW28708   2.691   0.623   6.406
 9270SOL    HW128709   2.661   0.670   6.489
 9270SOL    HW228710   2.784   0.588   6.419
 9271SOL     OW28711   1.456   5.506   5.315
 9271SOL    HW128712   1.370   5.553   5.334
 9271SOL    HW228713   1.493   5.538   5.228
 9272SOL     OW28714   6.356   6.756   5.809
 9272SOL    HW128715   6.361   6.691   5.885
 9272SOL    HW228716   6.372   6.848   5.843
 9273SOL     OW28717   5.410   4.096   3.241
 9273SOL    HW128718   5.452   4.012   3.276
 9273SOL    HW228719   5.313   4.097   3.264
 9274SOL     OW28720   0.776   3.198   0.796
 9274SOL    HW128721   0.761   3.297   0.790
 9274SOL    HW228722   0.752   3.155   0.709
 9275SOL     OW28723   5.622   0.878   0.636
 9275SOL    HW128724   5.593   0.792   0.592
 9275SOL    HW228725   5.545   0.941   0.640
 9276SOL     OW28726   2.573   4.985   0.007
 9276SOL    HW128727   2.620   5.012   6.948
 9276SOL    HW228728   2.530   5.066   0.048
 9277SOL     OW28729   4.616   5.125   2.562
 9277SOL    HW128730   4.619   5.143   2.463
 9277SOL    HW228731   4.679   5.050   2.584
 9278SOL     OW28732   0.590   0.129   5.233
 9278SOL    HW128733   0.508   0.110   5.178
 9278SOL    HW228734   0.564   0.144   5.328
 9279SOL     OW28735   3.646   5.932   1.862
 9279SOL    HW128736   3.607   5.935   1.770
 9279SOL    HW228737   3.630   5.841   1.901
 9280SOL     OW28738   2.039   5.911   3.160
 9280SOL    HW128739   2.037   5.975   3.238
 9280SOL    HW228740   2.026   5.963   3.075
 9281SOL     OW28741   1.776   5.680   1.079
 9281SOL    HW128742   1.870   5.703   1.103
 9281SOL    HW228743   1.774   5.590   1.036
 9282SOL     OW28744   3.021   0.016   4.874
 9282SOL    HW128745   2.989   0.079   4.945
 9282SOL    HW228746   3.091   0.061   4.819
 9283SOL     OW28747   4.375   0.006   0.960
 9283SOL    HW128748   4.393   6.960   1.028
 9283SOL    HW228749   4.447   0.075   0.963
 9284SOL     OW28750   3.955   3.996   5.691
 9284SOL    HW128751   3.941   3.962   5.598
 9284SOL    HW228752   3.971   4.095   5.688
 9285SOL     OW28753   0.601   6.055   2.937
 9285SOL    HW128754   0.629   5.973   2.987
 9285SOL    HW228755   0.677   6.090   2.883
 9286SOL     OW28756   4.155   6.928   1.760
 9286SOL    HW128757   4.105   6.945   1.674
 9286SOL    HW228758   4.241   6.978   1.759
 9287SOL     OW28759   4.075   3.809   5.851
 9287SOL    HW128760   4.148   3.766   5.798
 9287SOL    HW228761   4.031   3.879   5.795
 9288SOL     OW28762   3.291   1.691   1.618
 9288SOL    HW128763   3.311   1.787   1.597
 9288SOL    HW228764   3.226   1.686   1.694
 9289SOL     OW28765   4.817   0.056   0.816
 9289SOL    HW128766   4.848   0.145   0.781
 9289SOL    HW228767   4.891   7.014   0.809
 9290SOL     OW28768   5.609   1.555   4.257
 9290SOL    HW128769   5.545   1.605   4.199
 9290SOL    HW228770   5.596   1.581   4.352
 9291SOL     OW28771   0.867   3.633   6.192
 9291SOL    HW128772   0.830   3.723   6.217
 9291SOL    HW228773   0.861   3.621   6.093
 9292SOL     OW28774   0.628   0.723   6.555
 9292SOL    HW128775   0.575   0.686   6.632
 9292SOL    HW228776   0.566   0.767   6.490
 9293SOL     OW28777   4.913   2.474   4.069
 9293SOL    HW128778   4.814   2.475   4.054
 9293SOL    HW228779   4.960   2.454   3.984
 9294SOL     OW28780   4.712   0.486   5.999
 9294SOL    HW128781   4.732   0.444   5.910
 9294SOL    HW228782   4.642   0.557   5.986
 9295SOL     OW28783   6.323   1.218   4.764
 9295SOL    HW128784   6.366   1.175   4.844
 9295SOL    HW228785   6.380   1.206   4.684
 9296SOL     OW28786   2.129   4.957   6.055
 9296SOL    HW128787   2.094   4.881   6.110
 9296SOL    HW228788   2.075   4.966   5.972
 9297SOL     OW28789   6.522   5.518   2.122
 9297SOL    HW128790   6.578   5.473   2.052
 9297SOL    HW228791   6.559   5.609   2.141
 9298SOL     OW28792   1.129   3.587   6.428
 9298SOL    HW128793   1.213   3.642   6.424
 9298SOL    HW228794   1.126   3.524   6.351
 9299SOL     OW28795   2.105   2.401   4.588
 9299SOL    HW128796   2.199   2.393   4.554
 9299SOL    HW228797   2.041   2.365   4.520
 9300SOL     OW28798   2.329   5.827   4.707
 9300SOL    HW128799   2.233   5.806   4.690
 9300SOL    HW228800   2.356   5.789   4.795
 9301SOL     OW28801   0.230   4.444   4.189
 9301SOL    HW128802   0.275   4.514   4.133
 9301SOL    HW228803   0.273   4.441   4.279
 9302SOL     OW28804   2.142   4.105   4.610
 9302SOL    HW128805   2.135   4.172   4.536
 9302SOL    HW228806   2.204   4.139   4.680
 9303SOL     OW28807   2.718   4.416   7.013
 9303SOL    HW128808   2.695   4.457   0.076
 9303SOL    HW228809   2.640   4.422   6.952
 9304SOL     OW28810   5.185   5.579   6.627
 9304SOL    HW128811   5.160   5.551   6.535
 9304SOL    HW228812   5.158   5.508   6.692
 9305SOL     OW28813   1.696   2.215   1.335
 9305SOL    HW128814   1.780   2.220   1.389
 9305SOL    HW228815   1.626   2.274   1.376
 9306SOL     OW28816   6.958   6.350   4.894
 9306SOL    HW128817   6.952   6.414   4.817
 9306SOL    HW228818   6.921   6.262   4.866
 9307SOL     OW28819   1.897   3.827   1.159
 9307SOL    HW128820   1.894   3.924   1.134
 9307SOL    HW228821   1.937   3.818   1.250
 9308SOL     OW28822   2.147   3.365   1.679
 9308SOL    HW128823   2.202   3.412   1.749
 9308SOL    HW228824   2.095   3.432   1.627
 9309SOL     OW28825   5.025   5.234   6.648
 9309SOL    HW128826   5.098   5.167   6.660
 9309SOL    HW228827   4.944   5.188   6.611
 9310SOL     OW28828   5.932   5.675   6.235
 9310SOL    HW128829   5.939   5.772   6.257
 9310SOL    HW228830   5.852   5.660   6.177
 9311SOL     OW28831   5.061   4.482   0.310
 9311SOL    HW128832   5.149   4.492   0.356
 9311SOL    HW228833   5.046   4.386   0.287
 9312SOL     OW28834   0.317   3.350   2.860
 9312SOL    HW128835   0.277   3.258   2.863
 9312SOL    HW228836   0.249   3.417   2.889
 9313SOL     OW28837   0.389   0.827   2.251
 9313SOL    HW128838   0.392   0.812   2.152
 9313SOL    HW228839   0.369   0.924   2.269
 9314SOL     OW28840   5.263   4.464   0.950
 9314SOL    HW128841   5.211   4.474   0.866
 9314SOL    HW228842   5.294   4.369   0.960
 9315SOL     OW28843   5.519   6.388   5.938
 9315SOL    HW128844   5.589   6.456   5.914
 9315SOL    HW228845   5.454   6.428   6.002
 9316SOL     OW28846   4.893   0.208   6.479
 9316SOL    HW128847   4.927   0.135   6.420
 9316SOL    HW228848   4.795   0.220   6.464
 9317SOL     OW28849   3.485   5.998   3.465
 9317SOL    HW128850   3.547   5.923   3.489
 9317SOL    HW228851   3.435   5.974   3.382
 9318SOL     OW28852   4.040   6.944   2.223
 9318SOL    HW128853   4.044   6.845   2.219
 9318SOL    HW228854   3.953   6.972   2.263
 9319SOL     OW28855   4.416   2.013   0.378
 9319SOL    HW128856   4.364   2.054   0.453
 9319SOL    HW228857   4.353   1.983   0.307
 9320SOL     OW28858   6.601   6.421   0.076
 9320SOL    HW128859   6.609   6.347   0.143
 9320SOL    HW228860   6.533   6.397   0.007
 9321SOL     OW28861   0.816   2.868   4.783
 9321SOL    HW128862   0.783   2.962   4.772
 9321SOL    HW228863   0.792   2.834   4.874
 9322SOL     OW28864   5.436   3.060   6.893
 9322SOL    HW128865   5.376   3.129   6.853
 9322SOL    HW228866   5.384   3.004   6.958
 9323SOL     OW28867   0.603   2.033   5.917
 9323SOL    HW128868   0.680   2.042   5.980
 9323SOL    HW228869   0.538   2.107   5.933
 9324SOL     OW28870   0.535   4.420   1.673
 9324SOL    HW128871   0.598   4.374   1.610
 9324SOL    HW228872   0.459   4.459   1.621
 9325SOL     OW28873   0.940   4.625   3.651
 9325SOL    HW128874   0.858   4.679   3.667
 9325SOL    HW228875   1.001   4.633   3.731
 9326SOL     OW28876   4.262   3.886   0.783
 9326SOL    HW128877   4.226   3.847   0.868
 9326SOL    HW228878   4.231   3.981   0.774
 9327SOL     OW28879   2.827   0.982   3.548
 9327SOL    HW128880   2.731   1.010   3.545
 9327SOL    HW228881   2.841   0.903   3.488
 9328SOL     OW28882   2.498   0.692   3.650
 9328SOL    HW128883   2.528   0.710   3.556
 9328SOL    HW228884   2.433   0.616   3.650
 9329SOL     OW28885   0.283   5.458   0.019
 9329SOL    HW128886   0.236   5.496   0.099
 9329SOL    HW228887   0.223   5.465   6.964
 9330SOL     OW28888   6.875   6.278   0.213
 9330SOL    HW128889   6.784   6.264   0.251
 9330SOL    HW228890   6.898   6.201   0.153
 9331SOL     OW28891   1.938   3.745   3.951
 9331SOL    HW128892   1.848   3.722   3.913
 9331SOL    HW228893   1.931   3.753   4.051
 9332SOL     OW28894   5.975   5.607   0.762
 9332SOL    HW128895   6.011   5.558   0.683
 9332SOL    HW228896   6.002   5.703   0.757
 9333SOL     OW28897   3.051   3.799   1.162
 9333SOL    HW128898   3.035   3.897   1.147
 9333SOL    HW228899   3.074   3.755   1.075
 9334SOL     OW28900   5.738   6.126   5.709
 9334SOL    HW128901   5.812   6.131   5.776
 9334SOL    HW228902   5.651   6.111   5.756
 9335SOL     OW28903   0.867   3.630   1.698
 9335SOL    HW128904   0.850   3.716   1.747
 9335SOL    HW228905   0.781   3.582   1.684
 9336SOL     OW28906   5.465   0.899   5.788
 9336SOL    HW128907   5.441   0.839   5.864
 9336SOL    HW228908   5.452   0.995   5.816
 9337SOL     OW28909   2.546   1.243   5.646
 9337SOL    HW128910   2.548   1.227   5.547
 9337SOL    HW228911   2.598   1.172   5.692
 9338SOL     OW28912   5.742   6.458   0.309
 9338SOL    HW128913   5.711   6.448   0.214
 9338SOL    HW228914   5.799   6.539   0.317
 9339SOL     OW28915   0.172   3.903   5.709
 9339SOL    HW128916   0.118   3.833   5.756
 9339SOL    HW228917   0.228   3.952   5.775
 9340SOL     OW28918   3.329   4.828   1.476
 9340SOL    HW128919   3.375   4.779   1.550
 9340SOL    HW228920   3.305   4.920   1.508
 9341SOL     OW28921   5.113   5.016   6.442
 9341SOL    HW128922   5.167   5.100   6.442
 9341SOL    HW228923   5.174   4.937   6.435
 9342SOL     OW28924   2.840   0.303   4.683
 9342SOL    HW128925   2.790   0.247   4.617
 9342SOL    HW228926   2.842   0.256   4.772
 9343SOL     OW28927   4.738   3.757   0.787
 9343SOL    HW128928   4.800   3.835   0.776
 9343SOL    HW228929   4.789   3.678   0.822
 9344SOL     OW28930   6.175   0.573   5.467
 9344SOL    HW128931   6.255   0.592   5.410
 9344SOL    HW228932   6.092   0.589   5.413
 9345SOL     OW28933   0.126   4.830   0.418
 9345SOL    HW128934   0.113   4.845   0.516
 9345SOL    HW228935   0.045   4.784   0.380
 9346SOL     OW28936   5.746   6.448   1.636
 9346SOL    HW128937   5.676   6.470   1.568
 9346SOL    HW228938   5.831   6.425   1.590
 9347SOL     OW28939   3.770   5.878   0.979
 9347SOL    HW128940   3.755   5.779   0.976
 9347SOL    HW228941   3.682   5.925   0.964
 9348SOL     OW28942   2.376   5.467   2.034
 9348SOL    HW128943   2.373   5.567   2.029
 9348SOL    HW228944   2.307   5.428   1.972
 9349SOL     OW28945   0.028   5.992   1.744
 9349SOL    HW128946   0.073   6.079   1.767
 9349SOL    HW228947   0.058   5.962   1.654
 9350SOL     OW28948   6.544   0.415   7.017
 9350SOL    HW128949   6.607   0.409   6.940
 9350SOL    HW228950   6.510   0.323   0.014
 9351SOL     OW28951   3.901   3.051   5.521
 9351SOL    HW128952   3.976   2.990   5.545
 9351SOL    HW228953   3.814   3.010   5.548
 9352SOL     OW28954   3.061   2.801   6.369
 9352SOL    HW128955   3.080   2.764   6.459
 9352SOL    HW228956   3.100   2.742   6.298
 9353SOL     OW28957   0.259   3.614   0.942
 9353SOL    HW128958   0.349   3.602   0.901
 9353SOL    HW228959   0.270   3.628   1.041
 9354SOL     OW28960   4.752   1.433   1.797
 9354SOL    HW128961   4.746   1.451   1.699
 9354SOL    HW228962   4.847   1.413   1.822
 9355SOL     OW28963   6.650   1.223   3.181
 9355SOL    HW128964   6.697   1.154   3.126
 9355SOL    HW228965   6.706   1.247   3.260
 9356SOL     OW28966   4.710   4.865   2.661
 9356SOL    HW128967   4.727   4.767   2.663
 9356SOL    HW228968   4.643   4.889   2.732
 9357SOL     OW28969   3.131   3.132   0.634
 9357SOL    HW128970   3.121   3.191   0.554
 9357SOL    HW228971   3.064   3.157   0.703
 9358SOL     OW28972   5.032   4.339   2.122
 9358SOL    HW128973   5.111   4.346   2.061
 9358SOL    HW228974   4.952   4.313   2.069
 9359SOL     OW28975   5.126   4.718   5.975
 9359SOL    HW128976   5.128   4.815   5.952
 9359SOL    HW228977   5.174   4.666   5.905
 9360SOL     OW28978   1.514   0.222   5.236
 9360SOL    HW128979   1.435   0.272   5.202
 9360SOL    HW228980   1.544   0.155   5.168
 9361SOL     OW28981   2.519   1.000   2.523
 9361SOL    HW128982   2.455   0.987   2.599
 9361SOL    HW228983   2.485   1.072   2.462
 9362SOL     OW28984   1.953   1.683   2.972
 9362SOL    HW128985   2.030   1.681   3.036
 9362SOL    HW228986   1.964   1.610   2.904
 9363SOL     OW28987   2.488   6.925   1.782
 9363SOL    HW128988   2.434   6.923   1.866
 9363SOL    HW228989   2.586   6.926   1.805
 9364SOL     OW28990   5.241   5.299   0.533
 9364SOL    HW128991   5.269   5.203   0.541
 9364SOL    HW228992   5.265   5.333   0.442
 9365SOL     OW28993   1.672   1.005   4.934
 9365SOL    HW128994   1.677   1.103   4.914
 9365SOL    HW228995   1.754   0.960   4.899
 9366SOL     OW28996   2.608   1.213   1.259
 9366SOL    HW128997   2.554   1.178   1.182
 9366SOL    HW228998   2.580   1.307   1.278
 9367SOL     OW28999   6.699   6.062   3.558
 9367SOL    HW129000   6.626   6.007   3.598
 9367SOL    HW229001   6.780   6.005   3.545
 9368SOL     OW29002   3.894   2.989   1.475
 9368SOL    HW129003   3.824   2.920   1.455
 9368SOL    HW229004   3.911   2.992   1.574
 9369SOL     OW29005   0.159   2.162   5.532
 9369SOL    HW129006   0.219   2.129   5.605
 9369SOL    HW229007   0.204   2.147   5.443
 9370SOL     OW29008   6.134   0.052   3.076
 9370SOL    HW129009   6.131   6.980   3.054
 9370SOL    HW229010   6.161   0.064   3.172
 9371SOL     OW29011   1.141   6.469   0.655
 9371SOL    HW129012   1.075   6.536   0.621
 9371SOL    HW229013   1.162   6.489   0.751
 9372SOL     OW29014   6.581   6.307   6.434
 9372SOL    HW129015   6.592   6.406   6.440
 9372SOL    HW229016   6.523   6.276   6.508
 9373SOL     OW29017   4.840   1.852   4.030
 9373SOL    HW129018   4.854   1.930   4.091
 9373SOL    HW229019   4.744   1.825   4.031
 9374SOL     OW29020   4.969   3.949   0.361
 9374SOL    HW129021   5.067   3.932   0.347
 9374SOL    HW229022   4.930   3.874   0.414
 9375SOL     OW29023   0.555   1.431   3.975
 9375SOL    HW129024   0.533   1.428   4.072
 9375SOL    HW229025   0.506   1.357   3.927
 9376SOL     OW29026   2.182   2.950   2.189
 9376SOL    HW129027   2.122   2.889   2.242
 9376SOL    HW229028   2.270   2.906   2.175
 9377SOL     OW29029   6.112   5.497   3.306
 9377SOL    HW129030   6.108   5.438   3.225
 9377SOL    HW229031   6.194   5.474   3.359
 9378SOL     OW29032   3.188   6.370   0.890
 9378SOL    HW129033   3.228   6.283   0.860
 9378SOL    HW229034   3.090   6.359   0.902
 9379SOL     OW29035   5.534   4.575   5.089
 9379SOL    HW129036   5.614   4.533   5.045
 9379SOL    HW229037   5.506   4.656   5.037
 9380SOL     OW29038   5.814   6.302   6.484
 9380SOL    HW129039   5.839   6.341   6.395
 9380SOL    HW229040   5.715   6.303   6.493
 9381SOL     OW29041   2.864   0.949   0.120
 9381SOL    HW129042   2.870   1.042   0.154
 9381SOL    HW229043   2.955   0.917   0.092
 9382SOL     OW29044   4.900   2.188   2.243
 9382SOL    HW129045   4.816   2.195   2.296
 9382SOL    HW229046   4.897   2.252   2.166
 9383SOL     OW29047   5.138   5.797   5.582
 9383SOL    HW129048   5.225   5.752   5.602
 9383SOL    HW229049   5.063   5.738   5.612
 9384SOL     OW29050   4.904   6.035   1.792
 9384SOL    HW129051   4.807   6.034   1.817
 9384SOL    HW229052   4.955   5.973   1.851
 9385SOL     OW29053   3.536   1.280   3.423
 9385SOL    HW129054   3.569   1.187   3.435
 9385SOL    HW229055   3.613   1.340   3.402
 9386SOL     OW29056   3.569   0.481   4.451
 9386SOL    HW129057   3.636   0.534   4.503
 9386SOL    HW229058   3.478   0.492   4.492
 9387SOL     OW29059   4.121   0.017   6.911
 9387SOL    HW129060   4.132   0.021   6.812
 9387SOL    HW229061   4.180   0.085   6.954
 9388SOL     OW29062   6.958   0.310   2.695
 9388SOL    HW129063   6.905   0.350   2.769
 9388SOL    HW229064   7.021   0.379   2.658
 9389SOL     OW29065   2.939   0.485   6.474
 9389SOL    HW129066   2.951   0.437   6.387
 9389SOL    HW229067   3.018   0.544   6.490
 9390SOL     OW29068   3.113   6.215   2.389
 9390SOL    HW129069   3.138   6.310   2.370
 9390SOL    HW229070   3.114   6.199   2.488
 9391SOL     OW29071   0.647   0.966   5.212
 9391SOL    HW129072   0.711   1.008   5.277
 9391SOL    HW229073   0.636   1.027   5.134
 9392SOL     OW29074   1.644   6.415   4.501
 9392SOL    HW129075   1.606   6.345   4.440
 9392SOL    HW229076   1.570   6.470   4.539
 9393SOL     OW29077   3.803   2.178   5.226
 9393SOL    HW129078   3.809   2.084   5.260
 9393SOL    HW229079   3.894   2.221   5.232
 9394SOL     OW29080   4.914   2.103   2.559
 9394SOL    HW129081   4.835   2.124   2.501
 9394SOL    HW229082   4.900   2.014   2.603
 9395SOL     OW29083   1.778   3.079   0.090
 9395SOL    HW129084   1.701   3.106   0.032
 9395SOL    HW229085   1.754   2.996   0.140
 9396SOL     OW29086   6.712   0.375   6.814
 9396SOL    HW129087   6.795   0.349   6.865
 9396SOL    HW229088   6.674   0.294   6.770
 9397SOL     OW29089   3.253   0.567   0.819
 9397SOL    HW129090   3.335   0.529   0.776
 9397SOL    HW229091   3.218   0.642   0.763
 9398SOL     OW29092   2.672   1.736   6.983
 9398SOL    HW129093   2.638   1.647   6.952
 9398SOL    HW229094   2.756   1.758   6.935
 9399SOL     OW29095   6.832   0.820   5.440
 9399SOL    HW129096   6.855   0.884   5.367
 9399SOL    HW229097   6.843   0.726   5.407
 9400SOL     OW29098   5.361   2.243   3.245
 9400SOL    HW129099   5.416   2.162   3.262
 9400SOL    HW229100   5.265   2.223   3.264
 9401SOL     OW29101   3.011   0.319   2.842
 9401SOL    HW129102   3.051   0.252   2.780
 9401SOL    HW229103   3.084   0.365   2.893
 9402SOL     OW29104   2.658   5.371   6.529
 9402SOL    HW129105   2.575   5.317   6.545
 9402SOL    HW229106   2.727   5.314   6.485
 9403SOL     OW29107   5.301   1.476   3.983
 9403SOL    HW129108   5.360   1.406   4.024
 9403SOL    HW229109   5.267   1.537   4.055
 9404SOL     OW29110   0.210   4.146   6.242
 9404SOL    HW129111   0.285   4.082   6.225
 9404SOL    HW229112   0.147   4.146   6.164
 9405SOL     OW29113   6.223   6.802   1.222
 9405SOL    HW129114   6.173   6.888   1.211
 9405SOL    HW229115   6.317   6.821   1.251
 9406SOL     OW29116   0.279   1.397   5.270
 9406SOL    HW129117   0.233   1.364   5.353
 9406SOL    HW229118   0.221   1.466   5.226
 9407SOL     OW29119   3.356   6.176   2.970
 9407SOL    HW129120   3.263   6.181   2.932
 9407SOL    HW229121   3.416   6.134   2.902
 9408SOL     OW29122   4.171   1.590   6.290
 9408SOL    HW129123   4.116   1.575   6.207
 9408SOL    HW229124   4.206   1.502   6.323
 9409SOL     OW29125   5.514   4.104   2.992
 9409SOL    HW129126   5.486   4.102   3.088
 9409SOL    HW229127   5.599   4.156   2.983
 9410SOL     OW29128   4.429   6.128   2.911
 9410SOL    HW129129   4.528   6.139   2.913
 9410SOL    HW229130   4.387   6.211   2.875
 9411SOL     OW29131   4.510   5.419   0.968
 9411SOL    HW129132   4.478   5.496   0.913
 9411SOL    HW229133   4.536   5.451   1.059
 9412SOL     OW29134   6.278   2.514   1.442
 9412SOL    HW129135   6.225   2.532   1.359
 9412SOL    HW229136   6.325   2.426   1.434
 9413SOL     OW29137   3.816   6.182   5.697
 9413SOL    HW129138   3.896   6.206   5.753
 9413SOL    HW229139   3.818   6.235   5.612
 9414SOL     OW29140   2.579   1.390   1.772
 9414SOL    HW129141   2.502   1.447   1.802
 9414SOL    HW229142   2.664   1.442   1.779
 9415SOL     OW29143   2.805   0.480   2.381
 9415SOL    HW129144   2.869   0.426   2.327
 9415SOL    HW229145   2.729   0.509   2.323
 9416SOL     OW29146   0.616   2.631   1.499
 9416SOL    HW129147   0.607   2.616   1.597
 9416SOL    HW229148   0.604   2.728   1.478
 9417SOL     OW29149   2.575   6.196   4.468
 9417SOL    HW129150   2.669   6.179   4.440
 9417SOL    HW229151   2.574   6.245   4.555
 9418SOL     OW29152   3.649   5.074   0.665
 9418SOL    HW129153   3.673   5.043   0.573
 9418SOL    HW229154   3.664   5.000   0.731
 9419SOL     OW29155   3.770   6.624   5.645
 9419SOL    HW129156   3.674   6.606   5.667
 9419SOL    HW229157   3.793   6.718   5.671
 9420SOL     OW29158   0.536   1.407   4.431
 9420SOL    HW129159   0.500   1.314   4.422
 9420SOL    HW229160   0.614   1.418   4.370
 9421SOL     OW29161   1.882   4.481   5.489
 9421SOL    HW129162   1.913   4.401   5.541
 9421SOL    HW229163   1.934   4.486   5.403
 9422SOL     OW29164   3.902   1.541   2.051
 9422SOL    HW129165   3.873   1.566   2.143
 9422SOL    HW229166   3.932   1.622   2.002
 9423SOL     OW29167   5.052   1.040   4.908
 9423SOL    HW129168   4.954   1.022   4.905
 9423SOL    HW229169   5.074   1.117   4.847
 9424SOL     OW29170   3.196   6.487   4.656
 9424SOL    HW129171   3.259   6.564   4.671
 9424SOL    HW229172   3.108   6.523   4.626
 9425SOL     OW29173   1.100   3.460   4.395
 9425SOL    HW129174   1.147   3.541   4.360
 9425SOL    HW229175   1.058   3.482   4.484
 9426SOL     OW29176   3.300   6.499   0.268
 9426SOL    HW129177   3.343   6.571   0.214
 9426SOL    HW229178   3.308   6.412   0.219
 9427SOL     OW29179   3.102   5.156   4.012
 9427SOL    HW129180   3.009   5.124   3.995
 9427SOL    HW229181   3.112   5.180   4.108
 9428SOL     OW29182   5.134   6.247   2.799
 9428SOL    HW129183   5.081   6.292   2.871
 9428SOL    HW229184   5.071   6.197   2.739
 9429SOL     OW29185   0.126   3.667   2.223
 9429SOL    HW129186   0.118   3.765   2.208
 9429SOL    HW229187   0.077   3.642   2.306
 9430SOL     OW29188   5.826   6.715   1.869
 9430SOL    HW129189   5.870   6.710   1.959
 9430SOL    HW229190   5.775   6.630   1.853
 9431SOL     OW29191   6.624   4.415   1.904
 9431SOL    HW129192   6.550   4.366   1.950
 9431SOL    HW229193   6.651   4.494   1.960
 9432SOL     OW29194   6.707   6.846   4.400
 9432SOL    HW129195   6.670   6.789   4.474
 9432SOL    HW229196   6.644   6.921   4.381
 9433SOL     OW29197   2.895   4.843   4.951
 9433SOL    HW129198   2.841   4.870   4.872
 9433SOL    HW229199   2.853   4.764   4.995
 9434SOL     OW29200   4.986   5.478   2.787
 9434SOL    HW129201   4.921   5.540   2.830
 9434SOL    HW229202   5.057   5.532   2.740
 9435SOL     OW29203   1.370   0.788   4.286
 9435SOL    HW129204   1.362   0.865   4.350
 9435SOL    HW229205   1.425   0.716   4.329
 9436SOL     OW29206   2.277   2.549   6.849
 9436SOL    HW129207   2.201   2.566   6.913
 9436SOL    HW229208   2.347   2.620   6.861
 9437SOL     OW29209   1.046   5.273   4.171
 9437SOL    HW129210   1.129   5.218   4.160
 9437SOL    HW229211   0.991   5.236   4.246
 9438SOL     OW29212   1.460   6.091   1.995
 9438SOL    HW129213   1.463   6.189   1.977
 9438SOL    HW229214   1.528   6.068   2.065
 9439SOL     OW29215   0.253   2.584   1.782
 9439SOL    HW129216   0.208   2.657   1.834
 9439SOL    HW229217   0.336   2.555   1.830
 9440SOL     OW29218   5.072   6.378   5.738
 9440SOL    HW129219   4.998   6.318   5.709
 9440SOL    HW229220   5.114   6.341   5.821
 9441SOL     OW29221   1.579   4.585   5.239
 9441SOL    HW129222   1.607   4.533   5.320
 9441SOL    HW229223   1.647   4.655   5.219
 9442SOL     OW29224   0.530   4.152   1.856
 9442SOL    HW129225   0.485   4.210   1.924
 9442SOL    HW229226   0.462   4.114   1.794
 9443SOL     OW29227   1.682   3.890   1.847
 9443SOL    HW129228   1.610   3.822   1.852
 9443SOL    HW229229   1.713   3.900   1.752
 9444SOL     OW29230   0.159   3.615   6.626
 9444SOL    HW129231   0.106   3.530   6.621
 9444SOL    HW229232   0.123   3.673   6.699
 9445SOL     OW29233   5.755   3.196   1.006
 9445SOL    HW129234   5.662   3.164   1.025
 9445SOL    HW229235   5.819   3.146   1.066
 9446SOL     OW29236   6.322   5.571   1.286
 9446SOL    HW129237   6.364   5.485   1.258
 9446SOL    HW229238   6.251   5.554   1.354
 9447SOL     OW29239   5.860   2.350   1.807
 9447SOL    HW129240   5.950   2.346   1.851
 9447SOL    HW229241   5.849   2.437   1.761
 9448SOL     OW29242   6.270   6.518   0.413
 9448SOL    HW129243   6.176   6.484   0.411
 9448SOL    HW229244   6.305   6.514   0.507
 9449SOL     OW29245   7.010   5.247   5.735
 9449SOL    HW129246   6.926   5.198   5.714
 9449SOL    HW229247   6.988   5.332   5.784
 9450SOL     OW29248   3.245   4.902   4.247
 9450SOL    HW129249   3.245   4.844   4.328
 9450SOL    HW229250   3.176   4.974   4.257
 9451SOL     OW29251   4.295   4.833   5.966
 9451SOL    HW129252   4.285   4.734   5.960
 9451SOL    HW229253   4.388   4.855   5.996
 9452SOL     OW29254   2.596   4.476   1.265
 9452SOL    HW129255   2.612   4.560   1.316
 9452SOL    HW229256   2.671   4.461   1.200
 9453SOL     OW29257   3.491   5.180   2.266
 9453SOL    HW129258   3.414   5.196   2.204
 9453SOL    HW229259   3.520   5.085   2.260
 9454SOL     OW29260   2.389   2.787   5.273
 9454SOL    HW129261   2.394   2.873   5.222
 9454SOL    HW229262   2.397   2.806   5.371
 9455SOL     OW29263   3.115   1.673   1.838
 9455SOL    HW129264   3.152   1.757   1.878
 9455SOL    HW229265   3.038   1.641   1.894
 9456SOL     OW29266   1.393   3.246   1.559
 9456SOL    HW129267   1.306   3.204   1.585
 9456SOL    HW229268   1.467   3.208   1.614
 9457SOL     OW29269   0.413   3.447   0.644
 9457SOL    HW129270   0.424   3.429   0.741
 9457SOL    HW229271   0.500   3.475   0.604
 9458SOL     OW29272   0.091   5.707   5.175
 9458SOL    HW129273   0.033   5.639   5.130
 9458SOL    HW229274   0.042   5.746   5.253
 9459SOL     OW29275   5.850   5.485   1.456
 9459SOL    HW129276   5.779   5.472   1.525
 9459SOL    HW229277   5.826   5.563   1.398
 9460SOL     OW29278   0.923   2.226   5.515
 9460SOL    HW129279   0.960   2.290   5.583
 9460SOL    HW229280   0.926   2.268   5.424
 9461SOL     OW29281   1.129   0.907   3.439
 9461SOL    HW129282   1.084   0.942   3.357
 9461SOL    HW229283   1.062   0.859   3.496
 9462SOL     OW29284   0.706   3.470   2.684
 9462SOL    HW129285   0.683   3.554   2.635
 9462SOL    HW229286   0.798   3.441   2.658
 9463SOL     OW29287   5.330   1.363   0.503
 9463SOL    HW129288   5.419   1.397   0.535
 9463SOL    HW229289   5.323   1.375   0.404
 9464SOL     OW29290   5.408   0.709   5.997
 9464SOL    HW129291   5.492   0.698   6.049
 9464SOL    HW229292   5.349   0.629   6.011
 9465SOL     OW29293   6.369   0.347   3.886
 9465SOL    HW129294   6.371   0.325   3.789
 9465SOL    HW229295   6.367   0.446   3.898
 9466SOL     OW29296   2.878   2.467   6.548
 9466SOL    HW129297   2.896   2.565   6.540
 9466SOL    HW229298   2.910   2.420   6.465
 9467SOL     OW29299   2.008   3.347   1.938
 9467SOL    HW129300   2.081   3.401   1.980
 9467SOL    HW229301   2.038   3.314   1.848
 9468SOL     OW29302   6.706   2.997   5.747
 9468SOL    HW129303   6.618   2.956   5.725
 9468SOL    HW229304   6.703   3.036   5.839
 9469SOL     OW29305   6.427   4.728   1.871
 9469SOL    HW129306   6.393   4.805   1.817
 9469SOL    HW229307   6.360   4.654   1.870
 9470SOL     OW29308   5.417   3.724   0.748
 9470SOL    HW129309   5.498   3.703   0.693
 9470SOL    HW229310   5.400   3.649   0.812
 9471SOL     OW29311   6.914   1.781   6.201
 9471SOL    HW129312   6.913   1.693   6.152
 9471SOL    HW229313   6.821   1.804   6.231
 9472SOL     OW29314   6.614   3.852   3.934
 9472SOL    HW129315   6.697   3.897   3.966
 9472SOL    HW229316   6.634   3.756   3.915
 9473SOL     OW29317   3.225   5.459   5.170
 9473SOL    HW129318   3.283   5.383   5.138
 9473SOL    HW229319   3.211   5.451   5.268
 9474SOL     OW29320   4.499   5.498   2.342
 9474SOL    HW129321   4.478   5.504   2.439
 9474SOL    HW229322   4.510   5.590   2.304
 9475SOL     OW29323   2.038   3.287   1.140
 9475SOL    HW129324   2.100   3.254   1.069
 9475SOL    HW229325   2.070   3.376   1.173
 9476SOL     OW29326   3.699   3.766   5.175
 9476SOL    HW129327   3.744   3.815   5.249
 9476SOL    HW229328   3.762   3.701   5.134
 9477SOL     OW29329   1.140   2.859   1.131
 9477SOL    HW129330   1.089   2.856   1.045
 9477SOL    HW229331   1.227   2.810   1.120
 9478SOL     OW29332   5.636   4.597   5.679
 9478SOL    HW129333   5.684   4.610   5.593
 9478SOL    HW229334   5.648   4.502   5.710
 9479SOL     OW29335   6.219   5.857   6.090
 9479SOL    HW129336   6.153   5.931   6.106
 9479SOL    HW229337   6.277   5.880   6.012
 9480SOL     OW29338   5.607   4.771   6.989
 9480SOL    HW129339   5.667   4.850   6.971
 9480SOL    HW229340   5.621   4.740   0.058
 9481SOL     OW29341   0.188   3.589   1.942
 9481SOL    HW129342   0.202   3.593   2.040
 9481SOL    HW229343   0.256   3.529   1.901
 9482SOL     OW29344   4.071   0.534   2.840
 9482SOL    HW129345   4.158   0.489   2.864
 9482SOL    HW229346   4.080   0.633   2.852
 9483SOL     OW29347   1.758   2.058   6.877
 9483SOL    HW129348   1.686   2.120   6.908
 9483SOL    HW229349   1.716   1.977   6.836
 9484SOL     OW29350   6.684   1.611   3.465
 9484SOL    HW129351   6.611   1.676   3.484
 9484SOL    HW229352   6.702   1.555   3.545
 9485SOL     OW29353   1.178   0.065   2.904
 9485SOL    HW129354   1.244   0.079   2.830
 9485SOL    HW229355   1.151   0.154   2.942
 9486SOL     OW29356   2.986   6.034   2.177
 9486SOL    HW129357   2.986   6.080   2.266
 9486SOL    HW229358   3.057   6.073   2.119
 9487SOL     OW29359   3.146   3.078   4.183
 9487SOL    HW129360   3.147   3.028   4.269
 9487SOL    HW229361   3.206   3.157   4.190
 9488SOL     OW29362   1.700   6.927   0.889
 9488SOL    HW129363   1.626   6.901   0.827
 9488SOL    HW229364   1.667   6.921   0.984
 9489SOL     OW29365   3.651   4.626   0.712
 9489SOL    HW129366   3.633   4.541   0.760
 9489SOL    HW229367   3.605   4.702   0.760
 9490SOL     OW29368   5.459   1.435   0.872
 9490SOL    HW129369   5.422   1.527   0.878
 9490SOL    HW229370   5.559   1.439   0.876
 9491SOL     OW29371   5.787   5.381   6.554
 9491SOL    HW129372   5.835   5.469   6.561
 9491SOL    HW229373   5.721   5.386   6.479
 9492SOL     OW29374   3.071   4.057   1.829
 9492SOL    HW129375   3.158   4.095   1.797
 9492SOL    HW229376   3.083   4.020   1.921
 9493SOL     OW29377   4.713   6.526   3.222
 9493SOL    HW129378   4.680   6.567   3.307
 9493SOL    HW229379   4.789   6.580   3.186
 9494SOL     OW29380   4.038   3.359   5.427
 9494SOL    HW129381   4.090   3.340   5.510
 9494SOL    HW229382   3.989   3.446   5.437
 9495SOL     OW29383   5.773   2.484   5.453
 9495SOL    HW129384   5.811   2.448   5.538
 9495SOL    HW229385   5.755   2.582   5.463
 9496SOL     OW29386   5.383   4.544   0.112
 9496SOL    HW129387   5.321   4.534   0.190
 9496SOL    HW229388   5.394   4.455   0.067
 9497SOL     OW29389   5.862   5.950   6.264
 9497SOL    HW129390   5.780   5.992   6.225
 9497SOL    HW229391   5.927   6.022   6.288
 9498SOL     OW29392   4.072   0.537   6.152
 9498SOL    HW129393   4.110   0.449   6.180
 9498SOL    HW229394   4.012   0.524   6.073
 9499SOL     OW29395   3.848   4.340   5.367
 9499SOL    HW129396   3.941   4.369   5.387
 9499SOL    HW229397   3.847   4.286   5.283
 9500SOL     OW29398   5.157   6.197   1.562
 9500SOL    HW129399   5.131   6.100   1.559
 9500SOL    HW229400   5.103   6.248   1.496
 9501SOL     OW29401   3.171   1.745   4.839
 9501SOL    HW129402   3.198   1.832   4.879
 9501SOL    HW229403   3.086   1.756   4.788
 9502SOL     OW29404   6.064   3.281   5.695
 9502SOL    HW129405   6.084   3.186   5.670
 9502SOL    HW229406   6.107   3.343   5.630
 9503SOL     OW29407   1.665   6.904   1.174
 9503SOL    HW129408   1.747   6.870   1.220
 9503SOL    HW229409   1.584   6.879   1.227
 9504SOL     OW29410   0.610   2.465   6.516
 9504SOL    HW129411   0.571   2.481   6.607
 9504SOL    HW229412   0.703   2.501   6.512
 9505SOL     OW29413   5.968   2.972   2.903
 9505SOL    HW129414   5.914   3.001   2.824
 9505SOL    HW229415   6.044   2.915   2.872
 9506SOL     OW29416   6.437   4.118   0.495
 9506SOL    HW129417   6.478   4.036   0.455
 9506SOL    HW229418   6.509   4.182   0.521
 9507SOL     OW29419   0.981   2.317   3.281
 9507SOL    HW129420   1.040   2.240   3.255
 9507SOL    HW229421   1.022   2.365   3.358
 9508SOL     OW29422   6.000   2.113   0.145
 9508SOL    HW129423   5.985   2.020   0.176
 9508SOL    HW229424   5.911   2.156   0.126
 9509SOL     OW29425   2.330   6.322   5.418
 9509SOL    HW129426   2.253   6.263   5.393
 9509SOL    HW229427   2.382   6.280   5.492
 9510SOL     OW29428   6.423   4.669   3.487
 9510SOL    HW129429   6.422   4.588   3.428
 9510SOL    HW229430   6.513   4.712   3.483
 9511SOL     OW29431   0.557   1.322   0.658
 9511SOL    HW129432   0.569   1.225   0.677
 9511SOL    HW229433   0.647   1.364   0.641
 9512SOL     OW29434   1.199   2.067   3.531
 9512SOL    HW129435   1.278   2.064   3.592
 9512SOL    HW229436   1.134   2.135   3.565
 9513SOL     OW29437   2.444   4.473   4.162
 9513SOL    HW129438   2.513   4.474   4.090
 9513SOL    HW229439   2.408   4.380   4.173
 9514SOL     OW29440   2.108   2.960   6.595
 9514SOL    HW129441   2.173   3.007   6.536
 9514SOL    HW229442   2.120   2.861   6.586
 9515SOL     OW29443   1.997   5.827   6.149
 9515SOL    HW129444   1.995   5.792   6.243
 9515SOL    HW229445   1.986   5.927   6.150
 9516SOL     OW29446   5.568   3.504   4.157
 9516SOL    HW129447   5.468   3.510   4.153
 9516SOL    HW229448   5.598   3.515   4.252
 9517SOL     OW29449   0.505   5.456   2.197
 9517SOL    HW129450   0.558   5.379   2.233
 9517SOL    HW229451   0.559   5.504   2.128
 9518SOL     OW29452   0.863   2.400   5.931
 9518SOL    HW129453   0.890   2.384   6.026
 9518SOL    HW229454   0.766   2.424   5.928
 9519SOL     OW29455   3.594   3.886   3.374
 9519SOL    HW129456   3.657   3.845   3.308
 9519SOL    HW229457   3.500   3.871   3.343
 9520SOL     OW29458   6.159   0.778   5.700
 9520SOL    HW129459   6.152   0.682   5.673
 9520SOL    HW229460   6.252   0.798   5.730
 9521SOL     OW29461   3.787   0.280   1.083
 9521SOL    HW129462   3.695   0.275   1.045
 9521SOL    HW229463   3.852   0.243   1.017
 9522SOL     OW29464   3.812   6.407   2.576
 9522SOL    HW129465   3.785   6.436   2.485
 9522SOL    HW229466   3.796   6.481   2.641
 9523SOL     OW29467   2.675   5.006   4.156
 9523SOL    HW129468   2.700   5.002   4.253
 9523SOL    HW229469   2.585   4.963   4.144
 9524SOL     OW29470   2.322   4.327   1.159
 9524SOL    HW129471   2.279   4.405   1.115
 9524SOL    HW229472   2.415   4.352   1.188
 9525SOL     OW29473   1.981   3.246   5.354
 9525SOL    HW129474   1.911   3.181   5.326
 9525SOL    HW229475   2.071   3.203   5.349
 9526SOL     OW29476   4.681   5.124   6.863
 9526SOL    HW129477   4.712   5.088   6.775
 9526SOL    HW229478   4.741   5.200   6.891
 9527SOL     OW29479   4.095   0.054   3.350
 9527SOL    HW129480   4.064   6.989   3.320
 9527SOL    HW229481   4.034   0.088   3.422
 9528SOL     OW29482   5.691   2.325   1.523
 9528SOL    HW129483   5.758   2.318   1.596
 9528SOL    HW229484   5.738   2.344   1.436
 9529SOL     OW29485   6.371   1.253   1.652
 9529SOL    HW129486   6.287   1.305   1.638
 9529SOL    HW229487   6.416   1.285   1.736
 9530SOL     OW29488   0.903   5.687   4.122
 9530SOL    HW129489   0.877   5.761   4.061
 9530SOL    HW229490   0.967   5.626   4.075
 9531SOL     OW29491   3.714   5.533   2.632
 9531SOL    HW129492   3.622   5.500   2.611
 9531SOL    HW229493   3.764   5.462   2.681
 9532SOL     OW29494   6.691   5.161   2.790
 9532SOL    HW129495   6.618   5.214   2.748
 9532SOL    HW229496   6.753   5.126   2.718
 9533SOL     OW29497   2.324   4.241   3.526
 9533SOL    HW129498   2.238   4.276   3.491
 9533SOL    HW229499   2.320   4.141   3.532
 9534SOL     OW29500   5.438   4.399   4.756
 9534SOL    HW129501   5.450   4.497   4.747
 9534SOL    HW229502   5.384   4.379   4.838
 9535SOL     OW29503   0.945   1.188   5.689
 9535SOL    HW129504   1.004   1.206   5.610
 9535SOL    HW229505   0.849   1.194   5.662
 9536SOL     OW29506   4.066   3.712   5.118
 9536SOL    HW129507   3.992   3.645   5.125
 9536SOL    HW229508   4.154   3.666   5.125
 9537SOL     OW29509   1.077   1.312   3.545
 9537SOL    HW129510   1.156   1.276   3.496
 9537SOL    HW229511   1.063   1.260   3.629
 9538SOL     OW29512   4.333   0.715   5.056
 9538SOL    HW129513   4.397   0.640   5.038
 9538SOL    HW229514   4.259   0.683   5.113
 9539SOL     OW29515   3.792   3.301   2.748
 9539SOL    HW129516   3.886   3.274   2.731
 9539SOL    HW229517   3.730   3.236   2.704
 9540SOL     OW29518   4.931   4.623   3.762
 9540SOL    HW129519   4.909   4.553   3.693
 9540SOL    HW229520   5.006   4.679   3.729
 9541SOL     OW29521   2.065   5.791   5.605
 9541SOL    HW129522   2.048   5.773   5.701
 9541SOL    HW229523   2.114   5.714   5.564
 9542SOL     OW29524   6.134   4.422   3.992
 9542SOL    HW129525   6.161   4.517   3.977
 9542SOL    HW229526   6.128   4.404   4.090
 9543SOL     OW29527   1.927   0.287   5.937
 9543SOL    HW129528   1.869   0.367   5.919
 9543SOL    HW229529   1.905   0.249   6.026
 9544SOL     OW29530   5.875   3.580   4.093
 9544SOL    HW129531   5.805   3.512   4.114
 9544SOL    HW229532   5.833   3.657   4.044
 9545SOL     OW29533   1.638   4.266   1.867
 9545SOL    HW129534   1.647   4.247   1.769
 9545SOL    HW229535   1.727   4.260   1.911
 9546SOL     OW29536   2.634   2.273   6.221
 9546SOL    HW129537   2.588   2.186   6.203
 9546SOL    HW229538   2.595   2.315   6.302
 9547SOL     OW29539   4.177   5.637   4.409
 9547SOL    HW129540   4.191   5.719   4.354
 9547SOL    HW229541   4.205   5.655   4.503
 9548SOL     OW29542   1.151   4.720   6.927
 9548SOL    HW129543   1.153   4.637   6.872
 9548SOL    HW229544   1.060   4.731   6.967
 9549SOL     OW29545   4.484   2.914   1.199
 9549SOL    HW129546   4.535   2.935   1.282
 9549SOL    HW229547   4.399   2.867   1.223
 9550SOL     OW29548   5.250   2.839   1.405
 9550SOL    HW129549   5.275   2.803   1.494
 9550SOL    HW229550   5.167   2.895   1.414
 9551SOL     OW29551   6.598   2.214   6.708
 9551SOL    HW129552   6.554   2.152   6.772
 9551SOL    HW229553   6.651   2.162   6.641
 9552SOL     OW29554   3.179   2.383   6.706
 9552SOL    HW129555   3.151   2.309   6.644
 9552SOL    HW229556   3.098   2.432   6.737
 9553SOL     OW29557   5.202   1.807   6.860
 9553SOL    HW129558   5.254   1.832   6.942
 9553SOL    HW229559   5.254   1.833   6.779
 9554SOL     OW29560   2.204   6.566   3.982
 9554SOL    HW129561   2.276   6.506   3.948
 9554SOL    HW229562   2.133   6.511   4.027
 9555SOL     OW29563   6.643   0.498   3.764
 9555SOL    HW129564   6.624   0.596   3.759
 9555SOL    HW229565   6.564   0.450   3.803
 9556SOL     OW29566   2.070   4.641   0.545
 9556SOL    HW129567   2.163   4.633   0.509
 9556SOL    HW229568   2.055   4.571   0.614
 9557SOL     OW29569   5.132   0.228   1.887
 9557SOL    HW129570   5.218   0.184   1.862
 9557SOL    HW229571   5.126   0.317   1.842
 9558SOL     OW29572   5.008   6.483   6.103
 9558SOL    HW129573   4.936   6.433   6.055
 9558SOL    HW229574   4.996   6.581   6.087
 9559SOL     OW29575   1.667   4.211   0.227
 9559SOL    HW129576   1.708   4.259   0.305
 9559SOL    HW229577   1.617   4.276   0.170
 9560SOL     OW29578   3.289   6.922   2.077
 9560SOL    HW129579   3.252   6.957   1.991
 9560SOL    HW229580   3.322   6.999   2.133
 9561SOL     OW29581   0.903   1.145   0.596
 9561SOL    HW129582   0.933   1.148   0.500
 9561SOL    HW229583   0.833   1.215   0.610
 9562SOL     OW29584   3.269   5.572   3.688
 9562SOL    HW129585   3.244   5.527   3.774
 9562SOL    HW229586   3.196   5.635   3.661
 9563SOL     OW29587   0.958   5.790   1.163
 9563SOL    HW129588   0.920   5.828   1.079
 9563SOL    HW229589   0.975   5.864   1.228
 9564SOL     OW29590   1.281   0.061   0.232
 9564SOL    HW129591   1.300   0.003   0.311
 9564SOL    HW229592   1.326   0.025   0.151
 9565SOL     OW29593   3.190   1.871   4.212
 9565SOL    HW129594   3.177   1.859   4.311
 9565SOL    HW229595   3.102   1.860   4.165
 9566SOL     OW29596   2.669   0.113   0.378
 9566SOL    HW129597   2.681   0.033   0.436
 9566SOL    HW229598   2.659   0.195   0.435
 9567SOL     OW29599   6.844   4.247   1.108
 9567SOL    HW129600   6.941   4.225   1.113
 9567SOL    HW229601   6.790   4.174   1.150
 9568SOL     OW29602   4.496   1.357   6.828
 9568SOL    HW129603   4.540   1.434   6.873
 9568SOL    HW229604   4.479   1.284   6.894
 9569SOL     OW29605   5.087   1.056   2.446
 9569SOL    HW129606   5.156   1.040   2.375
 9569SOL    HW229607   5.076   0.975   2.502
 9570SOL     OW29608   0.076   3.214   1.241
 9570SOL    HW129609   0.068   3.150   1.318
 9570SOL    HW229610   0.111   3.302   1.274
 9571SOL     OW29611   2.882   1.731   6.794
 9571SOL    HW129612   2.972   1.772   6.807
 9571SOL    HW229613   2.869   1.707   6.698
 9572SOL     OW29614   2.196   4.098   3.976
 9572SOL    HW129615   2.178   4.007   3.940
 9572SOL    HW229616   2.173   4.167   3.907
 9573SOL     OW29617   6.066   1.125   4.714
 9573SOL    HW129618   6.011   1.143   4.796
 9573SOL    HW229619   6.156   1.166   4.725
 9574SOL     OW29620   3.447   3.408   1.509
 9574SOL    HW129621   3.419   3.423   1.414
 9574SOL    HW229622   3.424   3.489   1.563
 9575SOL     OW29623   6.118   6.425   1.716
 9575SOL    HW129624   6.147   6.337   1.752
 9575SOL    HW229625   6.066   6.412   1.632
 9576SOL     OW29626   0.595   6.733   7.018
 9576SOL    HW129627   0.628   6.819   0.031
 9576SOL    HW229628   0.523   6.752   6.951
 9577SOL     OW29629   6.291   5.211   1.928
 9577SOL    HW129630   6.264   5.269   2.005
 9577SOL    HW229631   6.209   5.174   1.884
 9578SOL     OW29632   1.563   2.508   2.769
 9578SOL    HW129633   1.527   2.580   2.829
 9578SOL    HW229634   1.642   2.543   2.719
 9579SOL     OW29635   5.640   6.408   2.289
 9579SOL    HW129636   5.599   6.493   2.256
 9579SOL    HW229637   5.726   6.392   2.242
 9580SOL     OW29638   5.010   4.938   2.733
 9580SOL    HW129639   4.945   4.884   2.787
 9580SOL    HW229640   4.994   5.035   2.751
 9581SOL     OW29641   6.163   1.325   0.305
 9581SOL    HW129642   6.187   1.255   0.237
 9581SOL    HW229643   6.226   1.402   0.296
 9582SOL     OW29644   4.674   5.947   4.430
 9582SOL    HW129645   4.767   5.981   4.419
 9582SOL    HW229646   4.672   5.876   4.500
 9583SOL     OW29647   3.414   4.588   1.672
 9583SOL    HW129648   3.492   4.624   1.724
 9583SOL    HW229649   3.430   4.491   1.653
 9584SOL     OW29650   1.927   4.664   4.686
 9584SOL    HW129651   1.901   4.642   4.780
 9584SOL    HW229652   1.995   4.737   4.686
 9585SOL     OW29653   4.746   5.421   1.673
 9585SOL    HW129654   4.779   5.514   1.656
 9585SOL    HW229655   4.651   5.413   1.642
 9586SOL     OW29656   4.618   5.075   2.064
 9586SOL    HW129657   4.618   5.089   1.965
 9586SOL    HW229658   4.525   5.084   2.100
 9587SOL     OW29659   2.636   6.053   1.554
 9587SOL    HW129660   2.630   6.027   1.458
 9587SOL    HW229661   2.565   6.120   1.575
 9588SOL     OW29662   6.479   5.507   0.762
 9588SOL    HW129663   6.402   5.511   0.826
 9588SOL    HW229664   6.476   5.586   0.701
 9589SOL     OW29665   1.892   3.759   6.503
 9589SOL    HW129666   1.938   3.754   6.592
 9589SOL    HW229667   1.811   3.817   6.510
 9590SOL     OW29668   5.133   1.607   2.418
 9590SOL    HW129669   5.051   1.578   2.369
 9590SOL    HW229670   5.178   1.527   2.458
 9591SOL     OW29671   3.466   0.357   6.261
 9591SOL    HW129672   3.528   0.362   6.340
 9591SOL    HW229673   3.482   0.272   6.212
 9592SOL     OW29674   2.433   4.938   6.274
 9592SOL    HW129675   2.478   5.013   6.226
 9592SOL    HW229676   2.469   4.851   6.239
 9593SOL     OW29677   1.502   1.713   5.020
 9593SOL    HW129678   1.448   1.636   4.987
 9593SOL    HW229679   1.441   1.785   5.052
 9594SOL     OW29680   0.381   5.889   4.113
 9594SOL    HW129681   0.432   5.855   4.192
 9594SOL    HW229682   0.417   5.847   4.030
 9595SOL     OW29683   0.192   3.087   3.768
 9595SOL    HW129684   0.122   3.034   3.719
 9595SOL    HW229685   0.147   3.143   3.838
 9596SOL     OW29686   0.260   6.620   0.582
 9596SOL    HW129687   0.317   6.614   0.500
 9596SOL    HW229688   0.300   6.564   0.655
 9597SOL     OW29689   0.605   3.971   2.722
 9597SOL    HW129690   0.596   3.879   2.760
 9597SOL    HW229691   0.514   4.009   2.705
 9598SOL     OW29692   1.398   3.924   3.046
 9598SOL    HW129693   1.341   3.950   3.123
 9598SOL    HW229694   1.384   3.827   3.025
 9599SOL     OW29695   3.420   6.806   3.613
 9599SOL    HW129696   3.465   6.718   3.596
 9599SOL    HW229697   3.483   6.880   3.591
 9600SOL     OW29698   3.272   0.604   1.084
 9600SOL    HW129699   3.202   0.541   1.117
 9600SOL    HW229700   3.278   0.598   0.984
 9601SOL     OW29701   6.656   4.365   1.319
 9601SOL    HW129702   6.617   4.348   1.410
 9601SOL    HW229703   6.686   4.278   1.279
 9602SOL     OW29704   4.762   3.991   5.423
 9602SOL    HW129705   4.781   4.084   5.454
 9602SOL    HW229706   4.834   3.962   5.360
 9603SOL     OW29707   5.561   6.050   5.395
 9603SOL    HW129708   5.475   6.089   5.363
 9603SOL    HW229709   5.598   6.109   5.467
 9604SOL     OW29710   5.354   0.321   0.917
 9604SOL    HW129711   5.326   0.310   1.012
 9604SOL    HW229712   5.445   0.281   0.904
 9605SOL     OW29713   6.448   6.361   3.535
 9605SOL    HW129714   6.441   6.397   3.442
 9605SOL    HW229715   6.544   6.346   3.558
 9606SOL     OW29716   1.293   1.198   6.387
 9606SOL    HW129717   1.380   1.230   6.426
 9606SOL    HW229718   1.222   1.201   6.456
 9607SOL     OW29719   3.381   2.713   6.189
 9607SOL    HW129720   3.371   2.813   6.187
 9607SOL    HW229721   3.291   2.671   6.203
 9608SOL     OW29722   6.470   4.408   2.911
 9608SOL    HW129723   6.486   4.498   2.871
 9608SOL    HW229724   6.529   4.396   2.991
 9609SOL     OW29725   4.128   2.279   6.045
 9609SOL    HW129726   4.144   2.258   6.142
 9609SOL    HW229727   4.173   2.366   6.023
 9610SOL     OW29728   1.770   3.832   2.934
 9610SOL    HW129729   1.757   3.893   3.012
 9610SOL    HW229730   1.839   3.870   2.873
 9611SOL     OW29731   1.830   0.385   0.988
 9611SOL    HW129732   1.927   0.407   0.988
 9611SOL    HW229733   1.800   0.364   0.895
 9612SOL     OW29734   0.804   3.047   2.695
 9612SOL    HW129735   0.864   3.011   2.766
 9612SOL    HW229736   0.789   3.145   2.710
 9613SOL     OW29737   5.805   5.736   3.511
 9613SOL    HW129738   5.827   5.822   3.465
 9613SOL    HW229739   5.754   5.754   3.595
 9614SOL     OW29740   4.872   1.676   2.918
 9614SOL    HW129741   4.956   1.673   2.864
 9614SOL    HW229742   4.794   1.653   2.859
 9615SOL     OW29743   2.355   2.603   1.318
 9615SOL    HW129744   2.445   2.640   1.297
 9615SOL    HW229745   2.356   2.565   1.411
 9616SOL     OW29746   3.710   3.157   0.123
 9616SOL    HW129747   3.681   3.101   0.045
 9616SOL    HW229748   3.644   3.147   0.197
 9617SOL     OW29749   2.324   2.805   4.023
 9617SOL    HW129750   2.348   2.755   4.107
 9617SOL    HW229751   2.251   2.869   4.042
 9618SOL     OW29752   3.157   0.796   0.698
 9618SOL    HW129753   3.140   0.801   0.600
 9618SOL    HW229754   3.152   0.887   0.738
 9619SOL     OW29755   2.249   1.128   5.305
 9619SOL    HW129756   2.164   1.103   5.351
 9619SOL    HW229757   2.319   1.149   5.373
 9620SOL     OW29758   5.405   6.910   5.024
 9620SOL    HW129759   5.404   6.885   5.121
 9620SOL    HW229760   5.320   6.880   4.980
 9621SOL     OW29761   1.704   2.672   2.465
 9621SOL    HW129762   1.623   2.616   2.449
 9621SOL    HW229763   1.705   2.750   2.403
 9622SOL     OW29764   6.174   0.737   1.128
 9622SOL    HW129765   6.258   0.788   1.146
 9622SOL    HW229766   6.149   0.747   1.032
 9623SOL     OW29767   3.487   3.294   6.314
 9623SOL    HW129768   3.483   3.194   6.313
 9623SOL    HW229769   3.415   3.331   6.255
 9624SOL     OW29770   6.116   3.235   2.845
 9624SOL    HW129771   6.078   3.143   2.840
 9624SOL    HW229772   6.106   3.270   2.938
 9625SOL     OW29773   6.298   6.059   0.538
 9625SOL    HW129774   6.312   6.093   0.445
 9625SOL    HW229775   6.385   6.058   0.586
 9626SOL     OW29776   3.760   6.064   6.542
 9626SOL    HW129777   3.846   6.087   6.496
 9626SOL    HW229778   3.702   6.010   6.481
 9627SOL     OW29779   1.615   6.229   6.329
 9627SOL    HW129780   1.587   6.295   6.259
 9627SOL    HW229781   1.688   6.171   6.292
 9628SOL     OW29782   4.411   6.092   1.366
 9628SOL    HW129783   4.493   6.145   1.385
 9628SOL    HW229784   4.347   6.100   1.442
 9629SOL     OW29785   2.880   6.585   1.431
 9629SOL    HW129786   2.818   6.661   1.409
 9629SOL    HW229787   2.974   6.618   1.431
 9630SOL     OW29788   6.580   0.459   5.704
 9630SOL    HW129789   6.585   0.396   5.627
 9630SOL    HW229790   6.487   0.462   5.740
 9631SOL     OW29791   6.434   6.519   6.689
 9631SOL    HW129792   6.502   6.452   6.720
 9631SOL    HW229793   6.477   6.584   6.627
 9632SOL     OW29794   1.602   6.826   2.081
 9632SOL    HW129795   1.570   6.763   2.153
 9632SOL    HW229796   1.701   6.817   2.070
 9633SOL     OW29797   6.618   5.457   6.158
 9633SOL    HW129798   6.557   5.472   6.080
 9633SOL    HW229799   6.570   5.480   6.242
 9634SOL     OW29800   0.540   6.480   4.383
 9634SOL    HW129801   0.554   6.549   4.313
 9634SOL    HW229802   0.521   6.524   4.471
 9635SOL     OW29803   2.605   5.164   4.879
 9635SOL    HW129804   2.527   5.227   4.877
 9635SOL    HW229805   2.669   5.192   4.950
 9636SOL     OW29806   4.321   1.390   5.149
 9636SOL    HW129807   4.360   1.481   5.134
 9636SOL    HW229808   4.233   1.399   5.196
 9637SOL     OW29809   2.342   2.000   0.047
 9637SOL    HW129810   2.303   2.077   0.098
 9637SOL    HW229811   2.345   1.920   0.105
 9638SOL     OW29812   6.458   2.455   5.267
 9638SOL    HW129813   6.490   2.401   5.189
 9638SOL    HW229814   6.493   2.414   5.352
 9639SOL     OW29815   4.119   1.200   2.663
 9639SOL    HW129816   4.107   1.223   2.566
 9639SOL    HW229817   4.030   1.193   2.707
 9640SOL     OW29818   2.041   2.109   2.607
 9640SOL    HW129819   2.102   2.163   2.665
 9640SOL    HW229820   2.004   2.032   2.660
 9641SOL     OW29821   6.351   6.132   0.284
 9641SOL    HW129822   6.285   6.154   0.212
 9641SOL    HW229823   6.405   6.053   0.257
 9642SOL     OW29824   2.772   0.843   4.394
 9642SOL    HW129825   2.775   0.942   4.410
 9642SOL    HW229826   2.850   0.817   4.336
 9643SOL     OW29827   4.687   4.752   3.512
 9643SOL    HW129828   4.642   4.684   3.570
 9643SOL    HW229829   4.766   4.790   3.560
 9644SOL     OW29830   1.919   2.268   6.368
 9644SOL    HW129831   1.877   2.198   6.311
 9644SOL    HW229832   1.961   2.225   6.449
 9645SOL     OW29833   3.137   5.134   4.997
 9645SOL    HW129834   3.154   5.036   4.985
 9645SOL    HW229835   3.216   5.176   5.043
 9646SOL     OW29836   3.884   4.965   2.605
 9646SOL    HW129837   3.795   4.982   2.647
 9646SOL    HW229838   3.871   4.927   2.514
 9647SOL     OW29839   6.575   3.319   0.664
 9647SOL    HW129840   6.665   3.362   0.663
 9647SOL    HW229841   6.535   3.324   0.572
 9648SOL     OW29842   4.622   3.294   0.754
 9648SOL    HW129843   4.592   3.377   0.801
 9648SOL    HW229844   4.711   3.309   0.713
 9649SOL     OW29845   2.148   5.967   0.618
 9649SOL    HW129846   2.083   5.893   0.637
 9649SOL    HW229847   2.152   6.029   0.696
 9650SOL     OW29848   7.011   6.389   1.712
 9650SOL    HW129849   6.971   6.471   1.753
 9650SOL    HW229850   0.051   6.348   1.776
 9651SOL     OW29851   0.610   1.145   6.352
 9651SOL    HW129852   0.708   1.123   6.363
 9651SOL    HW229853   0.587   1.148   6.255
 9652SOL     OW29854   0.503   5.687   2.867
 9652SOL    HW129855   0.440   5.655   2.797
 9652SOL    HW229856   0.569   5.750   2.826
 9653SOL     OW29857   5.792   5.307   4.359
 9653SOL    HW129858   5.886   5.316   4.326
 9653SOL    HW229859   5.778   5.216   4.398
 9654SOL     OW29860   2.267   2.730   1.798
 9654SOL    HW129861   2.168   2.721   1.806
 9654SOL    HW229862   2.289   2.767   1.707
 9655SOL     OW29863   6.544   2.203   0.189
 9655SOL    HW129864   6.510   2.157   0.272
 9655SOL    HW229865   6.634   2.243   0.208
 9656SOL     OW29866   3.241   0.857   2.971
 9656SOL    HW129867   3.327   0.808   2.958
 9656SOL    HW229868   3.174   0.795   3.014
 9657SOL     OW29869   6.381   0.256   4.608
 9657SOL    HW129870   6.430   0.331   4.653
 9657SOL    HW229871   6.439   0.175   4.605
 9658SOL     OW29872   6.603   2.612   2.316
 9658SOL    HW129873   6.643   2.523   2.337
 9658SOL    HW229874   6.518   2.624   2.367
 9659SOL     OW29875   0.491   4.565   6.869
 9659SOL    HW129876   0.457   4.638   6.928
 9659SOL    HW229877   0.444   4.480   6.892
 9660SOL     OW29878   0.519   4.935   0.235
 9660SOL    HW129879   0.525   4.850   0.287
 9660SOL    HW229880   0.427   4.944   0.197
 9661SOL     OW29881   4.127   6.758   1.083
 9661SOL    HW129882   4.192   6.692   1.121
 9661SOL    HW229883   4.157   6.784   0.991
 9662SOL     OW29884   6.243   0.977   4.513
 9662SOL    HW129885   6.182   0.999   4.589
 9662SOL    HW229886   6.206   1.017   4.429
 9663SOL     OW29887   2.646   5.534   2.359
 9663SOL    HW129888   2.580   5.459   2.359
 9663SOL    HW229889   2.603   5.617   2.325
 9664SOL     OW29890   3.378   6.277   2.161
 9664SOL    HW129891   3.283   6.301   2.139
 9664SOL    HW229892   3.406   6.200   2.103
 9665SOL     OW29893   5.933   4.586   4.493
 9665SOL    HW129894   5.869   4.591   4.570
 9665SOL    HW229895   6.011   4.530   4.518
 9666SOL     OW29896   5.592   4.688   3.928
 9666SOL    HW129897   5.652   4.654   3.856
 9666SOL    HW229898   5.620   4.649   4.016
 9667SOL     OW29899   4.155   3.546   4.070
 9667SOL    HW129900   4.219   3.477   4.105
 9667SOL    HW229901   4.156   3.626   4.130
 9668SOL     OW29902   0.398   0.559   5.696
 9668SOL    HW129903   0.395   0.657   5.716
 9668SOL    HW229904   0.313   0.531   5.651
 9669SOL     OW29905   1.303   5.812   0.568
 9669SOL    HW129906   1.293   5.890   0.629
 9669SOL    HW229907   1.231   5.745   0.586
 9670SOL     OW29908   5.392   5.120   0.099
 9670SOL    HW129909   5.303   5.141   0.140
 9670SOL    HW229910   5.398   5.162   0.009
 9671SOL     OW29911   6.984   6.041   5.778
 9671SOL    HW129912   0.058   6.056   5.776
 9671SOL    HW229913   6.961   5.971   5.710
 9672SOL     OW29914   0.100   6.373   4.402
 9672SOL    HW129915   0.047   6.315   4.464
 9672SOL    HW229916   0.071   6.356   4.308
 9673SOL     OW29917   2.952   3.722   6.280
 9673SOL    HW129918   2.884   3.758   6.345
 9673SOL    HW229919   2.921   3.634   6.245
 9674SOL     OW29920   3.387   6.267   2.590
 9674SOL    HW129921   3.325   6.325   2.642
 9674SOL    HW229922   3.430   6.320   2.517
 9675SOL     OW29923   6.531   2.481   1.887
 9675SOL    HW129924   6.517   2.505   1.791
 9675SOL    HW229925   6.625   2.506   1.913
 9676SOL     OW29926   0.203   3.634   4.366
 9676SOL    HW129927   0.135   3.668   4.301
 9676SOL    HW229928   0.227   3.540   4.344
 9677SOL     OW29929   1.668   3.171   6.004
 9677SOL    HW129930   1.628   3.098   6.059
 9677SOL    HW229931   1.710   3.239   6.064
 9678SOL     OW29932   3.210   3.286   3.189
 9678SOL    HW129933   3.291   3.291   3.247
 9678SOL    HW229934   3.128   3.288   3.246
 9679SOL     OW29935   0.835   3.195   1.827
 9679SOL    HW129936   0.861   3.185   1.731
 9679SOL    HW229937   0.870   3.281   1.863
 9680SOL     OW29938   5.858   5.503   3.432
 9680SOL    HW129939   5.943   5.502   3.380
 9680SOL    HW229940   5.845   5.594   3.472
 9681SOL     OW29941   2.104   0.775   2.954
 9681SOL    HW129942   2.121   0.872   2.933
 9681SOL    HW229943   2.084   0.766   3.052
 9682SOL     OW29944   6.243   4.219   2.922
 9682SOL    HW129945   6.333   4.253   2.952
 9682SOL    HW229946   6.253   4.170   2.836
 9683SOL     OW29947   4.916   5.654   7.010
 9683SOL    HW129948   4.975   5.727   0.019
 9683SOL    HW229949   4.867   5.686   6.929
 9684SOL     OW29950   1.025   3.450   4.845
 9684SOL    HW129951   0.950   3.384   4.851
 9684SOL    HW229952   1.037   3.494   4.934
 9685SOL     OW29953   1.644   2.737   6.975
 9685SOL    HW129954   1.547   2.762   6.979
 9685SOL    HW229955   1.686   2.753   0.039
 9686SOL     OW29956   6.131   0.863   1.547
 9686SOL    HW129957   6.037   0.879   1.575
 9686SOL    HW229958   6.193   0.889   1.621
 9687SOL     OW29959   3.298   0.455   4.226
 9687SOL    HW129960   3.317   0.479   4.322
 9687SOL    HW229961   3.242   0.372   4.224
 9688SOL     OW29962   0.234   1.428   2.617
 9688SOL    HW129963   0.214   1.384   2.529
 9688SOL    HW229964   0.247   1.526   2.602
 9689SOL     OW29965   2.349   6.187   6.138
 9689SOL    HW129966   2.368   6.107   6.195
 9689SOL    HW229967   2.271   6.168   6.078
 9690SOL     OW29968   6.242   4.238   1.317
 9690SOL    HW129969   6.247   4.309   1.246
 9690SOL    HW229970   6.200   4.155   1.279
 9691SOL     OW29971   1.963   4.340   1.971
 9691SOL    HW129972   2.060   4.316   1.970
 9691SOL    HW229973   1.936   4.373   1.880
 9692SOL     OW29974   2.484   5.760   1.793
 9692SOL    HW129975   2.419   5.828   1.760
 9692SOL    HW229976   2.539   5.727   1.716
 9693SOL     OW29977   6.062   5.930   1.643
 9693SOL    HW129978   5.982   5.964   1.595
 9693SOL    HW229979   6.125   6.006   1.661
 9694SOL     OW29980   2.085   2.639   6.997
 9694SOL    HW129981   2.036   2.686   6.924
 9694SOL    HW229982   2.140   2.705   0.023
 9695SOL     OW29983   6.391   4.163   1.535
 9695SOL    HW129984   6.360   4.207   1.451
 9695SOL    HW229985   6.320   4.102   1.570
 9696SOL     OW29986   4.062   3.442   1.384
 9696SOL    HW129987   4.100   3.515   1.440
 9696SOL    HW229988   3.990   3.395   1.434
 9697SOL     OW29989   0.981   5.764   0.374
 9697SOL    HW129990   1.027   5.724   0.453
 9697SOL    HW229991   0.898   5.712   0.355
 9698SOL     OW29992   6.050   1.942   4.910
 9698SOL    HW129993   6.076   1.942   4.814
 9698SOL    HW229994   5.955   1.912   4.919
 9699SOL     OW29995   1.945   3.280   0.292
 9699SOL    HW129996   1.997   3.237   0.218
 9699SOL    HW229997   1.867   3.330   0.254
 9700SOL     OW29998   3.459   4.192   4.760
 9700SOL    HW129999   3.392   4.263   4.780
 9700SOL    HW230000   3.496   4.156   4.846
 9701SOL     OW30001   5.338   4.891   5.234
 9701SOL    HW130002   5.264   4.887   5.167
 9701SOL    HW230003   5.388   4.977   5.223
 9702SOL     OW30004   4.289   0.690   1.078
 9702SOL    HW130005   4.379   0.704   1.036
 9702SOL    HW230006   4.218   0.730   1.019
 9703SOL     OW30007   3.025   6.350   4.035
 9703SOL    HW130008   3.056   6.385   4.123
 9703SOL    HW230009   2.973   6.266   4.048
 9704SOL     OW30010   3.335   0.330   3.179
 9704SOL    HW130011   3.317   0.428   3.166
 9704SOL    HW230012   3.434   0.316   3.186
 9705SOL     OW30013   3.703   3.963   0.472
 9705SOL    HW130014   3.623   3.920   0.431
 9705SOL    HW230015   3.784   3.908   0.451
 9706SOL     OW30016   5.235   3.252   2.837
 9706SOL    HW130017   5.230   3.315   2.759
 9706SOL    HW230018   5.153   3.263   2.894
 9707SOL     OW30019   2.900   5.403   2.292
 9707SOL    HW130020   2.816   5.454   2.273
 9707SOL    HW230021   2.976   5.445   2.243
 9708SOL     OW30022   2.208   1.668   3.120
 9708SOL    HW130023   2.204   1.568   3.123
 9708SOL    HW230024   2.270   1.696   3.047
 9709SOL     OW30025   1.797   5.832   2.953
 9709SOL    HW130026   1.869   5.901   2.960
 9709SOL    HW230027   1.831   5.745   2.989
 9710SOL     OW30028   0.563   0.432   3.221
 9710SOL    HW130029   0.555   0.332   3.223
 9710SOL    HW230030   0.475   0.472   3.196
 9711SOL     OW30031   1.030   3.748   5.287
 9711SOL    HW130032   1.005   3.690   5.365
 9711SOL    HW230033   1.124   3.781   5.299
 9712SOL     OW30034   5.319   1.948   4.076
 9712SOL    HW130035   5.271   1.884   4.016
 9712SOL    HW230036   5.396   1.988   4.028
 9713SOL     OW30037   0.114   4.939   2.764
 9713SOL    HW130038   0.114   5.002   2.686
 9713SOL    HW230039   0.164   4.856   2.740
 9714SOL     OW30040   1.941   2.226   1.489
 9714SOL    HW130041   1.930   2.247   1.586
 9714SOL    HW230042   1.999   2.295   1.447
 9715SOL     OW30043   4.785   5.570   4.943
 9715SOL    HW130044   4.762   5.661   4.976
 9715SOL    HW230045   4.705   5.531   4.896
 9716SOL     OW30046   4.233   1.943   6.585
 9716SOL    HW130047   4.251   1.847   6.565
 9716SOL    HW230048   4.273   2.000   6.513
 9717SOL     OW30049   5.515   5.574   3.763
 9717SOL    HW130050   5.583   5.524   3.817
 9717SOL    HW230051   5.520   5.544   3.667
 9718SOL     OW30052   4.518   3.413   1.348
 9718SOL    HW130053   4.430   3.373   1.324
 9718SOL    HW230054   4.506   3.511   1.365
 9719SOL     OW30055   0.619   1.778   6.919
 9719SOL    HW130056   0.597   1.874   6.900
 9719SOL    HW230057   0.594   1.756   7.013
 9720SOL     OW30058   0.001   0.265   2.196
 9720SOL    HW130059   7.015   0.352   2.148
 9720SOL    HW230060   6.959   0.260   2.270
 9721SOL     OW30061   6.736   4.055   2.734
 9721SOL    HW130062   6.670   4.120   2.696
 9721SOL    HW230063   6.775   4.093   2.818
 9722SOL     OW30064   1.046   0.182   4.245
 9722SOL    HW130065   1.015   0.088   4.254
 9722SOL    HW230066   1.025   0.215   4.153
 9723SOL     OW30067   6.902   1.145   3.582
 9723SOL    HW130068   6.860   1.143   3.673
 9723SOL    HW230069   6.999   1.170   3.590
 9724SOL     OW30070   3.501   2.553   1.451
 9724SOL    HW130071   3.519   2.622   1.381
 9724SOL    HW230072   3.536   2.587   1.539
 9725SOL     OW30073   4.231   3.319   5.661
 9725SOL    HW130074   4.186   3.370   5.734
 9725SOL    HW230075   4.317   3.364   5.637
 9726SOL     OW30076   4.782   6.720   4.946
 9726SOL    HW130077   4.817   6.811   4.921
 9726SOL    HW230078   4.811   6.697   5.039
 9727SOL     OW30079   1.600   2.749   5.772
 9727SOL    HW130080   1.677   2.800   5.811
 9727SOL    HW230081   1.533   2.732   5.845
 9728SOL     OW30082   3.077   5.810   6.948
 9728SOL    HW130083   3.157   5.801   7.008
 9728SOL    HW230084   3.024   5.725   6.950
 9729SOL     OW30085   2.895   5.108   2.742
 9729SOL    HW130086   2.874   5.180   2.807
 9729SOL    HW230087   2.866   5.136   2.650
 9730SOL     OW30088   6.522   3.203   2.532
 9730SOL    HW130089   6.430   3.233   2.557
 9730SOL    HW230090   6.517   3.112   2.490
 9731SOL     OW30091   3.945   4.940   0.995
 9731SOL    HW130092   4.001   4.858   1.003
 9731SOL    HW230093   3.856   4.925   1.039
 9732SOL     OW30094   6.374   6.721   2.555
 9732SOL    HW130095   6.340   6.663   2.480
 9732SOL    HW230096   6.334   6.690   2.641
 9733SOL     OW30097   5.314   4.391   6.173
 9733SOL    HW130098   5.364   4.348   6.248
 9733SOL    HW230099   5.377   4.447   6.119
 9734SOL     OW30100   5.519   2.526   4.743
 9734SOL    HW130101   5.491   2.548   4.837
 9734SOL    HW230102   5.605   2.476   4.745
 9735SOL     OW30103   1.356   4.527   1.096
 9735SOL    HW130104   1.380   4.496   1.188
 9735SOL    HW230105   1.316   4.450   1.045
 9736SOL     OW30106   3.472   0.961   0.754
 9736SOL    HW130107   3.377   0.964   0.783
 9736SOL    HW230108   3.492   1.043   0.699
 9737SOL     OW30109   4.109   2.088   5.143
 9737SOL    HW130110   4.126   2.124   5.051
 9737SOL    HW230111   4.076   2.162   5.202
 9738SOL     OW30112   1.374   0.606   2.718
 9738SOL    HW130113   1.362   0.680   2.652
 9738SOL    HW230114   1.409   0.524   2.672
 9739SOL     OW30115   5.216   4.484   1.476
 9739SOL    HW130116   5.218   4.582   1.496
 9739SOL    HW230117   5.301   4.442   1.508
 9740SOL     OW30118   6.809   4.679   3.263
 9740SOL    HW130119   6.882   4.612   3.278
 9740SOL    HW230120   6.836   4.742   3.191
 9741SOL     OW30121   4.721   2.424   2.172
 9741SOL    HW130122   4.742   2.473   2.087
 9741SOL    HW230123   4.736   2.486   2.249
 9742SOL     OW30124   5.096   1.636   4.096
 9742SOL    HW130125   5.046   1.551   4.113
 9742SOL    HW230126   5.056   1.684   4.018
 9743SOL     OW30127   1.636   2.973   6.203
 9743SOL    HW130128   1.697   2.988   6.280
 9743SOL    HW230129   1.546   2.946   6.237
 9744SOL     OW30130   1.618   0.832   1.940
 9744SOL    HW130131   1.644   0.809   2.034
 9744SOL    HW230132   1.684   0.897   1.902
 9745SOL     OW30133   6.998   2.466   5.186
 9745SOL    HW130134   6.925   2.531   5.163
 9745SOL    HW230135   6.970   2.413   5.267
 9746SOL     OW30136   6.114   0.925   4.906
 9746SOL    HW130137   6.206   0.956   4.932
 9746SOL    HW230138   6.090   0.965   4.817
 9747SOL     OW30139   0.414   6.899   6.467
 9747SOL    HW130140   0.440   6.964   6.396
 9747SOL    HW230141   0.323   6.921   6.501
 9748SOL     OW30142   6.971   6.059   4.171
 9748SOL    HW130143   6.943   6.030   4.263
 9748SOL    HW230144   6.988   6.157   4.171
 9749SOL     OW30145   0.427   4.654   4.271
 9749SOL    HW130146   0.498   4.599   4.228
 9749SOL    HW230147   0.412   4.737   4.218
 9750SOL     OW30148   4.288   4.667   3.559
 9750SOL    HW130149   4.310   4.695   3.466
 9750SOL    HW230150   4.362   4.611   3.597
 9751SOL     OW30151   1.962   2.622   0.574
 9751SOL    HW130152   2.037   2.593   0.633
 9751SOL    HW230153   1.940   2.549   0.509
 9752SOL     OW30154   3.956   1.426   5.781
 9752SOL    HW130155   3.938   1.333   5.751
 9752SOL    HW230156   3.888   1.488   5.741
 9753SOL     OW30157   0.385   5.444   5.522
 9753SOL    HW130158   0.359   5.479   5.612
 9753SOL    HW230159   0.311   5.388   5.485
 9754SOL     OW30160   1.036   1.500   6.318
 9754SOL    HW130161   0.972   1.492   6.242
 9754SOL    HW230162   1.079   1.590   6.316
 9755SOL     OW30163   3.962   4.722   5.277
 9755SOL    HW130164   3.887   4.782   5.250
 9755SOL    HW230165   4.048   4.757   5.241
 9756SOL     OW30166   6.016   2.883   6.638
 9756SOL    HW130167   6.053   2.802   6.683
 9756SOL    HW230168   5.983   2.859   6.547
 9757SOL     OW30169   6.217   2.445   3.692
 9757SOL    HW130170   6.250   2.352   3.707
 9757SOL    HW230171   6.274   2.490   3.623
 9758SOL     OW30172   2.703   0.445   6.712
 9758SOL    HW130173   2.738   0.469   6.622
 9758SOL    HW230174   2.714   0.347   6.728
 9759SOL     OW30175   3.519   5.952   0.907
 9759SOL    HW130176   3.544   5.884   0.839
 9759SOL    HW230177   3.492   6.037   0.861
 9760SOL     OW30178   5.706   4.263   5.946
 9760SOL    HW130179   5.716   4.328   6.022
 9760SOL    HW230180   5.764   4.292   5.870
 9761SOL     OW30181   5.636   5.501   1.622
 9761SOL    HW130182   5.643   5.577   1.686
 9761SOL    HW230183   5.541   5.486   1.597
 9762SOL     OW30184   2.336   1.653   4.956
 9762SOL    HW130185   2.259   1.609   5.003
 9762SOL    HW230186   2.383   1.585   4.899
 9763SOL     OW30187   2.657   1.434   1.040
 9763SOL    HW130188   2.731   1.494   1.009
 9763SOL    HW230189   2.638   1.454   1.137
 9764SOL     OW30190   1.326   2.288   1.986
 9764SOL    HW130191   1.251   2.350   2.008
 9764SOL    HW230192   1.338   2.223   2.062
 9765SOL     OW30193   0.269   1.583   5.619
 9765SOL    HW130194   0.251   1.625   5.708
 9765SOL    HW230195   0.339   1.637   5.571
 9766SOL     OW30196   2.590   0.738   2.559
 9766SOL    HW130197   2.688   0.750   2.580
 9766SOL    HW230198   2.550   0.826   2.535
 9767SOL     OW30199   5.087   0.573   5.205
 9767SOL    HW130200   5.037   0.486   5.213
 9767SOL    HW230201   5.179   0.562   5.243
 9768SOL     OW30202   4.796   2.542   2.688
 9768SOL    HW130203   4.790   2.452   2.732
 9768SOL    HW230204   4.843   2.606   2.749
 9769SOL     OW30205   0.666   1.963   1.608
 9769SOL    HW130206   0.718   1.939   1.690
 9769SOL    HW230207   0.644   2.061   1.611
 9770SOL     OW30208   5.839   5.025   6.143
 9770SOL    HW130209   5.742   5.050   6.144
 9770SOL    HW230210   5.852   4.942   6.197
 9771SOL     OW30211   3.950   6.049   5.925
 9771SOL    HW130212   3.986   5.960   5.895
 9771SOL    HW230213   3.851   6.045   5.930
 9772SOL     OW30214   6.474   0.448   1.519
 9772SOL    HW130215   6.441   0.354   1.521
 9772SOL    HW230216   6.483   0.483   1.613
 9773SOL     OW30217   6.006   5.743   2.976
 9773SOL    HW130218   5.915   5.785   2.971
 9773SOL    HW230219   6.074   5.812   3.001
 9774SOL     OW30220   0.371   5.057   3.346
 9774SOL    HW130221   0.278   5.055   3.309
 9774SOL    HW230222   0.368   5.036   3.444
 9775SOL     OW30223   2.342   2.676   4.291
 9775SOL    HW130224   2.340   2.678   4.391
 9775SOL    HW230225   2.372   2.586   4.260
 9776SOL     OW30226   0.367   5.384   4.738
 9776SOL    HW130227   0.439   5.332   4.784
 9776SOL    HW230228   0.407   5.443   4.668
 9777SOL     OW30229   5.474   4.863   6.351
 9777SOL    HW130230   5.504   4.793   6.287
 9777SOL    HW230231   5.535   4.942   6.344
 9778SOL     OW30232   4.328   0.731   2.856
 9778SOL    HW130233   4.298   0.823   2.828
 9778SOL    HW230234   4.425   0.720   2.835
 9779SOL     OW30235   2.520   2.068   6.111
 9779SOL    HW130236   2.536   1.998   6.042
 9779SOL    HW230237   2.422   2.075   6.129
 9780SOL     OW30238   3.673   4.459   0.043
 9780SOL    HW130239   3.620   4.524   0.098
 9780SOL    HW230240   3.768   4.489   0.040
 9781SOL     OW30241   1.770   4.988   4.322
 9781SOL    HW130242   1.798   5.047   4.398
 9781SOL    HW230243   1.850   4.943   4.283
 9782SOL     OW30244   6.705   0.082   1.280
 9782SOL    HW130245   6.746   0.101   1.191
 9782SOL    HW230246   6.606   0.099   1.276
 9783SOL     OW30247   4.749   1.248   2.558
 9783SOL    HW130248   4.751   1.345   2.533
 9783SOL    HW230249   4.834   1.224   2.605
 9784SOL     OW30250   4.758   1.216   3.994
 9784SOL    HW130251   4.822   1.292   3.999
 9784SOL    HW230252   4.665   1.251   4.004
 9785SOL     OW30253   0.594   2.921   1.455
 9785SOL    HW130254   0.654   2.950   1.381
 9785SOL    HW230255   0.638   2.940   1.543
 9786SOL     OW30256   2.658   6.760   4.785
 9786SOL    HW130257   2.568   6.718   4.797
 9786SOL    HW230258   2.721   6.723   4.853
 9787SOL     OW30259   5.435   4.336   1.558
 9787SOL    HW130260   5.456   4.340   1.656
 9787SOL    HW230261   5.516   4.306   1.507
 9788SOL     OW30262   0.502   0.930   5.487
 9788SOL    HW130263   0.488   1.019   5.530
 9788SOL    HW230264   0.528   0.942   5.391
 9789SOL     OW30265   2.046   5.818   4.671
 9789SOL    HW130266   2.015   5.737   4.720
 9789SOL    HW230267   1.975   5.889   4.674
 9790SOL     OW30268   6.513   2.031   4.573
 9790SOL    HW130269   6.442   1.997   4.635
 9790SOL    HW230270   6.548   2.118   4.608
 9791SOL     OW30271   1.159   2.534   1.014
 9791SOL    HW130272   1.206   2.567   1.096
 9791SOL    HW230273   1.206   2.568   0.933
 9792SOL     OW30274   4.863   5.690   2.134
 9792SOL    HW130275   4.907   5.617   2.081
 9792SOL    HW230276   4.825   5.758   2.072
 9793SOL     OW30277   4.449   6.195   2.609
 9793SOL    HW130278   4.526   6.133   2.593
 9793SOL    HW230279   4.446   6.220   2.706
 9794SOL     OW30280   3.655   2.714   6.763
 9794SOL    HW130281   3.682   2.620   6.742
 9794SOL    HW230282   3.561   2.715   6.798
 9795SOL     OW30283   1.897   3.764   4.225
 9795SOL    HW130284   1.922   3.821   4.304
 9795SOL    HW230285   1.941   3.675   4.234
 9796SOL     OW30286   3.227   5.314   0.198
 9796SOL    HW130287   3.181   5.364   0.270
 9796SOL    HW230288   3.241   5.373   0.119
 9797SOL     OW30289   4.998   2.914   5.256
 9797SOL    HW130290   5.007   2.870   5.345
 9797SOL    HW230291   4.909   2.959   5.250
 9798SOL     OW30292   1.916   2.216   1.784
 9798SOL    HW130293   1.983   2.198   1.856
 9798SOL    HW230294   1.859   2.295   1.811
 9799SOL     OW30295   3.089   3.864   2.075
 9799SOL    HW130296   3.022   3.797   2.043
 9799SOL    HW230297   3.074   3.883   2.172
 9800SOL     OW30298   4.070   5.482   6.359
 9800SOL    HW130299   4.086   5.464   6.262
 9800SOL    HW230300   4.158   5.486   6.407
 9801SOL     OW30301   4.340   4.778   6.807
 9801SOL    HW130302   4.376   4.844   6.873
 9801SOL    HW230303   4.263   4.729   6.848
 9802SOL     OW30304   7.006   3.592   1.364
 9802SOL    HW130305   6.915   3.631   1.349
 9802SOL    HW230306   0.036   3.654   1.419
 9803SOL     OW30307   6.161   1.159   6.558
 9803SOL    HW130308   6.207   1.131   6.642
 9803SOL    HW230309   6.225   1.209   6.500
 9804SOL     OW30310   5.499   5.284   4.365
 9804SOL    HW130311   5.595   5.290   4.339
 9804SOL    HW230312   5.442   5.311   4.286
 9805SOL     OW30313   3.106   4.526   0.080
 9805SOL    HW130314   3.195   4.571   0.070
 9805SOL    HW230315   3.062   4.518   7.016
 9806SOL     OW30316   6.453   1.888   2.849
 9806SOL    HW130317   6.510   1.942   2.786
 9806SOL    HW230318   6.434   1.799   2.808
 9807SOL     OW30319   3.350   2.714   0.525
 9807SOL    HW130320   3.419   2.656   0.567
 9807SOL    HW230321   3.285   2.657   0.474
 9808SOL     OW30322   0.778   1.359   4.881
 9808SOL    HW130323   0.735   1.414   4.809
 9808SOL    HW230324   0.877   1.356   4.867
 9809SOL     OW30325   1.291   0.890   4.784
 9809SOL    HW130326   1.274   0.953   4.859
 9809SOL    HW230327   1.385   0.900   4.752
 9810SOL     OW30328   3.832   0.840   3.789
 9810SOL    HW130329   3.881   0.910   3.840
 9810SOL    HW230330   3.742   0.874   3.761
 9811SOL     OW30331   1.143   6.756   2.587
 9811SOL    HW130332   1.127   6.782   2.682
 9811SOL    HW230333   1.062   6.710   2.552
 9812SOL     OW30334   4.993   2.786   5.536
 9812SOL    HW130335   4.919   2.747   5.482
 9812SOL    HW230336   5.009   2.731   5.618
 9813SOL     OW30337   6.668   4.706   0.445
 9813SOL    HW130338   6.621   4.639   0.502
 9813SOL    HW230339   6.663   4.796   0.489
 9814SOL     OW30340   0.137   0.188   5.550
 9814SOL    HW130341   0.144   0.144   5.640
 9814SOL    HW230342   0.227   0.189   5.507
 9815SOL     OW30343   6.554   4.078   3.004
 9815SOL    HW130344   6.601   3.989   3.008
 9815SOL    HW230345   6.502   4.084   2.919
 9816SOL     OW30346   0.163   6.955   6.138
 9816SOL    HW130347   0.076   6.906   6.138
 9816SOL    HW230348   0.238   6.891   6.122
 9817SOL     OW30349   2.904   6.919   6.843
 9817SOL    HW130350   2.932   6.832   6.883
 9817SOL    HW230351   2.982   6.964   6.800
 9818SOL     OW30352   0.834   6.620   3.506
 9818SOL    HW130353   0.822   6.651   3.411
 9818SOL    HW230354   0.745   6.617   3.551
 9819SOL     OW30355   6.760   3.288   4.386
 9819SOL    HW130356   6.698   3.213   4.408
 9819SOL    HW230357   6.724   3.338   4.307
 9820SOL     OW30358   3.836   1.841   5.975
 9820SOL    HW130359   3.786   1.925   5.996
 9820SOL    HW230360   3.921   1.839   6.028
 9821SOL     OW30361   3.896   3.270   1.500
 9821SOL    HW130362   3.898   3.172   1.484
 9821SOL    HW230363   3.940   3.290   1.588
 9822SOL     OW30364   3.561   6.649   5.417
 9822SOL    HW130365   3.557   6.749   5.411
 9822SOL    HW230366   3.650   6.622   5.454
 9823SOL     OW30367   2.818   6.719   3.193
 9823SOL    HW130368   2.815   6.621   3.173
 9823SOL    HW230369   2.814   6.770   3.107
 9824SOL     OW30370   0.899   6.065   5.074
 9824SOL    HW130371   0.982   6.014   5.096
 9824SOL    HW230372   0.896   6.148   5.129
 9825SOL     OW30373   6.144   6.652   4.958
 9825SOL    HW130374   6.050   6.650   4.993
 9825SOL    HW230375   6.143   6.679   4.861
 9826SOL     OW30376   2.387   5.422   5.182
 9826SOL    HW130377   2.407   5.519   5.200
 9826SOL    HW230378   2.344   5.414   5.093
 9827SOL     OW30379   1.753   4.607   1.999
 9827SOL    HW130380   1.841   4.602   2.046
 9827SOL    HW230381   1.767   4.615   1.901
 9828SOL     OW30382   4.711   2.439   4.639
 9828SOL    HW130383   4.738   2.468   4.548
 9828SOL    HW230384   4.619   2.400   4.636
 9829SOL     OW30385   4.600   5.599   5.715
 9829SOL    HW130386   4.506   5.633   5.705
 9829SOL    HW230387   4.620   5.534   5.641
 9830SOL     OW30388   5.643   1.506   3.454
 9830SOL    HW130389   5.740   1.510   3.427
 9830SOL    HW230390   5.590   1.566   3.394
 9831SOL     OW30391   0.649   4.379   2.593
 9831SOL    HW130392   0.689   4.288   2.585
 9831SOL    HW230393   0.691   4.428   2.670
 9832SOL     OW30394   4.525   5.355   4.688
 9832SOL    HW130395   4.510   5.322   4.781
 9832SOL    HW230396   4.599   5.422   4.688
 9833SOL     OW30397   3.984   3.731   3.914
 9833SOL    HW130398   4.061   3.671   3.935
 9833SOL    HW230399   3.984   3.809   3.977
 9834SOL     OW30400   2.834   6.600   5.711
 9834SOL    HW130401   2.757   6.664   5.715
 9834SOL    HW230402   2.920   6.650   5.702
 9835SOL     OW30403   4.071   3.750   4.233
 9835SOL    HW130404   4.029   3.826   4.183
 9835SOL    HW230405   4.032   3.745   4.325
 9836SOL     OW30406   0.114   3.869   6.059
 9836SOL    HW130407   0.198   3.813   6.064
 9836SOL    HW230408   0.053   3.844   6.134
 9837SOL     OW30409   5.616   2.064   3.330
 9837SOL    HW130410   5.579   1.980   3.368
 9837SOL    HW230411   5.711   2.048   3.301
 9838SOL     OW30412   1.852   6.752   1.297
 9838SOL    HW130413   1.853   6.672   1.357
 9838SOL    HW230414   1.936   6.755   1.243
 9839SOL     OW30415   5.062   7.004   3.949
 9839SOL    HW130416   4.989   0.038   3.914
 9839SOL    HW230417   5.052   6.912   3.911
 9840SOL     OW30418   6.400   1.673   6.839
 9840SOL    HW130419   6.359   1.764   6.834
 9840SOL    HW230420   6.452   1.665   6.924
 9841SOL     OW30421   6.864   6.569   2.828
 9841SOL    HW130422   6.942   6.594   2.886
 9841SOL    HW230423   6.856   6.635   2.754
 9842SOL     OW30424   3.405   0.798   6.739
 9842SOL    HW130425   3.363   0.887   6.757
 9842SOL    HW230426   3.444   0.762   6.824
 9843SOL     OW30427   0.621   0.378   1.692
 9843SOL    HW130428   0.631   0.339   1.784
 9843SOL    HW230429   0.708   0.419   1.664
 9844SOL     OW30430   4.955   0.213   4.374
 9844SOL    HW130431   4.974   0.217   4.276
 9844SOL    HW230432   4.985   0.298   4.417
 9845SOL     OW30433   1.720   3.570   2.438
 9845SOL    HW130434   1.778   3.489   2.441
 9845SOL    HW230435   1.776   3.652   2.452
 9846SOL     OW30436   6.086   2.397   1.617
 9846SOL    HW130437   6.004   2.386   1.562
 9846SOL    HW230438   6.146   2.464   1.574
 9847SOL     OW30439   3.956   4.027   6.602
 9847SOL    HW130440   3.991   4.118   6.622
 9847SOL    HW230441   3.964   3.969   6.683
 9848SOL     OW30442   3.630   4.047   5.489
 9848SOL    HW130443   3.530   4.052   5.486
 9848SOL    HW230444   3.663   4.090   5.573
 9849SOL     OW30445   0.533   2.631   4.180
 9849SOL    HW130446   0.453   2.592   4.134
 9849SOL    HW230447   0.505   2.672   4.267
 9850SOL     OW30448   1.742   0.180   3.998
 9850SOL    HW130449   1.777   0.209   3.909
 9850SOL    HW230450   1.686   0.098   3.986
 9851SOL     OW30451   3.725   5.329   4.597
 9851SOL    HW130452   3.636   5.316   4.554
 9851SOL    HW230453   3.798   5.299   4.535
 9852SOL     OW30454   1.876   6.877   0.328
 9852SOL    HW130455   1.969   6.850   0.354
 9852SOL    HW230456   1.818   6.880   0.409
 9853SOL     OW30457   0.173   4.499   3.739
 9853SOL    HW130458   0.116   4.427   3.778
 9853SOL    HW230459   0.227   4.462   3.663
 9854SOL     OW30460   0.793   4.486   6.182
 9854SOL    HW130461   0.860   4.428   6.229
 9854SOL    HW230462   0.808   4.482   6.084
 9855SOL     OW30463   1.075   4.998   0.701
 9855SOL    HW130464   1.009   4.932   0.665
 9855SOL    HW230465   1.135   4.952   0.767
 9856SOL     OW30466   5.686   3.804   2.972
 9856SOL    HW130467   5.680   3.717   3.021
 9856SOL    HW230468   5.765   3.802   2.910
 9857SOL     OW30469   4.646   0.478   5.554
 9857SOL    HW130470   4.678   0.436   5.639
 9857SOL    HW230471   4.705   0.556   5.532
 9858SOL     OW30472   6.706   5.798   1.887
 9858SOL    HW130473   6.657   5.881   1.916
 9858SOL    HW230474   6.799   5.801   1.924
 9859SOL     OW30475   6.964   5.388   3.207
 9859SOL    HW130476   7.024   5.329   3.261
 9859SOL    HW230477   6.908   5.332   3.146
 9860SOL     OW30478   1.296   3.195   4.672
 9860SOL    HW130479   1.307   3.290   4.704
 9860SOL    HW230480   1.358   3.135   4.723
 9861SOL     OW30481   3.308   2.174   2.793
 9861SOL    HW130482   3.233   2.220   2.746
 9861SOL    HW230483   3.372   2.138   2.726
 9862SOL     OW30484   1.142   4.172   0.039
 9862SOL    HW130485   1.208   4.111   0.081
 9862SOL    HW230486   1.161   4.267   0.067
 9863SOL     OW30487   4.308   6.383   1.313
 9863SOL    HW130488   4.237   6.452   1.297
 9863SOL    HW230489   4.307   6.356   1.409
 9864SOL     OW30490   2.371   5.686   5.293
 9864SOL    HW130491   2.325   5.691   5.381
 9864SOL    HW230492   2.460   5.731   5.299
 9865SOL     OW30493   1.263   5.216   5.772
 9865SOL    HW130494   1.276   5.199   5.869
 9865SOL    HW230495   1.295   5.308   5.750
 9866SOL     OW30496   0.123   5.307   5.500
 9866SOL    HW130497   0.062   5.336   5.574
 9866SOL    HW230498   0.102   5.213   5.473
 9867SOL     OW30499   3.753   1.888   2.323
 9867SOL    HW130500   3.805   1.969   2.296
 9867SOL    HW230501   3.760   1.874   2.421
 9868SOL     OW30502   2.479   4.654   3.857
 9868SOL    HW130503   2.459   4.557   3.871
 9868SOL    HW230504   2.469   4.677   3.761
 9869SOL     OW30505   6.560   2.534   1.025
 9869SOL    HW130506   6.592   2.528   0.931
 9869SOL    HW230507   6.606   2.465   1.081
 9870SOL     OW30508   2.236   2.096   2.408
 9870SOL    HW130509   2.164   2.112   2.341
 9870SOL    HW230510   2.196   2.072   2.496
 9871SOL     OW30511   5.363   5.370   3.385
 9871SOL    HW130512   5.315   5.360   3.472
 9871SOL    HW230513   5.296   5.386   3.312
 9872SOL     OW30514   0.867   4.947   5.958
 9872SOL    HW130515   0.854   5.036   5.914
 9872SOL    HW230516   0.793   4.932   6.024
 9873SOL     OW30517   1.331   1.207   5.259
 9873SOL    HW130518   1.277   1.250   5.187
 9873SOL    HW230519   1.354   1.114   5.233
 9874SOL     OW30520   0.105   2.594   4.895
 9874SOL    HW130521   0.159   2.622   4.815
 9874SOL    HW230522   0.088   2.674   4.953
 9875SOL     OW30523   6.412   6.140   0.927
 9875SOL    HW130524   6.434   6.236   0.908
 9875SOL    HW230525   6.434   6.084   0.846
 9876SOL     OW30526   0.959   6.384   3.340
 9876SOL    HW130527   0.985   6.406   3.434
 9876SOL    HW230528   0.861   6.396   3.328
 9877SOL     OW30529   0.794   5.195   5.324
 9877SOL    HW130530   0.697   5.208   5.345
 9877SOL    HW230531   0.849   5.250   5.387
 9878SOL     OW30532   3.162   2.659   6.577
 9878SOL    HW130533   3.222   2.580   6.564
 9878SOL    HW230534   3.154   2.679   6.675
 9879SOL     OW30535   6.965   4.919   6.101
 9879SOL    HW130536   6.911   4.905   6.184
 9879SOL    HW230537   6.914   4.978   6.038
 9880SOL     OW30538   2.826   0.947   0.839
 9880SOL    HW130539   2.778   0.940   0.752
 9880SOL    HW230540   2.825   0.858   0.885
 9881SOL     OW30541   6.152   1.468   3.894
 9881SOL    HW130542   6.242   1.426   3.884
 9881SOL    HW230543   6.156   1.563   3.864
 9882SOL     OW30544   3.360   3.105   5.230
 9882SOL    HW130545   3.424   3.031   5.209
 9882SOL    HW230546   3.331   3.149   5.145
 9883SOL     OW30547   2.118   0.049   2.316
 9883SOL    HW130548   2.163   0.120   2.261
 9883SOL    HW230549   2.185   0.009   2.379
 9884SOL     OW30550   2.969   2.652   5.364
 9884SOL    HW130551   3.062   2.622   5.343
 9884SOL    HW230552   2.972   2.746   5.397
 9885SOL     OW30553   4.863   3.012   5.622
 9885SOL    HW130554   4.866   3.017   5.722
 9885SOL    HW230555   4.917   2.933   5.591
 9886SOL     OW30556   3.437   5.829   1.329
 9886SOL    HW130557   3.345   5.844   1.363
 9886SOL    HW230558   3.503   5.861   1.397
 9887SOL     OW30559   3.121   2.020   6.608
 9887SOL    HW130560   3.187   2.020   6.533
 9887SOL    HW230561   3.154   1.959   6.681
 9888SOL     OW30562   6.601   6.684   3.387
 9888SOL    HW130563   6.693   6.680   3.424
 9888SOL    HW230564   6.591   6.615   3.315
 9889SOL     OW30565   6.666   6.073   2.817
 9889SOL    HW130566   6.742   6.116   2.769
 9889SOL    HW230567   6.615   6.015   2.753
 9890SOL     OW30568   0.603   3.675   2.520
 9890SOL    HW130569   0.596   3.697   2.422
 9890SOL    HW230570   0.511   3.656   2.556
 9891SOL     OW30571   5.426   5.522   1.467
 9891SOL    HW130572   5.416   5.423   1.478
 9891SOL    HW230573   5.388   5.549   1.378
 9892SOL     OW30574   1.498   5.636   3.926
 9892SOL    HW130575   1.434   5.602   3.857
 9892SOL    HW230576   1.466   5.612   4.017
 9893SOL     OW30577   5.461   5.168   4.617
 9893SOL    HW130578   5.547   5.132   4.652
 9893SOL    HW230579   5.472   5.198   4.523
 9894SOL     OW30580   4.411   2.795   5.628
 9894SOL    HW130581   4.317   2.828   5.634
 9894SOL    HW230582   4.429   2.762   5.536
 9895SOL     OW30583   5.607   1.800   0.121
 9895SOL    HW130584   5.667   1.869   0.163
 9895SOL    HW230585   5.551   1.843   0.050
 9896SOL     OW30586   4.526   2.993   7.014
 9896SOL    HW130587   4.594   2.975   6.942
 9896SOL    HW230588   4.499   3.089   7.011
 9897SOL     OW30589   6.759   1.905   3.511
 9897SOL    HW130590   6.688   1.882   3.577
 9897SOL    HW230591   6.843   1.929   3.560
 9898SOL     OW30592   1.473   4.923   5.845
 9898SOL    HW130593   1.382   4.925   5.886
 9898SOL    HW230594   1.540   4.956   5.912
 9899SOL     OW30595   4.726   4.948   2.316
 9899SOL    HW130596   4.665   4.881   2.358
 9899SOL    HW230597   4.672   5.011   2.261
 9900SOL     OW30598   1.069   3.738   3.654
 9900SOL    HW130599   1.155   3.688   3.651
 9900SOL    HW230600   1.064   3.792   3.739
 9901SOL     OW30601   2.405   1.833   5.613
 9901SOL    HW130602   2.393   1.836   5.514
 9901SOL    HW230603   2.323   1.867   5.658
 9902SOL     OW30604   4.647   3.768   6.987
 9902SOL    HW130605   4.584   3.843   6.967
 9902SOL    HW230606   4.720   3.767   6.918
 9903SOL     OW30607   3.666   0.752   1.463
 9903SOL    HW130608   3.687   0.849   1.470
 9903SOL    HW230609   3.620   0.733   1.377
 9904SOL     OW30610   0.141   0.051   2.160
 9904SOL    HW130611   0.094   7.014   2.223
 9904SOL    HW230612   0.116   0.146   2.181
 9905SOL     OW30613   1.907   6.255   6.240
 9905SOL    HW130614   1.902   6.191   6.317
 9905SOL    HW230615   1.905   6.203   6.154
 9906SOL     OW30616   3.714   3.709   5.967
 9906SOL    HW130617   3.799   3.678   6.010
 9906SOL    HW230618   3.721   3.695   5.868
 9907SOL     OW30619   1.320   6.419   2.713
 9907SOL    HW130620   1.290   6.495   2.656
 9907SOL    HW230621   1.330   6.449   2.807
 9908SOL     OW30622   0.815   3.292   4.880
 9908SOL    HW130623   0.746   3.283   4.951
 9908SOL    HW230624   0.775   3.273   4.791
 9909SOL     OW30625   3.339   0.264   2.766
 9909SOL    HW130626   3.417   0.235   2.711
 9909SOL    HW230627   3.256   0.220   2.732
 9910SOL     OW30628   0.801   4.565   1.409
 9910SOL    HW130629   0.875   4.548   1.474
 9910SOL    HW230630   0.722   4.603   1.458
 9911SOL     OW30631   4.009   4.853   3.215
 9911SOL    HW130632   4.030   4.950   3.230
 9911SOL    HW230633   4.089   4.806   3.178
 9912SOL     OW30634   4.093   0.058   1.298
 9912SOL    HW130635   4.156   0.128   1.263
 9912SOL    HW230636   4.119   6.994   1.259
 9913SOL     OW30637   4.516   2.409   2.460
 9913SOL    HW130638   4.572   2.491   2.449
 9913SOL    HW230639   4.481   2.404   2.554
 9914SOL     OW30640   2.307   5.297   5.397
 9914SOL    HW130641   2.318   5.357   5.318
 9914SOL    HW230642   2.389   5.241   5.408
 9915SOL     OW30643   5.755   3.784   3.959
 9915SOL    HW130644   5.761   3.856   4.029
 9915SOL    HW230645   5.798   3.816   3.875
 9916SOL     OW30646   2.680   3.052   0.760
 9916SOL    HW130647   2.767   3.038   0.806
 9916SOL    HW230648   2.605   3.035   0.824
 9917SOL     OW30649   2.019   2.955   4.694
 9917SOL    HW130650   1.945   3.023   4.698
 9917SOL    HW230651   2.099   2.990   4.742
 9918SOL     OW30652   2.174   0.770   4.752
 9918SOL    HW130653   2.204   0.831   4.825
 9918SOL    HW230654   2.176   0.675   4.784
 9919SOL     OW30655   0.156   5.325   2.550
 9919SOL    HW130656   0.219   5.383   2.498
 9919SOL    HW230657   0.166   5.230   2.522
 9920SOL     OW30658   4.392   6.386   2.816
 9920SOL    HW130659   4.440   6.462   2.771
 9920SOL    HW230660   4.294   6.403   2.814
 9921SOL     OW30661   4.676   0.257   3.670
 9921SOL    HW130662   4.606   0.286   3.734
 9921SOL    HW230663   4.688   0.327   3.599
 9922SOL     OW30664   5.118   3.170   1.381
 9922SOL    HW130665   5.038   3.157   1.323
 9922SOL    HW230666   5.089   3.179   1.477
 9923SOL     OW30667   6.409   0.857   6.045
 9923SOL    HW130668   6.405   0.760   6.068
 9923SOL    HW230669   6.320   0.899   6.065
 9924SOL     OW30670   4.994   0.931   3.010
 9924SOL    HW130671   5.049   0.996   2.957
 9924SOL    HW230672   5.039   0.914   3.098
 9925SOL     OW30673   3.192   2.179   4.740
 9925SOL    HW130674   3.276   2.126   4.732
 9925SOL    HW230675   3.201   2.246   4.814
 9926SOL     OW30676   1.376   1.067   6.739
 9926SOL    HW130677   1.284   1.031   6.724
 9926SOL    HW230678   1.422   1.075   6.650
 9927SOL     OW30679   0.987   2.244   2.027
 9927SOL    HW130680   1.043   2.253   1.944
 9927SOL    HW230681   1.022   2.306   2.097
 9928SOL     OW30682   6.714   3.353   2.733
 9928SOL    HW130683   6.642   3.327   2.668
 9928SOL    HW230684   6.798   3.372   2.682
 9929SOL     OW30685   1.877   4.060   5.679
 9929SOL    HW130686   1.793   4.065   5.625
 9929SOL    HW230687   1.856   4.025   5.770
 9930SOL     OW30688   0.460   5.234   0.249
 9930SOL    HW130689   0.476   5.145   0.206
 9930SOL    HW230690   0.492   5.307   0.189
 9931SOL     OW30691   2.939   4.975   6.981
 9931SOL    HW130692   2.963   5.045   0.023
 9931SOL    HW230693   2.931   5.017   6.891
 9932SOL     OW30694   1.828   2.341   0.752
 9932SOL    HW130695   1.890   2.290   0.812
 9932SOL    HW230696   1.755   2.382   0.806
 9933SOL     OW30697   0.608   1.359   2.408
 9933SOL    HW130698   0.558   1.444   2.422
 9933SOL    HW230699   0.563   1.285   2.459
 9934SOL     OW30700   4.672   1.552   0.161
 9934SOL    HW130701   4.675   1.578   0.257
 9934SOL    HW230702   4.590   1.497   0.144
 9935SOL     OW30703   2.699   2.173   1.189
 9935SOL    HW130704   2.709   2.128   1.278
 9935SOL    HW230705   2.752   2.123   1.120
 9936SOL     OW30706   5.795   6.358   5.970
 9936SOL    HW130707   5.778   6.406   5.883
 9936SOL    HW230708   5.708   6.323   6.005
 9937SOL     OW30709   1.136   0.231   3.501
 9937SOL    HW130710   1.159   0.214   3.597
 9937SOL    HW230711   1.112   0.327   3.489
 9938SOL     OW30712   6.623   1.231   3.810
 9938SOL    HW130713   6.670   1.230   3.899
 9938SOL    HW230714   6.578   1.143   3.796
 9939SOL     OW30715   2.747   4.000   1.155
 9939SOL    HW130716   2.720   4.068   1.223
 9939SOL    HW230717   2.840   4.020   1.122
 9940SOL     OW30718   6.955   0.913   3.460
 9940SOL    HW130719   6.935   0.995   3.513
 9940SOL    HW230720   7.011   0.937   3.381
 9941SOL     OW30721   5.326   4.994   0.526
 9941SOL    HW130722   5.330   4.996   0.626
 9941SOL    HW230723   5.248   4.938   0.497
 9942SOL     OW30724   5.552   5.896   2.999
 9942SOL    HW130725   5.551   5.797   3.011
 9942SOL    HW230726   5.629   5.922   2.940
 9943SOL     OW30727   1.386   3.672   6.114
 9943SOL    HW130728   1.381   3.631   6.023
 9943SOL    HW230729   1.311   3.637   6.170
 9944SOL     OW30730   1.369   5.568   6.212
 9944SOL    HW130731   1.425   5.488   6.192
 9944SOL    HW230732   1.326   5.601   6.128
 9945SOL     OW30733   6.703   3.601   6.674
 9945SOL    HW130734   6.698   3.507   6.708
 9945SOL    HW230735   6.611   3.634   6.653
 9946SOL     OW30736   5.044   2.233   1.700
 9946SOL    HW130737   5.044   2.279   1.788
 9946SOL    HW230738   4.960   2.255   1.650
 9947SOL     OW30739   0.361   1.905   3.314
 9947SOL    HW130740   0.448   1.904   3.364
 9947SOL    HW230741   0.285   1.911   3.380
 9948SOL     OW30742   5.726   0.415   4.480
 9948SOL    HW130743   5.782   0.368   4.548
 9948SOL    HW230744   5.755   0.389   4.388
 9949SOL     OW30745   6.629   4.485   3.145
 9949SOL    HW130746   6.551   4.484   3.208
 9949SOL    HW230747   6.695   4.554   3.175
 9950SOL     OW30748   4.713   4.278   5.385
 9950SOL    HW130749   4.647   4.208   5.362
 9950SOL    HW230750   4.755   4.313   5.301
 9951SOL     OW30751   0.033   2.032   3.008
 9951SOL    HW130752   0.013   1.935   2.993
 9951SOL    HW230753   7.015   2.087   2.935
 9952SOL     OW30754   1.299   4.527   2.228
 9952SOL    HW130755   1.370   4.536   2.159
 9952SOL    HW230756   1.285   4.615   2.273
 9953SOL     OW30757   6.122   4.036   3.869
 9953SOL    HW130758   6.056   3.968   3.836
 9953SOL    HW230759   6.204   3.988   3.900
 9954SOL     OW30760   3.459   0.754   1.201
 9954SOL    HW130761   3.406   0.681   1.160
 9954SOL    HW230762   3.402   0.804   1.267
 9955SOL     OW30763   5.638   4.721   1.179
 9955SOL    HW130764   5.567   4.791   1.191
 9955SOL    HW230765   5.624   4.647   1.244
 9956SOL     OW30766   2.059   3.083   3.736
 9956SOL    HW130767   2.091   3.106   3.644
 9956SOL    HW230768   2.038   2.986   3.741
 9957SOL     OW30769   5.419   0.500   0.727
 9957SOL    HW130770   5.507   0.526   0.767
 9957SOL    HW230771   5.369   0.444   0.793
 9958SOL     OW30772   5.961   5.604   0.065
 9958SOL    HW130773   5.986   5.507   0.069
 9958SOL    HW230774   5.890   5.623   0.132
 9959SOL     OW30775   5.043   5.513   0.564
 9959SOL    HW130776   5.103   5.540   0.489
 9959SOL    HW230777   5.007   5.421   0.547
 9960SOL     OW30778   6.797   0.117   0.365
 9960SOL    HW130779   6.810   0.123   0.464
 9960SOL    HW230780   6.798   0.208   0.325
 9961SOL     OW30781   3.255   5.605   0.673
 9961SOL    HW130782   3.178   5.640   0.727
 9961SOL    HW230783   3.274   5.511   0.700
 9962SOL     OW30784   3.557   0.581   1.665
 9962SOL    HW130785   3.593   0.639   1.592
 9962SOL    HW230786   3.462   0.607   1.684
 9963SOL     OW30787   0.805   0.257   5.797
 9963SOL    HW130788   0.861   0.339   5.811
 9963SOL    HW230789   0.708   0.282   5.804
 9964SOL     OW30790   4.337   4.854   6.308
 9964SOL    HW130791   4.361   4.891   6.398
 9964SOL    HW230792   4.259   4.904   6.271
 9965SOL     OW30793   3.319   5.161   3.820
 9965SOL    HW130794   3.265   5.187   3.901
 9965SOL    HW230795   3.340   5.063   3.825
 9966SOL     OW30796   3.606   5.211   2.962
 9966SOL    HW130797   3.615   5.163   3.049
 9966SOL    HW230798   3.681   5.183   2.901
 9967SOL     OW30799   0.168   0.239   3.148
 9967SOL    HW130800   0.127   0.323   3.184
 9967SOL    HW230801   0.110   0.202   3.076
 9968SOL     OW30802   4.365   6.721   6.786
 9968SOL    HW130803   4.287   6.663   6.809
 9968SOL    HW230804   4.446   6.664   6.773
 9969SOL     OW30805   0.388   5.482   3.980
 9969SOL    HW130806   0.424   5.489   3.887
 9969SOL    HW230807   0.311   5.544   3.991
 9970SOL     OW30808   6.486   3.411   2.097
 9970SOL    HW130809   6.538   3.422   2.012
 9970SOL    HW230810   6.547   3.419   2.175
 9971SOL     OW30811   0.246   5.172   4.486
 9971SOL    HW130812   0.344   5.190   4.474
 9971SOL    HW230813   0.193   5.235   4.430
 9972SOL     OW30814   3.428   4.268   6.148
 9972SOL    HW130815   3.453   4.175   6.120
 9972SOL    HW230816   3.342   4.294   6.104
 9973SOL     OW30817   2.458   2.155   3.194
 9973SOL    HW130818   2.413   2.146   3.283
 9973SOL    HW230819   2.463   2.065   3.150
 9974SOL     OW30820   1.324   2.414   3.121
 9974SOL    HW130821   1.306   2.333   3.066
 9974SOL    HW230822   1.416   2.408   3.161
 9975SOL     OW30823   2.524   4.532   6.843
 9975SOL    HW130824   2.537   4.630   6.831
 9975SOL    HW230825   2.569   4.483   6.768
 9976SOL     OW30826   3.925   5.271   6.006
 9976SOL    HW130827   3.906   5.176   6.029
 9976SOL    HW230828   3.852   5.307   5.948
 9977SOL     OW30829   4.738   0.150   5.622
 9977SOL    HW130830   4.667   0.160   5.552
 9977SOL    HW230831   4.716   0.072   5.680
 9978SOL     OW30832   1.059   2.851   6.917
 9978SOL    HW130833   0.998   2.909   6.864
 9978SOL    HW230834   1.118   2.907   6.975
 9979SOL     OW30835   3.375   3.456   5.140
 9979SOL    HW130836   3.363   3.372   5.086
 9979SOL    HW230837   3.291   3.475   5.191
 9980SOL     OW30838   1.720   1.678   1.383
 9980SOL    HW130839   1.755   1.632   1.301
 9980SOL    HW230840   1.693   1.771   1.359
 9981SOL     OW30841   6.525   1.830   0.049
 9981SOL    HW130842   6.446   1.828   0.110
 9981SOL    HW230843   6.530   1.920   0.004
 9982SOL     OW30844   1.885   1.967   4.300
 9982SOL    HW130845   1.872   2.005   4.208
 9982SOL    HW230846   1.817   2.007   4.362
 9983SOL     OW30847   1.132   3.581   2.438
 9983SOL    HW130848   1.211   3.610   2.493
 9983SOL    HW230849   1.122   3.642   2.359
 9984SOL     OW30850   0.329   4.923   1.114
 9984SOL    HW130851   0.277   4.977   1.181
 9984SOL    HW230852   0.403   4.875   1.160
 9985SOL     OW30853   5.055   4.763   0.209
 9985SOL    HW130854   5.119   4.825   0.254
 9985SOL    HW230855   5.042   4.681   0.266
 9986SOL     OW30856   5.700   5.593   0.204
 9986SOL    HW130857   5.680   5.535   0.124
 9986SOL    HW230858   5.668   5.547   0.287
 9987SOL     OW30859   5.661   2.857   1.402
 9987SOL    HW130860   5.747   2.881   1.447
 9987SOL    HW230861   5.639   2.761   1.420
 9988SOL     OW30862   5.821   6.896   3.677
 9988SOL    HW130863   5.748   6.910   3.611
 9988SOL    HW230864   5.857   6.984   3.707
 9989SOL     OW30865   0.235   6.028   2.376
 9989SOL    HW130866   0.334   6.020   2.388
 9989SOL    HW230867   0.212   6.123   2.355
 9990SOL     OW30868   0.217   6.860   3.033
 9990SOL    HW130869   0.281   6.933   3.012
 9990SOL    HW230870   0.131   6.899   3.068
 9991SOL     OW30871   1.933   4.820   3.181
 9991SOL    HW130872   1.989   4.800   3.261
 9991SOL    HW230873   1.969   4.901   3.135
 9992SOL     OW30874   2.441   5.098   0.497
 9992SOL    HW130875   2.394   5.046   0.569
 9992SOL    HW230876   2.527   5.135   0.533
 9993SOL     OW30877   3.859   0.024   4.822
 9993SOL    HW130878   3.918   0.100   4.848
 9993SOL    HW230879   3.768   0.038   4.859
 9994SOL     OW30880   6.204   5.217   4.753
 9994SOL    HW130881   6.216   5.297   4.812
 9994SOL    HW230882   6.153   5.244   4.671
 9995SOL     OW30883   3.516   1.582   5.855
 9995SOL    HW130884   3.453   1.653   5.887
 9995SOL    HW230885   3.567   1.546   5.933
 9996SOL     OW30886   2.769   3.626   0.702
 9996SOL    HW130887   2.826   3.608   0.622
 9996SOL    HW230888   2.790   3.717   0.738
 9997SOL     OW30889   6.249   2.713   3.549
 9997SOL    HW130890   6.156   2.703   3.583
 9997SOL    HW230891   6.252   2.687   3.453
 9998SOL     OW30892   4.822   4.314   2.463
 9998SOL    HW130893   4.755   4.297   2.390
 9998SOL    HW230894   4.910   4.337   2.422
 9999SOL     OW30895   0.767   6.704   3.971
 9999SOL    HW130896   0.838   6.744   3.913
 9999SOL    HW230897   0.718   6.633   3.920
10000SOL     OW30898   4.650   2.545   0.985
10000SOL    HW130899   4.628   2.639   0.959
10000SOL    HW230900   4.714   2.506   0.918
10001SOL     OW30901   3.820   6.329   2.002
10001SOL    HW130902   3.878   6.401   1.965
10001SOL    HW230903   3.726   6.363   2.010
10002SOL     OW30904   2.894   1.030   1.921
10002SOL    HW130905   2.888   0.938   1.961
10002SOL    HW230906   2.984   1.042   1.880
10003SOL     OW30907   1.292   0.676   3.434
10003SOL    HW130908   1.359   0.673   3.360
10003SOL    HW230909   1.271   0.771   3.456
10004SOL     OW30910   6.587   4.821   4.685
10004SOL    HW130911   6.662   4.885   4.701
10004SOL    HW230912   6.500   4.871   4.681
10005SOL     OW30913   2.102   5.053   3.586
10005SOL    HW130914   2.200   5.037   3.600
10005SOL    HW230915   2.067   5.111   3.659
10006SOL     OW30916   5.927   0.655   5.385
10006SOL    HW130917   5.873   0.710   5.448
10006SOL    HW230918   5.866   0.610   5.320
10007SOL     OW30919   1.228   4.869   4.335
10007SOL    HW130920   1.137   4.843   4.369
10007SOL    HW230921   1.297   4.810   4.376
10008SOL     OW30922   3.739   1.607   5.691
10008SOL    HW130923   3.651   1.601   5.739
10008SOL    HW230924   3.724   1.590   5.593
10009SOL     OW30925   1.086   3.794   2.257
10009SOL    HW130926   0.991   3.825   2.265
10009SOL    HW230927   1.147   3.873   2.250
10010SOL     OW30928   2.444   3.991   0.003
10010SOL    HW130929   2.530   4.031   0.033
10010SOL    HW230930   2.392   3.960   0.083
10011SOL     OW30931   2.053   3.114   0.102
10011SOL    HW130932   2.106   3.038   0.140
10011SOL    HW230933   1.955   3.094   0.110
10012SOL     OW30934   5.998   2.659   2.938
10012SOL    HW130935   5.972   2.565   2.957
10012SOL    HW230936   6.002   2.711   3.023
10013SOL     OW30937   0.169   6.223   5.083
10013SOL    HW130938   0.138   6.317   5.099
10013SOL    HW230939   0.126   6.187   5.001
10014SOL     OW30940   0.699   0.790   3.149
10014SOL    HW130941   0.760   0.815   3.224
10014SOL    HW230942   0.706   0.857   3.076
10015SOL     OW30943   4.202   5.757   6.061
10015SOL    HW130944   4.184   5.784   5.966
10015SOL    HW230945   4.276   5.690   6.063
10016SOL     OW30946   2.344   0.433   3.696
10016SOL    HW130947   2.437   0.398   3.709
10016SOL    HW230948   2.302   0.385   3.619
10017SOL     OW30949   2.686   2.317   2.899
10017SOL    HW130950   2.692   2.325   2.999
10017SOL    HW230951   2.646   2.400   2.861
10018SOL     OW30952   6.749   3.338   5.371
10018SOL    HW130953   6.657   3.376   5.369
10018SOL    HW230954   6.772   3.311   5.464
10019SOL     OW30955   0.657   2.337   1.868
10019SOL    HW130956   0.685   2.245   1.895
10019SOL    HW230957   0.736   2.399   1.875
10020SOL     OW30958   6.136   0.965   2.028
10020SOL    HW130959   6.103   0.981   2.121
10020SOL    HW230960   6.063   0.925   1.973
10021SOL     OW30961   1.086   3.344   2.302
10021SOL    HW130962   1.026   3.283   2.355
10021SOL    HW230963   1.110   3.423   2.358
10022SOL     OW30964   2.199   5.176   6.247
10022SOL    HW130965   2.177   5.266   6.209
10022SOL    HW230966   2.161   5.105   6.188
10023SOL     OW30967   0.750   0.687   6.235
10023SOL    HW130968   0.840   0.728   6.252
10023SOL    HW230969   0.679   0.754   6.253
10024SOL     OW30970   1.710   4.657   2.720
10024SOL    HW130971   1.768   4.734   2.695
10024SOL    HW230972   1.701   4.595   2.642
10025SOL     OW30973   1.064   4.462   1.112
10025SOL    HW130974   1.003   4.540   1.125
10025SOL    HW230975   1.101   4.433   1.200
10026SOL     OW30976   5.021   1.826   4.289
10026SOL    HW130977   5.007   1.921   4.262
10026SOL    HW230978   5.059   1.775   4.212
10027SOL     OW30979   2.655   1.723   5.164
10027SOL    HW130980   2.590   1.777   5.111
10027SOL    HW230981   2.725   1.686   5.104
10028SOL     OW30982   4.149   0.304   1.146
10028SOL    HW130983   4.241   0.343   1.154
10028SOL    HW230984   4.083   0.378   1.133
10029SOL     OW30985   0.411   4.077   4.637
10029SOL    HW130986   0.379   4.002   4.579
10029SOL    HW230987   0.454   4.148   4.580
10030SOL     OW30988   2.369   6.898   4.650
10030SOL    HW130989   2.435   6.876   4.579
10030SOL    HW230990   2.280   6.916   4.609
10031SOL     OW30991   3.002   4.841   3.592
10031SOL    HW130992   3.080   4.841   3.529
10031SOL    HW230993   3.031   4.804   3.681
10032SOL     OW30994   3.135   6.623   5.107
10032SOL    HW130995   3.203   6.550   5.108
10032SOL    HW230996   3.124   6.657   5.013
10033SOL     OW30997   2.972   0.773   4.232
10033SOL    HW130998   3.056   0.720   4.217
10033SOL    HW230999   2.917   0.773   4.149
10034SOL     OW31000   2.261   1.141   4.177
10034SOL    HW131001   2.342   1.105   4.132
10034SOL    HW231002   2.200   1.066   4.202
10035SOL     OW31003   5.955   2.154   2.368
10035SOL    HW131004   5.947   2.218   2.292
10035SOL    HW231005   5.881   2.169   2.433
10036SOL     OW31006   6.942   0.328   6.956
10036SOL    HW131007   7.016   0.304   7.018
10036SOL    HW231008   6.933   0.256   6.886
10037SOL     OW31009   6.051   6.875   6.915
10037SOL    HW131010   6.084   6.788   6.952
10037SOL    HW231011   5.952   6.871   6.905
10038SOL     OW31012   4.636   6.627   6.209
10038SOL    HW131013   4.595   6.718   6.207
10038SOL    HW231014   4.713   6.626   6.273
10039SOL     OW31015   6.932   5.563   2.530
10039SOL    HW131016   6.912   5.644   2.586
10039SOL    HW231017   7.009   5.583   2.469
10040SOL     OW31018   3.247   6.654   1.155
10040SOL    HW131019   3.225   6.719   1.082
10040SOL    HW231020   3.299   6.577   1.117
10041SOL     OW31021   6.741   5.138   5.072
10041SOL    HW131022   6.680   5.155   5.149
10041SOL    HW231023   6.700   5.070   5.011
10042SOL     OW31024   0.344   0.375   4.786
10042SOL    HW131025   0.343   0.353   4.883
10042SOL    HW231026   0.437   0.364   4.750
10043SOL     OW31027   0.436   0.663   3.633
10043SOL    HW131028   0.363   0.635   3.695
10043SOL    HW231029   0.518   0.684   3.685
10044SOL     OW31030   2.860   1.604   6.548
10044SOL    HW131031   2.796   1.610   6.471
10044SOL    HW231032   2.910   1.517   6.542
10045SOL     OW31033   3.643   0.003   5.026
10045SOL    HW131034   3.568   6.962   5.042
10045SOL    HW231035   3.714   7.014   5.094
10046SOL     OW31036   0.098   2.369   1.840
10046SOL    HW131037   0.159   2.445   1.816
10046SOL    HW231038   0.054   2.388   1.928
10047SOL     OW31039   0.231   2.145   3.913
10047SOL    HW131040   0.290   2.124   3.991
10047SOL    HW231041   0.280   2.124   3.828
10048SOL     OW31042   3.943   2.224   1.320
10048SOL    HW131043   3.891   2.269   1.393
10048SOL    HW231044   3.897   2.138   1.296
10049SOL     OW31045   1.626   6.827   5.141
10049SOL    HW131046   1.722   6.799   5.148
10049SOL    HW231047   1.587   6.792   5.056
10050SOL     OW31048   4.999   2.851   3.745
10050SOL    HW131049   5.063   2.833   3.671
10050SOL    HW231050   4.956   2.766   3.773
10051SOL     OW31051   5.951   2.730   5.542
10051SOL    HW131052   5.989   2.712   5.452
10051SOL    HW231053   5.936   2.643   5.590
10052SOL     OW31054   0.695   3.463   1.542
10052SOL    HW131055   0.630   3.390   1.522
10052SOL    HW231056   0.786   3.436   1.511
10053SOL     OW31057   3.378   5.694   3.407
10053SOL    HW131058   3.410   5.638   3.484
10053SOL    HW231059   3.426   5.666   3.323
10054SOL     OW31060   3.696   5.535   4.788
10054SOL    HW131061   3.777   5.584   4.757
10054SOL    HW231062   3.690   5.447   4.740
10055SOL     OW31063   5.748   2.937   5.806
10055SOL    HW131064   5.793   2.950   5.894
10055SOL    HW231065   5.800   2.872   5.751
10056SOL     OW31066   6.388   4.839   1.346
10056SOL    HW131067   6.452   4.768   1.317
10056SOL    HW231068   6.434   4.928   1.342
10057SOL     OW31069   3.303   1.979   3.800
10057SOL    HW131070   3.399   2.003   3.809
10057SOL    HW231071   3.293   1.903   3.736
10058SOL     OW31072   1.225   5.562   3.760
10058SOL    HW131073   1.270   5.595   3.677
10058SOL    HW231074   1.205   5.465   3.751
10059SOL     OW31075   5.833   0.398   1.016
10059SOL    HW131076   5.879   0.363   1.098
10059SOL    HW231077   5.901   0.433   0.952
10060SOL     OW31078   2.750   2.771   1.702
10060SOL    HW131079   2.829   2.712   1.683
10060SOL    HW231080   2.682   2.719   1.753
10061SOL     OW31081   6.173   1.768   4.673
10061SOL    HW131082   6.094   1.788   4.615
10061SOL    HW231083   6.171   1.673   4.702
10062SOL     OW31084   6.562   6.495   2.852
10062SOL    HW131085   6.479   6.492   2.908
10062SOL    HW231086   6.635   6.541   2.902
10063SOL     OW31087   1.540   3.259   3.066
10063SOL    HW131088   1.639   3.271   3.079
10063SOL    HW231089   1.497   3.241   3.155
10064SOL     OW31090   5.619   6.663   4.297
10064SOL    HW131091   5.611   6.612   4.211
10064SOL    HW231092   5.645   6.757   4.277
10065SOL     OW31093   1.194   6.338   3.236
10065SOL    HW131094   1.253   6.310   3.311
10065SOL    HW231095   1.104   6.362   3.272
10066SOL     OW31096   0.828   0.020   3.415
10066SOL    HW131097   0.842   7.003   3.504
10066SOL    HW231098   0.779   0.107   3.427
10067SOL     OW31099   4.131   4.808   3.945
10067SOL    HW131100   4.068   4.880   3.918
10067SOL    HW231101   4.085   4.719   3.943
10068SOL     OW31102   5.095   3.626   5.090
10068SOL    HW131103   5.003   3.647   5.056
10068SOL    HW231104   5.098   3.531   5.122
10069SOL     OW31105   3.009   1.178   3.018
10069SOL    HW131106   3.094   1.216   3.054
10069SOL    HW231107   3.028   1.122   2.938
10070SOL     OW31108   0.349   6.981   4.678
10070SOL    HW131109   0.437   6.941   4.655
10070SOL    HW231110   0.333   0.037   4.621
10071SOL     OW31111   5.391   5.777   5.148
10071SOL    HW131112   5.447   5.816   5.222
10071SOL    HW231113   5.297   5.764   5.180
10072SOL     OW31114   0.880   6.459   2.854
10072SOL    HW131115   0.833   6.545   2.875
10072SOL    HW231116   0.932   6.428   2.933
10073SOL     OW31117   6.734   4.623   6.312
10073SOL    HW131118   6.812   4.617   6.375
10073SOL    HW231119   6.705   4.531   6.285
10074SOL     OW31120   2.570   0.115   6.208
10074SOL    HW131121   2.519   0.106   6.122
10074SOL    HW231122   2.528   0.186   6.264
10075SOL     OW31123   0.919   2.465   3.673
10075SOL    HW131124   0.827   2.452   3.637
10075SOL    HW231125   0.981   2.490   3.599
10076SOL     OW31126   5.226   6.962   4.656
10076SOL    HW131127   5.307   6.903   4.656
10076SOL    HW231128   5.228   7.021   4.737
10077SOL     OW31129   4.031   1.595   6.030
10077SOL    HW131130   4.010   1.507   5.985
10077SOL    HW231131   4.027   1.668   5.963
10078SOL     OW31132   5.632   0.184   5.750
10078SOL    HW131133   5.725   0.146   5.749
10078SOL    HW231134   5.567   0.113   5.723
10079SOL     OW31135   0.009   3.350   0.910
10079SOL    HW131136   6.977   3.358   0.992
10079SOL    HW231137   0.093   3.404   0.922
10080SOL     OW31138   1.939   3.083   6.777
10080SOL    HW131139   1.991   3.043   6.702
10080SOL    HW231140   1.939   3.020   6.855
10081SOL     OW31141   0.107   0.561   6.689
10081SOL    HW131142   0.032   0.618   6.656
10081SOL    HW231143   0.152   0.606   6.766
10082SOL     OW31144   6.185   1.409   1.542
10082SOL    HW131145   6.198   1.463   1.458
10082SOL    HW231146   6.135   1.463   1.609
10083SOL     OW31147   4.678   0.420   4.144
10083SOL    HW131148   4.736   0.501   4.146
10083SOL    HW231149   4.724   0.347   4.094
10084SOL     OW31150   2.476   1.493   5.683
10084SOL    HW131151   2.495   1.395   5.678
10084SOL    HW231152   2.540   1.542   5.624
10085SOL     OW31153   0.729   5.830   2.762
10085SOL    HW131154   0.768   5.922   2.769
10085SOL    HW231155   0.800   5.766   2.732
10086SOL     OW31156   6.032   3.932   2.285
10086SOL    HW131157   6.097   3.983   2.229
10086SOL    HW231158   5.940   3.943   2.248
10087SOL     OW31159   1.287   0.342   4.197
10087SOL    HW131160   1.207   0.308   4.246
10087SOL    HW231161   1.266   0.432   4.159
10088SOL     OW31162   0.123   6.992   4.323
10088SOL    HW131163   0.103   6.962   4.230
10088SOL    HW231164   0.218   6.974   4.345
10089SOL     OW31165   1.250   3.333   1.885
10089SOL    HW131166   1.330   3.339   1.945
10089SOL    HW231167   1.253   3.246   1.835
10090SOL     OW31168   1.290   4.432   0.698
10090SOL    HW131169   1.282   4.528   0.725
10090SOL    HW231170   1.248   4.419   0.608
10091SOL     OW31171   0.800   2.570   4.589
10091SOL    HW131172   0.820   2.666   4.610
10091SOL    HW231173   0.867   2.535   4.525
10092SOL     OW31174   2.106   4.001   5.518
10092SOL    HW131175   2.030   4.025   5.577
10092SOL    HW231176   2.103   4.057   5.435
10093SOL     OW31177   6.226   5.257   6.073
10093SOL    HW131178   6.161   5.287   6.143
10093SOL    HW231179   6.255   5.163   6.093
10094SOL     OW31180   1.609   1.566   2.018
10094SOL    HW131181   1.533   1.558   1.954
10094SOL    HW231182   1.576   1.551   2.111
10095SOL     OW31183   7.020   0.954   5.983
10095SOL    HW131184   7.011   1.042   5.937
10095SOL    HW231185   6.988   0.881   5.922
10096SOL     OW31186   0.287   5.615   2.728
10096SOL    HW131187   0.265   5.565   2.644
10096SOL    HW231188   0.203   5.638   2.777
10097SOL     OW31189   1.269   0.840   0.508
10097SOL    HW131190   1.333   0.765   0.490
10097SOL    HW231191   1.240   0.837   0.603
10098SOL     OW31192   2.520   4.965   6.569
10098SOL    HW131193   2.452   4.912   6.621
10098SOL    HW231194   2.489   4.972   6.474
10099SOL     OW31195   6.739   4.427   4.904
10099SOL    HW131196   6.786   4.513   4.884
10099SOL    HW231197   6.794   4.372   4.967
10100SOL     OW31198   5.377   0.952   4.639
10100SOL    HW131199   5.392   1.027   4.575
10100SOL    HW231200   5.291   0.906   4.618
10101SOL     OW31201   6.932   4.693   2.489
10101SOL    HW131202   6.928   4.612   2.430
10101SOL    HW231203   6.859   4.689   2.557
10102SOL     OW31204   2.509   1.294   2.094
10102SOL    HW131205   2.541   1.383   2.062
10102SOL    HW231206   2.587   1.233   2.109
10103SOL     OW31207   2.404   1.914   6.344
10103SOL    HW131208   2.472   1.935   6.273
10103SOL    HW231209   2.340   1.845   6.309
10104SOL     OW31210   1.104   5.921   5.141
10104SOL    HW131211   1.094   5.863   5.221
10104SOL    HW231212   1.103   5.864   5.058
10105SOL     OW31213   1.912   0.499   6.601
10105SOL    HW131214   1.942   0.563   6.531
10105SOL    HW231215   1.988   0.478   6.662
10106SOL     OW31216   5.345   6.044   0.463
10106SOL    HW131217   5.333   6.000   0.374
10106SOL    HW231218   5.436   6.086   0.468
10107SOL     OW31219   5.601   1.594   6.214
10107SOL    HW131220   5.623   1.565   6.120
10107SOL    HW231221   5.543   1.676   6.211
10108SOL     OW31222   6.585   6.959   0.337
10108SOL    HW131223   6.523   6.983   0.412
10108SOL    HW231224   6.678   6.989   0.359
10109SOL     OW31225   4.417   5.372   3.869
10109SOL    HW131226   4.422   5.272   3.879
10109SOL    HW231227   4.472   5.416   3.940
10110SOL     OW31228   3.711   0.718   6.052
10110SOL    HW131229   3.613   0.716   6.032
10110SOL    HW231230   3.743   0.626   6.075
10111SOL     OW31231   0.476   2.717   2.466
10111SOL    HW131232   0.543   2.791   2.467
10111SOL    HW231233   0.391   2.750   2.423
10112SOL     OW31234   4.676   4.624   5.844
10112SOL    HW131235   4.744   4.639   5.916
10112SOL    HW231236   4.646   4.528   5.845
10113SOL     OW31237   3.984   6.737   6.927
10113SOL    HW131238   3.939   6.821   6.897
10113SOL    HW231239   4.083   6.750   6.926
10114SOL     OW31240   4.951   1.154   1.395
10114SOL    HW131241   4.889   1.224   1.359
10114SOL    HW231242   5.029   1.144   1.334
10115SOL     OW31243   1.721   2.191   3.737
10115SOL    HW131244   1.821   2.203   3.737
10115SOL    HW231245   1.678   2.265   3.788
10116SOL     OW31246   1.164   1.332   1.002
10116SOL    HW131247   1.155   1.303   1.097
10116SOL    HW231248   1.261   1.338   0.978
10117SOL     OW31249   5.816   0.478   5.902
10117SOL    HW131250   5.722   0.452   5.879
10117SOL    HW231251   5.880   0.434   5.839
10118SOL     OW31252   0.062   5.401   2.020
10118SOL    HW131253   0.001   5.470   2.058
10118SOL    HW231254   0.014   5.348   1.950
10119SOL     OW31255   2.128   0.970   5.605
10119SOL    HW131256   2.051   0.965   5.668
10119SOL    HW231257   2.206   1.012   5.652
10120SOL     OW31258   7.015   2.983   3.593
10120SOL    HW131259   0.060   2.929   3.547
10120SOL    HW231260   6.976   2.931   3.669
10121SOL     OW31261   6.583   4.740   5.223
10121SOL    HW131262   6.652   4.680   5.264
10121SOL    HW231263   6.614   4.769   5.132
10122SOL     OW31264   5.660   3.449   0.254
10122SOL    HW131265   5.611   3.534   0.232
10122SOL    HW231266   5.601   3.390   0.309
10123SOL     OW31267   0.033   6.020   0.349
10123SOL    HW131268   0.045   5.924   0.375
10123SOL    HW231269   6.964   6.048   0.370
10124SOL     OW31270   3.093   4.061   6.963
10124SOL    HW131271   3.010   4.080   6.910
10124SOL    HW231272   3.105   4.133   0.007
10125SOL     OW31273   1.474   0.537   1.785
10125SOL    HW131274   1.417   0.557   1.864
10125SOL    HW231275   1.448   0.449   1.746
10126SOL     OW31276   6.467   5.194   0.739
10126SOL    HW131277   6.369   5.194   0.757
10126SOL    HW231278   6.507   5.282   0.765
10127SOL     OW31279   3.605   5.573   5.367
10127SOL    HW131280   3.652   5.660   5.353
10127SOL    HW231281   3.562   5.543   5.281
10128SOL     OW31282   0.113   2.311   1.056
10128SOL    HW131283   0.123   2.292   1.153
10128SOL    HW231284   0.182   2.258   1.005
10129SOL     OW31285   5.921   2.568   3.363
10129SOL    HW131286   5.949   2.473   3.366
10129SOL    HW231287   5.841   2.581   3.422
10130SOL     OW31288   6.537   5.855   1.627
10130SOL    HW131289   6.522   5.787   1.699
10130SOL    HW231290   6.597   5.816   1.556
10131SOL     OW31291   0.634   1.034   1.416
10131SOL    HW131292   0.559   0.969   1.426
10131SOL    HW231293   0.646   1.058   1.320
10132SOL     OW31294   2.957   6.416   2.620
10132SOL    HW131295   2.887   6.394   2.688
10132SOL    HW231296   3.048   6.409   2.662
10133SOL     OW31297   4.793   6.038   3.823
10133SOL    HW131298   4.718   6.039   3.757
10133SOL    HW231299   4.846   5.954   3.813
10134SOL     OW31300   6.976   1.503   3.411
10134SOL    HW131301   6.894   1.446   3.400
10134SOL    HW231302   6.953   1.599   3.393
10135SOL     OW31303   4.217   4.905   2.925
10135SOL    HW131304   4.148   4.977   2.928
10135SOL    HW231305   4.184   4.830   2.868
10136SOL     OW31306   6.273   0.063   3.325
10136SOL    HW131307   6.359   0.097   3.290
10136SOL    HW231308   6.290   7.008   3.384
10137SOL     OW31309   6.568   5.236   4.148
10137SOL    HW131310   6.557   5.289   4.064
10137SOL    HW231311   6.479   5.220   4.190
10138SOL     OW31312   5.929   2.069   6.895
10138SOL    HW131313   6.025   2.061   6.920
10138SOL    HW231314   5.895   1.980   6.864
10139SOL     OW31315   3.696   2.931   3.170
10139SOL    HW131316   3.770   2.991   3.201
10139SOL    HW231317   3.685   2.940   3.071
10140SOL     OW31318   6.686   5.128   6.859
10140SOL    HW131319   6.747   5.188   6.808
10140SOL    HW231320   6.591   5.147   6.832
10141SOL     OW31321   1.522   0.922   3.822
10141SOL    HW131322   1.467   0.838   3.826
10141SOL    HW231323   1.489   0.986   3.892
10142SOL     OW31324   4.150   5.686   4.890
10142SOL    HW131325   4.174   5.618   4.959
10142SOL    HW231326   4.199   5.666   4.805
10143SOL     OW31327   4.759   0.154   1.378
10143SOL    HW131328   4.722   0.083   1.318
10143SOL    HW231329   4.735   0.244   1.341
10144SOL     OW31330   3.231   5.946   4.460
10144SOL    HW131331   3.209   6.014   4.390
10144SOL    HW231332   3.329   5.925   4.456
10145SOL     OW31333   2.977   5.960   5.699
10145SOL    HW131334   2.957   6.029   5.768
10145SOL    HW231335   3.030   6.001   5.624
10146SOL     OW31336   4.236   5.439   4.173
10146SOL    HW131337   4.315   5.467   4.119
10146SOL    HW231338   4.237   5.486   4.261
10147SOL     OW31339   4.614   4.358   4.563
10147SOL    HW131340   4.701   4.348   4.515
10147SOL    HW231341   4.623   4.325   4.657
10148SOL     OW31342   5.566   5.706   0.637
10148SOL    HW131343   5.562   5.794   0.684
10148SOL    HW231344   5.596   5.720   0.542
10149SOL     OW31345   4.120   2.418   1.183
10149SOL    HW131346   4.215   2.442   1.163
10149SOL    HW231347   4.117   2.340   1.245
10150SOL     OW31348   4.929   4.414   0.551
10150SOL    HW131349   4.877   4.328   0.547
10150SOL    HW231350   4.982   4.425   0.467
10151SOL     OW31351   1.556   6.830   6.076
10151SOL    HW131352   1.533   6.784   5.990
10151SOL    HW231353   1.557   6.929   6.061
10152SOL     OW31354   0.279   5.353   3.549
10152SOL    HW131355   0.250   5.447   3.568
10152SOL    HW231356   0.291   5.304   3.636
10153SOL     OW31357   5.228   6.160   3.893
10153SOL    HW131358   5.135   6.178   3.924
10153SOL    HW231359   5.241   6.197   3.801
10154SOL     OW31360   6.413   5.557   5.971
10154SOL    HW131361   6.463   5.620   5.911
10154SOL    HW231362   6.385   5.476   5.919
10155SOL     OW31363   3.833   0.944   5.973
10155SOL    HW131364   3.795   0.998   6.048
10155SOL    HW231365   3.799   0.850   5.978
10156SOL     OW31366   5.458   0.500   2.253
10156SOL    HW131367   5.501   0.471   2.338
10156SOL    HW231368   5.362   0.470   2.252
10157SOL     OW31369   5.916   1.348   6.485
10157SOL    HW131370   5.951   1.270   6.537
10157SOL    HW231371   5.929   1.331   6.387
10158SOL     OW31372   4.524   3.534   6.885
10158SOL    HW131373   4.441   3.582   6.857
10158SOL    HW231374   4.584   3.597   6.934
10159SOL     OW31375   1.981   1.978   6.228
10159SOL    HW131376   1.934   1.934   6.151
10159SOL    HW231377   1.974   1.919   6.309
10160SOL     OW31378   0.723   5.449   3.628
10160SOL    HW131379   0.753   5.392   3.704
10160SOL    HW231380   0.638   5.496   3.653
10161SOL     OW31381   3.606   5.643   6.347
10161SOL    HW131382   3.683   5.611   6.293
10161SOL    HW231383   3.574   5.569   6.407
10162SOL     OW31384   2.921   2.386   6.259
10162SOL    HW131385   2.844   2.343   6.213
10162SOL    HW231386   3.002   2.329   6.248
10163SOL     OW31387   6.638   3.646   5.932
10163SOL    HW131388   6.690   3.573   5.976
10163SOL    HW231389   6.544   3.616   5.916
10164SOL     OW31390   6.348   2.999   5.364
10164SOL    HW131391   6.410   3.031   5.292
10164SOL    HW231392   6.377   3.037   5.452
10165SOL     OW31393   0.882   2.016   4.330
10165SOL    HW131394   0.849   2.048   4.241
10165SOL    HW231395   0.874   2.090   4.397
10166SOL     OW31396   2.278   1.427   2.095
10166SOL    HW131397   2.285   1.495   2.022
10166SOL    HW231398   2.359   1.368   2.093
10167SOL     OW31399   5.041   0.400   6.594
10167SOL    HW131400   5.002   0.321   6.547
10167SOL    HW231401   5.003   0.406   6.687
10168SOL     OW31402   6.846   3.988   4.031
10168SOL    HW131403   6.906   4.008   4.108
10168SOL    HW231404   6.879   4.037   3.950
10169SOL     OW31405   6.761   4.170   3.460
10169SOL    HW131406   6.674   4.127   3.484
10169SOL    HW231407   6.776   4.161   3.361
10170SOL     OW31408   1.680   4.148   5.202
10170SOL    HW131409   1.616   4.213   5.162
10170SOL    HW231410   1.724   4.096   5.128
10171SOL     OW31411   6.820   4.041   5.462
10171SOL    HW131412   6.890   4.002   5.402
10171SOL    HW231413   6.859   4.057   5.552
10172SOL     OW31414   4.551   0.451   2.799
10172SOL    HW131415   4.611   0.419   2.873
10172SOL    HW231416   4.468   0.395   2.797
10173SOL     OW31417   1.791   1.979   1.652
10173SOL    HW131418   1.703   2.026   1.648
10173SOL    HW231419   1.861   2.043   1.684
10174SOL     OW31420   6.134   4.750   2.385
10174SOL    HW131421   6.096   4.808   2.457
10174SOL    HW231422   6.119   4.654   2.408
10175SOL     OW31423   6.555   2.150   5.784
10175SOL    HW131424   6.462   2.167   5.753
10175SOL    HW231425   6.566   2.184   5.878
10176SOL     OW31426   1.918   3.762   6.774
10176SOL    HW131427   1.831   3.806   6.794
10176SOL    HW231428   1.993   3.820   6.805
10177SOL     OW31429   2.972   6.561   0.242
10177SOL    HW131430   3.000   6.543   0.336
10177SOL    HW231431   2.911   6.641   0.241
10178SOL     OW31432   5.883   2.729   4.728
10178SOL    HW131433   5.941   2.651   4.706
10178SOL    HW231434   5.807   2.733   4.664
10179SOL     OW31435   1.190   2.667   6.296
10179SOL    HW131436   1.188   2.766   6.312
10179SOL    HW231437   1.218   2.621   6.381
10180SOL     OW31438   3.039   5.727   5.820
10180SOL    HW131439   3.018   5.658   5.751
10180SOL    HW231440   3.015   5.817   5.786
10181SOL     OW31441   5.916   3.049   1.223
10181SOL    HW131442   6.010   3.053   1.257
10181SOL    HW231443   5.896   2.956   1.192
10182SOL     OW31444   5.685   0.908   1.379
10182SOL    HW131445   5.752   0.915   1.305
10182SOL    HW231446   5.681   0.995   1.428
10183SOL     OW31447   1.535   1.672   6.600
10183SOL    HW131448   1.473   1.616   6.655
10183SOL    HW231449   1.629   1.641   6.614
10184SOL     OW31450   4.346   1.380   6.315
10184SOL    HW131451   4.437   1.402   6.281
10184SOL    HW231452   4.324   1.285   6.293
10185SOL     OW31453   4.885   0.053   1.095
10185SOL    HW131454   4.825   7.024   1.154
10185SOL    HW231455   4.856   0.044   1.000
10186SOL     OW31456   4.838   2.770   3.197
10186SOL    HW131457   4.908   2.698   3.191
10186SOL    HW231458   4.876   2.849   3.244
10187SOL     OW31459   0.899   2.270   1.668
10187SOL    HW131460   0.942   2.322   1.741
10187SOL    HW231461   0.930   2.175   1.671
10188SOL     OW31462   4.535   6.360   0.620
10188SOL    HW131463   4.443   6.322   0.625
10188SOL    HW231464   4.530   6.457   0.594
10189SOL     OW31465   1.855   6.318   5.065
10189SOL    HW131466   1.927   6.250   5.082
10189SOL    HW231467   1.771   6.272   5.037
10190SOL     OW31468   4.300   2.578   6.762
10190SOL    HW131469   4.387   2.610   6.801
10190SOL    HW231470   4.224   2.617   6.814
10191SOL     OW31471   5.075   4.754   6.730
10191SOL    HW131472   5.117   4.741   6.640
10191SOL    HW231473   5.144   4.739   6.801
10192SOL     OW31474   3.671   1.459   5.451
10192SOL    HW131475   3.578   1.468   5.485
10192SOL    HW231476   3.694   1.362   5.439
10193SOL     OW31477   4.554   4.360   0.599
10193SOL    HW131478   4.479   4.378   0.534
10193SOL    HW231479   4.519   4.305   0.675
10194SOL     OW31480   5.645   4.223   5.513
10194SOL    HW131481   5.596   4.246   5.430
10194SOL    HW231482   5.744   4.223   5.494
10195SOL     OW31483   6.785   4.782   1.452
10195SOL    HW131484   6.737   4.717   1.510
10195SOL    HW231485   6.879   4.751   1.437
10196SOL     OW31486   6.987   1.544   4.828
10196SOL    HW131487   6.955   1.465   4.881
10196SOL    HW231488   0.035   1.590   4.878
10197SOL     OW31489   6.558   0.725   5.498
10197SOL    HW131490   6.537   0.711   5.595
10197SOL    HW231491   6.635   0.788   5.489
10198SOL     OW31492   3.894   0.086   2.468
10198SOL    HW131493   3.977   0.030   2.474
10198SOL    HW231494   3.905   0.155   2.397
10199SOL     OW31495   1.264   2.612   5.517
10199SOL    HW131496   1.348   2.587   5.469
10199SOL    HW231497   1.284   2.685   5.582
10200SOL     OW31498   6.271   3.085   0.889
10200SOL    HW131499   6.194   3.118   0.834
10200SOL    HW231500   6.266   3.125   0.980
10201SOL     OW31501   1.398   4.076   0.990
10201SOL    HW131502   1.357   4.008   1.052
10201SOL    HW231503   1.360   4.166   1.011
10202SOL     OW31504   4.218   0.988   5.489
10202SOL    HW131505   4.237   1.049   5.566
10202SOL    HW231506   4.182   1.041   5.412
10203SOL     OW31507   6.049   2.702   5.284
10203SOL    HW131508   6.012   2.615   5.250
10203SOL    HW231509   6.147   2.705   5.265
10204SOL     OW31510   5.272   6.926   6.311
10204SOL    HW131511   5.230   6.861   6.375
10204SOL    HW231512   5.235   6.911   6.219
10205SOL     OW31513   1.049   0.471   6.701
10205SOL    HW131514   1.088   0.383   6.674
10205SOL    HW231515   0.997   0.509   6.624
10206SOL     OW31516   1.071   0.694   5.760
10206SOL    HW131517   1.083   0.595   5.759
10206SOL    HW231518   1.024   0.722   5.844
10207SOL     OW31519   1.581   1.509   5.709
10207SOL    HW131520   1.482   1.517   5.703
10207SOL    HW231521   1.605   1.444   5.781
10208SOL     OW31522   6.264   4.918   5.212
10208SOL    HW131523   6.195   4.852   5.181
10208SOL    HW231524   6.315   4.878   5.288
10209SOL     OW31525   6.665   6.892   6.438
10209SOL    HW131526   6.725   6.957   6.485
10209SOL    HW231527   6.571   6.925   6.443
10210SOL     OW31528   4.367   5.869   1.935
10210SOL    HW131529   4.299   5.912   1.876
10210SOL    HW231530   4.322   5.809   2.000
10211SOL     OW31531   4.042   6.095   5.477
10211SOL    HW131532   4.044   6.106   5.577
10211SOL    HW231533   4.106   6.023   5.451
10212SOL     OW31534   0.839   0.087   6.170
10212SOL    HW131535   0.747   0.057   6.146
10212SOL    HW231536   0.896   0.089   6.088
10213SOL     OW31537   5.537   1.651   0.378
10213SOL    HW131538   5.597   1.716   0.331
10213SOL    HW231539   5.515   1.686   0.469
10214SOL     OW31540   0.179   2.585   1.004
10214SOL    HW131541   0.103   2.640   0.968
10214SOL    HW231542   0.143   2.502   1.047
10215SOL     OW31543   3.498   3.431   2.652
10215SOL    HW131544   3.508   3.388   2.562
10215SOL    HW231545   3.495   3.361   2.722
10216SOL     OW31546   6.949   6.917   2.266
10216SOL    HW131547   6.949   6.859   2.185
10216SOL    HW231548   6.861   6.910   2.313
10217SOL     OW31549   3.210   1.248   3.642
10217SOL    HW131550   3.111   1.259   3.640
10217SOL    HW231551   3.233   1.156   3.674
10218SOL     OW31552   1.398   2.559   2.513
10218SOL    HW131553   1.358   2.648   2.492
10218SOL    HW231554   1.352   2.520   2.593
10219SOL     OW31555   0.336   1.094   2.224
10219SOL    HW131556   0.284   1.123   2.144
10219SOL    HW231557   0.434   1.093   2.201
10220SOL     OW31558   3.367   2.786   1.720
10220SOL    HW131559   3.310   2.783   1.638
10220SOL    HW231560   3.431   2.709   1.719
10221SOL     OW31561   1.360   6.049   3.149
10221SOL    HW131562   1.330   6.018   3.059
10221SOL    HW231563   1.281   6.052   3.211
10222SOL     OW31564   3.249   4.121   4.559
10222SOL    HW131565   3.342   4.122   4.595
10222SOL    HW231566   3.250   4.145   4.462
10223SOL     OW31567   1.442   5.675   1.756
10223SOL    HW131568   1.392   5.762   1.749
10223SOL    HW231569   1.537   5.692   1.781
10224SOL     OW31570   5.766   4.161   3.102
10224SOL    HW131571   5.863   4.162   3.076
10224SOL    HW231572   5.751   4.092   3.173
10225SOL     OW31573   2.265   3.560   6.092
10225SOL    HW131574   2.277   3.466   6.126
10225SOL    HW231575   2.335   3.579   6.023
10226SOL     OW31576   4.706   2.932   0.271
10226SOL    HW131577   4.761   2.999   0.322
10226SOL    HW231578   4.669   2.975   0.189
10227SOL     OW31579   5.006   3.594   0.916
10227SOL    HW131580   5.058   3.532   0.974
10227SOL    HW231581   5.067   3.666   0.883
10228SOL     OW31582   5.131   0.634   0.891
10228SOL    HW131583   5.107   0.684   0.808
10228SOL    HW231584   5.081   0.671   0.968
10229SOL     OW31585   0.046   3.768   4.179
10229SOL    HW131586   0.105   3.775   4.099
10229SOL    HW231587   0.001   3.856   4.196
10230SOL     OW31588   6.943   6.210   2.086
10230SOL    HW131589   6.986   6.300   2.086
10230SOL    HW231590   6.884   6.202   2.006
10231SOL     OW31591   1.772   5.422   3.463
10231SOL    HW131592   1.675   5.399   3.473
10231SOL    HW231593   1.803   5.473   3.543
10232SOL     OW31594   5.060   5.468   3.971
10232SOL    HW131595   5.145   5.439   3.928
10232SOL    HW231596   5.045   5.566   3.955
10233SOL     OW31597   4.098   4.386   6.228
10233SOL    HW131598   4.157   4.358   6.152
10233SOL    HW231599   4.044   4.465   6.201
10234SOL     OW31600   6.970   0.610   1.792
10234SOL    HW131601   0.022   0.656   1.747
10234SOL    HW231602   6.885   0.651   1.760
10235SOL     OW31603   1.535   1.050   3.134
10235SOL    HW131604   1.612   1.010   3.183
10235SOL    HW231605   1.523   1.145   3.163
10236SOL     OW31606   2.742   6.936   1.557
10236SOL    HW131607   2.704   6.868   1.619
10236SOL    HW231608   2.741   0.001   1.601
10237SOL     OW31609   0.538   3.503   6.122
10237SOL    HW131610   0.564   3.554   6.204
10237SOL    HW231611   0.499   3.566   6.055
10238SOL     OW31612   3.322   5.976   1.096
10238SOL    HW131613   3.365   5.944   1.181
10238SOL    HW231614   3.387   5.966   1.021
10239SOL     OW31615   1.843   2.817   4.320
10239SOL    HW131616   1.754   2.787   4.354
10239SOL    HW231617   1.839   2.826   4.220
10240SOL     OW31618   2.691   6.190   1.307
10240SOL    HW131619   2.780   6.174   1.350
10240SOL    HW231620   2.667   6.287   1.315
10241SOL     OW31621   3.830   2.304   1.649
10241SOL    HW131622   3.798   2.300   1.743
10241SOL    HW231623   3.751   2.307   1.587
10242SOL     OW31624   0.247   2.872   6.977
10242SOL    HW131625   0.249   2.772   6.978
10242SOL    HW231626   0.192   2.906   0.029
10243SOL     OW31627   2.484   5.217   0.973
10243SOL    HW131628   2.487   5.297   0.913
10243SOL    HW231629   2.389   5.194   0.993
10244SOL     OW31630   2.645   4.197   1.325
10244SOL    HW131631   2.619   4.217   1.419
10244SOL    HW231632   2.649   4.283   1.273
10245SOL     OW31633   3.947   4.117   0.648
10245SOL    HW131634   3.855   4.157   0.653
10245SOL    HW231635   3.939   4.017   0.640
10246SOL     OW31636   3.189   3.531   4.474
10246SOL    HW131637   3.167   3.504   4.381
10246SOL    HW231638   3.288   3.527   4.488
10247SOL     OW31639   0.540   2.472   5.087
10247SOL    HW131640   0.454   2.458   5.038
10247SOL    HW231641   0.613   2.495   5.022
10248SOL     OW31642   1.112   6.984   3.432
10248SOL    HW131643   1.134   0.051   3.465
10248SOL    HW231644   1.019   6.984   3.395
10249SOL     OW31645   2.965   4.970   6.461
10249SOL    HW131646   2.999   4.972   6.368
10249SOL    HW231647   3.022   4.909   6.516
10250SOL     OW31648   4.712   1.915   0.377
10250SOL    HW131649   4.735   1.953   0.287
10250SOL    HW231650   4.612   1.905   0.383
10251SOL     OW31651   2.236   7.021   4.152
10251SOL    HW131652   2.305   6.987   4.216
10251SOL    HW231653   2.161   0.039   4.203
10252SOL     OW31654   5.536   4.089   6.084
10252SOL    HW131655   5.596   4.104   6.005
10252SOL    HW231656   5.460   4.031   6.058
10253SOL     OW31657   4.278   6.522   6.351
10253SOL    HW131658   4.178   6.515   6.343
10253SOL    HW231659   4.302   6.614   6.382
10254SOL     OW31660   5.429   1.235   4.537
10254SOL    HW131661   5.524   1.256   4.514
10254SOL    HW231662   5.394   1.304   4.600
10255SOL     OW31663   3.966   5.385   1.863
10255SOL    HW131664   3.960   5.451   1.938
10255SOL    HW231665   3.909   5.414   1.787
10256SOL     OW31666   4.003   0.809   2.903
10256SOL    HW131667   3.931   0.877   2.894
10256SOL    HW231668   4.091   0.855   2.914
10257SOL     OW31669   3.422   4.895   2.854
10257SOL    HW131670   3.323   4.906   2.843
10257SOL    HW231671   3.466   4.985   2.856
10258SOL     OW31672   1.716   1.449   1.740
10258SOL    HW131673   1.689   1.478   1.649
10258SOL    HW231674   1.682   1.515   1.808
10259SOL     OW31675   1.159   4.034   3.489
10259SOL    HW131676   1.153   3.960   3.421
10259SOL    HW231677   1.127   4.000   3.577
10260SOL     OW31678   1.021   0.924   3.702
10260SOL    HW131679   1.006   0.891   3.795
10260SOL    HW231680   0.932   0.936   3.656
10261SOL     OW31681   6.715   3.484   1.141
10261SOL    HW131682   6.647   3.435   1.195
10261SOL    HW231683   6.784   3.419   1.109
10262SOL     OW31684   3.851   1.424   0.158
10262SOL    HW131685   3.868   1.396   0.064
10262SOL    HW231686   3.840   1.523   0.162
10263SOL     OW31687   5.996   0.615   1.492
10263SOL    HW131688   6.032   0.707   1.508
10263SOL    HW231689   6.023   0.584   1.401
10264SOL     OW31690   0.175   5.490   6.529
10264SOL    HW131691   0.175   5.579   6.484
10264SOL    HW231692   0.226   5.424   6.474
10265SOL     OW31693   1.836   1.843   0.619
10265SOL    HW131694   1.742   1.828   0.648
10265SOL    HW231695   1.890   1.879   0.695
10266SOL     OW31696   2.842   3.451   2.176
10266SOL    HW131697   2.877   3.387   2.246
10266SOL    HW231698   2.770   3.407   2.124
10267SOL     OW31699   5.806   0.789   0.800
10267SOL    HW131700   5.746   0.843   0.742
10267SOL    HW231701   5.772   0.695   0.807
10268SOL     OW31702   3.950   0.493   1.056
10268SOL    HW131703   3.870   0.434   1.063
10268SOL    HW231704   3.932   0.580   1.102
10269SOL     OW31705   2.673   2.237   0.175
10269SOL    HW131706   2.655   2.285   0.089
10269SOL    HW231707   2.669   2.138   0.159
10270SOL     OW31708   2.773   6.716   2.243
10270SOL    HW131709   2.681   6.677   2.251
10270SOL    HW231710   2.835   6.667   2.304
10271SOL     OW31711   1.476   2.179   0.005
10271SOL    HW131712   1.386   2.153   0.040
10271SOL    HW231713   1.465   2.219   6.939
10272SOL     OW31714   6.622   0.346   5.010
10272SOL    HW131715   6.671   0.259   5.019
10272SOL    HW231716   6.581   0.370   5.098
10273SOL     OW31717   2.376   4.979   3.540
10273SOL    HW131718   2.396   4.883   3.521
10273SOL    HW231719   2.371   5.029   3.454
10274SOL     OW31720   0.331   5.094   5.341
10274SOL    HW131721   0.288   5.116   5.254
10274SOL    HW231722   0.261   5.068   5.408
10275SOL     OW31723   0.276   0.408   2.841
10275SOL    HW131724   0.231   0.464   2.771
10275SOL    HW231725   0.243   0.314   2.835
10276SOL     OW31726   3.513   6.114   6.242
10276SOL    HW131727   3.600   6.150   6.207
10276SOL    HW231728   3.531   6.049   6.316
10277SOL     OW31729   0.371   6.880   4.341
10277SOL    HW131730   0.417   6.810   4.286
10277SOL    HW231731   0.426   6.901   4.421
10278SOL     OW31732   6.952   0.554   5.365
10278SOL    HW131733   7.012   0.510   5.433
10278SOL    HW231734   6.917   0.484   5.302
10279SOL     OW31735   1.809   5.651   4.396
10279SOL    HW131736   1.774   5.559   4.383
10279SOL    HW231737   1.792   5.681   4.490
10280SOL     OW31738   5.699   4.015   0.444
10280SOL    HW131739   5.686   4.067   0.528
10280SOL    HW231740   5.663   3.923   0.455
10281SOL     OW31741   6.825   1.981   4.026
10281SOL    HW131742   6.885   1.990   3.946
10281SOL    HW231743   6.881   1.981   4.109
10282SOL     OW31744   5.324   3.592   3.194
10282SOL    HW131745   5.294   3.673   3.243
10282SOL    HW231746   5.376   3.532   3.255
10283SOL     OW31747   0.497   3.399   0.894
10283SOL    HW131748   0.516   3.333   0.966
10283SOL    HW231749   0.583   3.432   0.855
10284SOL     OW31750   0.462   3.090   3.775
10284SOL    HW131751   0.516   3.051   3.700
10284SOL    HW231752   0.365   3.085   3.752
10285SOL     OW31753   5.366   6.222   4.820
10285SOL    HW131754   5.331   6.248   4.910
10285SOL    HW231755   5.303   6.158   4.777
10286SOL     OW31756   2.698   1.439   4.276
10286SOL    HW131757   2.611   1.443   4.326
10286SOL    HW231758   2.774   1.433   4.341
10287SOL     OW31759   2.593   5.741   2.808
10287SOL    HW131760   2.687   5.710   2.823
10287SOL    HW231761   2.538   5.665   2.773
10288SOL     OW31762   3.662   6.997   5.660
10288SOL    HW131763   3.665   0.072   5.657
10288SOL    HW231764   3.568   6.966   5.642
10289SOL     OW31765   3.154   6.134   6.438
10289SOL    HW131766   3.199   6.094   6.518
10289SOL    HW231767   3.224   6.157   6.370
10290SOL     OW31768   3.058   3.059   2.340
10290SOL    HW131769   2.965   3.023   2.339
10290SOL    HW231770   3.055   3.159   2.335
10291SOL     OW31771   2.149   1.354   2.478
10291SOL    HW131772   2.207   1.344   2.397
10291SOL    HW231773   2.069   1.410   2.456
10292SOL     OW31774   6.148   6.530   6.836
10292SOL    HW131775   6.206   6.597   6.788
10292SOL    HW231776   6.135   6.450   6.777
10293SOL     OW31777   0.985   4.239   4.054
10293SOL    HW131778   0.983   4.324   4.001
10293SOL    HW231779   0.967   4.259   4.150
10294SOL     OW31780   3.492   1.672   1.962
10294SOL    HW131781   3.437   1.589   1.967
10294SOL    HW231782   3.526   1.683   1.868
10295SOL     OW31783   0.822   2.263   0.132
10295SOL    HW131784   0.752   2.290   0.198
10295SOL    HW231785   0.890   2.206   0.177
10296SOL     OW31786   5.624   1.323   6.219
10296SOL    HW131787   5.602   1.418   6.197
10296SOL    HW231788   5.720   1.318   6.248
10297SOL     OW31789   3.066   1.539   6.893
10297SOL    HW131790   2.989   1.576   6.842
10297SOL    HW231791   3.052   1.556   6.991
10298SOL     OW31792   0.706   2.523   2.656
10298SOL    HW131793   0.620   2.473   2.659
10298SOL    HW231794   0.714   2.571   2.568
10299SOL     OW31795   4.020   6.123   3.001
10299SOL    HW131796   4.060   6.052   2.943
10299SOL    HW231797   4.087   6.150   3.071
10300SOL     OW31798   0.516   3.619   1.657
10300SOL    HW131799   0.597   3.594   1.605
10300SOL    HW231800   0.437   3.627   1.596
10301SOL     OW31801   3.753   0.873   6.345
10301SOL    HW131802   3.849   0.843   6.350
10301SOL    HW231803   3.697   0.815   6.403
10302SOL     OW31804   2.842   5.902   4.617
10302SOL    HW131805   2.809   5.919   4.524
10302SOL    HW231806   2.897   5.979   4.648
10303SOL     OW31807   0.920   6.172   4.822
10303SOL    HW131808   0.890   6.262   4.852
10303SOL    HW231809   0.887   6.102   4.885
10304SOL     OW31810   6.323   6.759   0.293
10304SOL    HW131811   6.419   6.778   0.315
10304SOL    HW231812   6.301   6.665   0.316
10305SOL     OW31813   2.434   4.116   5.852
10305SOL    HW131814   2.521   4.076   5.879
10305SOL    HW231815   2.393   4.061   5.780
10306SOL     OW31816   4.968   0.018   1.445
10306SOL    HW131817   4.979   6.954   1.400
10306SOL    HW231818   4.902   0.073   1.394
10307SOL     OW31819   2.430   6.993   4.882
10307SOL    HW131820   2.424   6.940   4.798
10307SOL    HW231821   2.517   6.974   4.927
10308SOL     OW31822   2.667   4.637   2.748
10308SOL    HW131823   2.720   4.654   2.664
10308SOL    HW231824   2.578   4.599   2.723
10309SOL     OW31825   6.524   1.221   4.966
10309SOL    HW131826   6.503   1.131   4.928
10309SOL    HW231827   6.562   1.211   5.057
10310SOL     OW31828   2.716   3.171   5.832
10310SOL    HW131829   2.749   3.263   5.851
10310SOL    HW231830   2.700   3.123   5.919
10311SOL     OW31831   5.358   6.296   0.167
10311SOL    HW131832   5.394   6.294   0.261
10311SOL    HW231833   5.388   6.381   0.122
10312SOL     OW31834   4.678   0.246   2.254
10312SOL    HW131835   4.602   0.309   2.267
10312SOL    HW231836   4.674   0.173   2.322
10313SOL     OW31837   4.931   6.408   2.920
10313SOL    HW131838   4.966   6.452   2.837
10313SOL    HW231839   4.917   6.476   2.991
10314SOL     OW31840   0.686   6.984   1.137
10314SOL    HW131841   0.670   0.035   1.200
10314SOL    HW231842   0.647   6.900   1.174
10315SOL     OW31843   5.461   6.722   3.896
10315SOL    HW131844   5.416   6.653   3.953
10315SOL    HW231845   5.451   6.812   3.939
10316SOL     OW31846   0.673   2.529   0.013
10316SOL    HW131847   0.660   2.449   0.072
10316SOL    HW231848   0.759   2.574   0.036
10317SOL     OW31849   3.556   6.096   5.733
10317SOL    HW131850   3.538   6.011   5.782
10317SOL    HW231851   3.654   6.108   5.721
10318SOL     OW31852   6.094   6.627   0.066
10318SOL    HW131853   6.077   6.562   7.017
10318SOL    HW231854   6.191   6.651   0.068
10319SOL     OW31855   0.301   4.503   4.479
10319SOL    HW131856   0.387   4.549   4.456
10319SOL    HW231857   0.259   4.549   4.558
10320SOL     OW31858   0.647   0.041   4.087
10320SOL    HW131859   0.575   0.074   4.147
10320SOL    HW231860   0.733   0.035   4.137
10321SOL     OW31861   5.494   2.524   2.169
10321SOL    HW131862   5.590   2.515   2.193
10321SOL    HW231863   5.444   2.442   2.200
10322SOL     OW31864   4.630   4.507   4.955
10322SOL    HW131865   4.694   4.479   5.027
10322SOL    HW231866   4.537   4.508   4.991
10323SOL     OW31867   0.417   4.303   5.111
10323SOL    HW131868   0.473   4.271   5.034
10323SOL    HW231869   0.448   4.258   5.195
10324SOL     OW31870   3.367   3.301   2.377
10324SOL    HW131871   3.431   3.229   2.351
10324SOL    HW231872   3.359   3.368   2.302
10325SOL     OW31873   0.539   6.282   3.106
10325SOL    HW131874   0.493   6.252   3.190
10325SOL    HW231875   0.557   6.203   3.048
10326SOL     OW31876   5.314   3.380   6.481
10326SOL    HW131877   5.350   3.431   6.402
10326SOL    HW231878   5.390   3.348   6.537
10327SOL     OW31879   2.587   3.864   0.973
10327SOL    HW131880   2.539   3.936   0.923
10327SOL    HW231881   2.632   3.904   1.053
10328SOL     OW31882   6.579   2.936   1.612
10328SOL    HW131883   6.609   2.995   1.688
10328SOL    HW231884   6.494   2.890   1.638
10329SOL     OW31885   3.516   1.610   2.725
10329SOL    HW131886   3.503   1.702   2.689
10329SOL    HW231887   3.555   1.615   2.817
10330SOL     OW31888   4.585   0.665   1.584
10330SOL    HW131889   4.523   0.596   1.621
10330SOL    HW231890   4.620   0.722   1.658
10331SOL     OW31891   6.442   5.656   0.352
10331SOL    HW131892   6.517   5.616   0.300
10331SOL    HW231893   6.357   5.649   0.300
10332SOL     OW31894   0.819   0.771   0.196
10332SOL    HW131895   0.911   0.772   0.235
10332SOL    HW231896   0.826   0.756   0.097
10333SOL     OW31897   0.813   5.728   4.632
10333SOL    HW131898   0.860   5.642   4.652
10333SOL    HW231899   0.804   5.781   4.716
10334SOL     OW31900   3.056   0.285   4.161
10334SOL    HW131901   3.020   0.193   4.178
10334SOL    HW231902   3.045   0.308   4.064
10335SOL     OW31903   0.561   2.992   5.797
10335SOL    HW131904   0.476   3.044   5.805
10335SOL    HW231905   0.625   3.021   5.868
10336SOL     OW31906   5.477   0.498   2.737
10336SOL    HW131907   5.501   0.570   2.803
10336SOL    HW231908   5.550   0.429   2.736
10337SOL     OW31909   6.319   5.233   0.030
10337SOL    HW131910   6.306   5.311   6.995
10337SOL    HW231911   6.400   5.182   0.001
10338SOL     OW31912   1.953   6.510   1.994
10338SOL    HW131913   1.922   6.415   1.990
10338SOL    HW231914   2.025   6.520   2.062
10339SOL     OW31915   6.544   2.293   6.057
10339SOL    HW131916   6.623   2.313   5.998
10339SOL    HW231917   6.518   2.376   6.106
10340SOL     OW31918   2.314   3.987   6.366
10340SOL    HW131919   2.345   4.074   6.327
10340SOL    HW231920   2.226   4.000   6.412
10341SOL     OW31921   2.546   2.497   2.715
10341SOL    HW131922   2.545   2.565   2.642
10341SOL    HW231923   2.464   2.439   2.707
10342SOL     OW31924   1.088   0.492   3.449
10342SOL    HW131925   1.164   0.557   3.449
10342SOL    HW231926   1.011   0.531   3.399
10343SOL     OW31927   2.128   5.611   0.815
10343SOL    HW131928   2.174   5.694   0.846
10343SOL    HW231929   2.196   5.547   0.778
10344SOL     OW31930   3.805   4.728   6.356
10344SOL    HW131931   3.734   4.688   6.414
10344SOL    HW231932   3.886   4.747   6.412
10345SOL     OW31933   1.310   3.255   4.991
10345SOL    HW131934   1.241   3.188   4.964
10345SOL    HW231935   1.351   3.228   5.078
10346SOL     OW31936   0.553   5.797   1.581
10346SOL    HW131937   0.648   5.816   1.556
10346SOL    HW231938   0.548   5.716   1.638
10347SOL     OW31939   4.674   1.493   3.481
10347SOL    HW131940   4.744   1.527   3.418
10347SOL    HW231941   4.607   1.565   3.499
10348SOL     OW31942   6.222   4.049   0.700
10348SOL    HW131943   6.199   4.146   0.692
10348SOL    HW231944   6.319   4.036   0.680
10349SOL     OW31945   6.841   6.381   6.453
10349SOL    HW131946   6.873   6.400   6.546
10349SOL    HW231947   6.751   6.338   6.458
10350SOL     OW31948   3.019   0.060   5.657
10350SOL    HW131949   2.950   0.081   5.726
10350SOL    HW231950   3.055   6.993   5.672
10351SOL     OW31951   4.312   5.321   5.396
10351SOL    HW131952   4.288   5.224   5.387
10351SOL    HW231953   4.388   5.331   5.460
10352SOL     OW31954   3.885   2.596   6.001
10352SOL    HW131955   3.794   2.635   5.988
10352SOL    HW231956   3.876   2.503   6.037
10353SOL     OW31957   6.790   2.622   5.090
10353SOL    HW131958   6.720   2.692   5.075
10353SOL    HW231959   6.829   2.594   5.003
10354SOL     OW31960   5.385   1.593   2.330
10354SOL    HW131961   5.425   1.672   2.282
10354SOL    HW231962   5.285   1.598   2.324
10355SOL     OW31963   2.322   5.726   2.030
10355SOL    HW131964   2.359   5.778   1.954
10355SOL    HW231965   2.224   5.708   2.015
10356SOL     OW31966   0.383   3.700   5.257
10356SOL    HW131967   0.358   3.747   5.172
10356SOL    HW231968   0.305   3.702   5.320
10357SOL     OW31969   2.453   1.748   0.152
10357SOL    HW131970   2.483   1.717   0.242
10357SOL    HW231971   2.533   1.764   0.094
10358SOL     OW31972   0.139   1.763   1.950
10358SOL    HW131973   0.209   1.834   1.944
10358SOL    HW231974   0.171   1.680   1.905
10359SOL     OW31975   0.367   0.926   1.440
10359SOL    HW131976   0.360   0.987   1.519
10359SOL    HW231977   0.277   0.914   1.399
10360SOL     OW31978   5.815   6.536   3.562
10360SOL    HW131979   5.771   6.589   3.634
10360SOL    HW231980   5.763   6.546   3.477
10361SOL     OW31981   2.816   5.108   1.775
10361SOL    HW131982   2.858   5.182   1.826
10361SOL    HW231983   2.728   5.138   1.738
10362SOL     OW31984   1.993   4.340   4.898
10362SOL    HW131985   2.080   4.303   4.929
10362SOL    HW231986   1.997   4.356   4.799
10363SOL     OW31987   5.226   0.958   3.894
10363SOL    HW131988   5.185   1.013   3.967
10363SOL    HW231989   5.267   1.018   3.826
10364SOL     OW31990   1.888   4.252   1.438
10364SOL    HW131991   1.956   4.195   1.483
10364SOL    HW231992   1.797   4.228   1.471
10365SOL     OW31993   4.991   5.398   0.067
10365SOL    HW131994   4.956   5.492   0.064
10365SOL    HW231995   4.950   5.345   7.018
10366SOL     OW31996   3.052   6.286   3.438
10366SOL    HW131997   3.151   6.270   3.437
10366SOL    HW231998   3.024   6.327   3.351
10367SOL     OW31999   6.884   2.146   3.642
10367SOL    HW132000   6.796   2.193   3.628
10367SOL    HW232001   6.943   2.161   3.564
10368SOL     OW32002   2.289   0.663   1.771
10368SOL    HW132003   2.387   0.665   1.791
10368SOL    HW232004   2.250   0.754   1.785
10369SOL     OW32005   3.988   2.567   6.937
10369SOL    HW132006   3.953   2.660   6.926
10369SOL    HW232007   4.034   2.558   0.000
10370SOL     OW32008   3.210   0.708   5.549
10370SOL    HW132009   3.218   0.609   5.543
10370SOL    HW232010   3.160   0.742   5.469
10371SOL     OW32011   5.187   6.556   5.553
10371SOL    HW132012   5.172   6.492   5.629
10371SOL    HW232013   5.264   6.616   5.575
10372SOL     OW32014   1.501   0.715   3.240
10372SOL    HW132015   1.542   0.803   3.216
10372SOL    HW232016   1.572   0.645   3.246
10373SOL     OW32017   0.660   5.898   4.822
10373SOL    HW132018   0.665   5.937   4.914
10373SOL    HW232019   0.571   5.919   4.781
10374SOL     OW32020   2.980   2.212   2.982
10374SOL    HW132021   2.913   2.283   3.004
10374SOL    HW232022   2.964   2.133   3.042
10375SOL     OW32023   6.050   2.086   0.729
10375SOL    HW132024   5.951   2.073   0.721
10375SOL    HW232025   6.070   2.179   0.759
10376SOL     OW32026   0.432   1.197   3.910
10376SOL    HW132027   0.453   1.119   3.851
10376SOL    HW232028   0.340   1.231   3.890
10377SOL     OW32029   1.051   6.905   4.575
10377SOL    HW132030   1.104   6.863   4.502
10377SOL    HW232031   0.954   6.887   4.561
10378SOL     OW32032   0.060   6.956   6.607
10378SOL    HW132033   0.043   7.009   6.524
10378SOL    HW232034   7.007   6.964   6.668
10379SOL     OW32035   5.329   1.615   4.292
10379SOL    HW132036   5.358   1.706   4.321
10379SOL    HW232037   5.242   1.622   4.243
10380SOL     OW32038   5.058   0.284   2.144
10380SOL    HW132039   5.107   0.357   2.192
10380SOL    HW232040   5.110   0.257   2.062
10381SOL     OW32041   4.649   4.956   5.377
10381SOL    HW132042   4.561   4.934   5.419
10381SOL    HW232043   4.708   5.000   5.445
10382SOL     OW32044   2.387   5.303   0.333
10382SOL    HW132045   2.459   5.373   0.344
10382SOL    HW232046   2.404   5.229   0.397
10383SOL     OW32047   0.302   2.012   0.311
10383SOL    HW132048   0.300   2.045   0.217
10383SOL    HW232049   0.323   2.088   0.372
10384SOL     OW32050   6.094   0.123   0.498
10384SOL    HW132051   6.173   0.135   0.559
10384SOL    HW232052   6.037   0.048   0.532
10385SOL     OW32053   5.814   1.763   6.919
10385SOL    HW132054   5.814   1.668   6.888
10385SOL    HW232055   5.732   1.809   6.885
10386SOL     OW32056   5.873   3.025   6.299
10386SOL    HW132057   5.781   3.064   6.298
10386SOL    HW232058   5.935   3.087   6.250
10387SOL     OW32059   2.197   2.980   3.082
10387SOL    HW132060   2.294   2.980   3.058
10387SOL    HW232061   2.159   2.888   3.068
10388SOL     OW32062   1.764   4.528   3.006
10388SOL    HW132063   1.731   4.439   3.037
10388SOL    HW232064   1.841   4.516   2.944
10389SOL     OW32065   0.874   5.440   3.160
10389SOL    HW132066   0.839   5.347   3.169
10389SOL    HW232067   0.849   5.493   3.241
10390SOL     OW32068   1.616   3.499   3.514
10390SOL    HW132069   1.613   3.479   3.612
10390SOL    HW232070   1.594   3.596   3.500
10391SOL     OW32071   2.838   6.820   6.127
10391SOL    HW132072   2.903   6.839   6.201
10391SOL    HW232073   2.747   6.804   6.166
10392SOL     OW32074   6.417   5.105   6.788
10392SOL    HW132075   6.351   5.177   6.766
10392SOL    HW232076   6.398   5.024   6.733
10393SOL     OW32077   1.259   1.327   3.769
10393SOL    HW132078   1.214   1.414   3.788
10393SOL    HW232079   1.191   1.253   3.772
10394SOL     OW32080   1.988   6.380   6.866
10394SOL    HW132081   2.029   6.463   6.902
10394SOL    HW232082   1.955   6.323   6.941
10395SOL     OW32083   0.533   1.438   4.726
10395SOL    HW132084   0.526   1.440   4.627
10395SOL    HW232085   0.442   1.427   4.766
10396SOL     OW32086   0.349   0.063   5.157
10396SOL    HW132087   0.264   0.078   5.107
10396SOL    HW232088   0.333   7.024   5.232
10397SOL     OW32089   3.996   1.582   2.692
10397SOL    HW132090   4.033   1.644   2.760
10397SOL    HW232091   3.922   1.528   2.732
10398SOL     OW32092   6.722   2.779   2.480
10398SOL    HW132093   6.793   2.750   2.543
10398SOL    HW232094   6.698   2.704   2.419
10399SOL     OW32095   5.790   1.715   5.602
10399SOL    HW132096   5.794   1.798   5.657
10399SOL    HW232097   5.697   1.703   5.568
10400SOL     OW32098   2.246   4.431   1.414
10400SOL    HW132099   2.318   4.500   1.413
10400SOL    HW232100   2.259   4.369   1.336
10401SOL     OW32101   0.604   6.293   1.243
10401SOL    HW132102   0.663   6.216   1.269
10401SOL    HW232103   0.511   6.259   1.225
10402SOL     OW32104   0.403   3.220   4.142
10402SOL    HW132105   0.420   3.130   4.184
10402SOL    HW232106   0.484   3.248   4.091
10403SOL     OW32107   5.036   1.432   2.135
10403SOL    HW132108   4.990   1.353   2.177
10403SOL    HW232109   4.986   1.515   2.159
10404SOL     OW32110   0.551   6.304   3.655
10404SOL    HW132111   0.582   6.337   3.744
10404SOL    HW232112   0.455   6.331   3.642
10405SOL     OW32113   1.746   6.690   6.204
10405SOL    HW132114   1.656   6.722   6.176
10405SOL    HW232115   1.817   6.735   6.149
10406SOL     OW32116   2.557   5.147   6.146
10406SOL    HW132117   2.565   5.245   6.162
10406SOL    HW232118   2.646   5.110   6.120
10407SOL     OW32119   0.896   1.222   6.927
10407SOL    HW132120   0.798   1.222   6.948
10407SOL    HW232121   0.947   1.188   7.005
10408SOL     OW32122   4.260   5.076   3.414
10408SOL    HW132123   4.288   5.151   3.354
10408SOL    HW232124   4.339   5.042   3.464
10409SOL     OW32125   6.203   4.926   2.194
10409SOL    HW132126   6.252   5.012   2.212
10409SOL    HW232127   6.180   4.882   2.281
10410SOL     OW32128   6.281   6.634   1.034
10410SOL    HW132129   6.245   6.701   1.099
10410SOL    HW232130   6.365   6.594   1.071
10411SOL     OW32131   2.078   4.402   2.626
10411SOL    HW132132   2.057   4.319   2.576
10411SOL    HW232133   2.165   4.441   2.594
10412SOL     OW32134   0.709   2.000   0.068
10412SOL    HW132135   0.713   2.088   0.114
10412SOL    HW232136   0.635   2.001   0.000
10413SOL     OW32137   0.355   1.858   6.672
10413SOL    HW132138   0.405   1.936   6.634
10413SOL    HW232139   0.257   1.879   6.672
10414SOL     OW32140   5.673   0.093   5.309
10414SOL    HW132141   5.593   0.108   5.251
10414SOL    HW232142   5.651   0.024   5.378
10415SOL     OW32143   0.790   5.838   3.474
10415SOL    HW132144   0.843   5.817   3.556
10415SOL    HW232145   0.809   5.932   3.445
10416SOL     OW32146   5.194   0.653   6.633
10416SOL    HW132147   5.123   0.714   6.668
10416SOL    HW232148   5.161   0.559   6.634
10417SOL     OW32149   3.749   4.915   4.378
10417SOL    HW132150   3.815   4.865   4.322
10417SOL    HW232151   3.664   4.927   4.327
10418SOL     OW32152   6.452   3.669   6.593
10418SOL    HW132153   6.424   3.765   6.596
10418SOL    HW232154   6.427   3.630   6.504
10419SOL     OW32155   2.506   1.512   4.479
10419SOL    HW132156   2.414   1.542   4.505
10419SOL    HW232157   2.574   1.569   4.524
10420SOL     OW32158   5.447   3.330   3.303
10420SOL    HW132159   5.472   3.337   3.400
10420SOL    HW232160   5.434   3.234   3.278
10421SOL     OW32161   0.908   5.033   3.990
10421SOL    HW132162   0.896   5.025   3.891
10421SOL    HW232163   0.928   5.129   4.013
10422SOL     OW32164   6.622   3.905   5.315
10422SOL    HW132165   6.698   3.945   5.365
10422SOL    HW232166   6.638   3.915   5.217
10423SOL     OW32167   2.292   5.139   4.145
10423SOL    HW132168   2.320   5.044   4.155
10423SOL    HW232169   2.213   5.144   4.084
10424SOL     OW32170   3.335   1.072   0.498
10424SOL    HW132171   3.339   0.980   0.460
10424SOL    HW232172   3.257   1.120   0.459
10425SOL     OW32173   1.708   2.758   0.975
10425SOL    HW132174   1.792   2.709   0.994
10425SOL    HW232175   1.728   2.841   0.923
10426SOL     OW32176   6.404   1.895   6.181
10426SOL    HW132177   6.346   1.830   6.131
10426SOL    HW232178   6.388   1.987   6.144
10427SOL     OW32179   5.260   1.188   4.342
10427SOL    HW132180   5.182   1.244   4.315
10427SOL    HW232181   5.312   1.235   4.414
10428SOL     OW32182   2.249   0.400   4.401
10428SOL    HW132183   2.301   0.356   4.327
10428SOL    HW232184   2.281   0.365   4.489
10429SOL     OW32185   1.174   3.115   1.280
10429SOL    HW132186   1.164   3.037   1.218
10429SOL    HW232187   1.172   3.200   1.227
10430SOL     OW32188   2.883   0.040   3.921
10430SOL    HW132189   2.932   7.011   3.852
10430SOL    HW232190   2.905   0.137   3.908
10431SOL     OW32191   3.898   0.622   3.110
10431SOL    HW132192   3.942   0.677   3.039
10431SOL    HW232193   3.825   0.567   3.070
10432SOL     OW32194   0.807   5.709   6.195
10432SOL    HW132195   0.724   5.653   6.204
10432SOL    HW232196   0.793   5.777   6.124
10433SOL     OW32197   3.110   6.831   3.025
10433SOL    HW132198   3.107   6.840   3.125
10433SOL    HW232199   3.050   6.900   2.984
10434SOL     OW32200   5.072   1.061   5.895
10434SOL    HW132201   5.127   1.080   5.814
10434SOL    HW232202   5.114   1.104   5.975
10435SOL     OW32203   2.328   1.874   0.513
10435SOL    HW132204   2.340   1.963   0.469
10435SOL    HW232205   2.261   1.820   0.461
10436SOL     OW32206   6.964   3.762   5.011
10436SOL    HW132207   0.010   3.808   4.957
10436SOL    HW232208   6.964   3.664   4.990
10437SOL     OW32209   5.859   6.563   4.779
10437SOL    HW132210   5.909   6.477   4.785
10437SOL    HW232211   5.775   6.556   4.833
10438SOL     OW32212   6.880   5.865   6.785
10438SOL    HW132213   6.785   5.844   6.810
10438SOL    HW232214   6.942   5.816   6.845
10439SOL     OW32215   6.481   5.705   4.489
10439SOL    HW132216   6.431   5.790   4.475
10439SOL    HW232217   6.435   5.631   4.439
10440SOL     OW32218   6.094   2.644   0.937
10440SOL    HW132219   6.181   2.684   0.909
10440SOL    HW232220   6.039   2.624   0.857
10441SOL     OW32221   4.542   1.651   6.905
10441SOL    HW132222   4.626   1.699   6.929
10441SOL    HW232223   4.466   1.689   6.958
10442SOL     OW32224   1.672   1.272   4.896
10442SOL    HW132225   1.710   1.287   4.987
10442SOL    HW232226   1.573   1.290   4.898
10443SOL     OW32227   0.817   1.333   1.059
10443SOL    HW132228   0.887   1.357   0.991
10443SOL    HW232229   0.786   1.239   1.043
10444SOL     OW32230   3.958   4.854   4.220
10444SOL    HW132231   4.035   4.806   4.262
10444SOL    HW232232   3.981   4.878   4.125
10445SOL     OW32233   0.975   3.433   3.766
10445SOL    HW132234   0.987   3.488   3.683
10445SOL    HW232235   0.878   3.422   3.786
10446SOL     OW32236   2.249   4.654   5.686
10446SOL    HW132237   2.307   4.697   5.755
10446SOL    HW232238   2.276   4.686   5.595
10447SOL     OW32239   0.690   2.285   2.406
10447SOL    HW132240   0.661   2.207   2.461
10447SOL    HW232241   0.789   2.297   2.414
10448SOL     OW32242   2.228   6.629   1.847
10448SOL    HW132243   2.164   6.684   1.794
10448SOL    HW232244   2.206   6.636   1.944
10449SOL     OW32245   3.659   4.978   4.892
10449SOL    HW132246   3.575   4.933   4.922
10449SOL    HW232247   3.656   4.992   4.793
10450SOL     OW32248   6.746   0.752   5.115
10450SOL    HW132249   6.746   0.742   5.016
10450SOL    HW232250   6.812   0.822   5.142
10451SOL     OW32251   3.425   1.387   3.797
10451SOL    HW132252   3.358   1.345   3.858
10451SOL    HW232253   3.382   1.405   3.708
10452SOL     OW32254   6.036   2.883   4.932
10452SOL    HW132255   5.988   2.960   4.974
10452SOL    HW232256   5.982   2.848   4.856
10453SOL     OW32257   4.410   6.130   3.997
10453SOL    HW132258   4.484   6.137   4.064
10453SOL    HW232259   4.444   6.087   3.913
10454SOL     OW32260   6.331   1.338   6.404
10454SOL    HW132261   6.406   1.382   6.454
10454SOL    HW232262   6.245   1.383   6.426
10455SOL     OW32263   0.296   5.593   3.243
10455SOL    HW132264   0.355   5.517   3.269
10455SOL    HW232265   0.205   5.558   3.220
10456SOL     OW32266   1.416   5.569   6.629
10456SOL    HW132267   1.369   5.657   6.636
10456SOL    HW232268   1.368   5.502   6.685
10457SOL     OW32269   3.773   2.193   6.716
10457SOL    HW132270   3.796   2.129   6.789
10457SOL    HW232271   3.720   2.146   6.646
10458SOL     OW32272   0.350   5.844   6.968
10458SOL    HW132273   0.317   5.787   6.892
10458SOL    HW232274   0.444   5.873   6.949
10459SOL     OW32275   6.173   5.129   1.137
10459SOL    HW132276   6.243   5.196   1.159
10459SOL    HW232277   6.085   5.176   1.122
10460SOL     OW32278   6.799   0.394   0.863
10460SOL    HW132279   6.883   0.417   0.912
10460SOL    HW232280   6.815   0.400   0.765
10461SOL     OW32281   6.914   4.655   6.531
10461SOL    HW132282   6.979   4.593   6.575
10461SOL    HW232283   6.953   4.748   6.529
10462SOL     OW32284   3.806   2.971   6.151
10462SOL    HW132285   3.872   3.017   6.092
10462SOL    HW232286   3.846   2.960   6.242
10463SOL     OW32287   5.098   1.893   6.389
10463SOL    HW132288   5.139   1.807   6.361
10463SOL    HW232289   5.050   1.934   6.311
10464SOL     OW32290   6.474   4.701   2.196
10464SOL    HW132291   6.526   4.739   2.120
10464SOL    HW232292   6.380   4.735   2.192
10465SOL     OW32293   5.040   4.359   1.321
10465SOL    HW132294   5.120   4.404   1.361
10465SOL    HW232295   5.067   4.269   1.287
10466SOL     OW32296   6.320   4.504   6.024
10466SOL    HW132297   6.269   4.565   6.084
10466SOL    HW232298   6.385   4.558   5.970
10467SOL     OW32299   0.794   3.145   0.079
10467SOL    HW132300   0.859   3.141   0.155
10467SOL    HW232301   0.740   3.229   0.085
10468SOL     OW32302   1.775   4.457   3.684
10468SOL    HW132303   1.852   4.438   3.623
10468SOL    HW232304   1.778   4.395   3.763
10469SOL     OW32305   0.107   1.501   4.144
10469SOL    HW132306   0.071   1.578   4.091
10469SOL    HW232307   0.048   1.483   4.223
10470SOL     OW32308   2.110   3.557   2.955
10470SOL    HW132309   2.129   3.557   2.857
10470SOL    HW232310   2.122   3.465   2.991
10471SOL     OW32311   2.600   6.568   6.841
10471SOL    HW132312   2.685   6.568   6.894
10471SOL    HW232313   2.612   6.514   6.758
10472SOL     OW32314   3.960   5.115   6.867
10472SOL    HW132315   3.923   5.139   6.957
10472SOL    HW232316   3.956   5.195   6.807
10473SOL     OW32317   5.716   4.703   0.907
10473SOL    HW132318   5.789   4.756   0.864
10473SOL    HW232319   5.723   4.712   1.007
10474SOL     OW32320   5.751   0.896   4.755
10474SOL    HW132321   5.777   0.905   4.851
10474SOL    HW232322   5.819   0.840   4.708
10475SOL     OW32323   1.232   5.431   1.099
10475SOL    HW132324   1.149   5.486   1.109
10475SOL    HW232325   1.310   5.482   1.135
10476SOL     OW32326   4.778   6.584   1.092
10476SOL    HW132327   4.762   6.614   0.998
10476SOL    HW232328   4.854   6.519   1.093
10477SOL     OW32329   0.221   5.614   3.617
10477SOL    HW132330   0.207   5.699   3.566
10477SOL    HW232331   0.138   5.592   3.669
10478SOL     OW32332   6.824   0.845   6.883
10478SOL    HW132333   6.860   0.805   6.967
10478SOL    HW232334   6.875   0.928   6.861
10479SOL     OW32335   0.671   3.043   1.949
10479SOL    HW132336   0.713   3.028   2.038
10479SOL    HW232337   0.734   3.092   1.890
10480SOL     OW32338   2.408   0.640   3.346
10480SOL    HW132339   2.493   0.586   3.348
10480SOL    HW232340   2.336   0.585   3.304
10481SOL     OW32341   0.094   1.205   1.782
10481SOL    HW132342   7.023   1.197   1.755
10481SOL    HW232343   0.145   1.253   1.711
10482SOL     OW32344   5.537   3.348   3.927
10482SOL    HW132345   5.442   3.329   3.902
10482SOL    HW232346   5.540   3.403   4.010
10483SOL     OW32347   6.599   6.232   0.306
10483SOL    HW132348   6.506   6.198   0.291
10483SOL    HW232349   6.600   6.292   0.386
10484SOL     OW32350   6.429   1.352   2.787
10484SOL    HW132351   6.482   1.294   2.725
10484SOL    HW232352   6.479   1.363   2.873
10485SOL     OW32353   5.049   3.634   5.442
10485SOL    HW132354   4.977   3.634   5.512
10485SOL    HW232355   5.111   3.711   5.457
10486SOL     OW32356   5.539   2.990   2.047
10486SOL    HW132357   5.527   3.006   1.949
10486SOL    HW232358   5.476   3.049   2.098
10487SOL     OW32359   5.545   6.726   1.454
10487SOL    HW132360   5.641   6.740   1.432
10487SOL    HW232361   5.490   6.799   1.415
10488SOL     OW32362   2.515   2.614   0.092
10488SOL    HW132363   2.519   2.527   0.042
10488SOL    HW232364   2.510   2.596   0.190
10489SOL     OW32365   1.289   5.617   5.569
10489SOL    HW132366   1.272   5.522   5.542
10489SOL    HW232367   1.211   5.651   5.621
10490SOL     OW32368   0.068   0.296   3.986
10490SOL    HW132369   0.028   0.294   3.894
10490SOL    HW232370   7.020   0.295   4.054
10491SOL     OW32371   0.793   4.086   5.768
10491SOL    HW132372   0.707   4.124   5.736
10491SOL    HW232373   0.857   4.160   5.788
10492SOL     OW32374   3.924   3.606   5.512
10492SOL    HW132375   3.922   3.704   5.493
10492SOL    HW232376   3.841   3.581   5.563
10493SOL     OW32377   3.500   0.991   1.040
10493SOL    HW132378   3.487   0.900   1.078
10493SOL    HW232379   3.497   0.987   0.940
10494SOL     OW32380   5.744   2.638   4.288
10494SOL    HW132381   5.837   2.604   4.300
10494SOL    HW232382   5.707   2.664   4.377
10495SOL     OW32383   1.469   0.031   0.027
10495SOL    HW132384   1.566   0.027   0.051
10495SOL    HW232385   1.449   0.119   7.009
10496SOL     OW32386   6.530   0.069   5.424
10496SOL    HW132387   6.482   0.145   5.381
10496SOL    HW232388   6.498   0.060   5.519
10497SOL     OW32389   1.329   1.121   0.749
10497SOL    HW132390   1.290   1.104   0.839
10497SOL    HW232391   1.411   1.064   0.737
10498SOL     OW32392   2.904   5.435   6.320
10498SOL    HW132393   2.905   5.415   6.222
10498SOL    HW232394   2.868   5.357   6.369
10499SOL     OW32395   3.683   5.418   3.531
10499SOL    HW132396   3.648   5.359   3.459
10499SOL    HW232397   3.712   5.362   3.609
10500SOL     OW32398   1.339   2.248   6.377
10500SOL    HW132399   1.403   2.186   6.331
10500SOL    HW232400   1.245   2.225   6.349
10501SOL     OW32401   1.539   2.787   2.974
10501SOL    HW132402   1.555   2.800   3.072
10501SOL    HW232403   1.519   2.876   2.932
10502SOL     OW32404   3.112   6.553   5.817
10502SOL    HW132405   3.113   6.490   5.739
10502SOL    HW232406   3.030   6.537   5.872
10503SOL     OW32407   2.302   3.311   5.941
10503SOL    HW132408   2.357   3.318   5.858
10503SOL    HW232409   2.206   3.326   5.918
10504SOL     OW32410   2.890   2.933   0.890
10504SOL    HW132411   2.858   2.940   0.984
10504SOL    HW232412   2.980   2.976   0.882
10505SOL     OW32413   0.238   6.574   1.226
10505SOL    HW132414   0.157   6.629   1.207
10505SOL    HW232415   0.280   6.545   1.140
10506SOL     OW32416   0.537   4.193   5.743
10506SOL    HW132417   0.476   4.221   5.670
10506SOL    HW232418   0.501   4.225   5.831
10507SOL     OW32419   0.797   0.299   5.005
10507SOL    HW132420   0.775   0.389   4.965
10507SOL    HW232421   0.754   0.227   4.950
10508SOL     OW32422   5.069   4.543   2.912
10508SOL    HW132423   5.121   4.547   2.828
10508SOL    HW232424   5.130   4.557   2.990
10509SOL     OW32425   1.555   0.232   5.784
10509SOL    HW132426   1.608   0.307   5.824
10509SOL    HW232427   1.537   0.252   5.687
10510SOL     OW32428   6.702   5.897   0.065
10510SOL    HW132429   6.663   5.907   0.156
10510SOL    HW232430   6.792   5.940   0.062
10511SOL     OW32431   5.487   2.405   0.093
10511SOL    HW132432   5.443   2.318   0.075
10511SOL    HW232433   5.555   2.424   0.022
10512SOL     OW32434   3.639   6.507   6.758
10512SOL    HW132435   3.641   6.431   6.693
10512SOL    HW232436   3.640   6.593   6.708
10513SOL     OW32437   6.394   2.366   0.040
10513SOL    HW132438   6.439   2.292   0.089
10513SOL    HW232439   6.300   2.376   0.074
10514SOL     OW32440   0.011   3.990   1.496
10514SOL    HW132441   6.993   4.075   1.524
10514SOL    HW232442   6.992   3.912   1.542
10515SOL     OW32443   6.523   2.293   4.662
10515SOL    HW132444   6.543   2.351   4.741
10515SOL    HW232445   6.512   2.351   4.581
10516SOL     OW32446   4.037   0.412   6.540
10516SOL    HW132447   4.122   0.369   6.509
10516SOL    HW232448   4.054   0.509   6.560
10517SOL     OW32449   0.593   1.571   3.387
10517SOL    HW132450   0.609   1.664   3.422
10517SOL    HW232451   0.660   1.550   3.316
10518SOL     OW32452   0.601   6.706   1.223
10518SOL    HW132453   0.665   6.643   1.178
10518SOL    HW232454   0.512   6.663   1.232
10519SOL     OW32455   3.225   3.236   5.629
10519SOL    HW132456   3.282   3.293   5.688
10519SOL    HW232457   3.234   3.140   5.656
10520SOL     OW32458   4.097   3.117   6.237
10520SOL    HW132459   4.081   3.083   6.145
10520SOL    HW232460   4.074   3.214   6.242
10521SOL     OW32461   6.561   5.565   1.552
10521SOL    HW132462   6.485   5.501   1.539
10521SOL    HW232463   6.576   5.616   1.467
10522SOL     OW32464   6.149   0.602   1.755
10522SOL    HW132465   6.087   0.544   1.702
10522SOL    HW232466   6.214   0.647   1.692
10523SOL     OW32467   0.357   5.673   6.700
10523SOL    HW132468   0.403   5.687   6.612
10523SOL    HW232469   0.259   5.663   6.685
10524SOL     OW32470   3.524   0.948   4.346
10524SOL    HW132471   3.547   0.859   4.306
10524SOL    HW232472   3.482   0.934   4.435
10525SOL     OW32473   2.984   6.121   4.676
10525SOL    HW132474   2.983   6.151   4.581
10525SOL    HW232475   3.042   6.182   4.730
10526SOL     OW32476   5.615   6.812   2.455
10526SOL    HW132477   5.552   6.770   2.520
10526SOL    HW232478   5.705   6.770   2.462
10527SOL     OW32479   1.443   2.447   4.844
10527SOL    HW132480   1.497   2.379   4.893
10527SOL    HW232481   1.360   2.468   4.896
10528SOL     OW32482   6.553   5.145   5.261
10528SOL    HW132483   6.468   5.095   5.247
10528SOL    HW232484   6.595   5.117   5.347
10529SOL     OW32485   6.267   6.140   3.653
10529SOL    HW132486   6.325   6.206   3.605
10529SOL    HW232487   6.239   6.068   3.590
10530SOL     OW32488   1.920   1.699   6.024
10530SOL    HW132489   1.948   1.729   5.933
10530SOL    HW232490   2.001   1.673   6.076
10531SOL     OW32491   1.961   2.863   5.368
10531SOL    HW132492   2.028   2.855   5.442
10531SOL    HW232493   1.948   2.773   5.325
10532SOL     OW32494   3.552   2.615   5.639
10532SOL    HW132495   3.481   2.665   5.689
10532SOL    HW232496   3.580   2.669   5.559
10533SOL     OW32497   2.585   1.296   6.261
10533SOL    HW132498   2.547   1.306   6.169
10533SOL    HW232499   2.667   1.238   6.258
10534SOL     OW32500   6.064   5.569   1.051
10534SOL    HW132501   6.072   5.620   1.136
10534SOL    HW232502   6.044   5.633   0.976
10535SOL     OW32503   7.012   1.122   2.407
10535SOL    HW132504   6.976   1.125   2.313
10535SOL    HW232505   0.069   1.179   2.413
10536SOL     OW32506   4.293   0.272   3.353
10536SOL    HW132507   4.228   0.199   3.376
10536SOL    HW232508   4.273   0.306   3.261
10537SOL     OW32509   0.932   4.718   1.244
10537SOL    HW132510   0.874   4.653   1.294
10537SOL    HW232511   0.918   4.810   1.280
10538SOL     OW32512   5.518   3.662   0.168
10538SOL    HW132513   5.455   3.629   0.098
10538SOL    HW232514   5.570   3.740   0.133
10539SOL     OW32515   0.640   2.758   5.705
10539SOL    HW132516   0.628   2.851   5.740
10539SOL    HW232517   0.570   2.739   5.637
10540SOL     OW32518   2.682   0.547   6.968
10540SOL    HW132519   2.661   0.645   6.968
10540SOL    HW232520   2.708   0.519   6.875
10541SOL     OW32521   3.788   2.540   0.539
10541SOL    HW132522   3.785   2.551   0.439
10541SOL    HW232523   3.864   2.595   0.575
10542SOL     OW32524   0.339   2.502   0.222
10542SOL    HW132525   0.381   2.559   0.292
10542SOL    HW232526   0.267   2.445   0.263
10543SOL     OW32527   1.935   1.147   5.350
10543SOL    HW132528   1.864   1.166   5.418
10543SOL    HW232529   1.978   1.233   5.322
10544SOL     OW32530   0.860   2.521   1.915
10544SOL    HW132531   0.915   2.604   1.910
10544SOL    HW232532   0.885   2.470   1.998
10545SOL     OW32533   5.702   0.251   2.492
10545SOL    HW132534   5.794   0.271   2.458
10545SOL    HW232535   5.690   0.152   2.498
10546SOL     OW32536   2.989   1.065   4.327
10546SOL    HW132537   2.902   1.112   4.309
10546SOL    HW232538   2.988   0.975   4.284
10547SOL     OW32539   4.077   1.356   1.078
10547SOL    HW132540   4.131   1.423   1.026
10547SOL    HW232541   4.129   1.329   1.160
10548SOL     OW32542   4.900   4.102   4.704
10548SOL    HW132543   4.833   4.174   4.722
10548SOL    HW232544   4.902   4.039   4.782
10549SOL     OW32545   1.186   1.174   1.905
10549SOL    HW132546   1.093   1.137   1.911
10549SOL    HW232547   1.184   1.273   1.919
10550SOL     OW32548   4.889   0.090   4.746
10550SOL    HW132549   4.851   0.168   4.695
10550SOL    HW232550   4.931   0.025   4.683
10551SOL     OW32551   1.360   2.807   5.657
10551SOL    HW132552   1.457   2.815   5.679
10551SOL    HW232553   1.309   2.879   5.705
10552SOL     OW32554   2.917   2.275   5.233
10552SOL    HW132555   2.938   2.180   5.255
10552SOL    HW232556   3.002   2.323   5.209
10553SOL     OW32557   2.972   4.506   6.862
10553SOL    HW132558   2.956   4.503   6.764
10553SOL    HW232559   2.887   4.484   6.911
10554SOL     OW32560   6.626   4.446   5.906
10554SOL    HW132561   6.650   4.371   5.844
10554SOL    HW232562   6.546   4.494   5.871
10555SOL     OW32563   3.226   2.142   1.163
10555SOL    HW132564   3.152   2.126   1.098
10555SOL    HW232565   3.190   2.138   1.256
10556SOL     OW32566   1.870   3.090   4.417
10556SOL    HW132567   1.777   3.076   4.451
10556SOL    HW232568   1.903   3.005   4.375
10557SOL     OW32569   6.110   2.654   3.842
10557SOL    HW132570   6.109   2.682   3.938
10557SOL    HW232571   6.148   2.562   3.834
10558SOL     OW32572   5.145   6.523   5.104
10558SOL    HW132573   5.056   6.477   5.102
10558SOL    HW232574   5.155   6.571   5.191
10559SOL     OW32575   4.106   2.220   0.459
10559SOL    HW132576   4.038   2.240   0.388
10559SOL    HW232577   4.108   2.294   0.526
10560SOL     OW32578   0.490   2.963   4.268
10560SOL    HW132579   0.486   2.936   4.171
10560SOL    HW232580   0.415   2.919   4.317
10561SOL     OW32581   2.701   4.031   6.763
10561SOL    HW132582   2.615   3.981   6.771
10561SOL    HW232583   2.701   4.084   6.678
10562SOL     OW32584   3.548   1.049   0.222
10562SOL    HW132585   3.620   1.057   0.153
10562SOL    HW232586   3.544   0.954   0.255
10563SOL     OW32587   1.510   1.465   4.495
10563SOL    HW132588   1.435   1.522   4.462
10563SOL    HW232589   1.541   1.499   4.584
10564SOL     OW32590   6.361   1.855   2.063
10564SOL    HW132591   6.336   1.763   2.032
10564SOL    HW232592   6.380   1.913   1.984
10565SOL     OW32593   5.790   1.858   5.015
10565SOL    HW132594   5.755   1.810   5.095
10565SOL    HW232595   5.734   1.939   4.997
10566SOL     OW32596   3.883   4.587   6.788
10566SOL    HW132597   3.844   4.509   6.739
10566SOL    HW232598   3.813   4.657   6.798
10567SOL     OW32599   1.509   4.719   4.189
10567SOL    HW132600   1.417   4.682   4.180
10567SOL    HW232601   1.514   4.775   4.272
10568SOL     OW32602   4.073   1.526   3.370
10568SOL    HW132603   4.166   1.511   3.337
10568SOL    HW232604   4.067   1.500   3.467
10569SOL     OW32605   6.224   3.256   4.015
10569SOL    HW132606   6.225   3.195   4.094
10569SOL    HW232607   6.302   3.236   3.956
10570SOL     OW32608   1.577   4.410   2.820
10570SOL    HW132609   1.644   4.419   2.746
10570SOL    HW232610   1.559   4.313   2.836
10571SOL     OW32611   5.900   6.827   3.950
10571SOL    HW132612   5.954   6.818   4.034
10571SOL    HW232613   5.876   6.736   3.916
10572SOL     OW32614   6.194   3.458   1.914
10572SOL    HW132615   6.190   3.420   2.006
10572SOL    HW232616   6.220   3.386   1.849
10573SOL     OW32617   5.888   4.880   5.900
10573SOL    HW132618   5.871   4.941   5.977
10573SOL    HW232619   5.963   4.916   5.844
10574SOL     OW32620   0.582   1.929   2.774
10574SOL    HW132621   0.527   1.978   2.842
10574SOL    HW232622   0.679   1.938   2.797
10575SOL     OW32623   0.977   6.960   5.455
10575SOL    HW132624   0.934   0.019   5.487
10575SOL    HW232625   1.025   6.979   5.369
10576SOL     OW32626   1.566   4.992   3.532
10576SOL    HW132627   1.655   4.972   3.573
10576SOL    HW232628   1.579   5.021   3.438
10577SOL     OW32629   1.285   2.358   5.235
10577SOL    HW132630   1.199   2.392   5.274
10577SOL    HW232631   1.361   2.410   5.273
10578SOL     OW32632   6.426   0.840   5.760
10578SOL    HW132633   6.469   0.923   5.725
10578SOL    HW232634   6.438   0.835   5.859
10579SOL     OW32635   4.520   1.315   0.831
10579SOL    HW132636   4.471   1.265   0.760
10579SOL    HW232637   4.611   1.340   0.798
10580SOL     OW32638   6.640   5.970   0.331
10580SOL    HW132639   6.637   6.070   0.320
10580SOL    HW232640   6.670   5.948   0.424
10581SOL     OW32641   4.858   1.056   3.766
10581SOL    HW132642   4.935   1.115   3.740
10581SOL    HW232643   4.808   1.098   3.841
10582SOL     OW32644   3.676   4.752   6.880
10582SOL    HW132645   3.694   4.798   6.967
10582SOL    HW232646   3.577   4.740   6.869
10583SOL     OW32647   4.606   1.838   0.943
10583SOL    HW132648   4.547   1.910   0.980
10583SOL    HW232649   4.595   1.755   0.997
10584SOL     OW32650   6.014   0.398   1.971
10584SOL    HW132651   6.048   0.488   1.998
10584SOL    HW232652   6.033   0.383   1.874
10585SOL     OW32653   1.498   3.807   6.571
10585SOL    HW132654   1.507   3.872   6.495
10585SOL    HW232655   1.403   3.805   6.601
10586SOL     OW32656   3.880   0.583   0.066
10586SOL    HW132657   3.937   0.664   0.081
10586SOL    HW232658   3.824   0.595   7.010
10587SOL     OW32659   6.459   3.725   1.110
10587SOL    HW132660   6.368   3.696   1.079
10587SOL    HW232661   6.483   3.676   1.193
10588SOL     OW32662   0.056   5.332   2.827
10588SOL    HW132663   0.099   5.302   2.742
10588SOL    HW232664   6.981   5.323   2.819
10589SOL     OW32665   6.043   1.720   4.104
10589SOL    HW132666   5.987   1.640   4.128
10589SOL    HW232667   6.139   1.694   4.102
10590SOL     OW32668   1.079   0.716   4.243
10590SOL    HW132669   1.105   0.684   4.334
10590SOL    HW232670   1.161   0.721   4.185
10591SOL     OW32671   1.293   2.876   0.807
10591SOL    HW132672   1.305   2.955   0.748
10591SOL    HW232673   1.207   2.830   0.785
10592SOL     OW32674   6.598   1.400   6.976
10592SOL    HW132675   6.574   1.441   0.039
10592SOL    HW232676   6.695   1.415   6.957
10593SOL     OW32677   1.853   4.894   0.873
10593SOL    HW132678   1.831   4.970   0.812
10593SOL    HW232679   1.835   4.807   0.826
10594SOL     OW32680   0.782   2.222   4.467
10594SOL    HW132681   0.861   2.282   4.470
10594SOL    HW232682   0.722   2.250   4.392
10595SOL     OW32683   3.288   6.090   6.088
10595SOL    HW132684   3.378   6.088   6.132
10595SOL    HW232685   3.292   6.151   6.009
10596SOL     OW32686   3.677   1.021   1.399
10596SOL    HW132687   3.708   0.995   1.307
10596SOL    HW232688   3.756   1.051   1.453
10597SOL     OW32689   1.395   6.941   4.510
10597SOL    HW132690   1.323   6.902   4.451
10597SOL    HW232691   1.465   6.872   4.525
10598SOL     OW32692   1.796   1.869   0.077
10598SOL    HW132693   1.773   1.919   7.019
10598SOL    HW232694   1.755   1.913   0.156
10599SOL     OW32695   4.850   1.242   6.957
10599SOL    HW132696   4.789   1.215   6.883
10599SOL    HW232697   4.937   1.193   6.948
10600SOL     OW32698   2.062   2.746   6.091
10600SOL    HW132699   2.010   2.694   6.158
10600SOL    HW232700   2.130   2.687   6.049
10601SOL     OW32701   3.314   6.707   5.951
10601SOL    HW132702   3.248   6.637   5.924
10601SOL    HW232703   3.346   6.689   6.044
10602SOL     OW32704   4.519   1.219   2.171
10602SOL    HW132705   4.556   1.224   2.078
10602SOL    HW232706   4.594   1.198   2.235
10603SOL     OW32707   1.792   5.362   4.659
10603SOL    HW132708   1.706   5.378   4.708
10603SOL    HW232709   1.805   5.264   4.645
10604SOL     OW32710   0.137   4.424   5.182
10604SOL    HW132711   0.109   4.500   5.124
10604SOL    HW232712   0.230   4.395   5.158
10605SOL     OW32713   1.997   4.935   6.691
10605SOL    HW132714   2.020   5.007   6.625
10605SOL    HW232715   1.903   4.905   6.676
10606SOL     OW32716   0.460   0.704   2.908
10606SOL    HW132717   0.546   0.656   2.894
10606SOL    HW232718   0.414   0.667   2.989
10607SOL     OW32719   5.642   5.096   0.178
10607SOL    HW132720   5.552   5.112   0.138
10607SOL    HW232721   5.638   5.110   0.277
10608SOL     OW32722   6.035   1.658   3.554
10608SOL    HW132723   6.051   1.743   3.606
10608SOL    HW232724   6.084   1.663   3.467
10609SOL     OW32725   4.024   6.479   1.865
10609SOL    HW132726   4.046   6.576   1.861
10609SOL    HW232727   4.094   6.431   1.918
10610SOL     OW32728   1.556   3.086   5.611
10610SOL    HW132729   1.496   3.136   5.673
10610SOL    HW232730   1.642   3.064   5.657
10611SOL     OW32731   4.917   2.222   6.567
10611SOL    HW132732   4.855   2.244   6.492
10611SOL    HW232733   4.928   2.123   6.575
10612SOL     OW32734   1.570   6.629   0.620
10612SOL    HW132735   1.577   6.569   0.699
10612SOL    HW232736   1.490   6.688   0.629
10613SOL     OW32737   0.647   6.609   6.092
10613SOL    HW132738   0.616   6.658   6.173
10613SOL    HW232739   0.632   6.665   6.011
10614SOL     OW32740   6.659   0.928   4.801
10614SOL    HW132741   6.621   0.946   4.711
10614SOL    HW232742   6.629   0.837   4.832
10615SOL     OW32743   6.199   5.608   5.217
10615SOL    HW132744   6.199   5.517   5.260
10615SOL    HW232745   6.289   5.650   5.230
10616SOL     OW32746   3.041   5.635   0.274
10616SOL    HW132747   3.061   5.592   0.362
10616SOL    HW232748   3.120   5.690   0.246
10617SOL     OW32749   1.322   2.181   6.683
10617SOL    HW132750   1.243   2.132   6.719
10617SOL    HW232751   1.301   2.214   6.591
10618SOL     OW32752   6.209   3.623   1.008
10618SOL    HW132753   6.214   3.640   0.909
10618SOL    HW232754   6.137   3.557   1.026
10619SOL     OW32755   1.367   3.981   4.065
10619SOL    HW132756   1.461   4.014   4.067
10619SOL    HW232757   1.321   4.004   4.151
10620SOL     OW32758   1.615   5.776   4.543
10620SOL    HW132759   1.548   5.705   4.520
10620SOL    HW232760   1.619   5.787   4.642
10621SOL     OW32761   3.087   6.272   1.181
10621SOL    HW132762   3.040   6.294   1.096
10621SOL    HW232763   3.169   6.329   1.189
10622SOL     OW32764   4.147   1.032   1.586
10622SOL    HW132765   4.174   1.118   1.544
10622SOL    HW232766   4.222   0.966   1.578
10623SOL     OW32767   6.725   1.478   3.700
10623SOL    HW132768   6.680   1.394   3.730
10623SOL    HW232769   6.810   1.491   3.751
10624SOL     OW32770   2.247   0.726   3.935
10624SOL    HW132771   2.268   0.650   3.997
10624SOL    HW232772   2.328   0.748   3.881
10625SOL     OW32773   0.095   3.288   6.973
10625SOL    HW132774   0.085   3.191   6.952
10625SOL    HW232775   0.012   3.337   6.945
10626SOL     OW32776   0.046   2.326   1.578
10626SOL    HW132777   7.020   2.404   1.542
10626SOL    HW232778   0.075   2.345   1.671
10627SOL     OW32779   6.122   5.624   4.267
10627SOL    HW132780   6.111   5.638   4.366
10627SOL    HW232781   6.053   5.677   4.218
10628SOL     OW32782   6.374   5.662   6.232
10628SOL    HW132783   6.412   5.626   6.147
10628SOL    HW232784   6.337   5.753   6.215
10629SOL     OW32785   2.807   5.543   5.906
10629SOL    HW132786   2.882   5.604   5.878
10629SOL    HW232787   2.722   5.595   5.913
10630SOL     OW32788   6.849   1.553   3.030
10630SOL    HW132789   6.884   1.462   3.052
10630SOL    HW232790   6.777   1.578   3.094
10631SOL     OW32791   0.766   6.866   4.494
10631SOL    HW132792   0.748   6.964   4.503
10631SOL    HW232793   0.779   6.843   4.398
10632SOL     OW32794   0.290   2.543   5.340
10632SOL    HW132795   0.204   2.580   5.374
10632SOL    HW232796   0.273   2.487   5.259
10633SOL     OW32797   1.329   5.146   1.114
10633SOL    HW132798   1.373   5.220   1.165
10633SOL    HW232799   1.240   5.178   1.080
10634SOL     OW32800   3.495   7.009   1.842
10634SOL    HW132801   3.425   6.938   1.837
10634SOL    HW232802   3.456   0.071   1.811
10635SOL     OW32803   2.346   1.059   1.336
10635SOL    HW132804   2.403   1.124   1.387
10635SOL    HW232805   2.389   1.041   1.247
10636SOL     OW32806   0.374   1.911   1.779
10636SOL    HW132807   0.328   1.850   1.715
10636SOL    HW232808   0.399   1.996   1.733
10637SOL     OW32809   3.671   4.557   5.339
10637SOL    HW132810   3.732   4.626   5.300
10637SOL    HW232811   3.724   4.477   5.367
10638SOL     OW32812   6.521   6.807   5.415
10638SOL    HW132813   6.608   6.810   5.464
10638SOL    HW232814   6.513   6.888   5.357
10639SOL     OW32815   2.611   1.199   4.680
10639SOL    HW132816   2.567   1.286   4.658
10639SOL    HW232817   2.621   1.191   4.779
10640SOL     OW32818   3.828   6.959   0.297
10640SOL    HW132819   3.853   6.866   0.269
10640SOL    HW232820   3.779   6.956   0.384
10641SOL     OW32821   4.493   0.923   6.722
10641SOL    HW132822   4.511   0.843   6.778
10641SOL    HW232823   4.505   0.899   6.625
10642SOL     OW32824   6.871   3.275   1.111
10642SOL    HW132825   6.957   3.244   1.152
10642SOL    HW232826   6.843   3.211   1.040
10643SOL     OW32827   3.538   3.763   5.426
10643SOL    HW132828   3.574   3.852   5.456
10643SOL    HW232829   3.553   3.752   5.328
10644SOL     OW32830   3.639   1.178   4.633
10644SOL    HW132831   3.567   1.227   4.584
10644SOL    HW232832   3.729   1.205   4.597
10645SOL     OW32833   2.670   0.467   5.223
10645SOL    HW132834   2.641   0.379   5.261
10645SOL    HW232835   2.648   0.470   5.126
10646SOL     OW32836   0.273   3.951   6.808
10646SOL    HW132837   0.269   3.905   6.897
10646SOL    HW232838   0.346   3.910   6.753
10647SOL     OW32839   0.132   4.809   0.709
10647SOL    HW132840   0.230   4.796   0.697
10647SOL    HW232841   0.116   4.900   0.748
10648SOL     OW32842   4.593   4.066   6.277
10648SOL    HW132843   4.516   4.097   6.333
10648SOL    HW232844   4.584   3.968   6.260
10649SOL     OW32845   0.139   4.391   5.838
10649SOL    HW132846   0.238   4.385   5.852
10649SOL    HW232847   0.096   4.307   5.870
10650SOL     OW32848   3.091   6.910   3.742
10650SOL    HW132849   3.065   6.819   3.710
10650SOL    HW232850   3.157   6.901   3.817
10651SOL     OW32851   3.987   6.929   5.634
10651SOL    HW132852   4.083   6.948   5.655
10651SOL    HW232853   3.929   7.001   5.673
10652SOL     OW32854   3.689   0.556   6.781
10652SOL    HW132855   3.629   0.559   6.701
10652SOL    HW232856   3.720   0.462   6.796
10653SOL     OW32857   5.752   3.300   3.677
10653SOL    HW132858   5.780   3.211   3.639
10653SOL    HW232859   5.744   3.293   3.776
10654SOL     OW32860   4.258   0.892   1.269
10654SOL    HW132861   4.267   0.807   1.217
10654SOL    HW232862   4.256   0.872   1.366
10655SOL     OW32863   3.283   5.806   1.635
10655SOL    HW132864   3.258   5.861   1.714
10655SOL    HW232865   3.200   5.773   1.589
10656SOL     OW32866   6.240   3.060   6.041
10656SOL    HW132867   6.191   2.976   6.019
10656SOL    HW232868   6.174   3.133   6.061
10657SOL     OW32869   5.904   0.831   1.218
10657SOL    HW132870   5.907   0.742   1.262
10657SOL    HW232871   5.996   0.859   1.191
10658SOL     OW32872   0.464   5.668   5.075
10658SOL    HW132873   0.524   5.747   5.061
10658SOL    HW232874   0.369   5.695   5.065
10659SOL     OW32875   5.298   0.799   0.747
10659SOL    HW132876   5.342   0.783   0.659
10659SOL    HW232877   5.306   0.717   0.804
10660SOL     OW32878   4.861   5.266   5.768
10660SOL    HW132879   4.936   5.281   5.833
10660SOL    HW232880   4.893   5.284   5.675
10661SOL     OW32881   0.118   0.500   2.626
10661SOL    HW132882   0.165   0.581   2.663
10661SOL    HW232883   0.162   0.473   2.540
10662SOL     OW32884   6.207   1.511   0.636
10662SOL    HW132885   6.201   1.417   0.604
10662SOL    HW232886   6.116   1.551   0.641
10663SOL     OW32887   0.133   0.749   0.315
10663SOL    HW132888   0.138   0.779   0.220
10663SOL    HW232889   0.205   0.793   0.368
10664SOL     OW32890   2.093   4.437   6.995
10664SOL    HW132891   2.006   4.485   6.981
10664SOL    HW232892   2.155   4.457   6.919
10665SOL     OW32893   6.321   0.730   0.374
10665SOL    HW132894   6.290   0.637   0.394
10665SOL    HW232895   6.251   0.796   0.401
10666SOL     OW32896   1.052   6.753   0.236
10666SOL    HW132897   1.132   6.759   0.295
10666SOL    HW232898   1.081   6.742   0.141
10667SOL     OW32899   3.440   1.992   5.172
10667SOL    HW132900   3.503   1.965   5.100
10667SOL    HW232901   3.486   1.986   5.261
10668SOL     OW32902   2.286   1.179   5.690
10668SOL    HW132903   2.383   1.194   5.672
10668SOL    HW232904   2.252   1.251   5.750
10669SOL     OW32905   1.050   6.702   6.358
10669SOL    HW132906   1.052   6.772   6.429
10669SOL    HW232907   1.099   6.621   6.390
10670SOL     OW32908   7.003   4.878   5.662
10670SOL    HW132909   6.945   4.805   5.699
10670SOL    HW232910   0.070   4.870   5.700
10671SOL     OW32911   1.443   1.517   3.099
10671SOL    HW132912   1.424   1.458   3.178
10671SOL    HW232913   1.534   1.557   3.109
10672SOL     OW32914   6.916   2.896   0.637
10672SOL    HW132915   6.953   2.983   0.670
10672SOL    HW232916   6.990   2.841   0.599
10673SOL     OW32917   3.230   3.674   4.782
10673SOL    HW132918   3.253   3.765   4.750
10673SOL    HW232919   3.279   3.606   4.728
10674SOL     OW32920   3.921   1.889   2.127
10674SOL    HW132921   3.890   1.835   2.205
10674SOL    HW232922   3.848   1.952   2.099
10675SOL     OW32923   0.478   0.806   6.302
10675SOL    HW132924   0.464   0.728   6.241
10675SOL    HW232925   0.399   0.815   6.363
10676SOL     OW32926   6.796   0.513   0.070
10676SOL    HW132927   6.858   0.472   0.003
10676SOL    HW232928   6.704   0.474   0.059
10677SOL     OW32929   6.790   1.125   0.098
10677SOL    HW132930   6.758   1.206   0.147
10677SOL    HW232931   6.716   1.058   0.090
10678SOL     OW32932   2.653   6.194   3.493
10678SOL    HW132933   2.607   6.282   3.507
10678SOL    HW232934   2.721   6.204   3.420
10679SOL     OW32935   5.678   5.383   3.903
10679SOL    HW132936   5.715   5.338   3.984
10679SOL    HW232937   5.661   5.314   3.832
10680SOL     OW32938   1.678   2.463   3.527
10680SOL    HW132939   1.668   2.366   3.509
10680SOL    HW232940   1.697   2.512   3.442
10681SOL     OW32941   0.625   1.282   5.910
10681SOL    HW132942   0.539   1.284   5.961
10681SOL    HW232943   0.702   1.280   5.973
10682SOL     OW32944   6.449   1.820   3.189
10682SOL    HW132945   6.463   1.828   3.090
10682SOL    HW232946   6.459   1.909   3.232
10683SOL     OW32947   1.681   1.292   3.911
10683SOL    HW132948   1.608   1.360   3.903
10683SOL    HW232949   1.736   1.312   3.992
10684SOL     OW32950   5.890   6.009   0.419
10684SOL    HW132951   5.970   5.968   0.462
10684SOL    HW232952   5.917   6.060   0.338
10685SOL     OW32953   0.009   2.078   1.854
10685SOL    HW132954   0.022   2.025   1.771
10685SOL    HW232955   0.067   2.160   1.851
10686SOL     OW32956   3.839   4.251   0.971
10686SOL    HW132957   3.790   4.163   0.970
10686SOL    HW232958   3.937   4.234   0.985
10687SOL     OW32959   0.207   4.926   1.722
10687SOL    HW132960   0.271   4.967   1.787
10687SOL    HW232961   0.117   4.967   1.734
10688SOL     OW32962   6.973   5.846   1.953
10688SOL    HW132963   6.999   5.893   1.868
10688SOL    HW232964   7.020   5.889   2.030
10689SOL     OW32965   0.610   0.677   1.963
10689SOL    HW132966   0.538   0.621   1.923
10689SOL    HW232967   0.575   0.770   1.978
10690SOL     OW32968   4.736   5.940   2.048
10690SOL    HW132969   4.697   5.949   1.957
10690SOL    HW232970   4.675   5.982   2.115
10691SOL     OW32971   6.825   1.344   1.442
10691SOL    HW132972   6.809   1.439   1.414
10691SOL    HW232973   6.741   1.291   1.431
10692SOL     OW32974   5.083   5.798   4.888
10692SOL    HW132975   5.038   5.833   4.971
10692SOL    HW232976   5.018   5.742   4.837
10693SOL     OW32977   5.077   2.225   3.240
10693SOL    HW132978   5.042   2.226   3.146
10693SOL    HW232979   5.002   2.242   3.304
10694SOL     OW32980   4.284   6.213   0.867
10694SOL    HW132981   4.191   6.247   0.880
10694SOL    HW232982   4.294   6.125   0.914
10695SOL     OW32983   6.189   3.281   4.931
10695SOL    HW132984   6.165   3.345   5.004
10695SOL    HW232985   6.105   3.246   4.890
10696SOL     OW32986   6.027   0.054   1.591
10696SOL    HW132987   6.070   6.990   1.609
10696SOL    HW232988   5.970   0.047   1.509
10697SOL     OW32989   2.182   6.081   3.490
10697SOL    HW132990   2.269   6.048   3.454
10697SOL    HW232991   2.149   6.019   3.561
10698SOL     OW32992   2.874   0.753   3.406
10698SOL    HW132993   2.906   0.663   3.436
10698SOL    HW232994   2.886   0.761   3.307
10699SOL     OW32995   1.835   2.566   2.673
10699SOL    HW132996   1.796   2.605   2.589
10699SOL    HW232997   1.926   2.529   2.653
10700SOL     OW32998   6.698   0.508   2.110
10700SOL    HW132999   6.645   0.431   2.076
10700SOL    HW233000   6.796   0.487   2.101
10701SOL     OW33001   3.669   6.252   1.165
10701SOL    HW133002   3.731   6.295   1.230
10701SOL    HW233003   3.659   6.309   1.084
10702SOL     OW33004   6.073   3.254   0.794
10702SOL    HW133005   6.024   3.306   0.724
10702SOL    HW233006   6.154   3.305   0.823
10703SOL     OW33007   3.617   3.176   4.188
10703SOL    HW133008   3.604   3.133   4.099
10703SOL    HW233009   3.635   3.106   4.257
10704SOL     OW33010   5.500   6.624   2.159
10704SOL    HW133011   5.457   6.714   2.154
10704SOL    HW233012   5.447   6.558   2.106
10705SOL     OW33013   1.443   3.185   6.545
10705SOL    HW133014   1.471   3.246   6.471
10705SOL    HW233015   1.391   3.109   6.508
10706SOL     OW33016   3.753   2.045   1.446
10706SOL    HW133017   3.818   1.979   1.484
10706SOL    HW233018   3.685   2.069   1.515
10707SOL     OW33019   6.405   0.057   5.938
10707SOL    HW133020   6.372   0.069   6.031
10707SOL    HW233021   6.494   0.012   5.940
10708SOL     OW33022   4.609   1.172   1.408
10708SOL    HW133023   4.532   1.236   1.406
10708SOL    HW233024   4.691   1.216   1.372
10709SOL     OW33025   0.908   6.838   5.899
10709SOL    HW133026   0.921   6.936   5.910
10709SOL    HW233027   0.947   6.789   5.977
10710SOL     OW33028   6.537   5.397   3.125
10710SOL    HW133029   6.570   5.405   3.031
10710SOL    HW233030   6.608   5.356   3.182
10711SOL     OW33031   2.552   6.188   4.939
10711SOL    HW133032   2.646   6.155   4.930
10711SOL    HW233033   2.494   6.141   4.873
10712SOL     OW33034   4.805   1.492   4.842
10712SOL    HW133035   4.802   1.432   4.762
10712SOL    HW233036   4.821   1.437   4.924
10713SOL     OW33037   1.681   6.228   1.124
10713SOL    HW133038   1.709   6.320   1.096
10713SOL    HW233039   1.647   6.177   1.045
10714SOL     OW33040   6.858   5.766   5.820
10714SOL    HW133041   6.896   5.854   5.849
10714SOL    HW233042   6.891   5.744   5.728
10715SOL     OW33043   5.630   1.153   3.645
10715SOL    HW133044   5.604   1.235   3.593
10715SOL    HW233045   5.621   1.172   3.743
10716SOL     OW33046   6.577   1.100   2.743
10716SOL    HW133047   6.536   1.093   2.834
10716SOL    HW233048   6.575   1.010   2.699
10717SOL     OW33049   6.237   6.564   1.903
10717SOL    HW133050   6.179   6.545   1.982
10717SOL    HW233051   6.199   6.518   1.822
10718SOL     OW33052   0.824   3.537   5.957
10718SOL    HW133053   0.753   3.560   5.890
10718SOL    HW233054   0.805   3.446   5.995
10719SOL     OW33055   3.488   0.296   2.407
10719SOL    HW133056   3.490   0.212   2.462
10719SOL    HW233057   3.582   0.329   2.393
10720SOL     OW33058   0.442   3.232   6.869
10720SOL    HW133059   0.362   3.180   6.839
10720SOL    HW233060   0.502   3.248   6.790
10721SOL     OW33061   4.886   2.976   4.553
10721SOL    HW133062   4.853   2.989   4.460
10721SOL    HW233063   4.979   2.937   4.550
10722SOL     OW33064   0.422   4.025   0.721
10722SOL    HW133065   0.427   3.978   0.632
10722SOL    HW233066   0.389   4.118   0.707
10723SOL     OW33067   6.263   4.785   0.344
10723SOL    HW133068   6.300   4.856   0.284
10723SOL    HW233069   6.312   4.785   0.431
10724SOL     OW33070   3.784   0.224   5.651
10724SOL    HW133071   3.806   0.318   5.676
10724SOL    HW233072   3.742   0.222   5.560
10725SOL     OW33073   6.767   0.093   5.289
10725SOL    HW133074   6.762   0.075   5.190
10725SOL    HW233075   6.697   0.039   5.336
10726SOL     OW33076   6.039   1.524   4.782
10726SOL    HW133077   6.019   1.470   4.700
10726SOL    HW233078   5.960   1.582   4.804
10727SOL     OW33079   2.330   6.562   6.852
10727SOL    HW133080   2.324   6.605   6.762
10727SOL    HW233081   2.425   6.533   6.869
10728SOL     OW33082   5.926   6.283   3.577
10728SOL    HW133083   5.996   6.267   3.647
10728SOL    HW233084   5.902   6.380   3.577
10729SOL     OW33085   5.833   3.189   4.700
10729SOL    HW133086   5.895   3.164   4.626
10729SOL    HW233087   5.876   3.168   4.788
10730SOL     OW33088   2.322   5.737   3.968
10730SOL    HW133089   2.264   5.704   4.043
10730SOL    HW233090   2.318   5.673   3.892
10731SOL     OW33091   4.912   6.294   6.824
10731SOL    HW133092   4.950   6.209   6.859
10731SOL    HW233093   4.985   6.361   6.811
10732SOL     OW33094   6.340   6.093   2.836
10732SOL    HW133095   6.406   6.047   2.894
10732SOL    HW233096   6.307   6.029   2.765
10733SOL     OW33097   0.553   1.002   6.116
10733SOL    HW133098   0.540   0.944   6.197
10733SOL    HW233099   0.472   0.995   6.057
10734SOL     OW33100   1.817   0.224   4.276
10734SOL    HW133101   1.779   0.224   4.184
10734SOL    HW233102   1.755   0.177   4.339
10735SOL     OW33103   6.903   6.596   1.844
10735SOL    HW133104   6.827   6.661   1.846
10735SOL    HW233105   6.942   6.586   1.936
10736SOL     OW33106   5.164   6.407   3.479
10736SOL    HW133107   5.073   6.430   3.513
10736SOL    HW233108   5.205   6.339   3.539
10737SOL     OW33109   6.288   0.979   1.727
10737SOL    HW133110   6.329   1.057   1.680
10737SOL    HW233111   6.280   0.999   1.825
10738SOL     OW33112   3.454   0.276   0.799
10738SOL    HW133113   3.364   0.243   0.826
10738SOL    HW233114   3.448   0.324   0.711
10739SOL     OW33115   5.805   3.239   4.076
10739SOL    HW133116   5.810   3.213   4.173
10739SOL    HW233117   5.721   3.291   4.061
10740SOL     OW33118   3.116   0.752   6.226
10740SOL    HW133119   3.085   0.663   6.194
10740SOL    HW233120   3.042   0.819   6.219
10741SOL     OW33121   1.448   2.012   3.697
10741SOL    HW133122   1.521   2.060   3.745
10741SOL    HW233123   1.487   1.940   3.641
10742SOL     OW33124   6.581   7.008   2.313
10742SOL    HW133125   6.513   6.943   2.347
10742SOL    HW233126   6.634   0.020   2.389
10743SOL     OW33127   3.100   1.724   5.424
10743SOL    HW133128   3.106   1.657   5.350
10743SOL    HW233129   3.055   1.807   5.390
10744SOL     OW33130   2.204   0.828   0.646
10744SOL    HW133131   2.181   0.879   0.563
10744SOL    HW233132   2.296   0.789   0.637
10745SOL     OW33133   2.295   4.450   1.696
10745SOL    HW133134   2.275   4.405   1.609
10745SOL    HW233135   2.391   4.435   1.720
10746SOL     OW33136   2.500   5.821   6.523
10746SOL    HW133137   2.564   5.749   6.498
10746SOL    HW233138   2.430   5.829   6.452
10747SOL     OW33139   6.759   1.530   4.654
10747SOL    HW133140   6.847   1.551   4.697
10747SOL    HW233141   6.716   1.615   4.623
10748SOL     OW33142   3.159   6.787   1.649
10748SOL    HW133143   3.072   6.748   1.679
10748SOL    HW233144   3.191   6.741   1.566
10749SOL     OW33145   5.938   4.434   1.428
10749SOL    HW133146   5.947   4.360   1.362
10749SOL    HW233147   5.950   4.398   1.520
10750SOL     OW33148   4.072   2.211   4.410
10750SOL    HW133149   4.098   2.297   4.366
10750SOL    HW233150   4.130   2.137   4.375
10751SOL     OW33151   0.148   5.591   4.232
10751SOL    HW133152   0.169   5.641   4.147
10751SOL    HW233153   0.079   5.641   4.284
10752SOL     OW33154   6.620   6.399   0.536
10752SOL    HW133155   6.669   6.479   0.502
10752SOL    HW233156   6.525   6.425   0.556
10753SOL     OW33157   5.047   0.623   4.243
10753SOL    HW133158   4.961   0.639   4.195
10753SOL    HW233159   5.118   0.598   4.178
10754SOL     OW33160   0.999   4.790   2.659
10754SOL    HW133161   1.034   4.696   2.658
10754SOL    HW233162   1.014   4.830   2.750
10755SOL     OW33163   0.266   2.895   0.948
10755SOL    HW133164   0.185   2.954   0.942
10755SOL    HW233165   0.237   2.799   0.950
10756SOL     OW33166   1.362   1.084   0.478
10756SOL    HW133167   1.339   1.124   0.566
10756SOL    HW233168   1.342   0.985   0.480
10757SOL     OW33169   0.519   3.278   2.084
10757SOL    HW133170   0.480   3.312   2.170
10757SOL    HW233171   0.526   3.178   2.088
10758SOL     OW33172   0.955   0.368   0.219
10758SOL    HW133173   0.877   0.314   0.189
10758SOL    HW233174   1.017   0.383   0.142
10759SOL     OW33175   2.848   3.125   5.379
10759SOL    HW133176   2.781   3.052   5.367
10759SOL    HW233177   2.940   3.090   5.359
10760SOL     OW33178   0.881   4.472   6.609
10760SOL    HW133179   0.891   4.556   6.556
10760SOL    HW233180   0.822   4.490   6.689
10761SOL     OW33181   1.261   1.627   5.731
10761SOL    HW133182   1.294   1.721   5.728
10761SOL    HW233183   1.223   1.602   5.642
10762SOL     OW33184   3.030   6.390   6.466
10762SOL    HW133185   2.959   6.398   6.536
10762SOL    HW233186   3.060   6.295   6.459
10763SOL     OW33187   4.877   0.694   3.098
10763SOL    HW133188   4.939   0.725   3.027
10763SOL    HW233189   4.784   0.726   3.078
10764SOL     OW33190   5.305   6.429   4.344
10764SOL    HW133191   5.396   6.392   4.361
10764SOL    HW233192   5.309   6.529   4.346
10765SOL     OW33193   0.788   1.558   1.646
10765SOL    HW133194   0.822   1.495   1.576
10765SOL    HW233195   0.693   1.582   1.626
10766SOL     OW33196   2.450   5.198   0.098
10766SOL    HW133197   2.487   5.267   0.035
10766SOL    HW233198   2.427   5.242   0.185
10767SOL     OW33199   1.651   5.128   6.627
10767SOL    HW133200   1.635   5.227   6.619
10767SOL    HW233201   1.588   5.090   6.694
10768SOL     OW33202   5.393   6.418   6.774
10768SOL    HW133203   5.429   6.450   6.861
10768SOL    HW233204   5.294   6.406   6.780
10769SOL     OW33205   3.004   3.433   4.649
10769SOL    HW133206   2.945   3.510   4.673
10769SOL    HW233207   3.080   3.466   4.593
10770SOL     OW33208   5.756   0.135   3.224
10770SOL    HW133209   5.658   0.116   3.220
10770SOL    HW233210   5.806   0.049   3.234
10771SOL     OW33211   4.685   5.903   5.763
10771SOL    HW133212   4.770   5.908   5.814
10771SOL    HW233213   4.616   5.962   5.805
10772SOL     OW33214   5.833   5.206   2.323
10772SOL    HW133215   5.784   5.179   2.406
10772SOL    HW233216   5.832   5.131   2.257
10773SOL     OW33217   0.197   4.334   1.566
10773SOL    HW133218   0.235   4.255   1.518
10773SOL    HW233219   0.118   4.305   1.620
10774SOL     OW33220   0.987   3.721   0.563
10774SOL    HW133221   0.947   3.678   0.482
10774SOL    HW233222   0.992   3.820   0.550
10775SOL     OW33223   1.678   3.879   0.773
10775SOL    HW133224   1.579   3.869   0.787
10775SOL    HW233225   1.715   3.793   0.738
10776SOL     OW33226   0.275   2.546   3.602
10776SOL    HW133227   0.305   2.624   3.547
10776SOL    HW233228   0.347   2.521   3.666
10777SOL     OW33229   2.221   0.524   1.466
10777SOL    HW133230   2.123   0.534   1.485
10777SOL    HW233231   2.258   0.612   1.434
10778SOL     OW33232   4.888   0.298   3.253
10778SOL    HW133233   4.948   0.378   3.250
10778SOL    HW233234   4.944   0.216   3.264
10779SOL     OW33235   5.383   3.296   5.849
10779SOL    HW133236   5.395   3.299   5.750
10779SOL    HW233237   5.377   3.201   5.879
10780SOL     OW33238   2.088   5.193   4.608
10780SOL    HW133239   2.075   5.291   4.618
10780SOL    HW233240   2.092   5.169   4.511
10781SOL     OW33241   5.727   2.201   4.445
10781SOL    HW133242   5.655   2.149   4.492
10781SOL    HW233243   5.800   2.139   4.417
10782SOL     OW33244   1.044   1.549   5.553
10782SOL    HW133245   1.013   1.583   5.641
10782SOL    HW233246   1.052   1.625   5.489
10783SOL     OW33247   1.040   2.537   3.455
10783SOL    HW133248   1.125   2.574   3.415
10783SOL    HW233249   0.963   2.564   3.398
10784SOL     OW33250   4.213   5.790   3.613
10784SOL    HW133251   4.138   5.729   3.638
10784SOL    HW233252   4.195   5.828   3.522
10785SOL     OW33253   1.995   5.296   2.256
10785SOL    HW133254   1.991   5.357   2.336
10785SOL    HW233255   2.091   5.277   2.233
10786SOL     OW33256   4.264   2.327   1.978
10786SOL    HW133257   4.213   2.244   1.956
10786SOL    HW233258   4.342   2.303   2.035
10787SOL     OW33259   3.711   1.698   3.276
10787SOL    HW133260   3.641   1.687   3.346
10787SOL    HW233261   3.668   1.726   3.190
10788SOL     OW33262   1.863   4.321   0.380
10788SOL    HW133263   1.890   4.411   0.346
10788SOL    HW233264   1.936   4.255   0.363
10789SOL     OW33265   6.706   1.222   2.438
10789SOL    HW133266   6.615   1.182   2.451
10789SOL    HW233267   6.752   1.175   2.362
10790SOL     OW33268   0.236   1.719   5.880
10790SOL    HW133269   0.139   1.744   5.874
10790SOL    HW233270   0.291   1.788   5.834
10791SOL     OW33271   1.780   2.566   3.269
10791SOL    HW133272   1.767   2.665   3.279
10791SOL    HW233273   1.876   2.543   3.285
10792SOL     OW33274   3.456   1.805   2.212
10792SOL    HW133275   3.554   1.807   2.230
10792SOL    HW233276   3.438   1.749   2.131
10793SOL     OW33277   3.933   1.591   4.413
10793SOL    HW133278   3.848   1.574   4.464
10793SOL    HW233279   4.010   1.585   4.476
10794SOL     OW33280   5.259   2.231   0.386
10794SOL    HW133281   5.325   2.301   0.359
10794SOL    HW233282   5.186   2.273   0.440
10795SOL     OW33283   0.074   3.506   2.959
10795SOL    HW133284   7.020   3.444   2.961
10795SOL    HW233285   0.097   3.533   3.053
10796SOL     OW33286   6.998   0.127   6.180
10796SOL    HW133287   0.042   0.055   6.177
10796SOL    HW233288   6.972   0.144   6.275
10797SOL     OW33289   4.187   4.590   0.175
10797SOL    HW133290   4.186   4.490   0.187
10797SOL    HW233291   4.100   4.620   0.137
10798SOL     OW33292   2.136   6.233   6.652
10798SOL    HW133293   2.087   6.269   6.732
10798SOL    HW233294   2.158   6.308   6.590
10799SOL     OW33295   2.701   1.422   2.802
10799SOL    HW133296   2.652   1.448   2.719
10799SOL    HW233297   2.700   1.323   2.811
10800SOL     OW33298   2.582   0.213   5.342
10800SOL    HW133299   2.626   0.213   5.431
10800SOL    HW233300   2.521   0.134   5.335
10801SOL     OW33301   2.907   6.140   5.862
10801SOL    HW133302   2.946   6.100   5.945
10801SOL    HW233303   2.875   6.233   5.881
10802SOL     OW33304   0.486   5.319   4.361
10802SOL    HW133305   0.447   5.272   4.282
10802SOL    HW233306   0.484   5.417   4.347
10803SOL     OW33307   0.227   4.376   4.853
10803SOL    HW133308   0.225   4.474   4.834
10803SOL    HW233309   0.134   4.339   4.846
10804SOL     OW33310   4.893   4.722   0.858
10804SOL    HW133311   4.976   4.777   0.864
10804SOL    HW233312   4.820   4.767   0.909
10805SOL     OW33313   3.669   6.293   0.435
10805SOL    HW133314   3.665   6.359   0.360
10805SOL    HW233315   3.750   6.234   0.424
10806SOL     OW33316   5.928   4.434   6.474
10806SOL    HW133317   5.971   4.515   6.513
10806SOL    HW233318   5.843   4.415   6.522
10807SOL     OW33319   4.314   1.502   4.353
10807SOL    HW133320   4.223   1.498   4.312
10807SOL    HW233321   4.329   1.593   4.393
10808SOL     OW33322   6.928   2.004   0.184
10808SOL    HW133323   6.899   2.091   0.225
10808SOL    HW233324   6.855   1.967   0.128
10809SOL     OW33325   3.013   1.414   2.146
10809SOL    HW133326   3.072   1.340   2.114
10809SOL    HW233327   3.041   1.443   2.237
10810SOL     OW33328   1.834   1.488   6.557
10810SOL    HW133329   1.801   1.397   6.582
10810SOL    HW233330   1.790   1.517   6.472
10811SOL     OW33331   4.626   4.702   6.416
10811SOL    HW133332   4.578   4.776   6.463
10811SOL    HW233333   4.710   4.737   6.375
10812SOL     OW33334   6.167   2.511   2.312
10812SOL    HW133335   6.236   2.576   2.342
10812SOL    HW233336   6.078   2.557   2.304
10813SOL     OW33337   3.561   5.730   2.307
10813SOL    HW133338   3.656   5.741   2.278
10813SOL    HW233339   3.547   5.776   2.395
10814SOL     OW33340   1.917   5.601   4.747
10814SOL    HW133341   1.850   5.542   4.702
10814SOL    HW233342   1.912   5.587   4.846
10815SOL     OW33343   4.954   2.193   3.870
10815SOL    HW133344   4.951   2.158   3.964
10815SOL    HW233345   4.867   2.174   3.825
10816SOL     OW33346   1.952   2.200   2.072
10816SOL    HW133347   2.035   2.161   2.031
10816SOL    HW233348   1.911   2.132   2.134
10817SOL     OW33349   4.479   0.417   2.314
10817SOL    HW133350   4.500   0.514   2.319
10817SOL    HW233351   4.386   0.404   2.279
10818SOL     OW33352   4.712   2.939   6.812
10818SOL    HW133353   4.785   3.005   6.828
10818SOL    HW233354   4.747   2.847   6.826
10819SOL     OW33355   0.618   3.850   5.889
10819SOL    HW133356   0.679   3.916   5.846
10819SOL    HW233357   0.616   3.766   5.833
10820SOL     OW33358   6.660   0.231   4.434
10820SOL    HW133359   6.627   0.325   4.435
10820SOL    HW233360   6.595   0.173   4.485
10821SOL     OW33361   6.991   6.759   0.945
10821SOL    HW133362   6.998   6.743   1.043
10821SOL    HW233363   0.057   6.767   0.905
10822SOL     OW33364   0.187   4.271   0.099
10822SOL    HW133365   0.197   4.280   0.198
10822SOL    HW233366   0.105   4.218   0.078
10823SOL     OW33367   1.780   2.337   1.079
10823SOL    HW133368   1.715   2.402   1.040
10823SOL    HW233369   1.761   2.325   1.176
10824SOL     OW33370   5.809   0.720   3.092
10824SOL    HW133371   5.769   0.800   3.047
10824SOL    HW233372   5.820   0.739   3.190
10825SOL     OW33373   3.730   0.935   1.870
10825SOL    HW133374   3.823   0.972   1.868
10825SOL    HW233375   3.731   0.848   1.918
10826SOL     OW33376   6.322   2.798   1.300
10826SOL    HW133377   6.412   2.754   1.293
10826SOL    HW233378   6.251   2.731   1.279
10827SOL     OW33379   1.117   3.021   3.867
10827SOL    HW133380   1.044   3.006   3.801
10827SOL    HW233381   1.201   3.046   3.819
10828SOL     OW33382   0.714   5.718   0.349
10828SOL    HW133383   0.655   5.641   0.375
10828SOL    HW233384   0.661   5.783   0.294
10829SOL     OW33385   2.254   3.722   1.404
10829SOL    HW133386   2.276   3.665   1.483
10829SOL    HW233387   2.337   3.758   1.364
10830SOL     OW33388   4.410   1.136   3.215
10830SOL    HW133389   4.470   1.102   3.288
10830SOL    HW233390   4.460   1.139   3.129
10831SOL     OW33391   5.387   2.778   2.176
10831SOL    HW133392   5.440   2.849   2.128
10831SOL    HW233393   5.443   2.696   2.186
10832SOL     OW33394   6.987   3.305   2.644
10832SOL    HW133395   7.001   3.255   2.729
10832SOL    HW233396   0.044   3.358   2.622
10833SOL     OW33397   2.627   0.091   3.988
10833SOL    HW133398   2.604   0.164   3.923
10833SOL    HW233399   2.724   0.068   3.979
10834SOL     OW33400   0.062   0.832   5.655
10834SOL    HW133401   0.051   0.811   5.558
10834SOL    HW233402   0.020   0.921   5.675
10835SOL     OW33403   6.912   2.822   1.783
10835SOL    HW133404   6.925   2.773   1.697
10835SOL    HW233405   6.891   2.918   1.764
10836SOL     OW33406   1.853   3.094   1.098
10836SOL    HW133407   1.916   3.170   1.113
10836SOL    HW233408   1.796   3.081   1.179
10837SOL     OW33409   1.593   5.820   1.228
10837SOL    HW133410   1.556   5.766   1.304
10837SOL    HW233411   1.639   5.759   1.164
10838SOL     OW33412   6.365   0.147   0.540
10838SOL    HW133413   6.396   0.062   0.581
10838SOL    HW233414   6.420   0.223   0.575
10839SOL     OW33415   1.767   1.588   0.127
10839SOL    HW133416   1.799   1.681   0.108
10839SOL    HW233417   1.840   1.523   0.106
10840SOL     OW33418   3.287   5.990   2.380
10840SOL    HW133419   3.387   5.980   2.374
10840SOL    HW233420   3.260   6.074   2.334
10841SOL     OW33421   4.900   2.990   6.524
10841SOL    HW133422   4.972   3.017   6.588
10841SOL    HW233423   4.829   3.061   6.523
10842SOL     OW33424   6.167   3.014   1.351
10842SOL    HW133425   6.210   3.069   1.422
10842SOL    HW233426   6.221   2.931   1.336
10843SOL     OW33427   0.107   1.123   2.051
10843SOL    HW133428   0.013   1.146   2.076
10843SOL    HW233429   0.120   1.135   1.953
10844SOL     OW33430   3.263   0.062   3.560
10844SOL    HW133431   3.198   0.033   3.630
10844SOL    HW233432   3.356   0.052   3.595
10845SOL     OW33433   2.248   3.165   0.929
10845SOL    HW133434   2.259   3.221   0.847
10845SOL    HW233435   2.330   3.110   0.943
10846SOL     OW33436   3.949   1.836   1.604
10846SOL    HW133437   4.010   1.855   1.527
10846SOL    HW233438   3.879   1.771   1.575
10847SOL     OW33439   4.500   2.841   5.865
10847SOL    HW133440   4.600   2.840   5.864
10847SOL    HW233441   4.465   2.809   5.777
10848SOL     OW33442   1.112   0.645   0.072
10848SOL    HW133443   1.106   0.686   0.162
10848SOL    HW233444   1.163   0.705   0.010
10849SOL     OW33445   2.286   5.440   3.683
10849SOL    HW133446   2.235   5.421   3.767
10849SOL    HW233447   2.222   5.451   3.607
10850SOL     OW33448   5.806   0.456   2.271
10850SOL    HW133449   5.884   0.394   2.273
10850SOL    HW233450   5.813   0.522   2.346
10851SOL     OW33451   4.162   1.765   6.874
10851SOL    HW133452   4.243   1.770   6.932
10851SOL    HW233453   4.181   1.809   6.787
10852SOL     OW33454   0.481   0.257   5.883
10852SOL    HW133455   0.385   0.231   5.884
10852SOL    HW233456   0.503   0.298   5.794
10853SOL     OW33457   2.467   0.452   4.688
10853SOL    HW133458   2.443   0.355   4.686
10853SOL    HW233459   2.526   0.473   4.611
10854SOL     OW33460   6.972   5.925   1.178
10854SOL    HW133461   6.907   5.960   1.245
10854SOL    HW233462   7.017   6.002   1.133
10855SOL     OW33463   1.297   5.447   1.490
10855SOL    HW133464   1.198   5.443   1.505
10855SOL    HW233465   1.344   5.392   1.559
10856SOL     OW33466   5.838   0.607   6.922
10856SOL    HW133467   5.817   0.571   6.831
10856SOL    HW233468   5.821   0.536   6.990
10857SOL     OW33469   6.864   0.566   4.686
10857SOL    HW133470   6.890   0.476   4.720
10857SOL    HW233471   6.911   0.637   4.738
10858SOL     OW33472   1.786   2.495   0.368
10858SOL    HW133473   1.787   2.576   0.310
10858SOL    HW233474   1.700   2.492   0.419
10859SOL     OW33475   1.437   5.317   2.782
10859SOL    HW133476   1.354   5.277   2.743
10859SOL    HW233477   1.512   5.252   2.775
10860SOL     OW33478   6.369   3.191   1.896
10860SOL    HW133479   6.381   3.247   1.978
10860SOL    HW233480   6.396   3.097   1.916
10861SOL     OW33481   2.822   3.691   1.289
10861SOL    HW133482   2.758   3.646   1.227
10861SOL    HW233483   2.899   3.728   1.237
10862SOL     OW33484   3.361   4.066   5.517
10862SOL    HW133485   3.268   4.027   5.518
10862SOL    HW233486   3.362   4.147   5.458
10863SOL     OW33487   2.249   0.446   3.216
10863SOL    HW133488   2.278   0.359   3.177
10863SOL    HW233489   2.151   0.442   3.237
10864SOL     OW33490   3.209   4.252   1.682
10864SOL    HW133491   3.298   4.266   1.639
10864SOL    HW233492   3.162   4.340   1.690
10865SOL     OW33493   3.849   1.606   2.300
10865SOL    HW133494   3.920   1.628   2.366
10865SOL    HW233495   3.775   1.673   2.307
10866SOL     OW33496   0.468   3.623   3.496
10866SOL    HW133497   0.524   3.556   3.546
10866SOL    HW233498   0.518   3.709   3.490
10867SOL     OW33499   4.394   2.286   0.213
10867SOL    HW133500   4.433   2.221   0.278
10867SOL    HW233501   4.319   2.242   0.164
10868SOL     OW33502   1.605   0.044   5.048
10868SOL    HW133503   1.601   6.979   5.092
10868SOL    HW233504   1.544   0.046   4.969
10869NA      NA33505   6.852   0.993   6.159
10870NA      NA33506   4.391   4.636   5.225
10871NA      NA33507   1.572   4.621   2.909
10872NA      NA33508   5.512   3.906   2.853
10873NA      NA33509   3.732   2.264   5.436
10874NA      NA33510   2.327   4.860   0.098
10875NA      NA33511   1.879   5.534   6.514
10876NA      NA33512   4.036   4.579   1.341
10877NA      NA33513   4.805   4.818   0.164
10878NA      NA33514   3.587   1.184   0.414
10879NA      NA33515   5.340   6.955   1.982
10880NA      NA33516   2.476   6.468   5.264
10881NA      NA33517   4.191   5.084   2.132
10882NA      NA33518   4.042   3.592   6.731
   7.02496   7.02496   7.02496
