Generated by trjconv : CNT in water t=  32.00000
33518
    1C        C    1   2.843   2.765   4.750
    1C        C    2   2.897   2.718   4.871
    1C        C    3   2.842   2.776   4.986
    1C        C    4   2.852   2.777   4.262
    1C        C    5   2.905   2.731   4.385
    1C        C    6   2.847   2.773   4.506
    1C        C    7   3.016   2.643   4.629
    1C        C    8   2.897   2.719   4.627
    1C        C    9   3.078   2.606   4.750
    1C        C   10   3.007   2.628   4.869
    1C        C   11   3.185   2.494   4.979
    1C        C   12   3.062   2.562   4.979
    1C        C   13   2.850   2.771   3.774
    1C        C   14   2.899   2.722   3.897
    1C        C   15   2.847   2.771   4.019
    1C        C   16   3.024   2.652   4.138
    1C        C   17   2.906   2.729   4.140
    1C        C   18   3.083   2.619   4.262
    1C        C   19   3.021   2.651   4.384
    1C        C   20   3.208   2.554   4.505
    1C        C   21   3.076   2.606   4.506
    1C        C   22   3.277   2.532   4.626
    1C        C   23   3.211   2.553   4.749
    1C        C   24   3.414   2.480   4.864
    1C        C   25   3.272   2.500   4.866
    1C        C   26   3.492   2.473   4.980
    1C        C   27   2.856   2.769   3.286
    1C        C   28   2.904   2.717   3.408
    1C        C   29   2.853   2.772   3.527
    1C        C   30   3.014   2.638   3.651
    1C        C   31   2.901   2.723   3.651
    1C        C   32   3.075   2.602   3.773
    1C        C   33   3.014   2.641   3.895
    1C        C   34   3.212   2.556   4.017
    1C        C   35   3.082   2.612   4.015
    1C        C   36   3.277   2.527   4.139
    1C        C   37   3.209   2.554   4.260
    1C        C   38   3.414   2.505   4.384
    1C        C   39   3.276   2.535   4.383
    1C        C   40   3.487   2.503   4.504
    1C        C   41   3.415   2.502   4.626
    1C        C   42   3.631   2.479   4.744
    1C        C   43   3.489   2.475   4.743
    1C        C   44   3.708   2.483   4.862
    1C        C   45   3.630   2.481   4.979
    1C        C   46   2.843   2.752   2.794
    1C        C   47   2.900   2.713   2.917
    1C        C   48   2.849   2.764   3.039
    1C        C   49   3.018   2.638   3.164
    1C        C   50   2.903   2.721   3.162
    1C        C   51   3.079   2.600   3.286
    1C        C   52   3.016   2.630   3.409
    1C        C   53   3.210   2.547   3.528
    1C        C   54   3.081   2.604   3.531
    1C        C   55   3.276   2.528   3.652
    1C        C   56   3.206   2.549   3.772
    1C        C   57   3.414   2.505   3.896
    1C        C   58   3.274   2.527   3.894
    1C        C   59   3.487   2.495   4.016
    1C        C   60   3.417   2.504   4.138
    1C        C   61   3.626   2.500   4.260
    1C        C   62   3.485   2.495   4.262
    1C        C   63   3.699   2.505   4.381
    1C        C   64   3.629   2.505   4.504
    1C        C   65   3.836   2.551   4.622
    1C        C   66   3.701   2.509   4.625
    1C        C   67   3.907   2.564   4.744
    1C        C   68   3.842   2.527   4.863
    1C        C   69   4.056   2.585   4.975
    1C        C   70   3.926   2.535   4.975
    1C        C   71   2.834   2.739   2.307
    1C        C   72   2.891   2.696   2.429
    1C        C   73   2.839   2.749   2.549
    1C        C   74   3.010   2.623   2.673
    1C        C   75   2.892   2.702   2.671
    1C        C   76   3.076   2.597   2.794
    1C        C   77   3.020   2.640   2.917
    1C        C   78   3.208   2.547   3.039
    1C        C   79   3.080   2.608   3.041
    1C        C   80   3.276   2.529   3.161
    1C        C   81   3.209   2.545   3.284
    1C        C   82   3.416   2.500   3.403
    1C        C   83   3.277   2.521   3.406
    1C        C   84   3.485   2.499   3.527
    1C        C   85   3.416   2.509   3.650
    1C        C   86   3.626   2.507   3.771
    1C        C   87   3.485   2.500   3.774
    1C        C   88   3.696   2.513   3.893
    1C        C   89   3.629   2.501   4.016
    1C        C   90   3.832   2.556   4.139
    1C        C   91   3.697   2.516   4.139
    1C        C   92   3.901   2.578   4.260
    1C        C   93   3.834   2.546   4.381
    1C        C   94   4.028   2.640   4.499
    1C        C   95   3.904   2.573   4.501
    1C        C   96   4.091   2.673   4.621
    1C        C   97   4.035   2.625   4.742
    1C        C   98   4.196   2.767   4.863
    1C        C   99   4.107   2.656   4.861
    1C        C  100   4.218   2.841   4.981
    1C        C  101   2.828   2.735   2.070
    1C        C  102   2.996   2.592   2.188
    1C        C  103   2.883   2.680   2.187
    1C        C  104   3.068   2.573   2.310
    1C        C  105   3.008   2.617   2.430
    1C        C  106   3.203   2.533   2.551
    1C        C  107   3.074   2.589   2.551
    1C        C  108   3.275   2.521   2.672
    1C        C  109   3.207   2.543   2.794
    1C        C  110   3.413   2.498   2.918
    1C        C  111   3.273   2.518   2.917
    1C        C  112   3.486   2.488   3.038
    1C        C  113   3.414   2.499   3.159
    1C        C  114   3.628   2.501   3.281
    1C        C  115   3.486   2.497   3.281
    1C        C  116   3.695   2.510   3.404
    1C        C  117   3.626   2.500   3.528
    1C        C  118   3.833   2.553   3.648
    1C        C  119   3.697   2.516   3.649
    1C        C  120   3.898   2.576   3.771
    1C        C  121   3.833   2.551   3.894
    1C        C  122   4.028   2.631   4.013
    1C        C  123   3.901   2.569   4.017
    1C        C  124   4.086   2.677   4.133
    1C        C  125   4.027   2.643   4.257
    1C        C  126   4.198   2.769   4.376
    1C        C  127   4.091   2.677   4.378
    1C        C  128   4.249   2.819   4.498
    1C        C  129   4.197   2.766   4.619
    1C        C  130   4.329   2.934   4.742
    1C        C  131   4.245   2.820   4.740
    1C        C  132   4.360   3.005   4.860
    1C        C  133   4.288   2.961   4.972
    1C        C  134   3.173   2.461   2.083
    1C        C  135   3.041   2.507   2.082
    1C        C  136   3.261   2.472   2.192
    1C        C  137   3.198   2.516   2.310
    1C        C  138   3.409   2.472   2.429
    1C        C  139   3.270   2.500   2.431
    1C        C  140   3.482   2.483   2.550
    1C        C  141   3.414   2.495   2.673
    1C        C  142   3.624   2.497   2.790
    1C        C  143   3.483   2.489   2.796
    1C        C  144   3.695   2.499   2.912
    1C        C  145   3.628   2.492   3.036
    1C        C  146   3.836   2.536   3.158
    1C        C  147   3.698   2.506   3.158
    1C        C  148   3.900   2.566   3.280
    1C        C  149   3.831   2.546   3.402
    1C        C  150   4.028   2.630   3.523
    1C        C  151   3.898   2.573   3.524
    1C        C  152   4.087   2.667   3.646
    1C        C  153   4.026   2.634   3.769
    1C        C  154   4.191   2.766   3.889
    1C        C  155   4.087   2.670   3.891
    1C        C  156   4.244   2.816   4.010
    1C        C  157   4.196   2.766   4.133
    1C        C  158   4.342   2.924   4.253
    1C        C  159   4.250   2.817   4.254
    1C        C  160   4.381   2.982   4.376
    1C        C  161   4.336   2.930   4.500
    1C        C  162   4.442   3.116   4.618
    1C        C  163   4.374   2.992   4.621
    1C        C  164   4.473   3.184   4.737
    1C        C  165   4.436   3.124   4.860
    1C        C  166   4.507   3.326   4.976
    1C        C  167   4.479   3.190   4.976
    1C        C  168   3.478   2.439   2.076
    1C        C  169   3.400   2.449   2.192
    1C        C  170   3.620   2.469   2.308
    1C        C  171   3.479   2.450   2.309
    1C        C  172   3.695   2.492   2.425
    1C        C  173   3.623   2.491   2.546
    1C        C  174   3.831   2.536   2.669
    1C        C  175   3.694   2.504   2.667
    1C        C  176   3.898   2.563   2.790
    1C        C  177   3.832   2.536   2.912
    1C        C  178   4.022   2.629   3.032
    1C        C  179   3.899   2.561   3.034
    1C        C  180   4.085   2.664   3.154
    1C        C  181   4.026   2.631   3.278
    1C        C  182   4.198   2.752   3.401
    1C        C  183   4.089   2.662   3.400
    1C        C  184   4.247   2.807   3.522
    1C        C  185   4.196   2.758   3.644
    1C        C  186   4.334   2.920   3.765
    1C        C  187   4.242   2.813   3.766
    1C        C  188   4.379   2.978   3.885
    1C        C  189   4.340   2.920   4.008
    1C        C  190   4.451   3.102   4.129
    1C        C  191   4.382   2.978   4.129
    1C        C  192   4.475   3.172   4.249
    1C        C  193   4.445   3.108   4.372
    1C        C  194   4.508   3.312   4.492
    1C        C  195   4.464   3.178   4.493
    1C        C  196   4.523   3.387   4.611
    1C        C  197   4.512   3.321   4.736
    1C        C  198   4.556   3.535   4.849
    1C        C  199   4.529   3.394   4.856
    1C        C  200   4.587   3.620   4.960
    1C        C  201   3.618   2.427   2.068
    1C        C  202   3.827   2.512   2.182
    1C        C  203   3.691   2.465   2.184
    1C        C  204   3.901   2.541   2.300
    1C        C  205   3.834   2.522   2.423
    1C        C  206   4.026   2.613   2.545
    1C        C  207   3.898   2.552   2.545
    1C        C  208   4.083   2.660   2.665
    1C        C  209   4.022   2.632   2.790
    1C        C  210   4.200   2.749   2.910
    1C        C  211   4.084   2.668   2.911
    1C        C  212   4.249   2.799   3.033
    1C        C  213   4.195   2.752   3.155
    1C        C  214   4.336   2.910   3.277
    1C        C  215   4.246   2.801   3.278
    1C        C  216   4.373   2.972   3.398
    1C        C  217   4.337   2.916   3.523
    1C        C  218   4.436   3.106   3.641
    1C        C  219   4.379   2.976   3.643
    1C        C  220   4.466   3.172   3.762
    1C        C  221   4.442   3.105   3.884
    1C        C  222   4.507   3.305   4.006
    1C        C  223   4.476   3.167   4.006
    1C        C  224   4.514   3.379   4.126
    1C        C  225   4.504   3.310   4.249
    1C        C  226   4.511   3.524   4.368
    1C        C  227   4.508   3.383   4.370
    1C        C  228   4.511   3.599   4.488
    1C        C  229   4.518   3.528   4.610
    1C        C  230   4.500   3.743   4.727
    1C        C  231   4.535   3.605   4.727
    1C        C  232   4.492   3.819   4.846
    1C        C  233   4.547   3.754   4.958
    1C        C  234   4.019   2.608   2.063
    1C        C  235   3.893   2.551   2.065
    1C        C  236   4.087   2.651   2.178
    1C        C  237   4.023   2.613   2.299
    1C        C  238   4.196   2.736   2.421
    1C        C  239   4.082   2.650   2.422
    1C        C  240   4.248   2.790   2.541
    1C        C  241   4.194   2.747   2.664
    1C        C  242   4.337   2.904   2.785
    1C        C  243   4.248   2.794   2.786
    1C        C  244   4.380   2.962   2.907
    1C        C  245   4.340   2.908   3.031
    1C        C  246   4.435   3.097   3.150
    1C        C  247   4.374   2.969   3.154
    1C        C  248   4.457   3.163   3.273
    1C        C  249   4.434   3.099   3.397
    1C        C  250   4.499   3.305   3.515
    1C        C  251   4.458   3.170   3.517
    1C        C  252   4.508   3.375   3.637
    1C        C  253   4.502   3.309   3.762
    1C        C  254   4.521   3.518   3.880
    1C        C  255   4.521   3.376   3.884
    1C        C  256   4.518   3.591   4.001
    1C        C  257   4.518   3.520   4.123
    1C        C  258   4.497   3.732   4.244
    1C        C  259   4.519   3.592   4.245
    1C        C  260   4.474   3.805   4.362
    1C        C  261   4.491   3.738   4.485
    1C        C  262   4.434   3.945   4.604
    1C        C  263   4.479   3.811   4.606
    1C        C  264   4.397   4.010   4.724
    1C        C  265   4.429   3.945   4.845
    1C        C  266   4.316   4.129   4.959
    1C        C  267   4.400   4.018   4.961
    1C        C  268   4.263   2.779   2.063
    1C        C  269   4.202   2.732   2.180
    1C        C  270   4.351   2.886   2.300
    1C        C  271   4.257   2.779   2.301
    1C        C  272   4.387   2.951   2.421
    1C        C  273   4.344   2.894   2.543
    1C        C  274   4.447   3.083   2.660
    1C        C  275   4.382   2.958   2.662
    1C        C  276   4.472   3.150   2.782
    1C        C  277   4.446   3.087   2.906
    1C        C  278   4.507   3.292   3.023
    1C        C  279   4.471   3.155   3.027
    1C        C  280   4.511   3.365   3.144
    1C        C  281   4.497   3.298   3.268
    1C        C  282   4.514   3.510   3.390
    1C        C  283   4.513   3.369   3.389
    1C        C  284   4.513   3.583   3.511
    1C        C  285   4.515   3.517   3.636
    1C        C  286   4.491   3.727   3.753
    1C        C  287   4.515   3.588   3.758
    1C        C  288   4.474   3.794   3.876
    1C        C  289   4.496   3.730   4.000
    1C        C  290   4.433   3.934   4.118
    1C        C  291   4.484   3.802   4.122
    1C        C  292   4.404   4.002   4.238
    1C        C  293   4.428   3.939   4.362
    1C        C  294   4.331   4.131   4.478
    1C        C  295   4.400   4.007   4.482
    1C        C  296   4.288   4.191   4.597
    1C        C  297   4.326   4.133   4.720
    1C        C  298   4.200   4.312   4.837
    1C        C  299   4.282   4.195   4.840
    1C        C  300   4.174   4.400   4.947
    1C        C  301   4.352   2.886   2.060
    1C        C  302   4.473   3.064   2.179
    1C        C  303   4.404   2.938   2.179
    1C        C  304   4.487   3.141   2.298
    1C        C  305   4.450   3.077   2.418
    1C        C  306   4.506   3.286   2.538
    1C        C  307   4.476   3.148   2.537
    1C        C  308   4.518   3.358   2.659
    1C        C  309   4.508   3.286   2.780
    1C        C  310   4.517   3.502   2.901
    1C        C  311   4.514   3.361   2.900
    1C        C  312   4.515   3.574   3.022
    1C        C  313   4.516   3.506   3.146
    1C        C  314   4.486   3.718   3.267
    1C        C  315   4.511   3.579   3.267
    1C        C  316   4.472   3.789   3.388
    1C        C  317   4.490   3.723   3.511
    1C        C  318   4.429   3.930   3.632
    1C        C  319   4.475   3.796   3.631
    1C        C  320   4.395   3.992   3.754
    1C        C  321   4.423   3.926   3.875
    1C        C  322   4.320   4.114   3.993
    1C        C  323   4.393   3.993   3.996
    1C        C  324   4.281   4.173   4.115
    1C        C  325   4.328   4.121   4.237
    1C        C  326   4.185   4.284   4.353
    1C        C  327   4.286   4.186   4.355
    1C        C  328   4.137   4.340   4.474
    1C        C  329   4.194   4.297   4.596
    1C        C  330   4.025   4.436   4.714
    1C        C  331   4.137   4.348   4.714
    1C        C  332   3.970   4.487   4.833
    1C        C  333   4.056   4.474   4.943
    1C        C  334   4.558   3.265   2.068
    1C        C  335   4.531   3.128   2.066
    1C        C  336   4.542   3.352   2.177
    1C        C  337   4.520   3.279   2.296
    1C        C  338   4.524   3.495   2.414
    1C        C  339   4.527   3.354   2.416
    1C        C  340   4.517   3.569   2.534
    1C        C  341   4.521   3.499   2.656
    1C        C  342   4.495   3.711   2.775
    1C        C  343   4.515   3.571   2.778
    1C        C  344   4.480   3.780   2.897
    1C        C  345   4.494   3.714   3.021
    1C        C  346   4.421   3.915   3.138
    1C        C  347   4.466   3.782   3.142
    1C        C  348   4.392   3.983   3.259
    1C        C  349   4.427   3.923   3.382
    1C        C  350   4.319   4.103   3.503
    1C        C  351   4.398   3.985   3.506
    1C        C  352   4.276   4.164   3.623
    1C        C  353   4.317   4.109   3.747
    1C        C  354   4.178   4.268   3.865
    1C        C  355   4.277   4.167   3.869
    1C        C  356   4.129   4.323   3.986
    1C        C  357   4.181   4.274   4.108
    1C        C  358   4.012   4.403   4.231
    1C        C  359   4.128   4.322   4.229
    1C        C  360   3.953   4.447   4.351
    1C        C  361   4.017   4.415   4.473
    1C        C  362   3.830   4.521   4.595
    1C        C  363   3.959   4.462   4.592
    1C        C  364   3.762   4.547   4.716
    1C        C  365   3.840   4.543   4.833
    1C        C  366   3.631   4.592   4.950
    1C        C  367   3.768   4.573   4.950
    1C        C  368   4.511   3.562   2.053
    1C        C  369   4.533   3.493   2.173
    1C        C  370   4.507   3.707   2.288
    1C        C  371   4.523   3.567   2.292
    1C        C  372   4.489   3.778   2.409
    1C        C  373   4.506   3.710   2.532
    1C        C  374   4.428   3.911   2.650
    1C        C  375   4.481   3.780   2.652
    1C        C  376   4.396   3.974   2.772
    1C        C  377   4.424   3.909   2.895
    1C        C  378   4.326   4.101   3.014
    1C        C  379   4.399   3.980   3.014
    1C        C  380   4.278   4.158   3.134
    1C        C  381   4.316   4.101   3.258
    1C        C  382   4.180   4.261   3.375
    1C        C  383   4.276   4.158   3.381
    1C        C  384   4.125   4.307   3.497
    1C        C  385   4.179   4.267   3.621
    1C        C  386   4.005   4.391   3.744
    1C        C  387   4.123   4.312   3.742
    1C        C  388   3.946   4.429   3.866
    1C        C  389   4.011   4.400   3.988
    1C        C  390   3.820   4.493   4.106
    1C        C  391   3.949   4.436   4.109
    1C        C  392   3.755   4.518   4.229
    1C        C  393   3.823   4.503   4.351
    1C        C  394   3.619   4.553   4.476
    1C        C  395   3.758   4.529   4.474
    1C        C  396   3.547   4.564   4.596
    1C        C  397   3.621   4.558   4.717
    1C        C  398   3.410   4.551   4.842
    1C        C  399   3.550   4.573   4.838
    1C        C  400   3.341   4.520   4.960
    1C        C  401   4.502   3.700   2.052
    1C        C  402   4.452   3.914   2.166
    1C        C  403   4.492   3.779   2.167
    1C        C  404   4.411   3.975   2.286
    1C        C  405   4.440   3.911   2.409
    1C        C  406   4.328   4.097   2.529
    1C        C  407   4.404   3.978   2.528
    1C        C  408   4.283   4.155   2.650
    1C        C  409   4.323   4.095   2.772
    1C        C  410   4.176   4.250   2.887
    1C        C  411   4.278   4.154   2.892
    1C        C  412   4.122   4.297   3.009
    1C        C  413   4.178   4.258   3.133
    1C        C  414   4.003   4.382   3.252
    1C        C  415   4.121   4.304   3.254
    1C        C  416   3.946   4.418   3.376
    1C        C  417   4.007   4.385   3.499
    1C        C  418   3.816   4.479   3.616
    1C        C  419   3.945   4.423   3.620
    1C        C  420   3.749   4.508   3.737
    1C        C  421   3.814   4.481   3.860
    1C        C  422   3.612   4.533   3.988
    1C        C  423   3.751   4.508   3.983
    1C        C  424   3.542   4.537   4.110
    1C        C  425   3.615   4.538   4.231
    1C        C  426   3.406   4.549   4.358
    1C        C  427   3.547   4.555   4.354
    1C        C  428   3.334   4.547   4.479
    1C        C  429   3.406   4.559   4.600
    1C        C  430   3.196   4.517   4.722
    1C        C  431   3.336   4.545   4.722
    1C        C  432   3.130   4.493   4.845
    1C        C  433   3.207   4.485   4.961
    1C        C  434   4.389   4.126   2.055
    1C        C  435   4.449   3.999   2.055
    1C        C  436   4.307   4.165   2.165
    1C        C  437   4.333   4.094   2.286
    1C        C  438   4.184   4.249   2.404
    1C        C  439   4.287   4.152   2.406
    1C        C  440   4.129   4.301   2.523
    1C        C  441   4.183   4.254   2.645
    1C        C  442   4.009   4.382   2.765
    1C        C  443   4.123   4.299   2.765
    1C        C  444   3.947   4.417   2.887
    1C        C  445   4.006   4.378   3.009
    1C        C  446   3.813   4.473   3.129
    1C        C  447   3.942   4.415   3.129
    1C        C  448   3.748   4.494   3.253
    1C        C  449   3.817   4.475   3.375
    1C        C  450   3.607   4.524   3.497
    1C        C  451   3.745   4.494   3.495
    1C        C  452   3.540   4.537   3.621
    1C        C  453   3.611   4.535   3.744
    1C        C  454   3.400   4.549   3.866
    1C        C  455   3.541   4.543   3.866
    1C        C  456   3.333   4.537   3.990
    1C        C  457   3.401   4.542   4.114
    1C        C  458   3.194   4.510   4.237
    1C        C  459   3.332   4.540   4.237
    1C        C  460   3.127   4.490   4.360
    1C        C  461   3.197   4.515   4.480
    1C        C  462   2.998   4.434   4.605
    1C        C  463   3.127   4.492   4.601
    1C        C  464   2.935   4.397   4.726
    1C        C  465   2.997   4.438   4.847
    1C        C  466   2.795   4.343   4.961
    1C        C  467   2.909   4.424   4.959
    1C        C  468   4.121   4.280   2.045
    1C        C  469   4.190   4.247   2.163
    1C        C  470   4.009   4.372   2.280
    1C        C  471   4.129   4.294   2.282
    1C        C  472   3.943   4.406   2.400
    1C        C  473   4.009   4.375   2.521
    1C        C  474   3.815   4.465   2.643
    1C        C  475   3.945   4.410   2.642
    1C        C  476   3.748   4.491   2.765
    1C        C  477   3.815   4.469   2.887
    1C        C  478   3.607   4.518   3.010
    1C        C  479   3.746   4.495   3.007
    1C        C  480   3.538   4.524   3.133
    1C        C  481   3.608   4.516   3.255
    1C        C  482   3.395   4.536   3.379
    1C        C  483   3.536   4.530   3.375
    1C        C  484   3.325   4.536   3.502
    1C        C  485   3.399   4.544   3.622
    1C        C  486   3.195   4.492   3.743
    1C        C  487   3.330   4.534   3.744
    1C        C  488   3.131   4.472   3.868
    1C        C  489   3.196   4.501   3.989
    1C        C  490   3.005   4.421   4.115
    1C        C  491   3.131   4.484   4.114
    1C        C  492   2.943   4.388   4.237
    1C        C  493   3.001   4.426   4.361
    1C        C  494   2.831   4.302   4.483
    1C        C  495   2.940   4.392   4.484
    1C        C  496   2.773   4.260   4.605
    1C        C  497   2.819   4.314   4.727
    1C        C  498   2.664   4.166   4.846
    1C        C  499   2.753   4.275   4.846
    1C        C  500   2.594   4.119   4.959
    1C        C  501   4.001   4.351   2.040
    1C        C  502   3.819   4.465   2.157
    1C        C  503   3.945   4.400   2.158
    1C        C  504   3.747   4.486   2.276
    1C        C  505   3.812   4.458   2.398
    1C        C  506   3.607   4.512   2.521
    1C        C  507   3.746   4.483   2.521
    1C        C  508   3.537   4.522   2.643
    1C        C  509   3.610   4.519   2.764
    1C        C  510   3.398   4.531   2.887
    1C        C  511   3.539   4.519   2.886
    1C        C  512   3.327   4.529   3.009
    1C        C  513   3.396   4.528   3.132
    1C        C  514   3.190   4.493   3.255
    1C        C  515   3.327   4.528   3.255
    1C        C  516   3.127   4.466   3.378
    1C        C  517   3.189   4.499   3.501
    1C        C  518   2.997   4.407   3.626
    1C        C  519   3.124   4.470   3.623
    1C        C  520   2.939   4.374   3.750
    1C        C  521   3.004   4.409   3.870
    1C        C  522   2.837   4.285   3.995
    1C        C  523   2.945   4.376   3.995
    1C        C  524   2.786   4.244   4.120
    1C        C  525   2.833   4.300   4.240
    1C        C  526   2.697   4.136   4.367
    1C        C  527   2.783   4.248   4.362
    1C        C  528   2.654   4.079   4.489
    1C        C  529   2.689   4.147   4.608
    1C        C  530   2.586   3.961   4.729
    1C        C  531   2.639   4.093   4.729
    1C        C  532   2.543   3.905   4.853
    1C        C  533   2.527   3.996   4.962
    1C        C  534   3.620   4.551   2.039
    1C        C  535   3.755   4.514   2.042
    1C        C  536   3.539   4.533   2.156
    1C        C  537   3.607   4.510   2.279
    1C        C  538   3.393   4.518   2.399
    1C        C  539   3.534   4.516   2.400
    1C        C  540   3.324   4.515   2.522
    1C        C  541   3.396   4.522   2.644
    1C        C  542   3.189   4.481   2.767
    1C        C  543   3.325   4.521   2.766
    1C        C  544   3.125   4.458   2.890
    1C        C  545   3.192   4.487   3.011
    1C        C  546   2.998   4.403   3.136
    1C        C  547   3.123   4.470   3.133
    1C        C  548   2.941   4.361   3.259
    1C        C  549   3.001   4.402   3.380
    1C        C  550   2.830   4.280   3.507
    1C        C  551   2.940   4.368   3.503
    1C        C  552   2.778   4.231   3.629
    1C        C  553   2.828   4.286   3.749
    1C        C  554   2.700   4.122   3.876
    1C        C  555   2.784   4.236   3.873
    1C        C  556   2.662   4.068   4.001
    1C        C  557   2.700   4.132   4.122
    1C        C  558   2.606   3.944   4.245
    1C        C  559   2.662   4.074   4.245
    1C        C  560   2.575   3.882   4.368
    1C        C  561   2.597   3.950   4.489
    1C        C  562   2.530   3.749   4.617
    1C        C  563   2.567   3.885   4.611
    1C        C  564   2.517   3.684   4.741
    1C        C  565   2.517   3.764   4.859
    1C        C  566   2.533   3.550   4.979
    1C        C  567   2.527   3.689   4.977
    1C        C  568   3.328   4.478   2.043
    1C        C  569   3.398   4.516   2.159
    1C        C  570   3.184   4.476   2.282
    1C        C  571   3.321   4.512   2.278
    1C        C  572   3.115   4.459   2.404
    1C        C  573   3.186   4.483   2.524
    1C        C  574   2.992   4.398   2.651
    1C        C  575   3.120   4.457   2.646
    1C        C  576   2.930   4.361   2.773
    1C        C  577   2.998   4.397   2.891
    1C        C  578   2.829   4.274   3.016
    1C        C  579   2.939   4.363   3.015
    1C        C  580   2.778   4.226   3.139
    1C        C  581   2.831   4.273   3.261
    1C        C  582   2.699   4.112   3.386
    1C        C  583   2.781   4.227   3.385
    1C        C  584   2.664   4.051   3.508
    1C        C  585   2.700   4.114   3.630
    1C        C  586   2.601   3.934   3.755
    1C        C  587   2.658   4.063   3.755
    1C        C  588   2.578   3.871   3.880
    1C        C  589   2.603   3.940   4.001
    1C        C  590   2.538   3.740   4.130
    1C        C  591   2.578   3.876   4.124
    1C        C  592   2.524   3.673   4.253
    1C        C  593   2.538   3.745   4.373
    1C        C  594   2.513   3.537   4.499
    1C        C  595   2.517   3.678   4.496
    1C        C  596   2.521   3.467   4.622
    1C        C  597   2.519   3.542   4.742
    1C        C  598   2.538   3.330   4.862
    1C        C  599   2.534   3.471   4.863
    1C        C  600   2.539   3.256   4.981
    1C        C  601   3.198   4.432   2.045
    1C        C  602   2.985   4.393   2.160
    1C        C  603   3.118   4.446   2.159
    1C        C  604   2.926   4.358   2.284
    1C        C  605   2.989   4.396   2.405
    1C        C  606   2.826   4.267   2.530
    1C        C  607   2.933   4.359   2.529
    1C        C  608   2.779   4.216   2.652
    1C        C  609   2.822   4.270   2.775
    1C        C  610   2.689   4.106   2.896
    1C        C  611   2.775   4.218   2.898
    1C        C  612   2.650   4.052   3.021
    1C        C  613   2.693   4.113   3.141
    1C        C  614   2.593   3.928   3.266
    1C        C  615   2.659   4.052   3.264
    1C        C  616   2.565   3.864   3.389
    1C        C  617   2.594   3.929   3.511
    1C        C  618   2.533   3.729   3.639
    1C        C  619   2.570   3.866   3.635
    1C        C  620   2.518   3.665   3.764
    1C        C  621   2.536   3.736   3.884
    1C        C  622   2.514   3.528   4.010
    1C        C  623   2.529   3.669   4.008
    1C        C  624   2.514   3.460   4.133
    1C        C  625   2.511   3.532   4.255
    1C        C  626   2.532   3.324   4.382
    1C        C  627   2.513   3.464   4.378
    1C        C  628   2.556   3.254   4.502
    1C        C  629   2.539   3.327   4.621
    1C        C  630   2.607   3.124   4.747
    1C        C  631   2.556   3.257   4.743
    1C        C  632   2.621   3.050   4.868
    1C        C  633   2.564   3.118   4.980
    1C        C  634   2.784   4.306   2.055
    1C        C  635   2.896   4.391   2.049
    1C        C  636   2.751   4.230   2.168
    1C        C  637   2.814   4.270   2.288
    1C        C  638   2.679   4.108   2.412
    1C        C  639   2.769   4.217   2.411
    1C        C  640   2.639   4.050   2.534
    1C        C  641   2.687   4.108   2.653
    1C        C  642   2.584   3.922   2.777
    1C        C  643   2.646   4.049   2.775
    1C        C  644   2.560   3.858   2.900
    1C        C  645   2.584   3.927   3.021
    1C        C  646   2.523   3.726   3.148
    1C        C  647   2.563   3.862   3.144
    1C        C  648   2.509   3.657   3.271
    1C        C  649   2.528   3.727   3.392
    1C        C  650   2.511   3.520   3.522
    1C        C  651   2.524   3.660   3.516
    1C        C  652   2.516   3.451   3.646
    1C        C  653   2.513   3.523   3.767
    1C        C  654   2.532   3.315   3.892
    1C        C  655   2.508   3.454   3.890
    1C        C  656   2.557   3.254   4.017
    1C        C  657   2.541   3.321   4.140
    1C        C  658   2.606   3.120   4.261
    1C        C  659   2.554   3.251   4.262
    1C        C  660   2.636   3.056   4.383
    1C        C  661   2.603   3.120   4.505
    1C        C  662   2.712   2.938   4.628
    1C        C  663   2.637   3.057   4.627
    1C        C  664   2.752   2.874   4.748
    1C        C  665   2.696   2.928   4.866
    1C        C  666   2.742   2.873   4.986
    1C        C  667   2.682   4.020   2.060
    1C        C  668   2.688   4.103   2.172
    1C        C  669   2.585   3.913   2.292
    1C        C  670   2.646   4.042   2.291
    1C        C  671   2.557   3.849   2.415
    1C        C  672   2.584   3.920   2.534
    1C        C  673   2.519   3.718   2.661
    1C        C  674   2.559   3.853   2.656
    1C        C  675   2.512   3.647   2.784
    1C        C  676   2.526   3.721   2.904
    1C        C  677   2.513   3.512   3.033
    1C        C  678   2.518   3.653   3.028
    1C        C  679   2.512   3.442   3.156
    1C        C  680   2.509   3.516   3.276
    1C        C  681   2.537   3.309   3.403
    1C        C  682   2.511   3.448   3.400
    1C        C  683   2.563   3.244   3.526
    1C        C  684   2.539   3.311   3.648
    1C        C  685   2.607   3.115   3.774
    1C        C  686   2.549   3.244   3.771
    1C        C  687   2.637   3.052   3.898
    1C        C  688   2.607   3.121   4.017
    1C        C  689   2.711   2.935   4.140
    1C        C  690   2.638   3.057   4.139
    1C        C  691   2.757   2.881   4.262
    1C        C  692   2.713   2.937   4.384
    1C        C  693   2.754   2.880   4.506
    1C        C  694   2.625   3.892   2.058
    1C        C  695   2.522   3.704   2.179
    1C        C  696   2.577   3.834   2.175
    1C        C  697   2.503   3.638   2.303
    1C        C  698   2.515   3.714   2.421
    1C        C  699   2.489   3.503   2.546
    1C        C  700   2.502   3.643   2.542
    1C        C  701   2.503   3.432   2.668
    1C        C  702   2.510   3.506   2.788
    1C        C  703   2.533   3.300   2.912
    1C        C  704   2.511   3.439   2.912
    1C        C  705   2.553   3.236   3.036
    1C        C  706   2.534   3.302   3.159
    1C        C  707   2.603   3.104   3.278
    1C        C  708   2.554   3.237   3.283
    1C        C  709   2.634   3.046   3.403
    1C        C  710   2.609   3.111   3.526
    1C        C  711   2.710   2.930   3.652
    1C        C  712   2.639   3.052   3.651
    1C        C  713   2.754   2.874   3.774
    1C        C  714   2.710   2.932   3.896
    1C        C  715   2.752   2.876   4.019
    1C        C  716   2.446   3.502   2.067
    1C        C  717   2.496   3.632   2.062
    1C        C  718   2.466   3.423   2.185
    1C        C  719   2.483   3.497   2.305
    1C        C  720   2.514   3.288   2.425
    1C        C  721   2.488   3.426   2.427
    1C        C  722   2.540   3.222   2.547
    1C        C  723   2.526   3.293   2.668
    1C        C  724   2.594   3.095   2.792
    1C        C  725   2.540   3.225   2.792
    1C        C  726   2.628   3.036   2.916
    1C        C  727   2.595   3.101   3.036
    1C        C  728   2.708   2.919   3.162
    1C        C  729   2.631   3.037   3.157
    1C        C  730   2.756   2.870   3.286
    1C        C  731   2.717   2.932   3.407
    1C        C  732   2.756   2.875   3.530
    1C        C  733   2.489   3.198   2.072
    1C        C  734   2.487   3.282   2.184
    1C        C  735   2.585   3.087   2.308
    1C        C  736   2.526   3.216   2.304
    1C        C  737   2.616   3.021   2.429
    1C        C  738   2.591   3.090   2.549
    1C        C  739   2.703   2.910   2.671
    1C        C  740   2.628   3.029   2.672
    1C        C  741   2.749   2.858   2.794
    1C        C  742   2.709   2.920   2.915
    1C        C  743   2.754   2.869   3.039
    1C        C  744   2.542   3.070   2.078
    1C        C  745   2.695   2.903   2.187
    1C        C  746   2.614   3.019   2.187
    1C        C  747   2.735   2.841   2.307
    1C        C  748   2.687   2.899   2.427
    1C        C  749   2.740   2.850   2.548
    1C        C  750   2.741   2.844   2.069
    1C        C  751   3.665   2.332   1.965
    1C        O  752   3.711   2.217   1.988
    1C        O  753   3.613   2.333   1.835
    1C        C  754   4.623   3.057   1.974
    1C        O  755   4.593   3.047   1.852
    1C        O  756   4.758   3.092   1.985
    1C        C  757   4.464   4.233   1.985
    1C        O  758   4.565   4.288   2.038
    1C        O  759   4.426   4.287   1.862
    1C        C  760   3.584   4.654   1.938
    1C        O  761   3.595   4.775   1.971
    1C        O  762   3.551   4.623   1.806
    1C        C  763   2.868   4.510   1.965
    1C        O  764   2.865   4.512   1.839
    1C        O  765   2.851   4.634   2.029
    1C        C  766   2.335   3.487   1.970
    1C        O  767   2.359   3.464   1.848
    1C        O  768   2.222   3.570   1.972
    1C        C  769   4.717   3.607   5.031
    1C        O  770   4.747   3.500   5.090
    1C        O  771   4.831   3.645   4.960
    1C        C  772   4.288   4.478   5.001
    1C        O  773   4.358   4.426   5.092
    1C        O  774   4.365   4.574   4.935
    1C        C  775   4.143   2.485   5.039
    1C        O  776   4.160   2.368   4.995
    1C        O  777   4.201   2.494   5.167
    1C        C  778   2.899   4.526   5.066
    1C        O  779   2.844   4.639   5.056
    1C        O  780   2.916   4.495   5.202
    1C        C  781   2.466   3.042   5.060
    1C        O  782   2.366   2.989   5.003
    1C        O  783   2.444   3.092   5.188
    1C        C  784   2.427   3.994   5.070
    1C        O  785   2.306   3.969   5.045
    1C        O  786   2.446   3.993   5.209
    1C        C  787   2.959   2.426   1.990
    1C        O  788   2.938   2.462   1.871
    1C        O  789   2.872   2.328   2.037
    1C        C  790   3.194   2.382   5.075
    1C        O  791   3.213   2.261   5.043
    1C        O  792   3.236   2.414   5.204
    1C        H  793   4.242   3.035   5.034
    1C        H  794   4.222   2.786   5.073
    1C        H  795   4.517   3.131   5.057
    1C        H  796   4.536   3.376   5.067
    1C        H  797   4.565   3.807   5.049
    1C        H  798   4.449   3.990   5.052
    1C        H  799   4.334   4.192   5.043
    1C        H  800   4.031   4.525   5.034
    1C        H  801   3.823   4.584   5.041
    1C        H  802   3.601   4.656   5.031
    1C        H  803   3.402   4.517   5.049
    1C        H  804   3.176   4.424   5.044
    1C        H  805   3.900   2.471   5.057
    1C        H  806   3.674   2.509   5.073
    1C        H  807   3.023   2.575   5.078
    1C        H  808   3.450   2.412   5.057
    1C        H  809   2.912   2.777   5.066
    1C        H  810   2.713   2.917   5.079
    1C        H  811   2.470   3.294   5.053
    1C        H  812   2.573   3.506   5.068
    1C        H  813   2.524   3.735   5.073
    1C        H  814   2.607   4.174   5.049
    1C        H  815   2.772   4.298   5.055
    1C        H  816   2.690   2.857   1.976
    1C        H  817   2.877   2.704   1.981
    1C        H  818   3.202   2.403   1.998
    1C        H  819   3.427   2.481   1.991
    1C        H  820   3.835   2.554   1.975
    1C        H  821   4.086   2.573   1.987
    1C        H  822   4.285   2.708   1.985
    1C        H  823   4.344   2.945   1.972
    1C        H  824   4.599   3.306   1.978
    1C        H  825   4.454   3.509   1.979
    1C        H  826   4.554   3.753   1.974
    1C        H  827   3.804   4.507   1.948
    1C        H  828   3.934   4.322   1.962
    1C        H  829   4.176   4.277   1.954
    1C        H  830   4.492   3.971   1.961
    1C        H  831   2.654   3.833   1.973
    1C        H  832   2.710   4.060   1.965
    1C        H  833   2.720   4.304   1.970
    1C        H  834   3.353   4.522   1.949
    1C        H  835   3.180   4.352   1.976
    1C        H  836   2.508   2.997   2.008
    1C        H  837   2.478   3.243   1.975
    1C        H  838   2.530   3.669   1.967
    2V3OU   H29  839   2.806   3.545   0.884
    2V3OU   C27  840   2.789   3.498   0.985
    2V3OU   H27  841   2.727   3.563   1.052
    2V3OU   H28  842   2.733   3.403   0.964
    2V3OU   O11  843   2.912   3.476   1.054
    2V3OU   C15  844   2.923   3.391   1.162
    2V3OU   C13  845   3.052   3.377   1.218
    2V3OU   C14  846   3.076   3.276   1.311
    2V3OU   C16  847   2.972   3.192   1.349
    2V3OU    H6  848   2.993   3.106   1.413
    2V3OU   C12  849   3.213   3.229   1.341
    2V3OU    O2  850   3.234   3.118   1.396
    2V3OU   C10  851   3.328   3.310   1.297
    2V3OU    C8  852   3.459   3.276   1.328
    2V3OU   O10  853   3.487   3.160   1.395
    2V3OU   H26  854   3.399   3.124   1.413
    2V3OU    C6  855   3.571   3.355   1.286
    2V3OU    C5  856   3.543   3.467   1.210
    2V3OU    C4  857   3.708   3.295   1.282
    2V3OU    H4  858   3.730   3.226   1.369
    2V3OU    H5  859   3.711   3.233   1.188
    2V3OU    C2  860   3.818   3.400   1.270
    2V3OU    O6  861   3.808   3.482   1.387
    2V3OU   H21  862   3.764   3.562   1.353
    2V3OU    C3  863   3.784   3.494   1.154
    2V3OU    H2  864   3.861   3.576   1.161
    2V3OU    H3  865   3.784   3.444   1.054
    2V3OU   C25  866   3.954   3.333   1.253
    2V3OU    O7  867   4.000   3.304   1.143
    2V3OU   C26  868   4.034   3.297   1.378
    2V3OU   H22  869   4.075   3.384   1.434
    2V3OU   H23  870   4.122   3.233   1.350
    2V3OU    O8  871   3.964   3.214   1.468
    2V3OU   H24  872   3.932   3.262   1.546
    2V3OU    C1  873   3.650   3.564   1.170
    2V3OU    H1  874   3.625   3.616   1.073
    2V3OU    O3  875   3.662   3.656   1.279
    2V3OU   C19  876   3.620   3.791   1.257
    2V3OU    H9  877   3.519   3.801   1.207
    2V3OU    O4  878   3.717   3.850   1.174
    2V3OU   C20  879   3.847   3.874   1.229
    2V3OU   H10  880   3.896   3.775   1.252
    2V3OU   C24  881   3.610   3.852   1.397
    2V3OU   H16  882   3.539   3.785   1.453
    2V3OU   H17  883   3.567   3.955   1.387
    2V3OU   C23  884   3.749   3.876   1.455
    2V3OU   H15  885   3.794   3.773   1.471
    2V3OU    N1  886   3.737   3.953   1.577
    2V3OU   H19  887   3.807   3.928   1.644
    2V3OU   H20  888   3.650   3.931   1.623
    2V3OU   C21  889   3.848   3.952   1.361
    2V3OU   H11  890   3.953   3.929   1.393
    2V3OU    O5  891   3.818   4.091   1.355
    2V3OU   H18  892   3.788   4.112   1.445
    2V3OU   C22  893   3.915   3.947   1.113
    2V3OU   H12  894   3.869   4.048   1.100
    2V3OU   H13  895   3.902   3.890   1.018
    2V3OU   H14  896   4.025   3.957   1.131
    2V3OU   C11  897   3.161   3.476   1.209
    2V3OU    O1  898   3.140   3.590   1.165
    2V3OU    C9  899   3.300   3.427   1.222
    2V3OU    C7  900   3.408   3.503   1.179
    2V3OU    O9  901   3.388   3.621   1.111
    2V3OU   H25  902   3.292   3.626   1.124
    2V3OU   C17  903   2.816   3.315   1.214
    2V3OU    H7  904   2.712   3.339   1.193
    2V3OU   C18  905   2.842   3.213   1.304
    2V3OU    H8  906   2.754   3.152   1.331
    3SOL     OW  907   0.689   4.188   0.701
    3SOL    HW1  908   0.717   4.134   0.621
    3SOL    HW2  909   0.768   4.206   0.759
    4SOL     OW  910   5.909   1.264   2.004
    4SOL    HW1  911   5.976   1.226   2.067
    4SOL    HW2  912   5.826   1.208   2.005
    5SOL     OW  913   3.641   2.986   1.198
    5SOL    HW1  914   3.588   3.063   1.233
    5SOL    HW2  915   3.689   2.942   1.273
    6SOL     OW  916   2.857   2.281   0.179
    6SOL    HW1  917   2.909   2.215   0.125
    6SOL    HW2  918   2.778   2.236   0.220
    7SOL     OW  919   5.912   0.951   1.605
    7SOL    HW1  920   5.837   0.908   1.555
    7SOL    HW2  921   5.902   0.932   1.703
    8SOL     OW  922   3.014   1.920   3.499
    8SOL    HW1  923   3.027   1.843   3.561
    8SOL    HW2  924   2.938   1.976   3.531
    9SOL     OW  925   6.859   4.253   5.958
    9SOL    HW1  926   6.862   4.179   5.891
    9SOL    HW2  927   6.822   4.335   5.916
   10SOL     OW  928   0.440   4.477   0.894
   10SOL    HW1  929   0.381   4.489   0.973
   10SOL    HW2  930   0.433   4.383   0.861
   11SOL     OW  931   4.462   6.850   6.700
   11SOL    HW1  932   4.453   6.925   6.765
   11SOL    HW2  933   4.558   6.831   6.682
   12SOL     OW  934   5.265   6.456   1.961
   12SOL    HW1  935   5.251   6.429   2.056
   12SOL    HW2  936   5.259   6.375   1.902
   13SOL     OW  937   1.496   0.479   2.936
   13SOL    HW1  938   1.440   0.480   2.853
   13SOL    HW2  939   1.538   0.569   2.950
   14SOL     OW  940   2.982   6.687   2.989
   14SOL    HW1  941   3.065   6.665   3.041
   14SOL    HW2  942   3.008   6.724   2.900
   15SOL     OW  943   2.468   6.409   6.611
   15SOL    HW1  944   2.382   6.398   6.561
   15SOL    HW2  945   2.528   6.331   6.594
   16SOL     OW  946   6.499   2.155   0.036
   16SOL    HW1  947   6.524   2.248   0.010
   16SOL    HW2  948   6.402   2.152   0.060
   17SOL     OW  949   4.279   6.161   2.940
   17SOL    HW1  950   4.290   6.162   3.040
   17SOL    HW2  951   4.236   6.076   2.912
   18SOL     OW  952   1.559   0.888   6.966
   18SOL    HW1  953   1.525   0.915   6.876
   18SOL    HW2  954   1.658   0.874   6.961
   19SOL     OW  955   1.011   7.020   1.238
   19SOL    HW1  956   1.003   6.942   1.300
   19SOL    HW2  957   1.080   0.058   1.273
   20SOL     OW  958   3.427   0.884   4.043
   20SOL    HW1  959   3.473   0.795   4.045
   20SOL    HW2  960   3.456   0.935   3.962
   21SOL     OW  961   3.137   3.009   1.665
   21SOL    HW1  962   3.039   2.999   1.679
   21SOL    HW2  963   3.171   3.084   1.722
   22SOL     OW  964   0.853   1.099   5.612
   22SOL    HW1  965   0.893   1.173   5.559
   22SOL    HW2  966   0.926   1.045   5.654
   23SOL     OW  967   3.144   6.058   4.849
   23SOL    HW1  968   3.134   5.984   4.915
   23SOL    HW2  969   3.098   6.032   4.764
   24SOL     OW  970   3.998   1.469   4.887
   24SOL    HW1  971   4.019   1.562   4.919
   24SOL    HW2  972   3.906   1.467   4.849
   25SOL     OW  973   2.232   5.267   0.954
   25SOL    HW1  974   2.242   5.183   1.007
   25SOL    HW2  975   2.294   5.264   0.875
   26SOL     OW  976   5.901   1.038   2.987
   26SOL    HW1  977   5.915   1.104   2.913
   26SOL    HW2  978   5.806   1.006   2.986
   27SOL     OW  979   6.334   0.245   2.410
   27SOL    HW1  980   6.412   0.191   2.377
   27SOL    HW2  981   6.357   0.284   2.499
   28SOL     OW  982   2.743   0.392   0.514
   28SOL    HW1  983   2.776   0.467   0.457
   28SOL    HW2  984   2.820   0.341   0.551
   29SOL     OW  985   4.363   2.980   1.716
   29SOL    HW1  986   4.447   3.010   1.760
   29SOL    HW2  987   4.368   2.882   1.697
   30SOL     OW  988   3.999   1.313   5.130
   30SOL    HW1  989   4.045   1.226   5.114
   30SOL    HW2  990   3.999   1.367   5.046
   31SOL     OW  991   0.627   1.200   5.276
   31SOL    HW1  992   0.596   1.267   5.209
   31SOL    HW2  993   0.548   1.156   5.318
   32SOL     OW  994   0.122   2.087   2.256
   32SOL    HW1  995   0.153   2.144   2.180
   32SOL    HW2  996   0.183   2.008   2.266
   33SOL     OW  997   1.574   1.664   5.754
   33SOL    HW1  998   1.566   1.609   5.671
   33SOL    HW2  999   1.651   1.632   5.809
   34SOL     OW 1000   0.579   0.587   5.138
   34SOL    HW1 1001   0.678   0.571   5.143
   34SOL    HW2 1002   0.555   0.615   5.044
   35SOL     OW 1003   3.900   1.962   6.074
   35SOL    HW1 1004   3.980   1.997   6.123
   35SOL    HW2 1005   3.817   2.004   6.112
   36SOL     OW 1006   1.344   1.649   5.938
   36SOL    HW1 1007   1.278   1.616   5.871
   36SOL    HW2 1008   1.434   1.658   5.895
   37SOL     OW 1009   2.394   6.180   1.145
   37SOL    HW1 1010   2.406   6.163   1.243
   37SOL    HW2 1011   2.484   6.195   1.103
   38SOL     OW 1012   0.057   6.182   1.992
   38SOL    HW1 1013   6.986   6.175   1.968
   38SOL    HW2 1014   0.107   6.104   1.954
   39SOL     OW 1015   6.837   2.665   6.211
   39SOL    HW1 1016   6.912   2.730   6.224
   39SOL    HW2 1017   6.762   2.710   6.164
   40SOL     OW 1018   0.024   1.112   1.090
   40SOL    HW1 1019   7.004   1.029   1.057
   40SOL    HW2 1020   0.112   1.088   1.131
   41SOL     OW 1021   1.383   0.934   5.976
   41SOL    HW1 1022   1.478   0.962   5.983
   41SOL    HW2 1023   1.345   0.921   6.068
   42SOL     OW 1024   3.832   0.195   0.760
   42SOL    HW1 1025   3.868   0.260   0.828
   42SOL    HW2 1026   3.862   0.224   0.669
   43SOL     OW 1027   4.516   5.555   5.208
   43SOL    HW1 1028   4.534   5.652   5.192
   43SOL    HW2 1029   4.600   5.502   5.194
   44SOL     OW 1030   1.183   3.628   6.893
   44SOL    HW1 1031   1.172   3.644   6.794
   44SOL    HW2 1032   1.258   3.685   6.927
   45SOL     OW 1033   2.496   0.361   1.200
   45SOL    HW1 1034   2.422   0.294   1.187
   45SOL    HW2 1035   2.512   0.373   1.298
   46SOL     OW 1036   1.070   5.088   4.207
   46SOL    HW1 1037   1.109   5.180   4.197
   46SOL    HW2 1038   1.075   5.060   4.302
   47SOL     OW 1039   5.499   4.329   2.448
   47SOL    HW1 1040   5.590   4.370   2.453
   47SOL    HW2 1041   5.430   4.396   2.477
   48SOL     OW 1042   0.641   0.978   5.466
   48SOL    HW1 1043   0.682   1.055   5.416
   48SOL    HW2 1044   0.674   0.977   5.560
   49SOL     OW 1045   5.622   3.502   0.300
   49SOL    HW1 1046   5.556   3.563   0.256
   49SOL    HW2 1047   5.655   3.435   0.234
   50SOL     OW 1048   7.012   3.707   4.960
   50SOL    HW1 1049   0.059   3.767   4.927
   50SOL    HW2 1050   6.931   3.718   4.903
   51SOL     OW 1051   3.364   5.745   2.147
   51SOL    HW1 1052   3.424   5.760   2.226
   51SOL    HW2 1053   3.292   5.680   2.171
   52SOL     OW 1054   0.895   2.180   2.090
   52SOL    HW1 1055   0.816   2.238   2.069
   52SOL    HW2 1056   0.945   2.218   2.167
   53SOL     OW 1057   5.119   6.220   4.117
   53SOL    HW1 1058   5.131   6.130   4.160
   53SOL    HW2 1059   5.135   6.292   4.185
   54SOL     OW 1060   5.163   4.624   5.607
   54SOL    HW1 1061   5.129   4.702   5.659
   54SOL    HW2 1062   5.114   4.541   5.635
   55SOL     OW 1063   3.655   1.694   0.880
   55SOL    HW1 1064   3.644   1.670   0.977
   55SOL    HW2 1065   3.565   1.717   0.841
   56SOL     OW 1066   0.388   6.829   1.736
   56SOL    HW1 1067   0.313   6.859   1.794
   56SOL    HW2 1068   0.399   6.730   1.744
   57SOL     OW 1069   5.392   1.160   1.369
   57SOL    HW1 1070   5.452   1.120   1.300
   57SOL    HW2 1071   5.296   1.148   1.341
   58SOL     OW 1072   6.852   0.185   6.744
   58SOL    HW1 1073   6.856   0.125   6.824
   58SOL    HW2 1074   6.773   0.247   6.753
   59SOL     OW 1075   1.134   0.010   4.859
   59SOL    HW1 1076   1.132   0.012   4.959
   59SOL    HW2 1077   1.072   6.964   4.826
   60SOL     OW 1078   5.209   7.012   4.984
   60SOL    HW1 1079   5.233   7.018   5.081
   60SOL    HW2 1080   5.118   6.971   4.975
   61SOL     OW 1081   4.150   0.119   5.303
   61SOL    HW1 1082   4.131   0.031   5.258
   61SOL    HW2 1083   4.183   0.184   5.236
   62SOL     OW 1084   3.111   0.696   5.128
   62SOL    HW1 1085   3.014   0.679   5.108
   62SOL    HW2 1086   3.132   0.793   5.111
   63SOL     OW 1087   6.894   3.039   3.626
   63SOL    HW1 1088   6.884   3.061   3.529
   63SOL    HW2 1089   6.940   2.950   3.635
   64SOL     OW 1090   0.073   2.104   5.631
   64SOL    HW1 1091   0.118   2.193   5.632
   64SOL    HW2 1092   0.065   2.069   5.724
   65SOL     OW 1093   0.925   3.485   5.616
   65SOL    HW1 1094   1.009   3.434   5.630
   65SOL    HW2 1095   0.902   3.486   5.518
   66SOL     OW 1096   2.464   0.816   1.046
   66SOL    HW1 1097   2.439   0.724   1.077
   66SOL    HW2 1098   2.533   0.854   1.108
   67SOL     OW 1099   4.769   5.503   4.035
   67SOL    HW1 1100   4.681   5.460   4.054
   67SOL    HW2 1101   4.805   5.542   4.120
   68SOL     OW 1102   5.295   2.603   6.698
   68SOL    HW1 1103   5.302   2.613   6.797
   68SOL    HW2 1104   5.380   2.565   6.661
   69SOL     OW 1105   2.417   2.764   6.017
   69SOL    HW1 1106   2.437   2.862   6.016
   69SOL    HW2 1107   2.484   2.716   5.960
   70SOL     OW 1108   6.023   6.554   2.312
   70SOL    HW1 1109   5.949   6.486   2.314
   70SOL    HW2 1110   5.983   6.645   2.320
   71SOL     OW 1111   2.068   4.008   2.651
   71SOL    HW1 1112   2.130   4.079   2.615
   71SOL    HW2 1113   2.053   4.024   2.748
   72SOL     OW 1114   3.516   5.430   3.486
   72SOL    HW1 1115   3.438   5.428   3.424
   72SOL    HW2 1116   3.484   5.418   3.580
   73SOL     OW 1117   3.583   2.552   6.748
   73SOL    HW1 1118   3.661   2.546   6.686
   73SOL    HW2 1119   3.555   2.647   6.758
   74SOL     OW 1120   5.331   6.573   6.193
   74SOL    HW1 1121   5.321   6.483   6.151
   74SOL    HW2 1122   5.241   6.616   6.202
   75SOL     OW 1123   3.288   5.008   5.377
   75SOL    HW1 1124   3.331   4.930   5.332
   75SOL    HW2 1125   3.195   4.983   5.405
   76SOL     OW 1126   2.550   3.057   0.998
   76SOL    HW1 1127   2.628   3.079   0.939
   76SOL    HW2 1128   2.490   3.136   1.005
   77SOL     OW 1129   5.253   4.419   6.393
   77SOL    HW1 1130   5.237   4.325   6.423
   77SOL    HW2 1131   5.166   4.462   6.369
   78SOL     OW 1132   6.160   6.514   6.178
   78SOL    HW1 1133   6.193   6.553   6.092
   78SOL    HW2 1134   6.068   6.549   6.198
   79SOL     OW 1135   3.436   6.722   0.530
   79SOL    HW1 1136   3.403   6.649   0.591
   79SOL    HW2 1137   3.385   6.806   0.549
   80SOL     OW 1138   0.284   0.853   4.596
   80SOL    HW1 1139   0.335   0.839   4.681
   80SOL    HW2 1140   0.342   0.898   4.529
   81SOL     OW 1141   1.702   0.271   3.741
   81SOL    HW1 1142   1.673   0.192   3.688
   81SOL    HW2 1143   1.750   0.336   3.682
   82SOL     OW 1144   6.731   4.454   5.772
   82SOL    HW1 1145   6.793   4.504   5.711
   82SOL    HW2 1146   6.636   4.479   5.750
   83SOL     OW 1147   6.456   6.753   6.364
   83SOL    HW1 1148   6.512   6.694   6.423
   83SOL    HW2 1149   6.489   6.746   6.270
   84SOL     OW 1150   6.040   3.894   1.672
   84SOL    HW1 1151   6.050   3.981   1.721
   84SOL    HW2 1152   6.065   3.819   1.733
   85SOL     OW 1153   1.129   1.147   5.462
   85SOL    HW1 1154   1.178   1.229   5.430
   85SOL    HW2 1155   1.101   1.092   5.383
   86SOL     OW 1156   2.180   1.197   4.596
   86SOL    HW1 1157   2.279   1.188   4.591
   86SOL    HW2 1158   2.154   1.293   4.591
   87SOL     OW 1159   4.600   6.751   1.876
   87SOL    HW1 1160   4.629   6.846   1.882
   87SOL    HW2 1161   4.600   6.710   1.968
   88SOL     OW 1162   5.965   0.569   1.036
   88SOL    HW1 1163   5.961   0.610   1.127
   88SOL    HW2 1164   5.908   0.486   1.035
   89SOL     OW 1165   2.248   1.590   5.489
   89SOL    HW1 1166   2.210   1.659   5.429
   89SOL    HW2 1167   2.179   1.560   5.555
   90SOL     OW 1168   6.633   5.892   3.151
   90SOL    HW1 1169   6.558   5.926   3.095
   90SOL    HW2 1170   6.626   5.793   3.161
   91SOL     OW 1171   4.397   4.973   4.853
   91SOL    HW1 1172   4.350   4.955   4.939
   91SOL    HW2 1173   4.386   4.895   4.792
   92SOL     OW 1174   3.007   6.062   1.579
   92SOL    HW1 1175   3.013   6.001   1.500
   92SOL    HW2 1176   3.084   6.043   1.641
   93SOL     OW 1177   3.191   4.702   5.871
   93SOL    HW1 1178   3.277   4.748   5.892
   93SOL    HW2 1179   3.181   4.693   5.772
   94SOL     OW 1180   2.438   6.538   1.817
   94SOL    HW1 1181   2.465   6.572   1.907
   94SOL    HW2 1182   2.449   6.439   1.814
   95SOL     OW 1183   6.939   0.332   5.221
   95SOL    HW1 1184   6.935   0.238   5.257
   95SOL    HW2 1185   6.947   0.329   5.121
   96SOL     OW 1186   1.987   0.161   5.028
   96SOL    HW1 1187   1.888   0.145   5.029
   96SOL    HW2 1188   2.027   0.113   4.950
   97SOL     OW 1189   5.990   3.100   4.678
   97SOL    HW1 1190   5.976   3.140   4.587
   97SOL    HW2 1191   5.993   3.000   4.670
   98SOL     OW 1192   5.725   1.659   5.949
   98SOL    HW1 1193   5.814   1.689   5.983
   98SOL    HW2 1194   5.655   1.679   6.016
   99SOL     OW 1195   4.926   1.899   1.152
   99SOL    HW1 1196   4.912   1.905   1.053
   99SOL    HW2 1197   4.882   1.976   1.198
  100SOL     OW 1198   6.049   5.623   6.545
  100SOL    HW1 1199   6.063   5.722   6.545
  100SOL    HW2 1200   6.137   5.576   6.553
  101SOL     OW 1201   0.881   6.413   4.669
  101SOL    HW1 1202   0.935   6.462   4.601
  101SOL    HW2 1203   0.784   6.425   4.650
  102SOL     OW 1204   4.514   0.395   3.289
  102SOL    HW1 1205   4.415   0.396   3.276
  102SOL    HW2 1206   4.535   0.414   3.385
  103SOL     OW 1207   3.531   2.087   1.530
  103SOL    HW1 1208   3.569   1.998   1.553
  103SOL    HW2 1209   3.528   2.145   1.611
  104SOL     OW 1210   0.387   6.225   2.191
  104SOL    HW1 1211   0.339   6.183   2.267
  104SOL    HW2 1212   0.400   6.158   2.118
  105SOL     OW 1213   5.403   1.363   5.792
  105SOL    HW1 1214   5.328   1.409   5.743
  105SOL    HW2 1215   5.379   1.268   5.808
  106SOL     OW 1216   3.429   6.312   1.233
  106SOL    HW1 1217   3.349   6.273   1.278
  106SOL    HW2 1218   3.501   6.243   1.227
  107SOL     OW 1219   2.445   3.029   0.631
  107SOL    HW1 1220   2.506   2.994   0.561
  107SOL    HW2 1221   2.457   2.977   0.716
  108SOL     OW 1222   4.838   4.145   5.100
  108SOL    HW1 1223   4.838   4.045   5.097
  108SOL    HW2 1224   4.743   4.178   5.105
  109SOL     OW 1225   6.079   0.519   1.379
  109SOL    HW1 1226   6.169   0.549   1.410
  109SOL    HW2 1227   6.018   0.510   1.457
  110SOL     OW 1228   3.531   6.269   4.541
  110SOL    HW1 1229   3.565   6.341   4.601
  110SOL    HW2 1230   3.437   6.246   4.566
  111SOL     OW 1231   2.997   1.142   3.333
  111SOL    HW1 1232   3.012   1.046   3.358
  111SOL    HW2 1233   3.063   1.168   3.262
  112SOL     OW 1234   6.865   1.331   6.520
  112SOL    HW1 1235   6.795   1.389   6.479
  112SOL    HW2 1236   6.883   1.253   6.460
  113SOL     OW 1237   7.010   6.476   3.627
  113SOL    HW1 1238   6.965   6.566   3.625
  113SOL    HW2 1239   7.015   6.440   3.533
  114SOL     OW 1240   1.334   6.443   0.214
  114SOL    HW1 1241   1.343   6.355   0.262
  114SOL    HW2 1242   1.337   6.427   0.116
  115SOL     OW 1243   5.539   0.740   5.533
  115SOL    HW1 1244   5.628   0.721   5.490
  115SOL    HW2 1245   5.541   0.711   5.628
  116SOL     OW 1246   6.244   4.165   2.525
  116SOL    HW1 1247   6.200   4.200   2.609
  116SOL    HW2 1248   6.328   4.117   2.549
  117SOL     OW 1249   1.210   6.936   6.440
  117SOL    HW1 1250   1.281   6.963   6.505
  117SOL    HW2 1251   1.145   7.011   6.429
  118SOL     OW 1252   1.908   0.877   3.029
  118SOL    HW1 1253   1.978   0.934   3.072
  118SOL    HW2 1254   1.919   0.882   2.929
  119SOL     OW 1255   6.785   2.581   6.465
  119SOL    HW1 1256   6.822   2.586   6.372
  119SOL    HW2 1257   6.815   2.496   6.508
  120SOL     OW 1258   5.398   6.476   1.356
  120SOL    HW1 1259   5.482   6.437   1.394
  120SOL    HW2 1260   5.404   6.476   1.256
  121SOL     OW 1261   2.684   2.871   5.850
  121SOL    HW1 1262   2.751   2.865   5.776
  121SOL    HW2 1263   2.596   2.900   5.813
  122SOL     OW 1264   0.621   3.318   4.813
  122SOL    HW1 1265   0.597   3.247   4.747
  122SOL    HW2 1266   0.654   3.399   4.764
  123SOL     OW 1267   0.525   1.919   2.097
  123SOL    HW1 1268   0.625   1.918   2.092
  123SOL    HW2 1269   0.489   1.981   2.027
  124SOL     OW 1270   4.873   3.512   1.057
  124SOL    HW1 1271   4.830   3.557   1.135
  124SOL    HW2 1272   4.889   3.579   0.985
  125SOL     OW 1273   2.252   3.670   1.692
  125SOL    HW1 1274   2.261   3.636   1.786
  125SOL    HW2 1275   2.335   3.719   1.666
  126SOL     OW 1276   3.914   4.624   0.571
  126SOL    HW1 1277   3.895   4.530   0.599
  126SOL    HW2 1278   3.853   4.650   0.497
  127SOL     OW 1279   1.038   5.040   5.617
  127SOL    HW1 1280   1.015   4.962   5.676
  127SOL    HW2 1281   0.976   5.042   5.539
  128SOL     OW 1282   4.487   2.618   0.939
  128SOL    HW1 1283   4.450   2.698   0.893
  128SOL    HW2 1284   4.520   2.553   0.871
  129SOL     OW 1285   2.529   3.966   0.146
  129SOL    HW1 1286   2.610   4.014   0.113
  129SOL    HW2 1287   2.510   3.888   0.087
  130SOL     OW 1288   1.692   2.449   4.959
  130SOL    HW1 1289   1.635   2.377   4.920
  130SOL    HW2 1290   1.789   2.424   4.950
  131SOL     OW 1291   5.494   1.546   2.387
  131SOL    HW1 1292   5.503   1.449   2.405
  131SOL    HW2 1293   5.585   1.589   2.387
  132SOL     OW 1294   0.677   2.253   2.685
  132SOL    HW1 1295   0.577   2.266   2.684
  132SOL    HW2 1296   0.702   2.188   2.613
  133SOL     OW 1297   6.803   5.532   2.763
  133SOL    HW1 1298   6.793   5.631   2.775
  133SOL    HW2 1299   6.782   5.508   2.668
  134SOL     OW 1300   1.324   3.614   2.256
  134SOL    HW1 1301   1.394   3.647   2.320
  134SOL    HW2 1302   1.258   3.687   2.239
  135SOL     OW 1303   4.231   1.306   4.315
  135SOL    HW1 1304   4.173   1.371   4.265
  135SOL    HW2 1305   4.268   1.239   4.250
  136SOL     OW 1306   4.833   4.609   5.689
  136SOL    HW1 1307   4.842   4.546   5.611
  136SOL    HW2 1308   4.768   4.570   5.755
  137SOL     OW 1309   3.178   0.806   5.696
  137SOL    HW1 1310   3.117   0.732   5.668
  137SOL    HW2 1311   3.258   0.768   5.743
  138SOL     OW 1312   6.136   4.806   5.600
  138SOL    HW1 1313   6.110   4.711   5.615
  138SOL    HW2 1314   6.126   4.828   5.503
  139SOL     OW 1315   3.162   5.944   5.912
  139SOL    HW1 1316   3.073   5.986   5.928
  139SOL    HW2 1317   3.212   5.998   5.843
  140SOL     OW 1318   6.593   4.126   4.431
  140SOL    HW1 1319   6.543   4.189   4.491
  140SOL    HW2 1320   6.583   4.033   4.466
  141SOL     OW 1321   1.246   1.824   2.503
  141SOL    HW1 1322   1.267   1.916   2.537
  141SOL    HW2 1323   1.267   1.820   2.405
  142SOL     OW 1324   1.843   5.036   1.369
  142SOL    HW1 1325   1.743   5.039   1.366
  142SOL    HW2 1326   1.872   4.957   1.423
  143SOL     OW 1327   4.926   4.523   2.308
  143SOL    HW1 1328   4.939   4.433   2.350
  143SOL    HW2 1329   4.977   4.591   2.360
  144SOL     OW 1330   2.671   6.142   1.112
  144SOL    HW1 1331   2.727   6.151   1.030
  144SOL    HW2 1332   2.724   6.169   1.192
  145SOL     OW 1333   6.912   5.057   0.725
  145SOL    HW1 1334   6.824   5.080   0.765
  145SOL    HW2 1335   6.903   4.972   0.672
  146SOL     OW 1336   6.487   4.842   0.722
  146SOL    HW1 1337   6.420   4.831   0.796
  146SOL    HW2 1338   6.468   4.774   0.651
  147SOL     OW 1339   5.698   2.806   0.906
  147SOL    HW1 1340   5.774   2.844   0.958
  147SOL    HW2 1341   5.669   2.719   0.947
  148SOL     OW 1342   0.756   5.143   5.263
  148SOL    HW1 1343   0.785   5.202   5.338
  148SOL    HW2 1344   0.732   5.199   5.184
  149SOL     OW 1345   3.178   0.945   6.048
  149SOL    HW1 1346   3.204   1.006   6.123
  149SOL    HW2 1347   3.257   0.932   5.988
  150SOL     OW 1348   0.031   6.074   5.528
  150SOL    HW1 1349   0.100   6.024   5.475
  150SOL    HW2 1350   6.995   6.009   5.573
  151SOL     OW 1351   3.787   0.636   1.880
  151SOL    HW1 1352   3.825   0.717   1.925
  151SOL    HW2 1353   3.793   0.557   1.942
  152SOL     OW 1354   3.261   1.132   4.790
  152SOL    HW1 1355   3.190   1.112   4.857
  152SOL    HW2 1356   3.315   1.211   4.822
  153SOL     OW 1357   1.220   0.415   2.816
  153SOL    HW1 1358   1.228   0.353   2.894
  153SOL    HW2 1359   1.208   0.362   2.732
  154SOL     OW 1360   6.683   1.956   2.871
  154SOL    HW1 1361   6.632   2.013   2.808
  154SOL    HW2 1362   6.683   1.999   2.962
  155SOL     OW 1363   0.341   1.024   2.947
  155SOL    HW1 1364   0.435   0.991   2.949
  155SOL    HW2 1365   0.296   0.992   2.864
  156SOL     OW 1366   0.279   2.561   1.209
  156SOL    HW1 1367   0.251   2.579   1.303
  156SOL    HW2 1368   0.364   2.610   1.189
  157SOL     OW 1369   5.874   3.192   2.835
  157SOL    HW1 1370   5.848   3.164   2.742
  157SOL    HW2 1371   5.807   3.155   2.900
  158SOL     OW 1372   1.740   1.943   4.191
  158SOL    HW1 1373   1.705   1.925   4.099
  158SOL    HW2 1374   1.796   2.026   4.191
  159SOL     OW 1375   4.951   3.288   2.058
  159SOL    HW1 1376   4.871   3.229   2.047
  159SOL    HW2 1377   5.030   3.244   2.013
  160SOL     OW 1378   6.379   4.389   6.004
  160SOL    HW1 1379   6.293   4.338   5.997
  160SOL    HW2 1380   6.436   4.349   6.075
  161SOL     OW 1381   3.178   4.661   5.329
  161SOL    HW1 1382   3.172   4.561   5.332
  161SOL    HW2 1383   3.116   4.696   5.259
  162SOL     OW 1384   4.852   5.994   2.355
  162SOL    HW1 1385   4.869   6.079   2.404
  162SOL    HW2 1386   4.800   5.931   2.413
  163SOL     OW 1387   5.882   0.872   2.143
  163SOL    HW1 1388   5.803   0.873   2.205
  163SOL    HW2 1389   5.938   0.792   2.164
  164SOL     OW 1390   6.592   3.225   1.234
  164SOL    HW1 1391   6.656   3.157   1.271
  164SOL    HW2 1392   6.526   3.179   1.174
  165SOL     OW 1393   6.465   3.912   6.770
  165SOL    HW1 1394   6.430   3.980   6.706
  165SOL    HW2 1395   6.397   3.839   6.782
  166SOL     OW 1396   1.533   0.435   0.830
  166SOL    HW1 1397   1.497   0.354   0.877
  166SOL    HW2 1398   1.537   0.511   0.894
  167SOL     OW 1399   6.344   3.042   1.000
  167SOL    HW1 1400   6.297   3.118   0.955
  167SOL    HW2 1401   6.388   2.985   0.932
  168SOL     OW 1402   2.730   5.613   1.493
  168SOL    HW1 1403   2.640   5.599   1.452
  168SOL    HW2 1404   2.797   5.555   1.446
  169SOL     OW 1405   1.023   0.014   1.597
  169SOL    HW1 1406   0.927   7.018   1.613
  169SOL    HW2 1407   1.073   6.956   1.575
  170SOL     OW 1408   0.671   1.164   3.069
  170SOL    HW1 1409   0.764   1.171   3.105
  170SOL    HW2 1410   0.643   1.068   3.068
  171SOL     OW 1411   3.588   4.038   0.461
  171SOL    HW1 1412   3.546   3.998   0.543
  171SOL    HW2 1413   3.560   4.133   0.452
  172SOL     OW 1414   6.980   2.828   1.499
  172SOL    HW1 1415   6.931   2.880   1.569
  172SOL    HW2 1416   0.052   2.825   1.521
  173SOL     OW 1417   0.155   6.410   5.768
  173SOL    HW1 1418   0.112   6.393   5.679
  173SOL    HW2 1419   0.249   6.375   5.767
  174SOL     OW 1420   2.468   5.783   3.731
  174SOL    HW1 1421   2.567   5.772   3.719
  174SOL    HW2 1422   2.434   5.710   3.790
  175SOL     OW 1423   0.665   5.434   3.206
  175SOL    HW1 1424   0.622   5.524   3.207
  175SOL    HW2 1425   0.764   5.444   3.205
  176SOL     OW 1426   2.956   5.463   0.097
  176SOL    HW1 1427   3.047   5.435   0.130
  176SOL    HW2 1428   2.939   5.420   0.008
  177SOL     OW 1429   4.505   2.059   3.064
  177SOL    HW1 1430   4.576   2.006   3.110
  177SOL    HW2 1431   4.482   2.139   3.119
  178SOL     OW 1432   5.480   4.196   5.443
  178SOL    HW1 1433   5.511   4.118   5.497
  178SOL    HW2 1434   5.427   4.258   5.502
  179SOL     OW 1435   3.212   6.952   1.055
  179SOL    HW1 1436   3.306   6.931   1.078
  179SOL    HW2 1437   3.192   0.022   1.079
  180SOL     OW 1438   1.087   2.190   0.204
  180SOL    HW1 1439   1.092   2.230   0.296
  180SOL    HW2 1440   1.081   2.264   0.136
  181SOL     OW 1441   3.093   3.514   4.732
  181SOL    HW1 1442   3.026   3.580   4.767
  181SOL    HW2 1443   3.169   3.506   4.796
  182SOL     OW 1444   4.948   2.529   4.806
  182SOL    HW1 1445   4.978   2.563   4.717
  182SOL    HW2 1446   4.881   2.591   4.845
  183SOL     OW 1447   6.047   1.770   2.643
  183SOL    HW1 1448   6.123   1.739   2.585
  183SOL    HW2 1449   6.053   1.869   2.655
  184SOL     OW 1450   0.168   4.315   2.864
  184SOL    HW1 1451   0.249   4.339   2.811
  184SOL    HW2 1452   0.092   4.374   2.838
  185SOL     OW 1453   2.787   3.248   6.381
  185SOL    HW1 1454   2.780   3.149   6.396
  185SOL    HW2 1455   2.851   3.266   6.306
  186SOL     OW 1456   5.901   6.339   3.530
  186SOL    HW1 1457   5.948   6.424   3.507
  186SOL    HW2 1458   5.948   6.295   3.606
  187SOL     OW 1459   5.678   6.933   4.091
  187SOL    HW1 1460   5.587   6.959   4.058
  187SOL    HW2 1461   5.748   6.978   4.035
  188SOL     OW 1462   6.229   2.080   4.607
  188SOL    HW1 1463   6.195   2.148   4.542
  188SOL    HW2 1464   6.278   2.126   4.681
  189SOL     OW 1465   1.659   4.542   3.069
  189SOL    HW1 1466   1.620   4.458   3.107
  189SOL    HW2 1467   1.745   4.563   3.115
  190SOL     OW 1468   3.256   1.069   6.284
  190SOL    HW1 1469   3.196   1.119   6.347
  190SOL    HW2 1470   3.345   1.054   6.327
  191SOL     OW 1471   4.922   6.109   5.882
  191SOL    HW1 1472   4.911   6.027   5.939
  191SOL    HW2 1473   4.841   6.122   5.826
  192SOL     OW 1474   6.492   0.729   0.505
  192SOL    HW1 1475   6.554   0.697   0.577
  192SOL    HW2 1476   6.542   0.733   0.418
  193SOL     OW 1477   5.933   4.561   0.080
  193SOL    HW1 1478   5.865   4.538   0.150
  193SOL    HW2 1479   5.890   4.555   7.015
  194SOL     OW 1480   4.435   6.719   4.413
  194SOL    HW1 1481   4.514   6.771   4.381
  194SOL    HW2 1482   4.420   6.738   4.510
  195SOL     OW 1483   6.758   5.172   3.227
  195SOL    HW1 1484   6.764   5.073   3.239
  195SOL    HW2 1485   6.697   5.192   3.150
  196SOL     OW 1486   0.953   1.123   0.952
  196SOL    HW1 1487   0.867   1.097   0.997
  196SOL    HW2 1488   0.936   1.141   0.856
  197SOL     OW 1489   1.858   0.869   0.469
  197SOL    HW1 1490   1.829   0.799   0.402
  197SOL    HW2 1491   1.805   0.859   0.553
  198SOL     OW 1492   2.810   1.425   4.055
  198SOL    HW1 1493   2.799   1.487   4.133
  198SOL    HW2 1494   2.810   1.477   3.970
  199SOL     OW 1495   1.036   1.915   4.939
  199SOL    HW1 1496   1.023   1.848   5.012
  199SOL    HW2 1497   1.095   1.877   4.868
  200SOL     OW 1498   6.107   2.309   0.007
  200SOL    HW1 1499   6.075   2.365   0.083
  200SOL    HW2 1500   6.173   2.360   6.978
  201SOL     OW 1501   6.670   1.668   6.209
  201SOL    HW1 1502   6.765   1.679   6.179
  201SOL    HW2 1503   6.613   1.642   6.130
  202SOL     OW 1504   5.072   0.408   6.977
  202SOL    HW1 1505   5.079   0.309   6.988
  202SOL    HW2 1506   5.043   0.429   6.884
  203SOL     OW 1507   6.364   3.086   6.774
  203SOL    HW1 1508   6.398   3.178   6.757
  203SOL    HW2 1509   6.349   3.040   6.687
  204SOL     OW 1510   6.098   0.442   5.415
  204SOL    HW1 1511   6.169   0.481   5.474
  204SOL    HW2 1512   6.098   0.490   5.328
  205SOL     OW 1513   1.731   3.887   2.639
  205SOL    HW1 1514   1.708   3.983   2.653
  205SOL    HW2 1515   1.806   3.880   2.572
  206SOL     OW 1516   0.457   3.685   0.759
  206SOL    HW1 1517   0.547   3.651   0.787
  206SOL    HW2 1518   0.464   3.729   0.670
  207SOL     OW 1519   5.969   2.704   4.703
  207SOL    HW1 1520   6.007   2.652   4.780
  207SOL    HW2 1521   6.040   2.765   4.667
  208SOL     OW 1522   1.117   3.339   5.197
  208SOL    HW1 1523   1.176   3.344   5.278
  208SOL    HW2 1524   1.043   3.275   5.214
  209SOL     OW 1525   6.473   4.579   2.826
  209SOL    HW1 1526   6.407   4.648   2.856
  209SOL    HW2 1527   6.431   4.488   2.832
  210SOL     OW 1528   4.742   3.092   0.736
  210SOL    HW1 1529   4.688   3.168   0.701
  210SOL    HW2 1530   4.828   3.086   0.686
  211SOL     OW 1531   1.504   1.439   2.033
  211SOL    HW1 1532   1.463   1.466   2.120
  211SOL    HW2 1533   1.440   1.381   1.983
  212SOL     OW 1534   1.902   3.970   1.550
  212SOL    HW1 1535   1.997   3.939   1.548
  212SOL    HW2 1536   1.854   3.925   1.625
  213SOL     OW 1537   1.155   4.826   1.080
  213SOL    HW1 1538   1.237   4.794   1.034
  213SOL    HW2 1539   1.121   4.908   1.035
  214SOL     OW 1540   5.475   6.767   2.100
  214SOL    HW1 1541   5.570   6.738   2.096
  214SOL    HW2 1542   5.470   6.863   2.128
  215SOL     OW 1543   2.019   5.033   3.118
  215SOL    HW1 1544   2.050   5.128   3.111
  215SOL    HW2 1545   2.091   4.972   3.085
  216SOL     OW 1546   1.803   6.198   3.171
  216SOL    HW1 1547   1.760   6.242   3.250
  216SOL    HW2 1548   1.878   6.255   3.138
  217SOL     OW 1549   0.883   4.818   5.713
  217SOL    HW1 1550   0.927   4.747   5.658
  217SOL    HW2 1551   0.787   4.826   5.686
  218SOL     OW 1552   2.651   2.143   5.504
  218SOL    HW1 1553   2.733   2.199   5.491
  218SOL    HW2 1554   2.675   2.046   5.491
  219SOL     OW 1555   4.526   2.220   1.394
  219SOL    HW1 1556   4.436   2.190   1.424
  219SOL    HW2 1557   4.517   2.291   1.325
  220SOL     OW 1558   3.006   6.345   1.003
  220SOL    HW1 1559   2.941   6.408   1.045
  220SOL    HW2 1560   2.984   6.333   0.906
  221SOL     OW 1561   4.938   4.637   2.006
  221SOL    HW1 1562   4.959   4.601   2.097
  221SOL    HW2 1563   5.018   4.628   1.947
  222SOL     OW 1564   1.857   4.718   6.459
  222SOL    HW1 1565   1.950   4.718   6.425
  222SOL    HW2 1566   1.843   4.639   6.520
  223SOL     OW 1567   6.602   2.440   5.143
  223SOL    HW1 1568   6.513   2.444   5.098
  223SOL    HW2 1569   6.600   2.499   5.225
  224SOL     OW 1570   3.518   2.063   5.645
  224SOL    HW1 1571   3.560   2.040   5.557
  224SOL    HW2 1572   3.566   2.014   5.718
  225SOL     OW 1573   4.058   6.140   6.502
  225SOL    HW1 1574   4.066   6.221   6.561
  225SOL    HW2 1575   4.147   6.122   6.459
  226SOL     OW 1576   1.998   2.589   0.015
  226SOL    HW1 1577   2.087   2.588   6.994
  226SOL    HW2 1578   1.927   2.563   6.975
  227SOL     OW 1579   1.509   3.901   1.015
  227SOL    HW1 1580   1.566   3.940   1.088
  227SOL    HW2 1581   1.561   3.901   0.929
  228SOL     OW 1582   0.872   0.493   2.113
  228SOL    HW1 1583   0.944   0.515   2.179
  228SOL    HW2 1584   0.785   0.528   2.146
  229SOL     OW 1585   3.914   0.086   6.019
  229SOL    HW1 1586   3.844   0.122   6.081
  229SOL    HW2 1587   3.976   0.160   5.993
  230SOL     OW 1588   5.319   4.870   5.764
  230SOL    HW1 1589   5.226   4.889   5.794
  230SOL    HW2 1590   5.349   4.941   5.700
  231SOL     OW 1591   5.369   1.784   6.912
  231SOL    HW1 1592   5.440   1.725   6.874
  231SOL    HW2 1593   5.294   1.791   6.847
  232SOL     OW 1594   1.304   1.975   5.734
  232SOL    HW1 1595   1.400   1.964   5.758
  232SOL    HW2 1596   1.251   1.898   5.770
  233SOL     OW 1597   3.132   1.765   2.986
  233SOL    HW1 1598   3.110   1.719   2.900
  233SOL    HW2 1599   3.062   1.833   3.006
  234SOL     OW 1600   5.176   0.720   0.942
  234SOL    HW1 1601   5.195   0.628   0.976
  234SOL    HW2 1602   5.262   0.767   0.923
  235SOL     OW 1603   5.032   2.692   2.530
  235SOL    HW1 1604   4.957   2.758   2.526
  235SOL    HW2 1605   4.995   2.599   2.533
  236SOL     OW 1606   4.024   3.627   6.107
  236SOL    HW1 1607   4.034   3.529   6.121
  236SOL    HW2 1608   3.953   3.662   6.168
  237SOL     OW 1609   6.190   3.562   2.743
  237SOL    HW1 1610   6.193   3.512   2.656
  237SOL    HW2 1611   6.101   3.546   2.786
  238SOL     OW 1612   6.016   2.100   0.740
  238SOL    HW1 1613   6.067   2.071   0.659
  238SOL    HW2 1614   6.065   2.071   0.822
  239SOL     OW 1615   1.097   3.486   0.395
  239SOL    HW1 1616   1.131   3.422   0.326
  239SOL    HW2 1617   1.009   3.523   0.365
  240SOL     OW 1618   4.978   3.328   4.128
  240SOL    HW1 1619   5.029   3.335   4.043
  240SOL    HW2 1620   4.932   3.239   4.133
  241SOL     OW 1621   2.501   2.020   4.241
  241SOL    HW1 1622   2.475   1.986   4.332
  241SOL    HW2 1623   2.491   1.947   4.174
  242SOL     OW 1624   3.757   3.564   2.844
  242SOL    HW1 1625   3.708   3.635   2.793
  242SOL    HW2 1626   3.702   3.481   2.847
  243SOL     OW 1627   4.023   2.285   6.874
  243SOL    HW1 1628   3.938   2.338   6.880
  243SOL    HW2 1629   4.100   2.344   6.896
  244SOL     OW 1630   4.975   3.409   4.958
  244SOL    HW1 1631   4.901   3.469   4.989
  244SOL    HW2 1632   4.946   3.314   4.966
  245SOL     OW 1633   3.213   1.264   3.196
  245SOL    HW1 1634   3.217   1.318   3.112
  245SOL    HW2 1635   3.237   1.323   3.274
  246SOL     OW 1636   6.397   1.162   2.376
  246SOL    HW1 1637   6.371   1.094   2.308
  246SOL    HW2 1638   6.409   1.251   2.331
  247SOL     OW 1639   1.843   1.412   1.690
  247SOL    HW1 1640   1.794   1.495   1.665
  247SOL    HW2 1641   1.792   1.363   1.761
  248SOL     OW 1642   3.207   3.502   1.553
  248SOL    HW1 1643   3.282   3.482   1.616
  248SOL    HW2 1644   3.120   3.489   1.599
  249SOL     OW 1645   4.832   6.599   4.924
  249SOL    HW1 1646   4.832   6.681   4.981
  249SOL    HW2 1647   4.752   6.543   4.947
  250SOL     OW 1648   4.331   2.423   0.299
  250SOL    HW1 1649   4.404   2.409   0.366
  250SOL    HW2 1650   4.363   2.484   0.227
  251SOL     OW 1651   3.992   4.833   5.145
  251SOL    HW1 1652   4.091   4.829   5.160
  251SOL    HW2 1653   3.949   4.754   5.189
  252SOL     OW 1654   6.249   6.685   5.187
  252SOL    HW1 1655   6.161   6.639   5.173
  252SOL    HW2 1656   6.322   6.632   5.144
  253SOL     OW 1657   4.496   6.172   6.167
  253SOL    HW1 1658   4.514   6.186   6.070
  253SOL    HW2 1659   4.423   6.104   6.177
  254SOL     OW 1660   6.151   1.795   5.480
  254SOL    HW1 1661   6.239   1.820   5.519
  254SOL    HW2 1662   6.105   1.730   5.541
  255SOL     OW 1663   0.868   4.178   6.819
  255SOL    HW1 1664   0.931   4.111   6.858
  255SOL    HW2 1665   0.839   4.242   6.890
  256SOL     OW 1666   5.371   2.354   5.085
  256SOL    HW1 1667   5.304   2.408   5.034
  256SOL    HW2 1668   5.449   2.411   5.110
  257SOL     OW 1669   4.673   6.346   2.427
  257SOL    HW1 1670   4.582   6.303   2.422
  257SOL    HW2 1671   4.728   6.316   2.350
  258SOL     OW 1672   1.751   3.122   5.995
  258SOL    HW1 1673   1.826   3.086   5.940
  258SOL    HW2 1674   1.686   3.049   6.015
  259SOL     OW 1675   3.252   6.700   3.842
  259SOL    HW1 1676   3.199   6.724   3.923
  259SOL    HW2 1677   3.347   6.687   3.867
  260SOL     OW 1678   4.303   5.479   3.128
  260SOL    HW1 1679   4.369   5.464   3.202
  260SOL    HW2 1680   4.345   5.453   3.041
  261SOL     OW 1681   4.324   5.235   6.945
  261SOL    HW1 1682   4.377   5.195   6.871
  261SOL    HW2 1683   4.373   5.223   0.006
  262SOL     OW 1684   0.843   3.817   6.435
  262SOL    HW1 1685   0.927   3.804   6.381
  262SOL    HW2 1686   0.853   3.899   6.492
  263SOL     OW 1687   1.108   6.904   4.318
  263SOL    HW1 1688   1.177   6.837   4.345
  263SOL    HW2 1689   1.148   6.995   4.319
  264SOL     OW 1690   6.590   3.499   6.814
  264SOL    HW1 1691   6.493   3.490   6.836
  264SOL    HW2 1692   6.640   3.529   6.895
  265SOL     OW 1693   0.061   0.278   3.157
  265SOL    HW1 1694   0.098   0.368   3.181
  265SOL    HW2 1695   0.034   0.278   3.060
  266SOL     OW 1696   3.576   0.545   5.804
  266SOL    HW1 1697   3.595   0.455   5.844
  266SOL    HW2 1698   3.548   0.608   5.876
  267SOL     OW 1699   2.049   0.383   3.401
  267SOL    HW1 1700   2.120   0.381   3.331
  267SOL    HW2 1701   1.975   0.444   3.372
  268SOL     OW 1702   3.277   2.633   1.042
  268SOL    HW1 1703   3.272   2.685   0.956
  268SOL    HW2 1704   3.331   2.684   1.109
  269SOL     OW 1705   4.772   1.745   0.528
  269SOL    HW1 1706   4.835   1.666   0.530
  269SOL    HW2 1707   4.688   1.721   0.575
  270SOL     OW 1708   5.818   0.548   0.283
  270SOL    HW1 1709   5.843   0.605   0.362
  270SOL    HW2 1710   5.832   0.600   0.199
  271SOL     OW 1711   0.612   3.971   6.368
  271SOL    HW1 1712   0.606   3.997   6.272
  271SOL    HW2 1713   0.682   3.900   6.379
  272SOL     OW 1714   3.233   5.964   3.113
  272SOL    HW1 1715   3.146   6.001   3.080
  272SOL    HW2 1716   3.244   5.987   3.209
  273SOL     OW 1717   1.808   5.004   6.309
  273SOL    HW1 1718   1.734   4.937   6.308
  273SOL    HW2 1719   1.806   5.058   6.225
  274SOL     OW 1720   5.026   2.307   3.672
  274SOL    HW1 1721   4.933   2.271   3.675
  274SOL    HW2 1722   5.036   2.368   3.594
  275SOL     OW 1723   6.477   6.461   1.320
  275SOL    HW1 1724   6.474   6.548   1.272
  275SOL    HW2 1725   6.501   6.388   1.256
  276SOL     OW 1726   1.088   0.430   5.102
  276SOL    HW1 1727   1.078   0.370   5.181
  276SOL    HW2 1728   1.054   0.384   5.020
  277SOL     OW 1729   2.039   4.249   0.719
  277SOL    HW1 1730   1.995   4.293   0.796
  277SOL    HW2 1731   2.094   4.172   0.751
  278SOL     OW 1732   0.827   2.897   2.595
  278SOL    HW1 1733   0.881   2.816   2.572
  278SOL    HW2 1734   0.755   2.872   2.660
  279SOL     OW 1735   6.504   1.039   3.449
  279SOL    HW1 1736   6.460   1.059   3.361
  279SOL    HW2 1737   6.445   1.070   3.523
  280SOL     OW 1738   1.625   4.585   2.613
  280SOL    HW1 1739   1.528   4.561   2.609
  280SOL    HW2 1740   1.671   4.551   2.531
  281SOL     OW 1741   2.488   4.585   1.288
  281SOL    HW1 1742   2.529   4.502   1.327
  281SOL    HW2 1743   2.559   4.655   1.278
  282SOL     OW 1744   2.560   1.544   5.934
  282SOL    HW1 1745   2.648   1.499   5.920
  282SOL    HW2 1746   2.519   1.511   6.020
  283SOL     OW 1747   3.460   2.679   6.044
  283SOL    HW1 1748   3.465   2.706   5.948
  283SOL    HW2 1749   3.380   2.620   6.058
  284SOL     OW 1750   0.540   3.637   3.897
  284SOL    HW1 1751   0.467   3.640   3.829
  284SOL    HW2 1752   0.589   3.724   3.898
  285SOL     OW 1753   4.895   5.102   4.202
  285SOL    HW1 1754   4.797   5.116   4.187
  285SOL    HW2 1755   4.908   5.033   4.273
  286SOL     OW 1756   3.025   4.047   0.455
  286SOL    HW1 1757   3.002   4.142   0.433
  286SOL    HW2 1758   3.094   4.046   0.527
  287SOL     OW 1759   1.395   2.649   0.357
  287SOL    HW1 1760   1.380   2.728   0.298
  287SOL    HW2 1761   1.450   2.581   0.309
  288SOL     OW 1762   4.980   3.262   0.982
  288SOL    HW1 1763   4.919   3.326   1.029
  288SOL    HW2 1764   4.961   3.169   1.012
  289SOL     OW 1765   4.146   5.722   6.851
  289SOL    HW1 1766   4.054   5.733   6.889
  289SOL    HW2 1767   4.171   5.625   6.850
  290SOL     OW 1768   1.512   1.231   4.695
  290SOL    HW1 1769   1.561   1.258   4.612
  290SOL    HW2 1770   1.552   1.277   4.774
  291SOL     OW 1771   6.175   2.714   2.747
  291SOL    HW1 1772   6.175   2.726   2.847
  291SOL    HW2 1773   6.096   2.659   2.720
  292SOL     OW 1774   3.333   0.539   3.901
  292SOL    HW1 1775   3.243   0.575   3.924
  292SOL    HW2 1776   3.395   0.549   3.979
  293SOL     OW 1777   3.793   4.925   3.733
  293SOL    HW1 1778   3.778   4.905   3.830
  293SOL    HW2 1779   3.704   4.934   3.687
  294SOL     OW 1780   4.910   0.896   0.601
  294SOL    HW1 1781   4.930   0.991   0.626
  294SOL    HW2 1782   4.995   0.844   0.597
  295SOL     OW 1783   5.876   0.205   3.701
  295SOL    HW1 1784   5.944   0.277   3.689
  295SOL    HW2 1785   5.827   0.191   3.615
  296SOL     OW 1786   2.287   2.147   3.534
  296SOL    HW1 1787   2.293   2.232   3.586
  296SOL    HW2 1788   2.341   2.077   3.581
  297SOL     OW 1789   1.539   5.333   2.329
  297SOL    HW1 1790   1.468   5.276   2.288
  297SOL    HW2 1791   1.529   5.332   2.428
  298SOL     OW 1792   6.410   4.668   1.121
  298SOL    HW1 1793   6.339   4.650   1.053
  298SOL    HW2 1794   6.472   4.738   1.086
  299SOL     OW 1795   5.655   2.242   4.062
  299SOL    HW1 1796   5.634   2.202   4.151
  299SOL    HW2 1797   5.644   2.341   4.067
  300SOL     OW 1798   6.657   6.672   1.859
  300SOL    HW1 1799   6.659   6.763   1.900
  300SOL    HW2 1800   6.577   6.622   1.893
  301SOL     OW 1801   4.457   2.777   5.645
  301SOL    HW1 1802   4.444   2.874   5.624
  301SOL    HW2 1803   4.549   2.749   5.620
  302SOL     OW 1804   1.082   5.789   4.577
  302SOL    HW1 1805   1.155   5.829   4.633
  302SOL    HW2 1806   1.091   5.689   4.578
  303SOL     OW 1807   6.090   0.101   3.331
  303SOL    HW1 1808   6.004   0.140   3.363
  303SOL    HW2 1809   6.075   0.008   3.298
  304SOL     OW 1810   3.437   0.265   3.262
  304SOL    HW1 1811   3.348   0.302   3.289
  304SOL    HW2 1812   3.509   0.315   3.311
  305SOL     OW 1813   1.528   4.504   1.081
  305SOL    HW1 1814   1.551   4.407   1.085
  305SOL    HW2 1815   1.595   4.556   1.134
  306SOL     OW 1816   1.766   0.778   3.729
  306SOL    HW1 1817   1.707   0.822   3.797
  306SOL    HW2 1818   1.860   0.773   3.764
  307SOL     OW 1819   3.279   0.319   1.532
  307SOL    HW1 1820   3.316   0.230   1.505
  307SOL    HW2 1821   3.337   0.359   1.602
  308SOL     OW 1822   0.914   4.338   3.638
  308SOL    HW1 1823   0.997   4.369   3.684
  308SOL    HW2 1824   0.890   4.246   3.670
  309SOL     OW 1825   3.232   4.975   5.010
  309SOL    HW1 1826   3.269   4.989   4.919
  309SOL    HW2 1827   3.240   5.060   5.063
  310SOL     OW 1828   1.322   5.901   6.194
  310SOL    HW1 1829   1.322   5.808   6.157
  310SOL    HW2 1830   1.415   5.925   6.222
  311SOL     OW 1831   0.191   0.837   1.260
  311SOL    HW1 1832   0.259   0.769   1.231
  311SOL    HW2 1833   0.231   0.928   1.257
  312SOL     OW 1834   3.808   1.414   5.570
  312SOL    HW1 1835   3.795   1.316   5.590
  312SOL    HW2 1836   3.877   1.424   5.498
  313SOL     OW 1837   0.221   4.729   1.009
  313SOL    HW1 1838   0.164   4.806   1.035
  313SOL    HW2 1839   0.169   4.668   0.949
  314SOL     OW 1840   3.576   5.823   1.989
  314SOL    HW1 1841   3.568   5.914   1.947
  314SOL    HW2 1842   3.494   5.804   2.042
  315SOL     OW 1843   0.986   3.837   2.783
  315SOL    HW1 1844   0.903   3.892   2.776
  315SOL    HW2 1845   0.988   3.771   2.708
  316SOL     OW 1846   1.995   3.043   4.828
  316SOL    HW1 1847   1.933   3.112   4.790
  316SOL    HW2 1848   2.084   3.050   4.783
  317SOL     OW 1849   6.484   1.333   0.252
  317SOL    HW1 1850   6.400   1.378   0.224
  317SOL    HW2 1851   6.550   1.333   0.176
  318SOL     OW 1852   2.799   4.468   1.066
  318SOL    HW1 1853   2.768   4.386   1.115
  318SOL    HW2 1854   2.764   4.550   1.112
  319SOL     OW 1855   1.198   0.073   6.756
  319SOL    HW1 1856   1.281   0.072   6.701
  319SOL    HW2 1857   1.152   7.010   6.749
  320SOL     OW 1858   5.545   3.265   0.962
  320SOL    HW1 1859   5.459   3.225   0.930
  320SOL    HW2 1860   5.526   3.333   1.033
  321SOL     OW 1861   2.101   1.316   2.328
  321SOL    HW1 1862   2.182   1.337   2.274
  321SOL    HW2 1863   2.100   1.218   2.349
  322SOL     OW 1864   3.453   2.463   5.455
  322SOL    HW1 1865   3.387   2.502   5.391
  322SOL    HW2 1866   3.496   2.382   5.414
  323SOL     OW 1867   1.252   4.184   1.589
  323SOL    HW1 1868   1.222   4.211   1.681
  323SOL    HW2 1869   1.337   4.231   1.567
  324SOL     OW 1870   0.292   2.665   4.325
  324SOL    HW1 1871   0.301   2.566   4.315
  324SOL    HW2 1872   0.373   2.710   4.289
  325SOL     OW 1873   2.509   1.679   3.031
  325SOL    HW1 1874   2.595   1.636   3.060
  325SOL    HW2 1875   2.515   1.778   3.042
  326SOL     OW 1876   1.845   4.028   4.425
  326SOL    HW1 1877   1.865   4.055   4.519
  326SOL    HW2 1878   1.837   4.109   4.368
  327SOL     OW 1879   6.395   4.004   6.116
  327SOL    HW1 1880   6.416   3.930   6.180
  327SOL    HW2 1881   6.418   4.092   6.158
  328SOL     OW 1882   4.080   5.956   2.837
  328SOL    HW1 1883   4.048   5.887   2.772
  328SOL    HW2 1884   4.009   5.973   2.906
  329SOL     OW 1885   3.480   4.138   2.472
  329SOL    HW1 1886   3.576   4.112   2.476
  329SOL    HW2 1887   3.450   4.168   2.563
  330SOL     OW 1888   2.459   2.184   1.897
  330SOL    HW1 1889   2.538   2.246   1.903
  330SOL    HW2 1890   2.461   2.120   1.974
  331SOL     OW 1891   5.853   4.077   5.497
  331SOL    HW1 1892   5.896   4.000   5.448
  331SOL    HW2 1893   5.845   4.155   5.435
  332SOL     OW 1894   3.875   1.886   3.241
  332SOL    HW1 1895   3.854   1.869   3.144
  332SOL    HW2 1896   3.799   1.854   3.297
  333SOL     OW 1897   4.753   6.791   0.769
  333SOL    HW1 1898   4.659   6.779   0.803
  333SOL    HW2 1899   4.754   6.777   0.670
  334SOL     OW 1900   4.972   6.584   2.858
  334SOL    HW1 1901   4.977   6.487   2.834
  334SOL    HW2 1902   4.924   6.594   2.945
  335SOL     OW 1903   3.269   6.980   2.605
  335SOL    HW1 1904   3.307   0.036   2.650
  335SOL    HW2 1905   3.339   6.936   2.550
  336SOL     OW 1906   3.367   0.428   4.591
  336SOL    HW1 1907   3.408   0.519   4.585
  336SOL    HW2 1908   3.285   0.424   4.534
  337SOL     OW 1909   0.029   4.107   2.182
  337SOL    HW1 1910   0.012   4.045   2.258
  337SOL    HW2 1911   0.122   4.094   2.148
  338SOL     OW 1912   2.469   2.461   1.348
  338SOL    HW1 1913   2.558   2.488   1.384
  338SOL    HW2 1914   2.437   2.379   1.396
  339SOL     OW 1915   4.287   1.397   3.303
  339SOL    HW1 1916   4.224   1.401   3.225
  339SOL    HW2 1917   4.236   1.415   3.387
  340SOL     OW 1918   4.757   4.115   4.774
  340SOL    HW1 1919   4.787   4.020   4.770
  340SOL    HW2 1920   4.728   4.137   4.867
  341SOL     OW 1921   4.641   4.510   5.853
  341SOL    HW1 1922   4.601   4.423   5.825
  341SOL    HW2 1923   4.622   4.526   5.950
  342SOL     OW 1924   5.996   3.917   0.715
  342SOL    HW1 1925   5.966   3.902   0.621
  342SOL    HW2 1926   6.096   3.926   0.717
  343SOL     OW 1927   2.172   0.747   2.584
  343SOL    HW1 1928   2.221   0.660   2.575
  343SOL    HW2 1929   2.211   0.815   2.523
  344SOL     OW 1930   3.988   6.659   0.206
  344SOL    HW1 1931   4.077   6.633   0.168
  344SOL    HW2 1932   3.981   6.623   0.299
  345SOL     OW 1933   1.523   1.137   5.621
  345SOL    HW1 1934   1.517   1.041   5.649
  345SOL    HW2 1935   1.616   1.170   5.634
  346SOL     OW 1936   3.194   0.937   5.045
  346SOL    HW1 1937   3.286   0.969   5.069
  346SOL    HW2 1938   3.132   1.015   5.038
  347SOL     OW 1939   5.062   6.327   5.932
  347SOL    HW1 1940   5.115   6.336   5.848
  347SOL    HW2 1941   5.005   6.245   5.928
  348SOL     OW 1942   2.448   6.554   2.648
  348SOL    HW1 1943   2.438   6.472   2.705
  348SOL    HW2 1944   2.481   6.630   2.704
  349SOL     OW 1945   2.813   5.406   2.568
  349SOL    HW1 1946   2.720   5.431   2.597
  349SOL    HW2 1947   2.873   5.406   2.647
  350SOL     OW 1948   4.587   3.036   0.995
  350SOL    HW1 1949   4.515   2.967   1.003
  350SOL    HW2 1950   4.626   3.033   0.903
  351SOL     OW 1951   3.372   1.696   0.891
  351SOL    HW1 1952   3.318   1.653   0.819
  351SOL    HW2 1953   3.350   1.794   0.895
  352SOL     OW 1954   3.169   2.242   5.920
  352SOL    HW1 1955   3.213   2.204   5.838
  352SOL    HW2 1956   3.203   2.194   6.001
  353SOL     OW 1957   2.024   7.010   1.342
  353SOL    HW1 1958   2.101   6.952   1.314
  353SOL    HW2 1959   2.049   0.035   1.425
  354SOL     OW 1960   5.050   0.335   2.057
  354SOL    HW1 1961   5.007   0.265   2.113
  354SOL    HW2 1962   4.989   0.414   2.050
  355SOL     OW 1963   0.912   1.009   2.286
  355SOL    HW1 1964   0.977   1.085   2.285
  355SOL    HW2 1965   0.834   1.032   2.344
  356SOL     OW 1966   3.158   0.046   2.944
  356SOL    HW1 1967   3.248   0.056   2.986
  356SOL    HW2 1968   3.150   0.108   2.867
  357SOL     OW 1969   1.151   4.806   5.111
  357SOL    HW1 1970   1.097   4.752   5.047
  357SOL    HW2 1971   1.090   4.867   5.162
  358SOL     OW 1972   4.543   1.265   3.229
  358SOL    HW1 1973   4.579   1.331   3.162
  358SOL    HW2 1974   4.474   1.311   3.286
  359SOL     OW 1975   0.091   1.911   0.253
  359SOL    HW1 1976   7.019   1.899   0.270
  359SOL    HW2 1977   0.104   1.982   0.183
  360SOL     OW 1978   5.138   0.160   0.077
  360SOL    HW1 1979   5.221   0.117   0.111
  360SOL    HW2 1980   5.111   0.118   7.016
  361SOL     OW 1981   3.164   0.238   2.763
  361SOL    HW1 1982   3.097   0.313   2.760
  361SOL    HW2 1983   3.256   0.276   2.770
  362SOL     OW 1984   2.903   4.161   0.874
  362SOL    HW1 1985   2.821   4.127   0.828
  362SOL    HW2 1986   2.920   4.256   0.846
  363SOL     OW 1987   4.638   4.595   3.270
  363SOL    HW1 1988   4.568   4.653   3.228
  363SOL    HW2 1989   4.607   4.500   3.271
  364SOL     OW 1990   2.673   5.769   6.158
  364SOL    HW1 1991   2.714   5.846   6.205
  364SOL    HW2 1992   2.744   5.703   6.132
  365SOL     OW 1993   4.582   7.003   3.189
  365SOL    HW1 1994   4.615   7.002   3.095
  365SOL    HW2 1995   4.485   0.000   3.191
  366SOL     OW 1996   5.329   1.136   0.382
  366SOL    HW1 1997   5.411   1.095   0.422
  366SOL    HW2 1998   5.304   1.217   0.434
  367SOL     OW 1999   5.081   2.167   2.287
  367SOL    HW1 2000   5.130   2.080   2.288
  367SOL    HW2 2001   5.093   2.212   2.198
  368SOL     OW 2002   0.585   5.348   5.419
  368SOL    HW1 2003   0.670   5.387   5.456
  368SOL    HW2 2004   0.534   5.304   5.493
  369SOL     OW 2005   1.066   3.330   1.594
  369SOL    HW1 2006   1.016   3.378   1.666
  369SOL    HW2 2007   1.051   3.375   1.506
  370SOL     OW 2008   4.054   1.569   6.226
  370SOL    HW1 2009   3.955   1.579   6.210
  370SOL    HW2 2010   4.069   1.502   6.299
  371SOL     OW 2011   3.772   2.548   6.570
  371SOL    HW1 2012   3.817   2.562   6.482
  371SOL    HW2 2013   3.809   2.613   6.637
  372SOL     OW 2014   2.317   5.454   0.251
  372SOL    HW1 2015   2.280   5.429   0.341
  372SOL    HW2 2016   2.400   5.508   0.263
  373SOL     OW 2017   6.021   7.002   6.406
  373SOL    HW1 2018   6.080   6.938   6.358
  373SOL    HW2 2019   6.057   7.018   6.499
  374SOL     OW 2020   5.004   0.932   1.141
  374SOL    HW1 2021   4.948   0.984   1.077
  374SOL    HW2 2022   5.057   0.863   1.091
  375SOL     OW 2023   6.734   4.534   1.081
  375SOL    HW1 2024   6.731   4.592   1.000
  375SOL    HW2 2025   6.653   4.476   1.084
  376SOL     OW 2026   2.114   3.820   4.924
  376SOL    HW1 2027   2.126   3.864   4.835
  376SOL    HW2 2028   2.188   3.846   4.985
  377SOL     OW 2029   5.062   1.185   4.351
  377SOL    HW1 2030   5.086   1.089   4.363
  377SOL    HW2 2031   5.015   1.197   4.264
  378SOL     OW 2032   5.578   2.405   5.354
  378SOL    HW1 2033   5.669   2.445   5.350
  378SOL    HW2 2034   5.511   2.475   5.379
  379SOL     OW 2035   6.255   2.963   1.531
  379SOL    HW1 2036   6.307   2.886   1.567
  379SOL    HW2 2037   6.250   2.955   1.431
  380SOL     OW 2038   1.098   2.275   0.466
  380SOL    HW1 2039   1.168   2.324   0.519
  380SOL    HW2 2040   1.008   2.310   0.491
  381SOL     OW 2041   4.758   5.090   6.860
  381SOL    HW1 2042   4.752   5.138   6.947
  381SOL    HW2 2043   4.851   5.099   6.823
  382SOL     OW 2044   2.303   5.257   6.807
  382SOL    HW1 2045   2.369   5.332   6.805
  382SOL    HW2 2046   2.325   5.193   6.881
  383SOL     OW 2047   6.265   1.471   0.126
  383SOL    HW1 2048   6.274   1.467   0.027
  383SOL    HW2 2049   6.200   1.401   0.157
  384SOL     OW 2050   0.809   5.209   4.745
  384SOL    HW1 2051   0.817   5.110   4.736
  384SOL    HW2 2052   0.713   5.233   4.759
  385SOL     OW 2053   4.565   5.239   1.330
  385SOL    HW1 2054   4.619   5.323   1.334
  385SOL    HW2 2055   4.493   5.249   1.261
  386SOL     OW 2056   2.317   5.911   4.429
  386SOL    HW1 2057   2.412   5.905   4.398
  386SOL    HW2 2058   2.306   5.994   4.484
  387SOL     OW 2059   7.013   0.659   5.786
  387SOL    HW1 2060   7.008   0.562   5.806
  387SOL    HW2 2061   0.044   0.674   5.704
  388SOL     OW 2062   0.695   1.416   4.423
  388SOL    HW1 2063   0.632   1.383   4.353
  388SOL    HW2 2064   0.653   1.492   4.473
  389SOL     OW 2065   5.139   3.856   2.376
  389SOL    HW1 2066   5.086   3.924   2.326
  389SOL    HW2 2067   5.124   3.868   2.474
  390SOL     OW 2068   3.379   2.544   0.698
  390SOL    HW1 2069   3.381   2.531   0.599
  390SOL    HW2 2070   3.357   2.640   0.718
  391SOL     OW 2071   4.028   3.897   4.060
  391SOL    HW1 2072   4.048   3.839   4.140
  391SOL    HW2 2073   3.936   3.935   4.069
  392SOL     OW 2074   1.909   3.973   1.089
  392SOL    HW1 2075   1.984   3.910   1.110
  392SOL    HW2 2076   1.893   4.032   1.168
  393SOL     OW 2077   1.233   5.943   1.329
  393SOL    HW1 2078   1.321   5.909   1.297
  393SOL    HW2 2079   1.169   5.947   1.252
  394SOL     OW 2080   6.142   1.372   6.276
  394SOL    HW1 2081   6.149   1.275   6.257
  394SOL    HW2 2082   6.052   1.405   6.248
  395SOL     OW 2083   6.065   4.815   6.590
  395SOL    HW1 2084   6.076   4.809   6.490
  395SOL    HW2 2085   6.051   4.911   6.616
  396SOL     OW 2086   0.800   0.873   1.394
  396SOL    HW1 2087   0.777   0.969   1.378
  396SOL    HW2 2088   0.823   0.860   1.490
  397SOL     OW 2089   4.736   2.132   4.634
  397SOL    HW1 2090   4.820   2.131   4.579
  397SOL    HW2 2091   4.704   2.227   4.644
  398SOL     OW 2092   7.016   1.642   3.067
  398SOL    HW1 2093   6.988   1.682   2.980
  398SOL    HW2 2094   6.960   1.562   3.086
  399SOL     OW 2095   6.091   5.461   3.650
  399SOL    HW1 2096   6.081   5.407   3.734
  399SOL    HW2 2097   6.011   5.447   3.592
  400SOL     OW 2098   0.112   6.575   2.724
  400SOL    HW1 2099   0.098   6.623   2.810
  400SOL    HW2 2100   0.207   6.586   2.694
  401SOL     OW 2101   0.993   5.902   5.271
  401SOL    HW1 2102   0.987   5.904   5.171
  401SOL    HW2 2103   0.905   5.873   5.309
  402SOL     OW 2104   6.111   0.888   3.915
  402SOL    HW1 2105   6.029   0.911   3.862
  402SOL    HW2 2106   6.155   0.807   3.874
  403SOL     OW 2107   2.420   1.787   5.187
  403SOL    HW1 2108   2.366   1.762   5.106
  403SOL    HW2 2109   2.362   1.834   5.253
  404SOL     OW 2110   2.769   5.351   3.375
  404SOL    HW1 2111   2.785   5.255   3.396
  404SOL    HW2 2112   2.718   5.394   3.449
  405SOL     OW 2113   2.722   4.727   3.655
  405SOL    HW1 2114   2.701   4.817   3.694
  405SOL    HW2 2115   2.818   4.705   3.673
  406SOL     OW 2116   0.714   6.960   6.388
  406SOL    HW1 2117   0.800   6.977   6.340
  406SOL    HW2 2118   0.660   6.894   6.336
  407SOL     OW 2119   2.148   3.755   4.357
  407SOL    HW1 2120   2.050   3.769   4.343
  407SOL    HW2 2121   2.179   3.678   4.301
  408SOL     OW 2122   2.602   2.429   2.071
  408SOL    HW1 2123   2.695   2.394   2.060
  408SOL    HW2 2124   2.580   2.490   1.995
  409SOL     OW 2125   0.554   2.553   2.125
  409SOL    HW1 2126   0.540   2.628   2.060
  409SOL    HW2 2127   0.467   2.528   2.167
  410SOL     OW 2128   1.808   3.398   1.435
  410SOL    HW1 2129   1.712   3.398   1.407
  410SOL    HW2 2130   1.822   3.328   1.504
  411SOL     OW 2131   6.951   1.773   1.224
  411SOL    HW1 2132   6.888   1.725   1.163
  411SOL    HW2 2133   6.900   1.843   1.275
  412SOL     OW 2134   1.736   4.820   2.947
  412SOL    HW1 2135   1.788   4.779   2.871
  412SOL    HW2 2136   1.649   4.855   2.913
  413SOL     OW 2137   6.406   5.501   2.540
  413SOL    HW1 2138   6.387   5.595   2.568
  413SOL    HW2 2139   6.505   5.490   2.527
  414SOL     OW 2140   2.201   0.469   2.963
  414SOL    HW1 2141   2.184   0.406   2.888
  414SOL    HW2 2142   2.264   0.540   2.933
  415SOL     OW 2143   5.685   3.272   0.200
  415SOL    HW1 2144   5.679   3.311   0.108
  415SOL    HW2 2145   5.718   3.178   0.194
  416SOL     OW 2146   5.943   3.455   6.920
  416SOL    HW1 2147   5.981   3.441   7.012
  416SOL    HW2 2148   5.875   3.528   6.924
  417SOL     OW 2149   2.513   2.509   5.400
  417SOL    HW1 2150   2.548   2.469   5.315
  417SOL    HW2 2151   2.457   2.589   5.379
  418SOL     OW 2152   3.773   5.878   6.648
  418SOL    HW1 2153   3.819   5.911   6.729
  418SOL    HW2 2154   3.810   5.924   6.567
  419SOL     OW 2155   5.641   0.388   0.420
  419SOL    HW1 2156   5.642   0.400   0.520
  419SOL    HW2 2157   5.698   0.458   0.377
  420SOL     OW 2158   3.443   6.566   1.124
  420SOL    HW1 2159   3.416   6.479   1.165
  420SOL    HW2 2160   3.542   6.576   1.128
  421SOL     OW 2161   5.403   4.637   3.189
  421SOL    HW1 2162   5.495   4.650   3.151
  421SOL    HW2 2163   5.357   4.563   3.139
  422SOL     OW 2164   3.944   1.535   2.273
  422SOL    HW1 2165   3.963   1.632   2.284
  422SOL    HW2 2166   3.865   1.509   2.330
  423SOL     OW 2167   2.740   1.141   5.868
  423SOL    HW1 2168   2.776   1.233   5.860
  423SOL    HW2 2169   2.815   1.075   5.861
  424SOL     OW 2170   1.285   3.975   4.592
  424SOL    HW1 2171   1.219   3.927   4.535
  424SOL    HW2 2172   1.246   3.989   4.683
  425SOL     OW 2173   3.237   1.598   0.426
  425SOL    HW1 2174   3.250   1.527   0.356
  425SOL    HW2 2175   3.142   1.627   0.427
  426SOL     OW 2176   2.341   2.651   3.491
  426SOL    HW1 2177   2.339   2.673   3.589
  426SOL    HW2 2178   2.381   2.560   3.479
  427SOL     OW 2179   4.272   1.613   4.358
  427SOL    HW1 2180   4.174   1.598   4.354
  427SOL    HW2 2181   4.305   1.647   4.270
  428SOL     OW 2182   2.462   2.335   5.863
  428SOL    HW1 2183   2.532   2.264   5.858
  428SOL    HW2 2184   2.450   2.377   5.774
  429SOL     OW 2185   0.023   6.670   2.957
  429SOL    HW1 2186   6.980   6.601   2.980
  429SOL    HW2 2187   0.012   6.749   3.018
  430SOL     OW 2188   2.047   1.216   3.548
  430SOL    HW1 2189   1.989   1.216   3.467
  430SOL    HW2 2190   1.990   1.214   3.630
  431SOL     OW 2191   2.318   1.087   1.452
  431SOL    HW1 2192   2.402   1.034   1.442
  431SOL    HW2 2193   2.275   1.099   1.362
  432SOL     OW 2194   5.020   1.618   1.647
  432SOL    HW1 2195   5.006   1.543   1.582
  432SOL    HW2 2196   5.116   1.648   1.643
  433SOL     OW 2197   2.246   4.686   0.215
  433SOL    HW1 2198   2.226   4.647   0.125
  433SOL    HW2 2199   2.336   4.656   0.245
  434SOL     OW 2200   3.730   5.896   2.483
  434SOL    HW1 2201   3.659   5.854   2.427
  434SOL    HW2 2202   3.762   5.831   2.551
  435SOL     OW 2203   2.772   2.535   6.532
  435SOL    HW1 2204   2.796   2.543   6.435
  435SOL    HW2 2205   2.851   2.559   6.588
  436SOL     OW 2206   5.129   6.792   2.849
  436SOL    HW1 2207   5.182   6.756   2.771
  436SOL    HW2 2208   5.059   6.725   2.875
  437SOL     OW 2209   6.824   1.130   5.832
  437SOL    HW1 2210   6.888   1.180   5.890
  437SOL    HW2 2211   6.807   1.040   5.871
  438SOL     OW 2212   0.642   3.560   1.873
  438SOL    HW1 2213   0.684   3.644   1.838
  438SOL    HW2 2214   0.714   3.492   1.888
  439SOL     OW 2215   0.716   0.888   6.009
  439SOL    HW1 2216   0.734   0.907   5.912
  439SOL    HW2 2217   0.720   0.973   6.061
  440SOL     OW 2218   3.423   1.515   1.076
  440SOL    HW1 2219   3.499   1.542   1.135
  440SOL    HW2 2220   3.394   1.593   1.021
  441SOL     OW 2221   0.944   4.811   2.473
  441SOL    HW1 2222   0.901   4.737   2.525
  441SOL    HW2 2223   0.879   4.846   2.406
  442SOL     OW 2224   2.965   3.167   4.963
  442SOL    HW1 2225   2.927   3.205   4.879
  442SOL    HW2 2226   3.051   3.120   4.942
  443SOL     OW 2227   4.831   2.437   2.769
  443SOL    HW1 2228   4.771   2.359   2.789
  443SOL    HW2 2229   4.920   2.421   2.811
  444SOL     OW 2230   4.157   2.235   1.100
  444SOL    HW1 2231   4.107   2.296   1.038
  444SOL    HW2 2232   4.097   2.159   1.127
  445SOL     OW 2233   2.112   5.430   3.727
  445SOL    HW1 2234   2.173   5.359   3.693
  445SOL    HW2 2235   2.017   5.402   3.712
  446SOL     OW 2236   6.743   6.835   0.675
  446SOL    HW1 2237   6.835   6.864   0.648
  446SOL    HW2 2238   6.723   6.872   0.766
  447SOL     OW 2239   6.311   3.477   6.912
  447SOL    HW1 2240   6.283   3.543   6.982
  447SOL    HW2 2241   6.274   3.387   6.933
  448SOL     OW 2242   3.448   6.548   4.046
  448SOL    HW1 2243   3.520   6.614   4.069
  448SOL    HW2 2244   3.489   6.459   4.027
  449SOL     OW 2245   0.505   3.703   4.846
  449SOL    HW1 2246   0.459   3.615   4.842
  449SOL    HW2 2247   0.468   3.764   4.775
  450SOL     OW 2248   6.349   3.686   3.189
  450SOL    HW1 2249   6.415   3.628   3.141
  450SOL    HW2 2250   6.379   3.700   3.283
  451SOL     OW 2251   2.473   1.679   6.917
  451SOL    HW1 2252   2.445   1.767   6.957
  451SOL    HW2 2253   2.401   1.646   6.856
  452SOL     OW 2254   4.356   5.483   1.562
  452SOL    HW1 2255   4.331   5.506   1.657
  452SOL    HW2 2256   4.363   5.384   1.553
  453SOL     OW 2257   3.905   0.819   6.692
  453SOL    HW1 2258   3.806   0.802   6.686
  453SOL    HW2 2259   3.949   0.742   6.738
  454SOL     OW 2260   6.999   2.777   3.597
  454SOL    HW1 2261   6.967   2.730   3.680
  454SOL    HW2 2262   7.018   2.709   3.526
  455SOL     OW 2263   6.166   5.446   0.110
  455SOL    HW1 2264   6.076   5.421   0.145
  455SOL    HW2 2265   6.175   5.545   0.108
  456SOL     OW 2266   1.761   1.043   3.353
  456SOL    HW1 2267   1.680   1.078   3.401
  456SOL    HW2 2268   1.826   1.118   3.340
  457SOL     OW 2269   3.326   5.847   0.243
  457SOL    HW1 2270   3.271   5.893   0.312
  457SOL    HW2 2271   3.273   5.772   0.203
  458SOL     OW 2272   3.066   0.916   4.142
  458SOL    HW1 2273   3.083   0.971   4.224
  458SOL    HW2 2274   3.060   0.976   4.062
  459SOL     OW 2275   2.604   1.175   3.599
  459SOL    HW1 2276   2.606   1.140   3.693
  459SOL    HW2 2277   2.536   1.248   3.591
  460SOL     OW 2278   0.992   1.725   0.324
  460SOL    HW1 2279   1.025   1.758   0.412
  460SOL    HW2 2280   1.020   1.788   0.251
  461SOL     OW 2281   1.412   0.004   4.840
  461SOL    HW1 2282   1.312   0.004   4.844
  461SOL    HW2 2283   1.448   0.081   4.891
  462SOL     OW 2284   3.621   4.346   5.347
  462SOL    HW1 2285   3.587   4.271   5.404
  462SOL    HW2 2286   3.713   4.324   5.314
  463SOL     OW 2287   5.152   6.377   3.088
  463SOL    HW1 2288   5.137   6.431   3.171
  463SOL    HW2 2289   5.088   6.406   3.018
  464SOL     OW 2290   4.411   6.190   4.694
  464SOL    HW1 2291   4.435   6.279   4.657
  464SOL    HW2 2292   4.311   6.178   4.689
  465SOL     OW 2293   0.765   5.166   0.823
  465SOL    HW1 2294   0.704   5.245   0.836
  465SOL    HW2 2295   0.848   5.180   0.876
  466SOL     OW 2296   3.930   5.121   4.366
  466SOL    HW1 2297   3.892   5.213   4.380
  466SOL    HW2 2298   4.028   5.122   4.390
  467SOL     OW 2299   6.519   6.817   1.460
  467SOL    HW1 2300   6.455   6.776   1.525
  467SOL    HW2 2301   6.610   6.777   1.472
  468SOL     OW 2302   2.808   5.959   6.349
  468SOL    HW1 2303   2.880   5.941   6.282
  468SOL    HW2 2304   2.831   6.041   6.401
  469SOL     OW 2305   3.666   4.896   5.464
  469SOL    HW1 2306   3.690   4.815   5.517
  469SOL    HW2 2307   3.577   4.883   5.422
  470SOL     OW 2308   2.215   5.063   2.355
  470SOL    HW1 2309   2.266   5.047   2.439
  470SOL    HW2 2310   2.117   5.054   2.373
  471SOL     OW 2311   1.173   2.011   4.549
  471SOL    HW1 2312   1.161   1.940   4.619
  471SOL    HW2 2313   1.098   2.006   4.483
  472SOL     OW 2314   5.373   4.027   6.142
  472SOL    HW1 2315   5.302   4.094   6.124
  472SOL    HW2 2316   5.435   4.022   6.063
  473SOL     OW 2317   5.655   3.333   1.622
  473SOL    HW1 2318   5.665   3.395   1.543
  473SOL    HW2 2319   5.589   3.262   1.600
  474SOL     OW 2320   5.498   5.187   3.490
  474SOL    HW1 2321   5.580   5.134   3.470
  474SOL    HW2 2322   5.468   5.234   3.407
  475SOL     OW 2323   4.407   1.505   0.478
  475SOL    HW1 2324   4.476   1.492   0.406
  475SOL    HW2 2325   4.335   1.565   0.445
  476SOL     OW 2326   1.368   2.903   0.154
  476SOL    HW1 2327   1.458   2.946   0.163
  476SOL    HW2 2328   1.297   2.973   0.165
  477SOL     OW 2329   6.140   5.444   3.090
  477SOL    HW1 2330   6.044   5.424   3.074
  477SOL    HW2 2331   6.166   5.413   3.181
  478SOL     OW 2332   6.540   4.924   2.458
  478SOL    HW1 2333   6.525   4.931   2.359
  478SOL    HW2 2334   6.539   5.016   2.498
  479SOL     OW 2335   3.653   3.801   2.756
  479SOL    HW1 2336   3.710   3.847   2.824
  479SOL    HW2 2337   3.653   3.853   2.671
  480SOL     OW 2338   0.330   0.265   1.848
  480SOL    HW1 2339   0.329   0.183   1.790
  480SOL    HW2 2340   0.265   0.332   1.812
  481SOL     OW 2341   6.067   5.902   0.738
  481SOL    HW1 2342   5.982   5.854   0.716
  481SOL    HW2 2343   6.132   5.837   0.777
  482SOL     OW 2344   3.472   4.968   2.804
  482SOL    HW1 2345   3.560   4.922   2.784
  482SOL    HW2 2346   3.397   4.909   2.774
  483SOL     OW 2347   6.443   1.054   4.674
  483SOL    HW1 2348   6.350   1.074   4.645
  483SOL    HW2 2349   6.466   0.959   4.652
  484SOL     OW 2350   2.331   4.917   3.388
  484SOL    HW1 2351   2.267   4.991   3.370
  484SOL    HW2 2352   2.398   4.947   3.456
  485SOL     OW 2353   4.475   2.700   0.394
  485SOL    HW1 2354   4.525   2.633   0.339
  485SOL    HW2 2355   4.490   2.791   0.356
  486SOL     OW 2356   5.832   5.948   5.119
  486SOL    HW1 2357   5.923   5.912   5.101
  486SOL    HW2 2358   5.826   6.042   5.084
  487SOL     OW 2359   6.893   0.884   7.013
  487SOL    HW1 2360   6.879   0.965   0.045
  487SOL    HW2 2361   6.947   0.817   0.038
  488SOL     OW 2362   1.958   6.173   3.702
  488SOL    HW1 2363   1.917   6.091   3.739
  488SOL    HW2 2364   1.888   6.230   3.659
  489SOL     OW 2365   2.871   4.602   5.443
  489SOL    HW1 2366   2.890   4.700   5.434
  489SOL    HW2 2367   2.847   4.565   5.353
  490SOL     OW 2368   1.494   3.406   5.211
  490SOL    HW1 2369   1.423   3.415   5.281
  490SOL    HW2 2370   1.473   3.466   5.134
  491SOL     OW 2371   6.468   3.763   1.231
  491SOL    HW1 2372   6.404   3.692   1.200
  491SOL    HW2 2373   6.423   3.821   1.299
  492SOL     OW 2374   1.407   2.807   5.601
  492SOL    HW1 2375   1.469   2.752   5.544
  492SOL    HW2 2376   1.443   2.811   5.694
  493SOL     OW 2377   1.329   5.717   3.640
  493SOL    HW1 2378   1.345   5.816   3.639
  493SOL    HW2 2379   1.231   5.700   3.626
  494SOL     OW 2380   2.777   0.422   2.995
  494SOL    HW1 2381   2.732   0.510   2.983
  494SOL    HW2 2382   2.838   0.404   2.918
  495SOL     OW 2383   4.099   4.804   0.245
  495SOL    HW1 2384   4.099   4.847   0.155
  495SOL    HW2 2385   4.072   4.871   0.314
  496SOL     OW 2386   4.949   0.575   3.211
  496SOL    HW1 2387   4.869   0.606   3.262
  496SOL    HW2 2388   4.939   0.599   3.115
  497SOL     OW 2389   4.914   2.782   0.997
  497SOL    HW1 2390   4.840   2.740   1.049
  497SOL    HW2 2391   4.985   2.713   0.979
  498SOL     OW 2392   0.934   0.317   0.932
  498SOL    HW1 2393   0.846   0.365   0.935
  498SOL    HW2 2394   0.988   0.343   1.012
  499SOL     OW 2395   2.880   6.537   6.774
  499SOL    HW1 2396   2.815   6.536   6.697
  499SOL    HW2 2397   2.869   6.621   6.826
  500SOL     OW 2398   6.191   2.339   6.543
  500SOL    HW1 2399   6.145   2.251   6.556
  500SOL    HW2 2400   6.151   2.407   6.604
  501SOL     OW 2401   1.615   2.222   4.814
  501SOL    HW1 2402   1.609   2.223   4.714
  501SOL    HW2 2403   1.533   2.180   4.851
  502SOL     OW 2404   2.331   2.955   6.847
  502SOL    HW1 2405   2.341   2.864   6.805
  502SOL    HW2 2406   2.413   3.009   6.829
  503SOL     OW 2407   4.107   5.185   0.784
  503SOL    HW1 2408   4.071   5.101   0.745
  503SOL    HW2 2409   4.050   5.215   0.860
  504SOL     OW 2410   6.570   0.411   0.291
  504SOL    HW1 2411   6.609   0.381   0.377
  504SOL    HW2 2412   6.470   0.404   0.295
  505SOL     OW 2413   6.721   3.676   5.408
  505SOL    HW1 2414   6.803   3.724   5.439
  505SOL    HW2 2415   6.664   3.653   5.486
  506SOL     OW 2416   2.749   5.997   2.484
  506SOL    HW1 2417   2.712   6.084   2.518
  506SOL    HW2 2418   2.676   5.946   2.439
  507SOL     OW 2419   2.775   6.481   3.622
  507SOL    HW1 2420   2.778   6.517   3.528
  507SOL    HW2 2421   2.691   6.427   3.634
  508SOL     OW 2422   0.478   5.202   3.248
  508SOL    HW1 2423   0.516   5.174   3.160
  508SOL    HW2 2424   0.520   5.289   3.275
  509SOL     OW 2425   4.630   0.556   6.233
  509SOL    HW1 2426   4.663   0.520   6.320
  509SOL    HW2 2427   4.555   0.498   6.199
  510SOL     OW 2428   0.085   4.556   0.541
  510SOL    HW1 2429   0.091   4.655   0.553
  510SOL    HW2 2430   0.169   4.523   0.498
  511SOL     OW 2431   0.373   1.726   0.656
  511SOL    HW1 2432   0.414   1.655   0.600
  511SOL    HW2 2433   0.340   1.800   0.598
  512SOL     OW 2434   1.203   2.283   4.689
  512SOL    HW1 2435   1.113   2.327   4.692
  512SOL    HW2 2436   1.192   2.187   4.661
  513SOL     OW 2437   5.867   5.718   2.727
  513SOL    HW1 2438   5.905   5.638   2.680
  513SOL    HW2 2439   5.928   5.744   2.802
  514SOL     OW 2440   5.104   1.245   4.612
  514SOL    HW1 2441   5.166   1.322   4.601
  514SOL    HW2 2442   5.071   1.215   4.523
  515SOL     OW 2443   3.146   0.570   6.850
  515SOL    HW1 2444   3.109   0.518   6.928
  515SOL    HW2 2445   3.183   0.507   6.783
  516SOL     OW 2446   0.568   5.578   2.454
  516SOL    HW1 2447   0.618   5.497   2.426
  516SOL    HW2 2448   0.632   5.653   2.473
  517SOL     OW 2449   3.607   4.954   0.920
  517SOL    HW1 2450   3.643   4.885   0.983
  517SOL    HW2 2451   3.641   4.936   0.828
  518SOL     OW 2452   2.235   6.892   4.062
  518SOL    HW1 2453   2.247   6.869   3.965
  518SOL    HW2 2454   2.287   6.975   4.083
  519SOL     OW 2455   6.796   6.913   2.809
  519SOL    HW1 2456   6.820   6.958   2.723
  519SOL    HW2 2457   6.868   6.929   2.876
  520SOL     OW 2458   3.619   5.242   0.890
  520SOL    HW1 2459   3.537   5.261   0.944
  520SOL    HW2 2460   3.645   5.146   0.903
  521SOL     OW 2461   6.981   6.544   5.252
  521SOL    HW1 2462   0.043   6.496   5.243
  521SOL    HW2 2463   6.907   6.480   5.232
  522SOL     OW 2464   3.920   4.713   6.384
  522SOL    HW1 2465   3.966   4.652   6.448
  522SOL    HW2 2466   3.832   4.740   6.421
  523SOL     OW 2467   1.879   0.146   5.723
  523SOL    HW1 2468   1.812   0.220   5.729
  523SOL    HW2 2469   1.930   0.153   5.638
  524SOL     OW 2470   6.569   1.523   0.907
  524SOL    HW1 2471   6.642   1.456   0.892
  524SOL    HW2 2472   6.499   1.483   0.966
  525SOL     OW 2473   1.149   3.568   3.654
  525SOL    HW1 2474   1.079   3.499   3.670
  525SOL    HW2 2475   1.168   3.617   3.739
  526SOL     OW 2476   4.113   6.373   4.297
  526SOL    HW1 2477   4.087   6.402   4.389
  526SOL    HW2 2478   4.211   6.358   4.293
  527SOL     OW 2479   6.992   1.125   0.796
  527SOL    HW1 2480   6.998   1.126   0.697
  527SOL    HW2 2481   6.912   1.071   0.824
  528SOL     OW 2482   0.012   1.703   4.168
  528SOL    HW1 2483   6.972   1.766   4.127
  528SOL    HW2 2484   0.104   1.743   4.165
  529SOL     OW 2485   1.130   1.421   6.299
  529SOL    HW1 2486   1.211   1.458   6.254
  529SOL    HW2 2487   1.132   1.321   6.293
  530SOL     OW 2488   3.318   4.594   1.620
  530SOL    HW1 2489   3.376   4.567   1.697
  530SOL    HW2 2490   3.232   4.544   1.625
  531SOL     OW 2491   0.155   1.633   6.068
  531SOL    HW1 2492   0.211   1.709   6.033
  531SOL    HW2 2493   0.063   1.667   6.088
  532SOL     OW 2494   3.558   0.966   6.906
  532SOL    HW1 2495   3.574   0.905   6.984
  532SOL    HW2 2496   3.639   1.022   6.890
  533SOL     OW 2497   4.412   0.196   4.986
  533SOL    HW1 2498   4.382   0.254   5.061
  533SOL    HW2 2499   4.333   0.164   4.934
  534SOL     OW 2500   1.902   4.131   1.315
  534SOL    HW1 2501   1.878   4.091   1.403
  534SOL    HW2 2502   1.843   4.210   1.296
  535SOL     OW 2503   4.517   4.484   3.742
  535SOL    HW1 2504   4.439   4.523   3.790
  535SOL    HW2 2505   4.596   4.544   3.752
  536SOL     OW 2506   6.545   6.292   1.106
  536SOL    HW1 2507   6.496   6.327   1.026
  536SOL    HW2 2508   6.639   6.271   1.080
  537SOL     OW 2509   3.062   1.655   2.746
  537SOL    HW1 2510   3.134   1.631   2.682
  537SOL    HW2 2511   2.996   1.580   2.752
  538SOL     OW 2512   4.091   4.990   5.487
  538SOL    HW1 2513   4.002   5.035   5.475
  538SOL    HW2 2514   4.145   5.041   5.554
  539SOL     OW 2515   2.228   0.289   0.123
  539SOL    HW1 2516   2.296   0.266   0.053
  539SOL    HW2 2517   2.155   0.221   0.123
  540SOL     OW 2518   2.558   1.567   5.522
  540SOL    HW1 2519   2.590   1.508   5.448
  540SOL    HW2 2520   2.468   1.605   5.498
  541SOL     OW 2521   5.158   5.849   2.548
  541SOL    HW1 2522   5.065   5.813   2.562
  541SOL    HW2 2523   5.160   5.945   2.573
  542SOL     OW 2524   3.973   5.945   5.779
  542SOL    HW1 2525   3.896   5.889   5.811
  542SOL    HW2 2526   3.989   5.926   5.682
  543SOL     OW 2527   6.551   2.053   5.033
  543SOL    HW1 2528   6.617   2.008   5.093
  543SOL    HW2 2529   6.529   1.992   4.957
  544SOL     OW 2530   0.740   2.678   1.067
  544SOL    HW1 2531   0.806   2.612   1.102
  544SOL    HW2 2532   0.723   2.660   0.970
  545SOL     OW 2533   6.956   5.289   0.547
  545SOL    HW1 2534   6.949   5.213   0.612
  545SOL    HW2 2535   0.015   5.280   0.494
  546SOL     OW 2536   7.002   5.341   2.816
  546SOL    HW1 2537   0.057   5.384   2.774
  546SOL    HW2 2538   6.919   5.382   2.778
  547SOL     OW 2539   4.181   6.512   6.630
  547SOL    HW1 2540   4.225   6.478   6.547
  547SOL    HW2 2541   4.085   6.486   6.631
  548SOL     OW 2542   4.051   2.642   0.266
  548SOL    HW1 2543   3.956   2.647   0.234
  548SOL    HW2 2544   4.097   2.565   0.222
  549SOL     OW 2545   5.578   2.778   3.829
  549SOL    HW1 2546   5.528   2.795   3.914
  549SOL    HW2 2547   5.551   2.689   3.792
  550SOL     OW 2548   0.238   5.604   3.900
  550SOL    HW1 2549   0.306   5.531   3.914
  550SOL    HW2 2550   0.205   5.601   3.805
  551SOL     OW 2551   5.306   0.726   0.366
  551SOL    HW1 2552   5.328   0.767   0.454
  551SOL    HW2 2553   5.266   0.635   0.381
  552SOL     OW 2554   0.346   0.080   4.938
  552SOL    HW1 2555   0.435   0.090   4.894
  552SOL    HW2 2556   0.299   0.168   4.938
  553SOL     OW 2557   3.987   2.430   5.309
  553SOL    HW1 2558   4.063   2.460   5.251
  553SOL    HW2 2559   4.002   2.335   5.336
  554SOL     OW 2560   0.303   4.973   0.399
  554SOL    HW1 2561   0.207   4.981   0.370
  554SOL    HW2 2562   0.350   5.059   0.380
  555SOL     OW 2563   3.438   4.129   5.918
  555SOL    HW1 2564   3.381   4.070   5.861
  555SOL    HW2 2565   3.529   4.136   5.878
  556SOL     OW 2566   5.837   6.461   2.822
  556SOL    HW1 2567   5.805   6.401   2.748
  556SOL    HW2 2568   5.808   6.555   2.804
  557SOL     OW 2569   6.213   3.732   0.007
  557SOL    HW1 2570   6.116   3.747   0.029
  557SOL    HW2 2571   6.263   3.817   0.020
  558SOL     OW 2572   3.250   3.609   2.066
  558SOL    HW1 2573   3.325   3.549   2.092
  558SOL    HW2 2574   3.256   3.694   2.117
  559SOL     OW 2575   5.954   1.379   6.595
  559SOL    HW1 2576   6.041   1.330   6.599
  559SOL    HW2 2577   5.890   1.338   6.660
  560SOL     OW 2578   1.258   2.090   3.541
  560SOL    HW1 2579   1.343   2.116   3.585
  560SOL    HW2 2580   1.269   2.001   3.497
  561SOL     OW 2581   0.205   4.045   0.044
  561SOL    HW1 2582   0.225   3.965   0.101
  561SOL    HW2 2583   0.268   4.047   6.992
  562SOL     OW 2584   3.645   5.841   3.445
  562SOL    HW1 2585   3.641   5.760   3.387
  562SOL    HW2 2586   3.730   5.839   3.498
  563SOL     OW 2587   0.757   1.001   4.555
  563SOL    HW1 2588   0.703   1.011   4.471
  563SOL    HW2 2589   0.853   1.018   4.534
  564SOL     OW 2590   5.834   1.399   5.120
  564SOL    HW1 2591   5.795   1.443   5.039
  564SOL    HW2 2592   5.760   1.358   5.173
  565SOL     OW 2593   3.160   3.634   4.149
  565SOL    HW1 2594   3.258   3.616   4.155
  565SOL    HW2 2595   3.140   3.691   4.070
  566SOL     OW 2596   1.704   2.892   3.418
  566SOL    HW1 2597   1.606   2.891   3.434
  566SOL    HW2 2598   1.748   2.954   3.483
  567SOL     OW 2599   1.704   3.195   5.433
  567SOL    HW1 2600   1.609   3.166   5.421
  567SOL    HW2 2601   1.714   3.289   5.401
  568SOL     OW 2602   1.000   0.493   0.046
  568SOL    HW1 2603   1.029   0.410   7.025
  568SOL    HW2 2604   1.067   0.518   0.116
  569SOL     OW 2605   5.325   3.696   5.273
  569SOL    HW1 2606   5.297   3.785   5.309
  569SOL    HW2 2607   5.246   3.651   5.231
  570SOL     OW 2608   3.158   0.303   6.323
  570SOL    HW1 2609   3.070   0.270   6.357
  570SOL    HW2 2610   3.175   0.266   6.232
  571SOL     OW 2611   2.499   4.196   1.784
  571SOL    HW1 2612   2.472   4.228   1.875
  571SOL    HW2 2613   2.585   4.238   1.757
  572SOL     OW 2614   2.892   1.473   4.892
  572SOL    HW1 2615   2.953   1.466   4.813
  572SOL    HW2 2616   2.815   1.409   4.881
  573SOL     OW 2617   0.617   0.341   5.661
  573SOL    HW1 2618   0.668   0.403   5.603
  573SOL    HW2 2619   0.624   0.248   5.626
  574SOL     OW 2620   2.789   0.693   5.864
  574SOL    HW1 2621   2.752   0.758   5.798
  574SOL    HW2 2622   2.759   0.718   5.956
  575SOL     OW 2623   3.884   3.742   0.361
  575SOL    HW1 2624   3.832   3.695   0.432
  575SOL    HW2 2625   3.856   3.708   0.271
  576SOL     OW 2626   0.061   0.769   2.931
  576SOL    HW1 2627   0.030   0.847   2.877
  576SOL    HW2 2628   0.056   0.793   3.029
  577SOL     OW 2629   0.157   6.882   2.430
  577SOL    HW1 2630   0.249   6.846   2.444
  577SOL    HW2 2631   0.092   6.833   2.488
  578SOL     OW 2632   4.069   0.000   0.727
  578SOL    HW1 2633   3.985   0.052   0.745
  578SOL    HW2 2634   4.101   6.983   0.812
  579SOL     OW 2635   0.980   3.830   1.987
  579SOL    HW1 2636   0.986   3.737   2.024
  579SOL    HW2 2637   0.920   3.830   1.907
  580SOL     OW 2638   4.951   4.641   4.902
  580SOL    HW1 2639   5.042   4.683   4.905
  580SOL    HW2 2640   4.948   4.574   4.828
  581SOL     OW 2641   2.018   2.420   3.841
  581SOL    HW1 2642   2.094   2.373   3.887
  581SOL    HW2 2643   1.932   2.393   3.883
  582SOL     OW 2644   5.487   4.090   4.594
  582SOL    HW1 2645   5.575   4.072   4.550
  582SOL    HW2 2646   5.462   4.012   4.652
  583SOL     OW 2647   3.450   5.962   5.396
  583SOL    HW1 2648   3.548   5.982   5.391
  583SOL    HW2 2649   3.410   5.972   5.305
  584SOL     OW 2650   4.123   0.817   4.794
  584SOL    HW1 2651   4.190   0.864   4.852
  584SOL    HW2 2652   4.076   0.747   4.849
  585SOL     OW 2653   3.670   6.313   1.474
  585SOL    HW1 2654   3.710   6.239   1.528
  585SOL    HW2 2655   3.571   6.314   1.489
  586SOL     OW 2656   3.787   0.391   1.263
  586SOL    HW1 2657   3.713   0.331   1.295
  586SOL    HW2 2658   3.854   0.338   1.212
  587SOL     OW 2659   4.601   1.433   2.705
  587SOL    HW1 2660   4.679   1.383   2.743
  587SOL    HW2 2661   4.633   1.498   2.636
  588SOL     OW 2662   2.292   4.152   2.787
  588SOL    HW1 2663   2.276   4.248   2.811
  588SOL    HW2 2664   2.295   4.142   2.688
  589SOL     OW 2665   3.519   4.685   6.692
  589SOL    HW1 2666   3.577   4.758   6.654
  589SOL    HW2 2667   3.424   4.715   6.691
  590SOL     OW 2668   2.656   1.856   6.126
  590SOL    HW1 2669   2.620   1.784   6.186
  590SOL    HW2 2670   2.634   1.834   6.031
  591SOL     OW 2671   2.868   0.167   4.026
  591SOL    HW1 2672   2.882   0.232   4.101
  591SOL    HW2 2673   2.872   0.074   4.062
  592SOL     OW 2674   4.827   2.455   4.473
  592SOL    HW1 2675   4.772   2.461   4.556
  592SOL    HW2 2676   4.781   2.503   4.398
  593SOL     OW 2677   1.795   0.143   0.288
  593SOL    HW1 2678   1.700   0.161   0.264
  593SOL    HW2 2679   1.800   0.058   0.342
  594SOL     OW 2680   3.659   0.958   4.902
  594SOL    HW1 2681   3.584   0.904   4.864
  594SOL    HW2 2682   3.622   1.041   4.945
  595SOL     OW 2683   6.526   4.039   2.221
  595SOL    HW1 2684   6.446   4.098   2.210
  595SOL    HW2 2685   6.586   4.077   2.291
  596SOL     OW 2686   5.752   5.073   4.391
  596SOL    HW1 2687   5.723   5.085   4.486
  596SOL    HW2 2688   5.826   5.137   4.370
  597SOL     OW 2689   3.802   1.603   6.174
  597SOL    HW1 2690   3.804   1.658   6.090
  597SOL    HW2 2691   3.749   1.651   6.244
  598SOL     OW 2692   2.923   3.206   2.872
  598SOL    HW1 2693   2.903   3.173   2.780
  598SOL    HW2 2694   2.991   3.145   2.915
  599SOL     OW 2695   2.003   4.653   1.172
  599SOL    HW1 2696   2.073   4.608   1.226
  599SOL    HW2 2697   2.014   4.752   1.178
  600SOL     OW 2698   0.480   3.322   5.796
  600SOL    HW1 2699   0.494   3.237   5.745
  600SOL    HW2 2700   0.568   3.368   5.808
  601SOL     OW 2701   0.119   0.356   5.774
  601SOL    HW1 2702   0.097   0.313   5.687
  601SOL    HW2 2703   0.196   0.419   5.762
  602SOL     OW 2704   1.071   0.781   3.582
  602SOL    HW1 2705   1.085   0.830   3.496
  602SOL    HW2 2706   1.140   0.708   3.590
  603SOL     OW 2707   1.424   1.640   4.181
  603SOL    HW1 2708   1.425   1.730   4.138
  603SOL    HW2 2709   1.379   1.575   4.121
  604SOL     OW 2710   5.333   2.446   1.342
  604SOL    HW1 2711   5.305   2.438   1.438
  604SOL    HW2 2712   5.258   2.416   1.283
  605SOL     OW 2713   5.805   6.489   1.729
  605SOL    HW1 2714   5.811   6.422   1.803
  605SOL    HW2 2715   5.732   6.464   1.666
  606SOL     OW 2716   2.828   6.521   5.041
  606SOL    HW1 2717   2.856   6.460   5.115
  606SOL    HW2 2718   2.819   6.614   5.077
  607SOL     OW 2719   1.373   3.450   6.369
  607SOL    HW1 2720   1.375   3.527   6.305
  607SOL    HW2 2721   1.464   3.408   6.374
  608SOL     OW 2722   3.001   1.696   0.310
  608SOL    HW1 2723   2.960   1.684   0.219
  608SOL    HW2 2724   3.012   1.794   0.328
  609SOL     OW 2725   3.813   2.913   2.547
  609SOL    HW1 2726   3.867   2.850   2.602
  609SOL    HW2 2727   3.777   2.985   2.607
  610SOL     OW 2728   4.966   2.914   1.935
  610SOL    HW1 2729   4.877   2.958   1.951
  610SOL    HW2 2730   4.982   2.845   2.005
  611SOL     OW 2731   3.680   1.675   2.276
  611SOL    HW1 2732   3.591   1.708   2.245
  611SOL    HW2 2733   3.746   1.750   2.276
  612SOL     OW 2734   4.614   5.003   4.425
  612SOL    HW1 2735   4.657   5.090   4.401
  612SOL    HW2 2736   4.626   4.987   4.523
  613SOL     OW 2737   4.034   5.206   6.345
  613SOL    HW1 2738   4.001   5.290   6.301
  613SOL    HW2 2739   4.107   5.228   6.409
  614SOL     OW 2740   3.484   5.864   6.312
  614SOL    HW1 2741   3.417   5.843   6.384
  614SOL    HW2 2742   3.438   5.902   6.233
  615SOL     OW 2743   6.756   5.164   4.011
  615SOL    HW1 2744   6.687   5.190   3.943
  615SOL    HW2 2745   6.735   5.072   4.045
  616SOL     OW 2746   5.994   2.484   3.876
  616SOL    HW1 2747   5.961   2.404   3.827
  616SOL    HW2 2748   6.047   2.455   3.956
  617SOL     OW 2749   2.339   0.437   6.178
  617SOL    HW1 2750   2.423   0.481   6.206
  617SOL    HW2 2751   2.264   0.468   6.237
  618SOL     OW 2752   2.263   0.426   3.241
  618SOL    HW1 2753   2.289   0.479   3.322
  618SOL    HW2 2754   2.223   0.487   3.173
  619SOL     OW 2755   1.257   2.286   6.848
  619SOL    HW1 2756   1.235   2.223   6.774
  619SOL    HW2 2757   1.184   2.285   6.916
  620SOL     OW 2758   4.433   3.883   0.634
  620SOL    HW1 2759   4.383   3.860   0.550
  620SOL    HW2 2760   4.375   3.939   0.693
  621SOL     OW 2761   0.354   5.982   1.261
  621SOL    HW1 2762   0.398   6.071   1.271
  621SOL    HW2 2763   0.291   5.967   1.337
  622SOL     OW 2764   0.606   1.614   0.089
  622SOL    HW1 2765   0.667   1.538   0.064
  622SOL    HW2 2766   0.631   1.648   0.180
  623SOL     OW 2767   6.758   6.023   5.144
  623SOL    HW1 2768   6.832   6.084   5.173
  623SOL    HW2 2769   6.750   6.025   5.045
  624SOL     OW 2770   0.733   1.532   1.582
  624SOL    HW1 2771   0.637   1.554   1.566
  624SOL    HW2 2772   0.753   1.536   1.679
  625SOL     OW 2773   1.382   1.183   2.478
  625SOL    HW1 2774   1.358   1.279   2.461
  625SOL    HW2 2775   1.300   1.127   2.476
  626SOL     OW 2776   3.149   5.509   4.664
  626SOL    HW1 2777   3.206   5.589   4.683
  626SOL    HW2 2778   3.098   5.484   4.746
  627SOL     OW 2779   4.307   6.183   6.758
  627SOL    HW1 2780   4.280   6.095   6.796
  627SOL    HW2 2781   4.407   6.190   6.756
  628SOL     OW 2782   5.201   3.799   3.173
  628SOL    HW1 2783   5.178   3.878   3.115
  628SOL    HW2 2784   5.144   3.721   3.147
  629SOL     OW 2785   1.838   0.142   1.175
  629SOL    HW1 2786   1.914   0.124   1.237
  629SOL    HW2 2787   1.752   0.137   1.225
  630SOL     OW 2788   2.569   1.033   2.236
  630SOL    HW1 2789   2.474   1.059   2.223
  630SOL    HW2 2790   2.578   0.934   2.230
  631SOL     OW 2791   2.440   1.339   4.140
  631SOL    HW1 2792   2.352   1.340   4.187
  631SOL    HW2 2793   2.498   1.267   4.179
  632SOL     OW 2794   3.033   0.513   0.749
  632SOL    HW1 2795   3.021   0.414   0.758
  632SOL    HW2 2796   2.956   0.560   0.792
  633SOL     OW 2797   2.148   0.342   4.900
  633SOL    HW1 2798   2.188   0.400   4.972
  633SOL    HW2 2799   2.075   0.286   4.940
  634SOL     OW 2800   2.925   5.616   1.973
  634SOL    HW1 2801   2.868   5.534   1.981
  634SOL    HW2 2802   3.010   5.593   1.925
  635SOL     OW 2803   3.146   0.165   2.321
  635SOL    HW1 2804   3.105   0.078   2.347
  635SOL    HW2 2805   3.078   0.222   2.276
  636SOL     OW 2806   4.842   4.843   6.291
  636SOL    HW1 2807   4.938   4.839   6.261
  636SOL    HW2 2808   4.838   4.834   6.390
  637SOL     OW 2809   5.879   5.169   6.423
  637SOL    HW1 2810   5.810   5.200   6.488
  637SOL    HW2 2811   5.851   5.081   6.384
  638SOL     OW 2812   5.575   1.649   3.331
  638SOL    HW1 2813   5.635   1.728   3.323
  638SOL    HW2 2814   5.494   1.663   3.274
  639SOL     OW 2815   4.090   3.866   1.908
  639SOL    HW1 2816   4.036   3.787   1.878
  639SOL    HW2 2817   4.085   3.874   2.008
  640SOL     OW 2818   2.842   2.538   5.316
  640SOL    HW1 2819   2.815   2.452   5.273
  640SOL    HW2 2820   2.770   2.606   5.303
  641SOL     OW 2821   7.004   6.424   4.571
  641SOL    HW1 2822   0.059   6.410   4.628
  641SOL    HW2 2823   0.005   6.471   4.486
  642SOL     OW 2824   0.604   4.297   6.017
  642SOL    HW1 2825   0.697   4.260   6.025
  642SOL    HW2 2826   0.554   4.280   6.102
  643SOL     OW 2827   5.749   6.228   4.736
  643SOL    HW1 2828   5.689   6.209   4.814
  643SOL    HW2 2829   5.742   6.325   4.711
  644SOL     OW 2830   3.183   6.337   1.422
  644SOL    HW1 2831   3.151   6.413   1.365
  644SOL    HW2 2832   3.166   6.250   1.376
  645SOL     OW 2833   0.946   2.987   2.929
  645SOL    HW1 2834   1.011   3.063   2.930
  645SOL    HW2 2835   0.935   2.953   2.836
  646SOL     OW 2836   1.496   2.977   4.375
  646SOL    HW1 2837   1.521   3.073   4.370
  646SOL    HW2 2838   1.575   2.922   4.402
  647SOL     OW 2839   5.646   3.977   0.348
  647SOL    HW1 2840   5.669   4.013   0.257
  647SOL    HW2 2841   5.552   4.003   0.371
  648SOL     OW 2842   4.261   2.328   3.949
  648SOL    HW1 2843   4.162   2.320   3.945
  648SOL    HW2 2844   4.302   2.283   3.870
  649SOL     OW 2845   4.291   4.444   1.453
  649SOL    HW1 2846   4.229   4.368   1.431
  649SOL    HW2 2847   4.272   4.521   1.392
  650SOL     OW 2848   5.567   4.941   0.691
  650SOL    HW1 2849   5.554   5.004   0.768
  650SOL    HW2 2850   5.662   4.945   0.661
  651SOL     OW 2851   1.720   5.748   6.657
  651SOL    HW1 2852   1.793   5.759   6.725
  651SOL    HW2 2853   1.690   5.652   6.656
  652SOL     OW 2854   5.136   2.511   1.932
  652SOL    HW1 2855   5.188   2.541   1.852
  652SOL    HW2 2856   5.040   2.497   1.905
  653SOL     OW 2857   3.498   5.157   2.555
  653SOL    HW1 2858   3.462   5.077   2.507
  653SOL    HW2 2859   3.482   5.146   2.653
  654SOL     OW 2860   0.237   5.242   6.781
  654SOL    HW1 2861   0.190   5.172   6.728
  654SOL    HW2 2862   0.172   5.291   6.838
  655SOL     OW 2863   1.528   1.580   0.010
  655SOL    HW1 2864   1.536   1.670   6.992
  655SOL    HW2 2865   1.619   1.539   0.017
  656SOL     OW 2866   1.576   6.398   1.289
  656SOL    HW1 2867   1.579   6.402   1.389
  656SOL    HW2 2868   1.648   6.455   1.251
  657SOL     OW 2869   3.789   0.633   0.144
  657SOL    HW1 2870   3.861   0.668   0.084
  657SOL    HW2 2871   3.701   0.669   0.115
  658SOL     OW 2872   3.891   5.766   6.986
  658SOL    HW1 2873   3.817   5.734   6.927
  658SOL    HW2 2874   3.867   5.751   0.057
  659SOL     OW 2875   3.596   0.511   6.245
  659SOL    HW1 2876   3.670   0.507   6.312
  659SOL    HW2 2877   3.513   0.472   6.283
  660SOL     OW 2878   3.094   6.527   3.362
  660SOL    HW1 2879   3.124   6.596   3.428
  660SOL    HW2 2880   3.144   6.442   3.376
  661SOL     OW 2881   6.225   5.168   2.571
  661SOL    HW1 2882   6.214   5.206   2.663
  661SOL    HW2 2883   6.318   5.184   2.539
  662SOL     OW 2884   4.460   1.940   6.694
  662SOL    HW1 2885   4.512   1.971   6.773
  662SOL    HW2 2886   4.382   2.001   6.679
  663SOL     OW 2887   1.291   4.435   4.287
  663SOL    HW1 2888   1.275   4.382   4.203
  663SOL    HW2 2889   1.345   4.380   4.351
  664SOL     OW 2890   5.897   0.205   6.550
  664SOL    HW1 2891   5.892   0.174   6.455
  664SOL    HW2 2892   5.809   0.190   6.595
  665SOL     OW 2893   1.234   4.057   1.929
  665SOL    HW1 2894   1.316   4.037   1.982
  665SOL    HW2 2895   1.166   3.985   1.944
  666SOL     OW 2896   4.360   0.613   2.374
  666SOL    HW1 2897   4.370   0.705   2.413
  666SOL    HW2 2898   4.263   0.587   2.374
  667SOL     OW 2899   0.424   0.504   1.584
  667SOL    HW1 2900   0.462   0.503   1.491
  667SOL    HW2 2901   0.476   0.567   1.641
  668SOL     OW 2902   5.599   3.161   6.741
  668SOL    HW1 2903   5.519   3.209   6.776
  668SOL    HW2 2904   5.631   3.208   6.658
  669SOL     OW 2905   5.032   1.514   3.139
  669SOL    HW1 2906   5.107   1.579   3.150
  669SOL    HW2 2907   5.026   1.487   3.043
  670SOL     OW 2908   4.089   2.189   2.266
  670SOL    HW1 2909   4.068   2.178   2.364
  670SOL    HW2 2910   4.034   2.125   2.213
  671SOL     OW 2911   1.034   5.921   1.543
  671SOL    HW1 2912   1.129   5.916   1.513
  671SOL    HW2 2913   0.991   5.832   1.529
  672SOL     OW 2914   0.788   0.160   1.175
  672SOL    HW1 2915   0.870   0.109   1.202
  672SOL    HW2 2916   0.750   0.120   1.092
  673SOL     OW 2917   6.140   0.112   6.655
  673SOL    HW1 2918   6.061   0.164   6.622
  673SOL    HW2 2919   6.187   0.164   6.727
  674SOL     OW 2920   5.309   0.144   4.102
  674SOL    HW1 2921   5.305   0.222   4.165
  674SOL    HW2 2922   5.285   0.060   4.151
  675SOL     OW 2923   1.077   5.045   1.849
  675SOL    HW1 2924   1.073   4.963   1.791
  675SOL    HW2 2925   1.004   5.041   1.918
  676SOL     OW 2926   2.693   5.940   6.840
  676SOL    HW1 2927   2.594   5.947   6.852
  676SOL    HW2 2928   2.735   5.917   6.928
  677SOL     OW 2929   5.673   0.884   1.499
  677SOL    HW1 2930   5.599   0.946   1.524
  677SOL    HW2 2931   5.637   0.791   1.492
  678SOL     OW 2932   0.670   5.346   4.117
  678SOL    HW1 2933   0.620   5.331   4.203
  678SOL    HW2 2934   0.757   5.391   4.136
  679SOL     OW 2935   4.762   1.387   5.778
  679SOL    HW1 2936   4.663   1.395   5.788
  679SOL    HW2 2937   4.801   1.477   5.756
  680SOL     OW 2938   6.019   6.464   4.022
  680SOL    HW1 2939   6.085   6.390   4.011
  680SOL    HW2 2940   6.031   6.531   3.949
  681SOL     OW 2941   4.033   4.816   2.583
  681SOL    HW1 2942   4.118   4.782   2.625
  681SOL    HW2 2943   4.012   4.906   2.620
  682SOL     OW 2944   6.695   1.114   3.097
  682SOL    HW1 2945   6.677   1.016   3.106
  682SOL    HW2 2946   6.646   1.164   3.169
  683SOL     OW 2947   3.170   4.632   0.381
  683SOL    HW1 2948   3.180   4.584   0.468
  683SOL    HW2 2949   3.238   4.704   0.374
  684SOL     OW 2950   6.364   1.549   6.499
  684SOL    HW1 2951   6.464   1.537   6.498
  684SOL    HW2 2952   6.320   1.465   6.529
  685SOL     OW 2953   3.151   6.696   3.580
  685SOL    HW1 2954   3.170   6.779   3.529
  685SOL    HW2 2955   3.204   6.696   3.665
  686SOL     OW 2956   3.643   0.187   5.238
  686SOL    HW1 2957   3.716   0.196   5.306
  686SOL    HW2 2958   3.554   0.201   5.282
  687SOL     OW 2959   0.066   0.680   4.594
  687SOL    HW1 2960   7.017   0.720   4.648
  687SOL    HW2 2961   0.135   0.750   4.575
  688SOL     OW 2962   5.126   3.082   0.218
  688SOL    HW1 2963   5.206   3.138   0.198
  688SOL    HW2 2964   5.074   3.124   0.293
  689SOL     OW 2965   2.544   5.592   0.235
  689SOL    HW1 2966   2.527   5.684   0.269
  689SOL    HW2 2967   2.628   5.556   0.276
  690SOL     OW 2968   5.720   3.526   4.336
  690SOL    HW1 2969   5.680   3.435   4.347
  690SOL    HW2 2970   5.696   3.582   4.416
  691SOL     OW 2971   5.852   1.054   2.601
  691SOL    HW1 2972   5.772   1.105   2.569
  691SOL    HW2 2973   5.902   1.017   2.523
  692SOL     OW 2974   1.229   0.149   3.329
  692SOL    HW1 2975   1.299   0.187   3.270
  692SOL    HW2 2976   1.268   0.077   3.387
  693SOL     OW 2977   6.169   4.149   2.251
  693SOL    HW1 2978   6.165   4.128   2.349
  693SOL    HW2 2979   6.197   4.244   2.239
  694SOL     OW 2980   4.150   4.870   4.344
  694SOL    HW1 2981   4.064   4.876   4.293
  694SOL    HW2 2982   4.186   4.777   4.338
  695SOL     OW 2983   4.461   0.005   3.658
  695SOL    HW1 2984   4.417   0.007   3.748
  695SOL    HW2 2985   4.431   6.949   3.608
  696SOL     OW 2986   5.703   4.167   1.817
  696SOL    HW1 2987   5.751   4.188   1.902
  696SOL    HW2 2988   5.643   4.243   1.792
  697SOL     OW 2989   0.690   6.256   2.731
  697SOL    HW1 2990   0.717   6.306   2.814
  697SOL    HW2 2991   0.685   6.319   2.654
  698SOL     OW 2992   5.779   6.375   6.031
  698SOL    HW1 2993   5.790   6.474   6.032
  698SOL    HW2 2994   5.778   6.340   6.124
  699SOL     OW 2995   4.026   3.469   0.828
  699SOL    HW1 2996   4.063   3.376   0.833
  699SOL    HW2 2997   4.078   3.529   0.888
  700SOL     OW 2998   3.501   6.792   5.641
  700SOL    HW1 2999   3.597   6.803   5.616
  700SOL    HW2 3000   3.494   6.727   5.716
  701SOL     OW 3001   4.639   4.648   2.175
  701SOL    HW1 3002   4.693   4.676   2.096
  701SOL    HW2 3003   4.696   4.597   2.239
  702SOL     OW 3004   3.912   0.509   4.673
  702SOL    HW1 3005   3.981   0.439   4.656
  702SOL    HW2 3006   3.930   0.553   4.762
  703SOL     OW 3007   3.743   3.293   0.472
  703SOL    HW1 3008   3.755   3.227   0.546
  703SOL    HW2 3009   3.645   3.305   0.453
  704SOL     OW 3010   3.841   1.484   6.806
  704SOL    HW1 3011   3.936   1.515   6.818
  704SOL    HW2 3012   3.834   1.430   6.722
  705SOL     OW 3013   6.809   6.331   5.492
  705SOL    HW1 3014   6.908   6.324   5.482
  705SOL    HW2 3015   6.788   6.396   5.565
  706SOL     OW 3016   4.176   0.123   4.826
  706SOL    HW1 3017   4.186   0.140   4.728
  706SOL    HW2 3018   4.133   0.034   4.841
  707SOL     OW 3019   3.241   4.937   4.236
  707SOL    HW1 3020   3.268   4.969   4.145
  707SOL    HW2 3021   3.166   4.872   4.227
  708SOL     OW 3022   3.102   5.902   3.723
  708SOL    HW1 3023   3.129   5.822   3.671
  708SOL    HW2 3024   3.162   5.979   3.700
  709SOL     OW 3025   2.250   0.128   1.878
  709SOL    HW1 3026   2.331   0.165   1.832
  709SOL    HW2 3027   2.243   0.030   1.860
  710SOL     OW 3028   4.875   3.250   2.874
  710SOL    HW1 3029   4.818   3.332   2.866
  710SOL    HW2 3030   4.900   3.217   2.783
  711SOL     OW 3031   6.798   1.685   0.955
  711SOL    HW1 3032   6.720   1.624   0.938
  711SOL    HW2 3033   6.860   1.682   0.877
  712SOL     OW 3034   5.404   4.091   0.408
  712SOL    HW1 3035   5.340   4.112   0.335
  712SOL    HW2 3036   5.395   4.158   0.481
  713SOL     OW 3037   4.029   2.901   6.279
  713SOL    HW1 3038   3.982   2.987   6.299
  713SOL    HW2 3039   3.976   2.847   6.214
  714SOL     OW 3040   4.328   6.603   3.122
  714SOL    HW1 3041   4.271   6.525   3.095
  714SOL    HW2 3042   4.340   6.665   3.044
  715SOL     OW 3043   6.031   4.566   5.660
  715SOL    HW1 3044   6.025   4.635   5.732
  715SOL    HW2 3045   6.079   4.485   5.695
  716SOL     OW 3046   3.321   1.845   3.503
  716SOL    HW1 3047   3.230   1.836   3.543
  716SOL    HW2 3048   3.360   1.754   3.489
  717SOL     OW 3049   4.728   5.079   3.731
  717SOL    HW1 3050   4.747   5.117   3.822
  717SOL    HW2 3051   4.716   4.980   3.738
  718SOL     OW 3052   6.402   2.066   5.286
  718SOL    HW1 3053   6.302   2.065   5.288
  718SOL    HW2 3054   6.434   2.049   5.193
  719SOL     OW 3055   4.856   5.801   2.586
  719SOL    HW1 3056   4.894   5.830   2.674
  719SOL    HW2 3057   4.810   5.713   2.597
  720SOL     OW 3058   2.947   1.547   1.202
  720SOL    HW1 3059   3.007   1.625   1.220
  720SOL    HW2 3060   2.858   1.580   1.169
  721SOL     OW 3061   6.871   2.705   2.151
  721SOL    HW1 3062   6.857   2.608   2.135
  721SOL    HW2 3063   6.969   2.725   2.159
  722SOL     OW 3064   5.644   6.249   1.510
  722SOL    HW1 3065   5.739   6.259   1.482
  722SOL    HW2 3066   5.599   6.183   1.450
  723SOL     OW 3067   2.219   0.812   4.462
  723SOL    HW1 3068   2.187   0.726   4.421
  723SOL    HW2 3069   2.157   0.886   4.438
  724SOL     OW 3070   1.363   2.714   4.907
  724SOL    HW1 3071   1.462   2.695   4.908
  724SOL    HW2 3072   1.316   2.651   4.969
  725SOL     OW 3073   1.743   4.240   3.104
  725SOL    HW1 3074   1.645   4.247   3.087
  725SOL    HW2 3075   1.758   4.200   3.195
  726SOL     OW 3076   2.284   3.983   0.524
  726SOL    HW1 3077   2.346   4.045   0.572
  726SOL    HW2 3078   2.320   3.889   0.531
  727SOL     OW 3079   3.795   5.369   4.494
  727SOL    HW1 3080   3.752   5.303   4.556
  727SOL    HW2 3081   3.727   5.436   4.465
  728SOL     OW 3082   5.933   3.198   3.440
  728SOL    HW1 3083   5.913   3.296   3.441
  728SOL    HW2 3084   5.896   3.156   3.523
  729SOL     OW 3085   1.067   4.930   0.455
  729SOL    HW1 3086   0.995   4.877   0.412
  729SOL    HW2 3087   1.036   5.025   0.467
  730SOL     OW 3088   4.060   1.665   3.244
  730SOL    HW1 3089   4.069   1.760   3.275
  730SOL    HW2 3090   4.106   1.654   3.156
  731SOL     OW 3091   4.850   4.744   5.259
  731SOL    HW1 3092   4.789   4.743   5.338
  731SOL    HW2 3093   4.938   4.784   5.284
  732SOL     OW 3094   4.342   0.794   4.240
  732SOL    HW1 3095   4.318   0.730   4.313
  732SOL    HW2 3096   4.441   0.808   4.238
  733SOL     OW 3097   0.021   5.152   4.275
  733SOL    HW1 3098   0.103   5.209   4.278
  733SOL    HW2 3099   0.038   5.073   4.216
  734SOL     OW 3100   5.929   6.118   3.104
  734SOL    HW1 3101   5.928   6.113   3.204
  734SOL    HW2 3102   5.858   6.058   3.067
  735SOL     OW 3103   4.238   0.232   2.564
  735SOL    HW1 3104   4.295   0.313   2.577
  735SOL    HW2 3105   4.189   0.239   2.478
  736SOL     OW 3106   1.415   2.082   4.218
  736SOL    HW1 3107   1.474   2.163   4.224
  736SOL    HW2 3108   1.336   2.104   4.161
  737SOL     OW 3109   3.431   0.700   5.995
  737SOL    HW1 3110   3.473   0.715   6.084
  737SOL    HW2 3111   3.451   0.778   5.935
  738SOL     OW 3112   1.670   5.186   0.426
  738SOL    HW1 3113   1.577   5.171   0.461
  738SOL    HW2 3114   1.722   5.240   0.491
  739SOL     OW 3115   1.584   0.811   3.490
  739SOL    HW1 3116   1.600   0.713   3.476
  739SOL    HW2 3117   1.652   0.847   3.554
  740SOL     OW 3118   5.325   3.073   2.909
  740SOL    HW1 3119   5.260   3.076   2.833
  740SOL    HW2 3120   5.345   2.978   2.933
  741SOL     OW 3121   2.732   1.681   2.818
  741SOL    HW1 3122   2.636   1.709   2.816
  741SOL    HW2 3123   2.783   1.732   2.749
  742SOL     OW 3124   2.347   0.510   2.598
  742SOL    HW1 3125   2.281   0.435   2.596
  742SOL    HW2 3126   2.399   0.511   2.513
  743SOL     OW 3127   0.365   6.636   2.620
  743SOL    HW1 3128   0.388   6.543   2.592
  743SOL    HW2 3129   0.406   6.701   2.556
  744SOL     OW 3130   5.052   1.649   1.094
  744SOL    HW1 3131   5.003   1.735   1.106
  744SOL    HW2 3132   5.102   1.650   1.007
  745SOL     OW 3133   2.162   6.895   5.416
  745SOL    HW1 3134   2.117   6.974   5.375
  745SOL    HW2 3135   2.254   6.885   5.378
  746SOL     OW 3136   6.342   5.829   4.948
  746SOL    HW1 3137   6.436   5.841   4.916
  746SOL    HW2 3138   6.307   5.742   4.915
  747SOL     OW 3139   3.957   5.220   2.292
  747SOL    HW1 3140   3.946   5.280   2.213
  747SOL    HW2 3141   3.870   5.174   2.311
  748SOL     OW 3142   5.898   4.661   2.099
  748SOL    HW1 3143   5.829   4.729   2.125
  748SOL    HW2 3144   5.956   4.699   2.027
  749SOL     OW 3145   4.723   4.276   4.568
  749SOL    HW1 3146   4.799   4.326   4.528
  749SOL    HW2 3147   4.757   4.209   4.635
  750SOL     OW 3148   2.389   1.912   3.335
  750SOL    HW1 3149   2.482   1.941   3.313
  750SOL    HW2 3150   2.324   1.982   3.307
  751SOL     OW 3151   4.672   0.472   0.417
  751SOL    HW1 3152   4.712   0.386   0.448
  751SOL    HW2 3153   4.606   0.505   0.484
  752SOL     OW 3154   2.968   3.279   4.690
  752SOL    HW1 3155   2.942   3.304   4.596
  752SOL    HW2 3156   3.025   3.351   4.729
  753SOL     OW 3157   3.788   3.726   3.491
  753SOL    HW1 3158   3.832   3.706   3.579
  753SOL    HW2 3159   3.853   3.712   3.417
  754SOL     OW 3160   4.993   0.045   6.908
  754SOL    HW1 3161   4.963   6.976   6.899
  754SOL    HW2 3162   4.941   0.103   6.845
  755SOL     OW 3163   4.967   4.395   5.132
  755SOL    HW1 3164   4.940   4.300   5.112
  755SOL    HW2 3165   5.066   4.400   5.142
  756SOL     OW 3166   3.379   5.667   5.663
  756SOL    HW1 3167   3.453   5.720   5.621
  756SOL    HW2 3168   3.330   5.616   5.592
  757SOL     OW 3169   1.330   6.952   1.743
  757SOL    HW1 3170   1.421   6.910   1.739
  757SOL    HW2 3171   1.337   0.017   1.784
  758SOL     OW 3172   3.842   1.194   4.614
  758SOL    HW1 3173   3.931   1.239   4.601
  758SOL    HW2 3174   3.855   1.108   4.664
  759SOL     OW 3175   0.095   2.639   3.365
  759SOL    HW1 3176   0.024   2.671   3.303
  759SOL    HW2 3177   0.173   2.701   3.361
  760SOL     OW 3178   6.883   5.482   3.998
  760SOL    HW1 3179   6.899   5.431   4.082
  760SOL    HW2 3180   6.796   5.531   4.005
  761SOL     OW 3181   4.728   4.841   5.797
  761SOL    HW1 3182   4.681   4.827   5.884
  761SOL    HW2 3183   4.765   4.754   5.764
  762SOL     OW 3184   3.988   5.630   3.378
  762SOL    HW1 3185   3.981   5.648   3.280
  762SOL    HW2 3186   4.065   5.682   3.416
  763SOL     OW 3187   5.585   1.275   0.671
  763SOL    HW1 3188   5.630   1.338   0.608
  763SOL    HW2 3189   5.570   1.321   0.759
  764SOL     OW 3190   5.357   6.246   5.213
  764SOL    HW1 3191   5.269   6.209   5.183
  764SOL    HW2 3192   5.393   6.190   5.288
  765SOL     OW 3193   5.671   6.043   0.320
  765SOL    HW1 3194   5.679   5.947   0.346
  765SOL    HW2 3195   5.671   6.100   0.402
  766SOL     OW 3196   2.538   2.243   3.917
  766SOL    HW1 3197   2.506   2.334   3.887
  766SOL    HW2 3198   2.578   2.250   4.008
  767SOL     OW 3199   6.705   6.121   3.289
  767SOL    HW1 3200   6.631   6.188   3.283
  767SOL    HW2 3201   6.692   6.052   3.218
  768SOL     OW 3202   2.545   5.639   2.014
  768SOL    HW1 3203   2.577   5.627   1.920
  768SOL    HW2 3204   2.547   5.550   2.061
  769SOL     OW 3205   3.374   1.437   5.520
  769SOL    HW1 3206   3.344   1.341   5.514
  769SOL    HW2 3207   3.354   1.483   5.434
  770SOL     OW 3208   0.645   4.650   5.558
  770SOL    HW1 3209   0.734   4.617   5.528
  770SOL    HW2 3210   0.631   4.743   5.524
  771SOL     OW 3211   1.577   4.835   2.682
  771SOL    HW1 3212   1.587   4.736   2.671
  771SOL    HW2 3213   1.480   4.859   2.687
  772SOL     OW 3214   6.076   5.062   0.313
  772SOL    HW1 3215   6.123   4.974   0.313
  772SOL    HW2 3216   6.135   5.131   0.271
  773SOL     OW 3217   1.988   5.030   4.178
  773SOL    HW1 3218   1.936   5.073   4.104
  773SOL    HW2 3219   1.933   5.032   4.262
  774SOL     OW 3220   1.764   2.216   4.074
  774SOL    HW1 3221   1.706   2.267   4.010
  774SOL    HW2 3222   1.821   2.151   4.024
  775SOL     OW 3223   0.621   4.018   2.455
  775SOL    HW1 3224   0.527   3.985   2.461
  775SOL    HW2 3225   0.635   4.061   2.366
  776SOL     OW 3226   3.265   5.210   6.486
  776SOL    HW1 3227   3.344   5.160   6.523
  776SOL    HW2 3228   3.297   5.279   6.421
  777SOL     OW 3229   2.070   3.836   6.763
  777SOL    HW1 3230   2.079   3.791   6.852
  777SOL    HW2 3231   1.973   3.858   6.747
  778SOL     OW 3232   3.718   5.628   6.807
  778SOL    HW1 3233   3.738   5.645   6.711
  778SOL    HW2 3234   3.637   5.570   6.815
  779SOL     OW 3235   5.846   1.352   3.535
  779SOL    HW1 3236   5.777   1.353   3.607
  779SOL    HW2 3237   5.883   1.445   3.523
  780SOL     OW 3238   6.493   1.379   4.531
  780SOL    HW1 3239   6.569   1.343   4.585
  780SOL    HW2 3240   6.504   1.478   4.520
  781SOL     OW 3241   0.813   5.208   6.369
  781SOL    HW1 3242   0.886   5.221   6.436
  781SOL    HW2 3243   0.724   5.219   6.413
  782SOL     OW 3244   2.340   4.304   5.513
  782SOL    HW1 3245   2.275   4.366   5.467
  782SOL    HW2 3246   2.383   4.245   5.446
  783SOL     OW 3247   6.818   4.841   6.243
  783SOL    HW1 3248   6.757   4.908   6.199
  783SOL    HW2 3249   6.876   4.887   6.310
  784SOL     OW 3250   2.070   5.794   6.399
  784SOL    HW1 3251   2.107   5.729   6.466
  784SOL    HW2 3252   2.138   5.865   6.379
  785SOL     OW 3253   0.497   0.328   3.952
  785SOL    HW1 3254   0.476   0.308   4.048
  785SOL    HW2 3255   0.492   0.243   3.899
  786SOL     OW 3256   5.723   0.782   4.923
  786SOL    HW1 3257   5.823   0.778   4.925
  786SOL    HW2 3258   5.691   0.775   4.829
  787SOL     OW 3259   2.219   6.465   0.717
  787SOL    HW1 3260   2.180   6.527   0.649
  787SOL    HW2 3261   2.269   6.391   0.672
  788SOL     OW 3262   2.167   3.062   2.229
  788SOL    HW1 3263   2.127   3.090   2.142
  788SOL    HW2 3264   2.217   2.976   2.218
  789SOL     OW 3265   3.707   5.154   2.391
  789SOL    HW1 3266   3.693   5.069   2.341
  789SOL    HW2 3267   3.636   5.164   2.461
  790SOL     OW 3268   6.834   3.174   2.011
  790SOL    HW1 3269   6.809   3.080   1.990
  790SOL    HW2 3270   6.875   3.178   2.102
  791SOL     OW 3271   3.245   1.461   3.380
  791SOL    HW1 3272   3.213   1.402   3.454
  791SOL    HW2 3273   3.168   1.489   3.323
  792SOL     OW 3274   2.317   0.211   0.679
  792SOL    HW1 3275   2.259   0.203   0.597
  792SOL    HW2 3276   2.410   0.235   0.651
  793SOL     OW 3277   1.827   5.564   4.802
  793SOL    HW1 3278   1.898   5.615   4.850
  793SOL    HW2 3279   1.857   5.470   4.786
  794SOL     OW 3280   3.575   3.619   2.466
  794SOL    HW1 3281   3.495   3.601   2.409
  794SOL    HW2 3282   3.558   3.587   2.559
  795SOL     OW 3283   4.689   6.813   5.264
  795SOL    HW1 3284   4.747   6.894   5.267
  795SOL    HW2 3285   4.709   6.754   5.342
  796SOL     OW 3286   1.294   2.481   6.473
  796SOL    HW1 3287   1.384   2.512   6.506
  796SOL    HW2 3288   1.242   2.560   6.441
  797SOL     OW 3289   3.466   6.858   1.135
  797SOL    HW1 3290   3.509   6.822   1.217
  797SOL    HW2 3291   3.525   6.842   1.056
  798SOL     OW 3292   4.687   4.586   1.269
  798SOL    HW1 3293   4.622   4.651   1.231
  798SOL    HW2 3294   4.683   4.589   1.369
  799SOL     OW 3295   3.560   3.055   5.495
  799SOL    HW1 3296   3.525   3.140   5.534
  799SOL    HW2 3297   3.660   3.056   5.496
  800SOL     OW 3298   5.425   3.065   2.512
  800SOL    HW1 3299   5.510   3.017   2.490
  800SOL    HW2 3300   5.353   2.998   2.529
  801SOL     OW 3301   1.933   5.352   6.937
  801SOL    HW1 3302   1.843   5.395   6.947
  801SOL    HW2 3303   1.978   5.389   6.856
  802SOL     OW 3304   4.149   2.407   6.397
  802SOL    HW1 3305   4.085   2.369   6.463
  802SOL    HW2 3306   4.235   2.430   6.443
  803SOL     OW 3307   2.421   2.414   3.396
  803SOL    HW1 3308   2.363   2.425   3.314
  803SOL    HW2 3309   2.509   2.376   3.370
  804SOL     OW 3310   4.795   0.001   2.970
  804SOL    HW1 3311   4.755   6.951   2.917
  804SOL    HW2 3312   4.894   7.013   2.976
  805SOL     OW 3313   3.345   1.571   3.931
  805SOL    HW1 3314   3.412   1.632   3.890
  805SOL    HW2 3315   3.353   1.574   4.031
  806SOL     OW 3316   4.069   6.007   6.051
  806SOL    HW1 3317   4.122   6.089   6.030
  806SOL    HW2 3318   4.023   5.975   5.968
  807SOL     OW 3319   1.508   6.225   6.270
  807SOL    HW1 3320   1.528   6.130   6.296
  807SOL    HW2 3321   1.498   6.231   6.171
  808SOL     OW 3322   5.431   2.186   5.905
  808SOL    HW1 3323   5.418   2.285   5.892
  808SOL    HW2 3324   5.529   2.166   5.910
  809SOL     OW 3325   3.285   6.385   6.241
  809SOL    HW1 3326   3.233   6.462   6.277
  809SOL    HW2 3327   3.296   6.395   6.142
  810SOL     OW 3328   4.013   4.060   0.114
  810SOL    HW1 3329   3.966   4.022   0.034
  810SOL    HW2 3330   3.945   4.094   0.179
  811SOL     OW 3331   5.648   5.573   4.518
  811SOL    HW1 3332   5.558   5.559   4.477
  811SOL    HW2 3333   5.687   5.659   4.484
  812SOL     OW 3334   1.084   2.752   1.081
  812SOL    HW1 3335   1.126   2.760   0.991
  812SOL    HW2 3336   1.025   2.832   1.097
  813SOL     OW 3337   3.199   1.793   4.887
  813SOL    HW1 3338   3.273   1.810   4.822
  813SOL    HW2 3339   3.222   1.835   4.975
  814SOL     OW 3340   0.373   4.724   1.645
  814SOL    HW1 3341   0.459   4.706   1.693
  814SOL    HW2 3342   0.340   4.640   1.602
  815SOL     OW 3343   4.649   0.927   3.758
  815SOL    HW1 3344   4.594   0.865   3.814
  815SOL    HW2 3345   4.590   0.973   3.692
  816SOL     OW 3346   5.182   3.923   6.297
  816SOL    HW1 3347   5.101   3.927   6.238
  816SOL    HW2 3348   5.260   3.961   6.248
  817SOL     OW 3349   6.780   5.284   6.654
  817SOL    HW1 3350   6.814   5.284   6.560
  817SOL    HW2 3351   6.704   5.349   6.662
  818SOL     OW 3352   6.872   1.254   5.586
  818SOL    HW1 3353   6.832   1.214   5.669
  818SOL    HW2 3354   6.802   1.263   5.516
  819SOL     OW 3355   5.671   3.481   1.372
  819SOL    HW1 3356   5.614   3.564   1.371
  819SOL    HW2 3357   5.766   3.506   1.352
  820SOL     OW 3358   2.414   1.923   5.610
  820SOL    HW1 3359   2.415   2.003   5.550
  820SOL    HW2 3360   2.335   1.928   5.671
  821SOL     OW 3361   5.283   3.204   6.057
  821SOL    HW1 3362   5.274   3.230   5.961
  821SOL    HW2 3363   5.195   3.214   6.103
  822SOL     OW 3364   6.822   4.440   3.389
  822SOL    HW1 3365   6.729   4.408   3.404
  822SOL    HW2 3366   6.841   4.516   3.451
  823SOL     OW 3367   2.201   2.873   4.341
  823SOL    HW1 3368   2.170   2.966   4.363
  823SOL    HW2 3369   2.122   2.819   4.309
  824SOL     OW 3370   5.377   0.640   6.391
  824SOL    HW1 3371   5.361   0.626   6.489
  824SOL    HW2 3372   5.318   0.579   6.339
  825SOL     OW 3373   6.252   5.686   0.852
  825SOL    HW1 3374   6.236   5.596   0.811
  825SOL    HW2 3375   6.349   5.696   0.873
  826SOL     OW 3376   3.737   1.998   0.355
  826SOL    HW1 3377   3.832   1.988   0.327
  826SOL    HW2 3378   3.679   2.005   0.274
  827SOL     OW 3379   3.414   3.109   4.978
  827SOL    HW1 3380   3.343   3.038   4.976
  827SOL    HW2 3381   3.495   3.074   5.025
  828SOL     OW 3382   0.969   6.774   5.932
  828SOL    HW1 3383   1.051   6.723   5.906
  828SOL    HW2 3384   0.891   6.712   5.937
  829SOL     OW 3385   3.885   3.342   1.698
  829SOL    HW1 3386   3.934   3.382   1.776
  829SOL    HW2 3387   3.787   3.360   1.707
  830SOL     OW 3388   6.856   4.032   5.795
  830SOL    HW1 3389   6.934   3.970   5.792
  830SOL    HW2 3390   6.777   3.984   5.833
  831SOL     OW 3391   5.957   1.414   3.064
  831SOL    HW1 3392   6.011   1.397   3.147
  831SOL    HW2 3393   5.887   1.483   3.084
  832SOL     OW 3394   3.156   2.183   4.783
  832SOL    HW1 3395   3.193   2.234   4.860
  832SOL    HW2 3396   3.060   2.161   4.801
  833SOL     OW 3397   4.132   2.844   0.009
  833SOL    HW1 3398   4.144   2.940   0.034
  833SOL    HW2 3399   4.049   2.808   0.052
  834SOL     OW 3400   6.046   3.471   0.512
  834SOL    HW1 3401   6.039   3.502   0.607
  834SOL    HW2 3402   6.081   3.378   0.510
  835SOL     OW 3403   6.426   6.957   5.390
  835SOL    HW1 3404   6.478   6.937   5.307
  835SOL    HW2 3405   6.334   6.920   5.381
  836SOL     OW 3406   6.011   6.930   4.205
  836SOL    HW1 3407   5.966   6.847   4.236
  836SOL    HW2 3408   6.039   6.919   4.109
  837SOL     OW 3409   1.191   0.501   6.551
  837SOL    HW1 3410   1.230   0.447   6.626
  837SOL    HW2 3411   1.096   0.475   6.537
  838SOL     OW 3412   1.468   5.841   3.171
  838SOL    HW1 3413   1.550   5.833   3.115
  838SOL    HW2 3414   1.439   5.750   3.202
  839SOL     OW 3415   1.329   2.649   0.078
  839SOL    HW1 3416   1.358   2.743   0.096
  839SOL    HW2 3417   1.332   2.630   7.006
  840SOL     OW 3418   4.450   5.179   0.166
  840SOL    HW1 3419   4.416   5.133   0.249
  840SOL    HW2 3420   4.548   5.194   0.174
  841SOL     OW 3421   2.872   5.205   6.270
  841SOL    HW1 3422   2.831   5.270   6.206
  841SOL    HW2 3423   2.894   5.252   6.355
  842SOL     OW 3424   4.617   6.816   1.321
  842SOL    HW1 3425   4.615   6.846   1.416
  842SOL    HW2 3426   4.634   6.895   1.262
  843SOL     OW 3427   1.208   0.528   1.972
  843SOL    HW1 3428   1.145   0.518   1.895
  843SOL    HW2 3429   1.261   0.612   1.961
  844SOL     OW 3430   6.816   6.444   1.754
  844SOL    HW1 3431   6.757   6.363   1.749
  844SOL    HW2 3432   6.762   6.522   1.787
  845SOL     OW 3433   3.663   1.455   1.803
  845SOL    HW1 3434   3.722   1.481   1.879
  845SOL    HW2 3435   3.601   1.531   1.782
  846SOL     OW 3436   1.405   1.300   1.473
  846SOL    HW1 3437   1.309   1.319   1.454
  846SOL    HW2 3438   1.463   1.357   1.415
  847SOL     OW 3439   2.416   3.261   1.394
  847SOL    HW1 3440   2.487   3.322   1.427
  847SOL    HW2 3441   2.414   3.262   1.294
  848SOL     OW 3442   6.375   6.115   0.701
  848SOL    HW1 3443   6.280   6.147   0.707
  848SOL    HW2 3444   6.413   6.140   0.612
  849SOL     OW 3445   5.030   3.285   6.233
  849SOL    HW1 3446   5.058   3.220   6.305
  849SOL    HW2 3447   4.933   3.273   6.213
  850SOL     OW 3448   1.907   1.255   4.377
  850SOL    HW1 3449   1.810   1.249   4.404
  850SOL    HW2 3450   1.919   1.329   4.312
  851SOL     OW 3451   5.048   2.390   5.867
  851SOL    HW1 3452   5.049   2.350   5.958
  851SOL    HW2 3453   4.968   2.356   5.816
  852SOL     OW 3454   6.738   5.253   1.716
  852SOL    HW1 3455   6.713   5.158   1.733
  852SOL    HW2 3456   6.657   5.305   1.690
  853SOL     OW 3457   3.178   2.764   0.767
  853SOL    HW1 3458   3.080   2.773   0.749
  853SOL    HW2 3459   3.228   2.834   0.715
  854SOL     OW 3460   0.061   7.000   6.080
  854SOL    HW1 3461   0.097   0.027   6.157
  854SOL    HW2 3462   6.986   7.001   6.082
  855SOL     OW 3463   4.820   1.726   6.942
  855SOL    HW1 3464   4.753   1.657   6.971
  855SOL    HW2 3465   4.857   1.772   7.022
  856SOL     OW 3466   1.666   5.690   1.594
  856SOL    HW1 3467   1.672   5.600   1.549
  856SOL    HW2 3468   1.749   5.706   1.647
  857SOL     OW 3469   6.795   6.250   4.962
  857SOL    HW1 3470   6.792   6.291   5.053
  857SOL    HW2 3471   6.770   6.318   4.893
  858SOL     OW 3472   3.407   4.174   6.858
  858SOL    HW1 3473   3.435   4.084   6.823
  858SOL    HW2 3474   3.388   4.235   6.781
  859SOL     OW 3475   4.519   5.747   5.487
  859SOL    HW1 3476   4.544   5.720   5.580
  859SOL    HW2 3477   4.522   5.666   5.427
  860SOL     OW 3478   4.343   3.088   6.529
  860SOL    HW1 3479   4.420   3.034   6.495
  860SOL    HW2 3480   4.373   3.143   6.607
  861SOL     OW 3481   1.023   5.773   2.262
  861SOL    HW1 3482   1.102   5.723   2.229
  861SOL    HW2 3483   1.029   5.869   2.234
  862SOL     OW 3484   0.763   4.170   3.894
  862SOL    HW1 3485   0.679   4.126   3.927
  862SOL    HW2 3486   0.755   4.269   3.905
  863SOL     OW 3487   5.477   0.689   1.567
  863SOL    HW1 3488   5.562   0.636   1.570
  863SOL    HW2 3489   5.435   0.679   1.477
  864SOL     OW 3490   5.906   5.184   2.900
  864SOL    HW1 3491   5.973   5.176   2.974
  864SOL    HW2 3492   5.930   5.121   2.826
  865SOL     OW 3493   1.364   5.238   4.509
  865SOL    HW1 3494   1.280   5.210   4.555
  865SOL    HW2 3495   1.440   5.180   4.540
  866SOL     OW 3496   3.906   6.971   1.461
  866SOL    HW1 3497   3.965   0.022   1.435
  866SOL    HW2 3498   3.819   7.007   1.495
  867SOL     OW 3499   6.029   3.679   5.637
  867SOL    HW1 3500   6.091   3.602   5.656
  867SOL    HW2 3501   6.075   3.765   5.659
  868SOL     OW 3502   0.883   1.432   2.567
  868SOL    HW1 3503   0.936   1.515   2.584
  868SOL    HW2 3504   0.895   1.368   2.643
  869SOL     OW 3505   0.694   3.145   1.936
  869SOL    HW1 3506   0.784   3.105   1.951
  869SOL    HW2 3507   0.663   3.124   1.843
  870SOL     OW 3508   3.863   4.863   2.076
  870SOL    HW1 3509   3.790   4.796   2.068
  870SOL    HW2 3510   3.912   4.870   1.989
  871SOL     OW 3511   4.366   1.576   3.651
  871SOL    HW1 3512   4.373   1.512   3.727
  871SOL    HW2 3513   4.457   1.597   3.616
  872SOL     OW 3514   1.284   2.502   5.141
  872SOL    HW1 3515   1.264   2.425   5.081
  872SOL    HW2 3516   1.212   2.511   5.210
  873SOL     OW 3517   4.115   6.987   6.284
  873SOL    HW1 3518   4.069   0.042   6.323
  873SOL    HW2 3519   4.068   6.904   6.314
  874SOL     OW 3520   6.224   4.114   1.916
  874SOL    HW1 3521   6.166   4.052   1.969
  874SOL    HW2 3522   6.258   4.186   1.976
  875SOL     OW 3523   5.408   5.816   2.341
  875SOL    HW1 3524   5.394   5.742   2.275
  875SOL    HW2 3525   5.337   5.812   2.411
  876SOL     OW 3526   6.543   1.069   6.484
  876SOL    HW1 3527   6.566   1.147   6.426
  876SOL    HW2 3528   6.538   1.098   6.579
  877SOL     OW 3529   1.785   3.100   6.770
  877SOL    HW1 3530   1.817   3.174   6.830
  877SOL    HW2 3531   1.802   3.012   6.815
  878SOL     OW 3532   4.143   6.568   4.056
  878SOL    HW1 3533   4.142   6.527   4.147
  878SOL    HW2 3534   4.058   6.619   4.041
  879SOL     OW 3535   5.451   6.950   5.943
  879SOL    HW1 3536   5.387   7.010   5.897
  879SOL    HW2 3537   5.452   6.861   5.898
  880SOL     OW 3538   3.451   3.212   3.135
  880SOL    HW1 3539   3.474   3.130   3.082
  880SOL    HW2 3540   3.525   3.278   3.127
  881SOL     OW 3541   3.997   2.313   0.531
  881SOL    HW1 3542   4.074   2.356   0.578
  881SOL    HW2 3543   4.030   2.266   0.449
  882SOL     OW 3544   1.902   2.985   3.624
  882SOL    HW1 3545   1.985   2.940   3.655
  882SOL    HW2 3546   1.923   3.078   3.593
  883SOL     OW 3547   2.474   6.306   3.047
  883SOL    HW1 3548   2.406   6.376   3.068
  883SOL    HW2 3549   2.554   6.318   3.106
  884SOL     OW 3550   2.665   3.571   6.170
  884SOL    HW1 3551   2.699   3.638   6.104
  884SOL    HW2 3552   2.702   3.480   6.149
  885SOL     OW 3553   4.083   2.850   6.768
  885SOL    HW1 3554   4.084   2.939   6.723
  885SOL    HW2 3555   4.108   2.860   6.864
  886SOL     OW 3556   3.620   1.228   6.604
  886SOL    HW1 3557   3.676   1.198   6.681
  886SOL    HW2 3558   3.665   1.304   6.558
  887SOL     OW 3559   4.374   0.954   5.355
  887SOL    HW1 3560   4.430   1.021   5.404
  887SOL    HW2 3561   4.283   0.951   5.397
  888SOL     OW 3562   0.658   6.750   1.754
  888SOL    HW1 3563   0.577   6.805   1.774
  888SOL    HW2 3564   0.640   6.654   1.776
  889SOL     OW 3565   0.291   4.043   0.625
  889SOL    HW1 3566   0.265   3.958   0.670
  889SOL    HW2 3567   0.210   4.097   0.606
  890SOL     OW 3568   2.153   5.827   4.716
  890SOL    HW1 3569   2.107   5.787   4.636
  890SOL    HW2 3570   2.084   5.861   4.780
  891SOL     OW 3571   4.813   4.501   2.601
  891SOL    HW1 3572   4.779   4.576   2.658
  891SOL    HW2 3573   4.741   4.434   2.586
  892SOL     OW 3574   2.422   4.170   0.646
  892SOL    HW1 3575   2.433   4.225   0.564
  892SOL    HW2 3576   2.370   4.221   0.714
  893SOL     OW 3577   1.819   5.578   2.719
  893SOL    HW1 3578   1.854   5.666   2.688
  893SOL    HW2 3579   1.882   5.539   2.787
  894SOL     OW 3580   0.845   4.591   1.262
  894SOL    HW1 3581   0.910   4.522   1.293
  894SOL    HW2 3582   0.851   4.601   1.163
  895SOL     OW 3583   0.071   5.005   4.075
  895SOL    HW1 3584   0.036   5.026   3.984
  895SOL    HW2 3585   0.144   4.937   4.067
  896SOL     OW 3586   6.945   1.114   6.361
  896SOL    HW1 3587   6.968   1.052   6.436
  896SOL    HW2 3588   0.003   1.154   6.324
  897SOL     OW 3589   5.444   1.121   0.881
  897SOL    HW1 3590   5.466   1.164   0.794
  897SOL    HW2 3591   5.349   1.141   0.905
  898SOL     OW 3592   3.970   1.050   2.894
  898SOL    HW1 3593   4.028   0.974   2.868
  898SOL    HW2 3594   3.940   1.100   2.813
  899SOL     OW 3595   6.540   6.452   6.853
  899SOL    HW1 3596   6.570   6.539   6.814
  899SOL    HW2 3597   6.567   6.448   6.949
  900SOL     OW 3598   5.302   5.297   0.073
  900SOL    HW1 3599   5.389   5.284   0.027
  900SOL    HW2 3600   5.314   5.282   0.171
  901SOL     OW 3601   1.275   0.621   3.389
  901SOL    HW1 3602   1.357   0.566   3.403
  901SOL    HW2 3603   1.284   0.672   3.303
  902SOL     OW 3604   6.840   3.477   1.368
  902SOL    HW1 3605   6.879   3.473   1.460
  902SOL    HW2 3606   6.812   3.571   1.348
  903SOL     OW 3607   0.101   0.871   0.914
  903SOL    HW1 3608   0.077   0.967   0.895
  903SOL    HW2 3609   0.200   0.861   0.916
  904SOL     OW 3610   2.697   0.984   3.429
  904SOL    HW1 3611   2.672   1.068   3.478
  904SOL    HW2 3612   2.671   0.905   3.484
  905SOL     OW 3613   6.139   1.932   6.206
  905SOL    HW1 3614   6.104   2.024   6.220
  905SOL    HW2 3615   6.162   1.892   6.295
  906SOL     OW 3616   5.369   3.329   0.530
  906SOL    HW1 3617   5.467   3.318   0.516
  906SOL    HW2 3618   5.348   3.426   0.542
  907SOL     OW 3619   5.499   4.034   6.404
  907SOL    HW1 3620   5.463   4.058   6.314
  907SOL    HW2 3621   5.595   4.006   6.396
  908SOL     OW 3622   0.335   3.869   3.417
  908SOL    HW1 3623   0.355   3.773   3.397
  908SOL    HW2 3624   0.416   3.925   3.398
  909SOL     OW 3625   5.318   5.262   5.910
  909SOL    HW1 3626   5.377   5.205   5.852
  909SOL    HW2 3627   5.373   5.304   5.982
  910SOL     OW 3628   3.469   4.633   0.280
  910SOL    HW1 3629   3.559   4.602   0.311
  910SOL    HW2 3630   3.433   4.567   0.213
  911SOL     OW 3631   1.248   4.751   5.665
  911SOL    HW1 3632   1.329   4.697   5.644
  911SOL    HW2 3633   1.189   4.755   5.585
  912SOL     OW 3634   4.904   1.291   5.072
  912SOL    HW1 3635   4.939   1.199   5.094
  912SOL    HW2 3636   4.804   1.287   5.064
  913SOL     OW 3637   4.615   6.524   3.181
  913SOL    HW1 3638   4.531   6.576   3.163
  913SOL    HW2 3639   4.636   6.527   3.279
  914SOL     OW 3640   3.283   6.416   5.934
  914SOL    HW1 3641   3.377   6.401   5.901
  914SOL    HW2 3642   3.229   6.460   5.863
  915SOL     OW 3643   5.255   5.657   1.582
  915SOL    HW1 3644   5.275   5.600   1.502
  915SOL    HW2 3645   5.250   5.599   1.663
  916SOL     OW 3646   1.233   3.315   3.126
  916SOL    HW1 3647   1.294   3.303   3.204
  916SOL    HW2 3648   1.219   3.413   3.109
  917SOL     OW 3649   0.589   6.976   6.641
  917SOL    HW1 3650   0.498   6.934   6.644
  917SOL    HW2 3651   0.631   6.959   6.552
  918SOL     OW 3652   3.710   6.519   0.073
  918SOL    HW1 3653   3.792   6.525   0.130
  918SOL    HW2 3654   3.629   6.516   0.131
  919SOL     OW 3655   4.403   0.691   6.136
  919SOL    HW1 3656   4.493   0.660   6.166
  919SOL    HW2 3657   4.375   0.640   6.054
  920SOL     OW 3658   3.016   4.786   1.899
  920SOL    HW1 3659   2.984   4.699   1.936
  920SOL    HW2 3660   3.095   4.818   1.952
  921SOL     OW 3661   4.669   5.765   5.081
  921SOL    HW1 3662   4.682   5.865   5.083
  921SOL    HW2 3663   4.748   5.721   5.124
  922SOL     OW 3664   2.909   3.353   3.343
  922SOL    HW1 3665   2.911   3.437   3.289
  922SOL    HW2 3666   2.829   3.354   3.404
  923SOL     OW 3667   2.498   3.372   5.682
  923SOL    HW1 3668   2.507   3.447   5.617
  923SOL    HW2 3669   2.552   3.392   5.764
  924SOL     OW 3670   0.295   3.199   1.201
  924SOL    HW1 3671   0.245   3.251   1.131
  924SOL    HW2 3672   0.310   3.257   1.281
  925SOL     OW 3673   0.483   1.406   6.802
  925SOL    HW1 3674   0.524   1.374   6.717
  925SOL    HW2 3675   0.510   1.501   6.818
  926SOL     OW 3676   2.243   1.978   1.082
  926SOL    HW1 3677   2.275   1.896   1.129
  926SOL    HW2 3678   2.143   1.978   1.078
  927SOL     OW 3679   6.622   3.294   4.822
  927SOL    HW1 3680   6.685   3.222   4.793
  927SOL    HW2 3681   6.671   3.380   4.832
  928SOL     OW 3682   2.886   5.519   5.463
  928SOL    HW1 3683   2.872   5.538   5.560
  928SOL    HW2 3684   2.850   5.429   5.440
  929SOL     OW 3685   0.592   1.708   4.827
  929SOL    HW1 3686   0.500   1.676   4.850
  929SOL    HW2 3687   0.594   1.808   4.830
  930SOL     OW 3688   5.793   5.323   5.039
  930SOL    HW1 3689   5.821   5.249   4.978
  930SOL    HW2 3690   5.702   5.356   5.013
  931SOL     OW 3691   5.806   0.540   3.373
  931SOL    HW1 3692   5.835   0.547   3.469
  931SOL    HW2 3693   5.815   0.629   3.329
  932SOL     OW 3694   3.645   0.053   3.555
  932SOL    HW1 3695   3.578   7.012   3.587
  932SOL    HW2 3696   3.614   0.146   3.578
  933SOL     OW 3697   0.990   5.538   1.858
  933SOL    HW1 3698   1.012   5.603   1.931
  933SOL    HW2 3699   0.920   5.578   1.798
  934SOL     OW 3700   1.801   2.786   0.397
  934SOL    HW1 3701   1.873   2.767   0.330
  934SOL    HW2 3702   1.778   2.702   0.446
  935SOL     OW 3703   5.820   2.600   5.606
  935SOL    HW1 3704   5.795   2.524   5.666
  935SOL    HW2 3705   5.907   2.638   5.636
  936SOL     OW 3706   1.997   0.569   6.045
  936SOL    HW1 3707   1.987   0.469   6.043
  936SOL    HW2 3708   2.089   0.593   6.074
  937SOL     OW 3709   3.353   2.598   6.470
  937SOL    HW1 3710   3.387   2.692   6.466
  937SOL    HW2 3711   3.391   2.545   6.394
  938SOL     OW 3712   4.952   6.386   4.777
  938SOL    HW1 3713   4.916   6.466   4.823
  938SOL    HW2 3714   4.921   6.303   4.823
  939SOL     OW 3715   1.755   0.146   4.835
  939SOL    HW1 3716   1.674   0.195   4.868
  939SOL    HW2 3717   1.734   0.101   4.749
  940SOL     OW 3718   1.911   5.426   0.610
  940SOL    HW1 3719   1.896   5.522   0.634
  940SOL    HW2 3720   1.852   5.368   0.666
  941SOL     OW 3721   4.037   6.977   1.139
  941SOL    HW1 3722   4.061   6.903   1.203
  941SOL    HW2 3723   4.089   6.966   1.055
  942SOL     OW 3724   6.323   5.308   6.956
  942SOL    HW1 3725   6.247   5.359   6.997
  942SOL    HW2 3726   6.405   5.321   7.012
  943SOL     OW 3727   3.595   5.883   0.830
  943SOL    HW1 3728   3.529   5.811   0.852
  943SOL    HW2 3729   3.688   5.847   0.836
  944SOL     OW 3730   6.869   6.033   2.995
  944SOL    HW1 3731   6.940   6.099   2.971
  944SOL    HW2 3732   6.884   6.001   3.089
  945SOL     OW 3733   0.973   5.786   6.598
  945SOL    HW1 3734   0.923   5.870   6.619
  945SOL    HW2 3735   1.020   5.796   6.510
  946SOL     OW 3736   5.757   1.942   3.887
  946SOL    HW1 3737   5.757   1.917   3.984
  946SOL    HW2 3738   5.824   2.014   3.871
  947SOL     OW 3739   3.747   4.080   2.520
  947SOL    HW1 3740   3.790   3.990   2.514
  947SOL    HW2 3741   3.797   4.145   2.463
  948SOL     OW 3742   3.494   1.437   3.713
  948SOL    HW1 3743   3.531   1.506   3.650
  948SOL    HW2 3744   3.452   1.482   3.792
  949SOL     OW 3745   2.684   0.172   5.924
  949SOL    HW1 3746   2.742   0.164   6.005
  949SOL    HW2 3747   2.718   0.246   5.866
  950SOL     OW 3748   6.952   6.751   1.846
  950SOL    HW1 3749   7.011   6.730   1.924
  950SOL    HW2 3750   6.856   6.734   1.871
  951SOL     OW 3751   1.420   0.119   3.024
  951SOL    HW1 3752   1.427   0.134   2.926
  951SOL    HW2 3753   1.453   0.200   3.073
  952SOL     OW 3754   3.607   1.554   3.086
  952SOL    HW1 3755   3.628   1.483   3.153
  952SOL    HW2 3756   3.534   1.613   3.122
  953SOL     OW 3757   0.835   5.635   5.798
  953SOL    HW1 3758   0.810   5.610   5.892
  953SOL    HW2 3759   0.869   5.729   5.798
  954SOL     OW 3760   4.541   6.666   2.417
  954SOL    HW1 3761   4.527   6.597   2.346
  954SOL    HW2 3762   4.588   6.625   2.495
  955SOL     OW 3763   2.728   4.708   1.202
  955SOL    HW1 3764   2.769   4.752   1.281
  955SOL    HW2 3765   2.705   4.777   1.133
  956SOL     OW 3766   3.641   0.463   0.947
  956SOL    HW1 3767   3.658   0.494   0.853
  956SOL    HW2 3768   3.602   0.371   0.944
  957SOL     OW 3769   5.856   6.804   3.622
  957SOL    HW1 3770   5.862   6.829   3.525
  957SOL    HW2 3771   5.768   6.834   3.659
  958SOL     OW 3772   5.645   5.911   2.116
  958SOL    HW1 3773   5.659   5.905   2.017
  958SOL    HW2 3774   5.548   5.898   2.137
  959SOL     OW 3775   4.975   0.335   2.897
  959SOL    HW1 3776   4.985   0.289   2.808
  959SOL    HW2 3777   4.932   0.424   2.883
  960SOL     OW 3778   1.685   6.255   5.342
  960SOL    HW1 3779   1.643   6.346   5.342
  960SOL    HW2 3780   1.782   6.263   5.363
  961SOL     OW 3781   3.767   1.282   3.612
  961SOL    HW1 3782   3.804   1.201   3.567
  961SOL    HW2 3783   3.732   1.346   3.543
  962SOL     OW 3784   0.289   6.958   4.691
  962SOL    HW1 3785   0.318   0.015   4.738
  962SOL    HW2 3786   0.322   6.878   4.741
  963SOL     OW 3787   5.917   2.845   1.344
  963SOL    HW1 3788   5.904   2.940   1.371
  963SOL    HW2 3789   5.887   2.785   1.418
  964SOL     OW 3790   3.396   6.595   5.019
  964SOL    HW1 3791   3.372   6.591   4.922
  964SOL    HW2 3792   3.316   6.569   5.073
  965SOL     OW 3793   4.759   1.931   3.972
  965SOL    HW1 3794   4.821   1.921   3.894
  965SOL    HW2 3795   4.752   1.845   4.022
  966SOL     OW 3796   5.384   0.868   3.069
  966SOL    HW1 3797   5.397   0.825   3.158
  966SOL    HW2 3798   5.360   0.799   3.001
  967SOL     OW 3799   4.086   5.280   5.868
  967SOL    HW1 3800   4.165   5.332   5.901
  967SOL    HW2 3801   4.118   5.199   5.819
  968SOL     OW 3802   3.593   0.630   1.146
  968SOL    HW1 3803   3.544   0.562   1.200
  968SOL    HW2 3804   3.635   0.587   1.066
  969SOL     OW 3805   2.712   3.885   6.897
  969SOL    HW1 3806   2.788   3.935   6.855
  969SOL    HW2 3807   2.740   3.791   6.916
  970SOL     OW 3808   4.437   6.322   5.074
  970SOL    HW1 3809   4.409   6.354   5.164
  970SOL    HW2 3810   4.384   6.241   5.049
  971SOL     OW 3811   5.105   3.412   3.402
  971SOL    HW1 3812   5.179   3.468   3.365
  971SOL    HW2 3813   5.048   3.379   3.328
  972SOL     OW 3814   0.459   1.824   0.884
  972SOL    HW1 3815   0.399   1.838   0.963
  972SOL    HW2 3816   0.406   1.787   0.808
  973SOL     OW 3817   6.844   2.507   4.787
  973SOL    HW1 3818   6.760   2.458   4.763
  973SOL    HW2 3819   6.825   2.571   4.861
  974SOL     OW 3820   0.595   3.063   1.678
  974SOL    HW1 3821   0.639   2.984   1.635
  974SOL    HW2 3822   0.622   3.146   1.629
  975SOL     OW 3823   2.920   0.462   1.715
  975SOL    HW1 3824   2.986   0.530   1.749
  975SOL    HW2 3825   2.970   0.384   1.677
  976SOL     OW 3826   0.116   2.809   3.920
  976SOL    HW1 3827   0.045   2.742   3.897
  976SOL    HW2 3828   0.108   2.834   4.017
  977SOL     OW 3829   6.114   1.211   2.436
  977SOL    HW1 3830   6.206   1.232   2.402
  977SOL    HW2 3831   6.092   1.272   2.511
  978SOL     OW 3832   4.877   2.384   1.015
  978SOL    HW1 3833   4.948   2.450   0.990
  978SOL    HW2 3834   4.855   2.394   1.112
  979SOL     OW 3835   7.002   4.940   6.417
  979SOL    HW1 3836   0.040   4.871   6.382
  979SOL    HW2 3837   0.023   4.998   6.483
  980SOL     OW 3838   4.631   1.502   4.081
  980SOL    HW1 3839   4.562   1.568   4.112
  980SOL    HW2 3840   4.586   1.428   4.031
  981SOL     OW 3841   0.653   6.005   5.644
  981SOL    HW1 3842   0.737   6.058   5.656
  981SOL    HW2 3843   0.635   5.951   5.726
  982SOL     OW 3844   0.132   1.016   6.911
  982SOL    HW1 3845   0.185   0.969   6.981
  982SOL    HW2 3846   0.190   1.082   6.864
  983SOL     OW 3847   7.008   3.665   2.714
  983SOL    HW1 3848   6.946   3.736   2.681
  983SOL    HW2 3849   0.017   3.690   2.804
  984SOL     OW 3850   0.077   3.433   3.924
  984SOL    HW1 3851   7.019   3.382   3.943
  984SOL    HW2 3852   0.058   3.505   3.857
  985SOL     OW 3853   5.576   5.493   4.962
  985SOL    HW1 3854   5.616   5.582   4.940
  985SOL    HW2 3855   5.552   5.445   4.878
  986SOL     OW 3856   3.969   5.552   1.785
  986SOL    HW1 3857   3.909   5.626   1.817
  986SOL    HW2 3858   4.064   5.583   1.791
  987SOL     OW 3859   4.554   4.536   4.496
  987SOL    HW1 3860   4.588   4.562   4.406
  987SOL    HW2 3861   4.578   4.440   4.514
  988SOL     OW 3862   2.977   4.805   2.201
  988SOL    HW1 3863   2.949   4.733   2.137
  988SOL    HW2 3864   3.063   4.846   2.170
  989SOL     OW 3865   0.014   2.497   1.144
  989SOL    HW1 3866   0.005   2.464   1.050
  989SOL    HW2 3867   0.095   2.555   1.152
  990SOL     OW 3868   3.850   0.130   5.048
  990SOL    HW1 3869   3.838   0.188   4.967
  990SOL    HW2 3870   3.775   0.148   5.112
  991SOL     OW 3871   1.017   5.942   4.170
  991SOL    HW1 3872   1.108   5.982   4.158
  991SOL    HW2 3873   1.026   5.844   4.189
  992SOL     OW 3874   6.661   3.048   0.148
  992SOL    HW1 3875   6.685   3.136   0.108
  992SOL    HW2 3876   6.698   3.042   0.241
  993SOL     OW 3877   1.738   5.307   6.526
  993SOL    HW1 3878   1.663   5.249   6.495
  993SOL    HW2 3879   1.815   5.249   6.554
  994SOL     OW 3880   2.552   0.036   1.522
  994SOL    HW1 3881   2.618   0.090   1.470
  994SOL    HW2 3882   2.463   0.083   1.522
  995SOL     OW 3883   6.018   4.110   5.702
  995SOL    HW1 3884   5.943   4.093   5.638
  995SOL    HW2 3885   6.034   4.028   5.757
  996SOL     OW 3886   4.085   6.477   5.096
  996SOL    HW1 3887   3.997   6.495   5.140
  996SOL    HW2 3888   4.155   6.538   5.133
  997SOL     OW 3889   1.107   6.166   3.640
  997SOL    HW1 3890   1.144   6.176   3.732
  997SOL    HW2 3891   1.170   6.114   3.583
  998SOL     OW 3892   4.839   0.028   0.516
  998SOL    HW1 3893   4.860   0.051   0.421
  998SOL    HW2 3894   4.820   0.112   0.567
  999SOL     OW 3895   5.596   3.111   2.123
  999SOL    HW1 3896   5.673   3.095   2.062
  999SOL    HW2 3897   5.511   3.115   2.071
 1000SOL     OW 3898   5.511   1.924   2.020
 1000SOL    HW1 3899   5.533   1.859   2.092
 1000SOL    HW2 3900   5.489   2.013   2.061
 1001SOL     OW 3901   2.717   6.357   3.150
 1001SOL    HW1 3902   2.725   6.456   3.156
 1001SOL    HW2 3903   2.807   6.317   3.131
 1002SOL     OW 3904   3.716   2.451   0.508
 1002SOL    HW1 3905   3.676   2.373   0.557
 1002SOL    HW2 3906   3.815   2.440   0.502
 1003SOL     OW 3907   0.477   1.251   3.911
 1003SOL    HW1 3908   0.505   1.256   3.816
 1003SOL    HW2 3909   0.430   1.164   3.928
 1004SOL     OW 3910   5.026   1.611   4.368
 1004SOL    HW1 3911   4.983   1.591   4.456
 1004SOL    HW2 3912   5.039   1.710   4.358
 1005SOL     OW 3913   0.815   5.393   1.404
 1005SOL    HW1 3914   0.798   5.332   1.481
 1005SOL    HW2 3915   0.852   5.340   1.327
 1006SOL     OW 3916   1.872   4.377   1.592
 1006SOL    HW1 3917   1.940   4.305   1.611
 1006SOL    HW2 3918   1.849   4.376   1.495
 1007SOL     OW 3919   4.554   1.156   6.267
 1007SOL    HW1 3920   4.516   1.084   6.209
 1007SOL    HW2 3921   4.520   1.245   6.238
 1008SOL     OW 3922   0.221   4.782   4.904
 1008SOL    HW1 3923   0.138   4.733   4.877
 1008SOL    HW2 3924   0.290   4.773   4.832
 1009SOL     OW 3925   6.399   6.290   6.513
 1009SOL    HW1 3926   6.372   6.310   6.607
 1009SOL    HW2 3927   6.318   6.265   6.460
 1010SOL     OW 3928   2.844   3.797   0.482
 1010SOL    HW1 3929   2.929   3.849   0.487
 1010SOL    HW2 3930   2.799   3.798   0.571
 1011SOL     OW 3931   0.187   5.054   2.292
 1011SOL    HW1 3932   0.180   5.154   2.296
 1011SOL    HW2 3933   0.282   5.029   2.271
 1012SOL     OW 3934   5.547   6.297   2.941
 1012SOL    HW1 3935   5.553   6.202   2.908
 1012SOL    HW2 3936   5.632   6.321   2.988
 1013SOL     OW 3937   0.748   1.127   6.130
 1013SOL    HW1 3938   0.774   1.202   6.069
 1013SOL    HW2 3939   0.796   1.138   6.217
 1014SOL     OW 3940   0.627   4.657   4.268
 1014SOL    HW1 3941   0.683   4.626   4.191
 1014SOL    HW2 3942   0.619   4.757   4.265
 1015SOL     OW 3943   3.334   6.296   0.135
 1015SOL    HW1 3944   3.277   6.311   0.215
 1015SOL    HW2 3945   3.320   6.203   0.101
 1016SOL     OW 3946   6.880   4.818   0.598
 1016SOL    HW1 3947   6.844   4.744   0.542
 1016SOL    HW2 3948   6.975   4.797   0.624
 1017SOL     OW 3949   2.006   1.053   2.369
 1017SOL    HW1 3950   2.068   1.005   2.308
 1017SOL    HW2 3951   1.947   0.987   2.415
 1018SOL     OW 3952   5.825   6.230   5.017
 1018SOL    HW1 3953   5.780   6.300   5.071
 1018SOL    HW2 3954   5.890   6.272   4.954
 1019SOL     OW 3955   6.369   3.994   1.010
 1019SOL    HW1 3956   6.344   4.039   1.096
 1019SOL    HW2 3957   6.398   3.900   1.028
 1020SOL     OW 3958   5.504   1.381   1.484
 1020SOL    HW1 3959   5.509   1.370   1.583
 1020SOL    HW2 3960   5.448   1.309   1.444
 1021SOL     OW 3961   1.398   6.564   0.684
 1021SOL    HW1 3962   1.384   6.661   0.665
 1021SOL    HW2 3963   1.350   6.539   0.768
 1022SOL     OW 3964   1.954   5.145   6.609
 1022SOL    HW1 3965   1.930   5.062   6.558
 1022SOL    HW2 3966   1.983   5.119   6.702
 1023SOL     OW 3967   1.036   1.282   2.377
 1023SOL    HW1 3968   0.957   1.339   2.401
 1023SOL    HW2 3969   1.042   1.273   2.278
 1024SOL     OW 3970   2.043   2.340   4.690
 1024SOL    HW1 3971   1.986   2.348   4.772
 1024SOL    HW2 3972   2.135   2.372   4.711
 1025SOL     OW 3973   4.678   4.130   1.270
 1025SOL    HW1 3974   4.593   4.178   1.249
 1025SOL    HW2 3975   4.658   4.046   1.320
 1026SOL     OW 3976   3.257   2.878   1.986
 1026SOL    HW1 3977   3.200   2.830   1.920
 1026SOL    HW2 3978   3.206   2.893   2.070
 1027SOL     OW 3979   6.557   0.122   0.326
 1027SOL    HW1 3980   6.515   0.187   0.389
 1027SOL    HW2 3981   6.638   0.081   0.369
 1028SOL     OW 3982   0.769   4.846   3.163
 1028SOL    HW1 3983   0.804   4.929   3.119
 1028SOL    HW2 3984   0.765   4.860   3.262
 1029SOL     OW 3985   0.322   0.787   4.868
 1029SOL    HW1 3986   0.359   0.861   4.925
 1029SOL    HW2 3987   0.222   0.786   4.875
 1030SOL     OW 3988   4.236   3.692   0.910
 1030SOL    HW1 3989   4.289   3.753   0.969
 1030SOL    HW2 3990   4.299   3.630   0.862
 1031SOL     OW 3991   3.893   2.772   0.562
 1031SOL    HW1 3992   3.821   2.730   0.617
 1031SOL    HW2 3993   3.967   2.706   0.549
 1032SOL     OW 3994   1.687   1.314   0.927
 1032SOL    HW1 3995   1.693   1.391   0.863
 1032SOL    HW2 3996   1.648   1.235   0.880
 1033SOL     OW 3997   6.731   6.898   1.966
 1033SOL    HW1 3998   6.822   6.937   1.950
 1033SOL    HW2 3999   6.671   6.922   1.890
 1034SOL     OW 4000   2.868   0.808   4.945
 1034SOL    HW1 4001   2.902   0.834   4.854
 1034SOL    HW2 4002   2.861   0.889   5.002
 1035SOL     OW 4003   1.496   0.168   0.269
 1035SOL    HW1 4004   1.483   0.244   0.333
 1035SOL    HW2 4005   1.412   0.153   0.218
 1036SOL     OW 4006   4.877   1.481   2.342
 1036SOL    HW1 4007   4.867   1.384   2.319
 1036SOL    HW2 4008   4.919   1.530   2.265
 1037SOL     OW 4009   1.607   3.736   3.227
 1037SOL    HW1 4010   1.611   3.825   3.180
 1037SOL    HW2 4011   1.608   3.752   3.326
 1038SOL     OW 4012   1.936   6.282   0.593
 1038SOL    HW1 4013   2.029   6.245   0.592
 1038SOL    HW2 4014   1.940   6.382   0.588
 1039SOL     OW 4015   3.026   3.483   2.931
 1039SOL    HW1 4016   2.975   3.398   2.921
 1039SOL    HW2 4017   3.114   3.465   2.975
 1040SOL     OW 4018   3.428   1.335   2.656
 1040SOL    HW1 4019   3.425   1.411   2.721
 1040SOL    HW2 4020   3.431   1.249   2.706
 1041SOL     OW 4021   6.621   6.646   6.574
 1041SOL    HW1 4022   6.611   6.740   6.606
 1041SOL    HW2 4023   6.709   6.609   6.604
 1042SOL     OW 4024   5.308   3.471   4.188
 1042SOL    HW1 4025   5.359   3.386   4.200
 1042SOL    HW2 4026   5.248   3.463   4.108
 1043SOL     OW 4027   2.373   2.027   3.835
 1043SOL    HW1 4028   2.428   1.985   3.763
 1043SOL    HW2 4029   2.424   2.102   3.877
 1044SOL     OW 4030   5.979   4.505   2.322
 1044SOL    HW1 4031   6.049   4.577   2.331
 1044SOL    HW2 4032   5.921   4.525   2.243
 1045SOL     OW 4033   2.373   0.653   2.838
 1045SOL    HW1 4034   2.361   0.600   2.754
 1045SOL    HW2 4035   2.329   0.742   2.827
 1046SOL     OW 4036   2.772   2.671   0.649
 1046SOL    HW1 4037   2.794   2.604   0.719
 1046SOL    HW2 4038   2.673   2.686   0.646
 1047SOL     OW 4039   3.799   0.990   3.447
 1047SOL    HW1 4040   3.799   0.891   3.462
 1047SOL    HW2 4041   3.737   1.013   3.373
 1048SOL     OW 4042   0.724   6.860   2.039
 1048SOL    HW1 4043   0.794   6.838   1.971
 1048SOL    HW2 4044   0.697   6.956   2.029
 1049SOL     OW 4045   3.306   6.974   0.685
 1049SOL    HW1 4046   3.305   0.048   0.681
 1049SOL    HW2 4047   3.228   6.942   0.738
 1050SOL     OW 4048   2.262   1.437   4.398
 1050SOL    HW1 4049   2.196   1.512   4.398
 1050SOL    HW2 4050   2.235   1.368   4.331
 1051SOL     OW 4051   1.758   2.131   5.622
 1051SOL    HW1 4052   1.661   2.127   5.600
 1051SOL    HW2 4053   1.793   2.038   5.638
 1052SOL     OW 4054   4.280   2.139   6.606
 1052SOL    HW1 4055   4.340   2.160   6.530
 1052SOL    HW2 4056   4.204   2.204   6.608
 1053SOL     OW 4057   5.139   2.872   3.736
 1053SOL    HW1 4058   5.140   2.772   3.741
 1053SOL    HW2 4059   5.209   2.903   3.671
 1054SOL     OW 4060   4.834   5.516   6.438
 1054SOL    HW1 4061   4.857   5.506   6.341
 1054SOL    HW2 4062   4.735   5.517   6.449
 1055SOL     OW 4063   5.453   5.426   6.485
 1055SOL    HW1 4064   5.367   5.461   6.522
 1055SOL    HW2 4065   5.527   5.490   6.505
 1056SOL     OW 4066   3.993   3.966   0.558
 1056SOL    HW1 4067   4.004   4.063   0.538
 1056SOL    HW2 4068   3.982   3.915   0.472
 1057SOL     OW 4069   3.278   3.443   6.673
 1057SOL    HW1 4070   3.204   3.481   6.728
 1057SOL    HW2 4071   3.261   3.463   6.576
 1058SOL     OW 4072   2.966   2.070   2.103
 1058SOL    HW1 4073   2.932   2.158   2.070
 1058SOL    HW2 4074   3.045   2.042   2.048
 1059SOL     OW 4075   2.189   6.122   2.243
 1059SOL    HW1 4076   2.223   6.028   2.236
 1059SOL    HW2 4077   2.142   6.147   2.158
 1060SOL     OW 4078   6.263   0.440   5.806
 1060SOL    HW1 4079   6.256   0.506   5.880
 1060SOL    HW2 4080   6.239   0.349   5.840
 1061SOL     OW 4081   6.943   3.654   6.788
 1061SOL    HW1 4082   6.871   3.721   6.805
 1061SOL    HW2 4083   7.000   3.684   6.711
 1062SOL     OW 4084   3.109   4.778   5.618
 1062SOL    HW1 4085   3.117   4.760   5.520
 1062SOL    HW2 4086   3.033   4.841   5.634
 1063SOL     OW 4087   2.859   6.164   4.019
 1063SOL    HW1 4088   2.928   6.093   4.005
 1063SOL    HW2 4089   2.769   6.121   4.026
 1064SOL     OW 4090   1.010   3.871   0.505
 1064SOL    HW1 4091   1.096   3.853   0.457
 1064SOL    HW2 4092   1.029   3.922   0.589
 1065SOL     OW 4093   6.094   1.014   5.012
 1065SOL    HW1 4094   6.012   0.958   5.006
 1065SOL    HW2 4095   6.175   0.958   4.995
 1066SOL     OW 4096   4.774   6.177   1.005
 1066SOL    HW1 4097   4.821   6.166   0.917
 1066SOL    HW2 4098   4.759   6.087   1.047
 1067SOL     OW 4099   3.123   1.202   0.143
 1067SOL    HW1 4100   3.064   1.139   0.194
 1067SOL    HW2 4101   3.161   1.155   0.063
 1068SOL     OW 4102   6.055   2.996   1.725
 1068SOL    HW1 4103   6.101   2.984   1.637
 1068SOL    HW2 4104   5.985   3.067   1.717
 1069SOL     OW 4105   6.979   2.560   2.904
 1069SOL    HW1 4106   6.935   2.616   2.833
 1069SOL    HW2 4107   6.963   2.463   2.884
 1070SOL     OW 4108   0.569   0.798   2.318
 1070SOL    HW1 4109   0.501   0.808   2.391
 1070SOL    HW2 4110   0.660   0.801   2.358
 1071SOL     OW 4111   0.671   2.914   6.225
 1071SOL    HW1 4112   0.630   2.950   6.141
 1071SOL    HW2 4113   0.769   2.901   6.210
 1072SOL     OW 4114   2.466   1.406   1.927
 1072SOL    HW1 4115   2.533   1.416   1.853
 1072SOL    HW2 4116   2.398   1.338   1.901
 1073SOL     OW 4117   5.644   2.284   3.073
 1073SOL    HW1 4118   5.564   2.227   3.088
 1073SOL    HW2 4119   5.709   2.271   3.147
 1074SOL     OW 4120   3.401   5.512   1.763
 1074SOL    HW1 4121   3.467   5.578   1.727
 1074SOL    HW2 4122   3.437   5.469   1.845
 1075SOL     OW 4123   6.349   4.000   4.884
 1075SOL    HW1 4124   6.336   3.910   4.925
 1075SOL    HW2 4125   6.294   4.008   4.801
 1076SOL     OW 4126   2.233   4.099   5.347
 1076SOL    HW1 4127   2.299   4.082   5.274
 1076SOL    HW2 4128   2.182   4.015   5.365
 1077SOL     OW 4129   6.688   6.276   0.425
 1077SOL    HW1 4130   6.751   6.224   0.367
 1077SOL    HW2 4131   6.740   6.336   0.486
 1078SOL     OW 4132   5.701   6.882   4.351
 1078SOL    HW1 4133   5.606   6.900   4.376
 1078SOL    HW2 4134   5.720   6.920   4.261
 1079SOL     OW 4135   0.930   6.590   1.266
 1079SOL    HW1 4136   0.939   6.594   1.167
 1079SOL    HW2 4137   0.965   6.502   1.299
 1080SOL     OW 4138   4.607   5.679   0.568
 1080SOL    HW1 4139   4.565   5.763   0.532
 1080SOL    HW2 4140   4.616   5.612   0.494
 1081SOL     OW 4141   0.148   6.664   3.281
 1081SOL    HW1 4142   0.078   6.725   3.244
 1081SOL    HW2 4143   0.233   6.716   3.295
 1082SOL     OW 4144   4.518   7.024   6.988
 1082SOL    HW1 4145   4.447   0.062   6.958
 1082SOL    HW2 4146   4.532   0.008   0.062
 1083SOL     OW 4147   5.922   4.252   2.394
 1083SOL    HW1 4148   5.842   4.233   2.337
 1083SOL    HW2 4149   5.972   4.330   2.356
 1084SOL     OW 4150   4.684   0.875   5.145
 1084SOL    HW1 4151   4.656   0.821   5.225
 1084SOL    HW2 4152   4.606   0.887   5.083
 1085SOL     OW 4153   1.437   3.176   5.057
 1085SOL    HW1 4154   1.348   3.185   5.011
 1085SOL    HW2 4155   1.441   3.242   5.132
 1086SOL     OW 4156   5.799   4.810   1.698
 1086SOL    HW1 4157   5.756   4.781   1.613
 1086SOL    HW2 4158   5.731   4.805   1.772
 1087SOL     OW 4159   3.722   7.006   5.848
 1087SOL    HW1 4160   3.779   0.008   5.926
 1087SOL    HW2 4161   3.767   0.007   5.763
 1088SOL     OW 4162   6.838   5.241   4.779
 1088SOL    HW1 4163   6.783   5.196   4.849
 1088SOL    HW2 4164   6.858   5.176   4.706
 1089SOL     OW 4165   5.904   5.269   4.263
 1089SOL    HW1 4166   5.975   5.255   4.195
 1089SOL    HW2 4167   5.933   5.341   4.327
 1090SOL     OW 4168   5.610   2.545   4.878
 1090SOL    HW1 4169   5.546   2.550   4.802
 1090SOL    HW2 4170   5.630   2.638   4.910
 1091SOL     OW 4171   2.125   3.696   3.097
 1091SOL    HW1 4172   2.139   3.634   3.019
 1091SOL    HW2 4173   2.037   3.676   3.140
 1092SOL     OW 4174   1.162   6.409   0.567
 1092SOL    HW1 4175   1.149   6.335   0.501
 1092SOL    HW2 4176   1.226   6.379   0.638
 1093SOL     OW 4177   1.207   0.775   3.117
 1093SOL    HW1 4178   1.222   0.872   3.100
 1093SOL    HW2 4179   1.296   0.729   3.125
 1094SOL     OW 4180   0.548   0.037   3.135
 1094SOL    HW1 4181   0.527   6.968   3.110
 1094SOL    HW2 4182   0.620   0.073   3.076
 1095SOL     OW 4183   6.265   3.914   0.784
 1095SOL    HW1 4184   6.297   3.927   0.878
 1095SOL    HW2 4185   6.322   3.844   0.740
 1096SOL     OW 4186   2.264   5.867   2.225
 1096SOL    HW1 4187   2.239   5.831   2.135
 1096SOL    HW2 4188   2.272   5.791   2.290
 1097SOL     OW 4189   2.769   5.894   4.693
 1097SOL    HW1 4190   2.705   5.891   4.769
 1097SOL    HW2 4191   2.719   5.887   4.607
 1098SOL     OW 4192   6.825   4.138   0.068
 1098SOL    HW1 4193   6.771   4.222   0.079
 1098SOL    HW2 4194   6.858   4.132   6.999
 1099SOL     OW 4195   5.544   0.493   6.208
 1099SOL    HW1 4196   5.503   0.538   6.288
 1099SOL    HW2 4197   5.473   0.442   6.159
 1100SOL     OW 4198   4.731   1.534   4.484
 1100SOL    HW1 4199   4.757   1.493   4.571
 1100SOL    HW2 4200   4.669   1.473   4.435
 1101SOL     OW 4201   4.743   2.701   6.672
 1101SOL    HW1 4202   4.831   2.658   6.692
 1101SOL    HW2 4203   4.676   2.631   6.646
 1102SOL     OW 4204   3.098   0.671   3.968
 1102SOL    HW1 4205   3.010   0.634   3.939
 1102SOL    HW2 4206   3.083   0.750   4.028
 1103SOL     OW 4207   3.378   5.742   1.037
 1103SOL    HW1 4208   3.465   5.764   0.992
 1103SOL    HW2 4209   3.364   5.643   1.035
 1104SOL     OW 4210   6.798   1.580   3.618
 1104SOL    HW1 4211   6.735   1.616   3.548
 1104SOL    HW2 4212   6.750   1.576   3.706
 1105SOL     OW 4213   4.717   0.813   6.378
 1105SOL    HW1 4214   4.751   0.775   6.291
 1105SOL    HW2 4215   4.751   0.906   6.389
 1106SOL     OW 4216   6.113   1.844   1.719
 1106SOL    HW1 4217   6.104   1.808   1.812
 1106SOL    HW2 4218   6.034   1.902   1.698
 1107SOL     OW 4219   1.280   2.073   0.473
 1107SOL    HW1 4220   1.301   2.005   0.402
 1107SOL    HW2 4221   1.192   2.116   0.452
 1108SOL     OW 4222   2.253   1.366   3.439
 1108SOL    HW1 4223   2.202   1.434   3.387
 1108SOL    HW2 4224   2.191   1.294   3.469
 1109SOL     OW 4225   4.946   2.043   5.027
 1109SOL    HW1 4226   5.034   2.086   5.050
 1109SOL    HW2 4227   4.962   1.952   4.989
 1110SOL     OW 4228   1.175   0.670   2.567
 1110SOL    HW1 4229   1.249   0.673   2.634
 1110SOL    HW2 4230   1.144   0.576   2.556
 1111SOL     OW 4231   5.797   3.099   6.060
 1111SOL    HW1 4232   5.787   3.017   6.003
 1111SOL    HW2 4233   5.780   3.180   6.004
 1112SOL     OW 4234   5.918   0.537   2.347
 1112SOL    HW1 4235   5.935   0.519   2.444
 1112SOL    HW2 4236   5.978   0.611   2.316
 1113SOL     OW 4237   6.592   2.675   3.080
 1113SOL    HW1 4238   6.535   2.687   2.999
 1113SOL    HW2 4239   6.688   2.672   3.052
 1114SOL     OW 4240   3.517   3.354   5.061
 1114SOL    HW1 4241   3.612   3.325   5.044
 1114SOL    HW2 4242   3.455   3.281   5.034
 1115SOL     OW 4243   1.905   5.241   6.067
 1115SOL    HW1 4244   1.812   5.222   6.036
 1115SOL    HW2 4245   1.904   5.316   6.133
 1116SOL     OW 4246   4.375   6.969   0.361
 1116SOL    HW1 4247   4.293   6.971   0.304
 1116SOL    HW2 4248   4.456   6.985   0.305
 1117SOL     OW 4249   2.133   2.493   1.694
 1117SOL    HW1 4250   2.096   2.581   1.722
 1117SOL    HW2 4251   2.175   2.447   1.772
 1118SOL     OW 4252   4.797   6.850   0.109
 1118SOL    HW1 4253   4.808   6.834   0.011
 1118SOL    HW2 4254   4.883   6.830   0.156
 1119SOL     OW 4255   2.688   5.306   3.954
 1119SOL    HW1 4256   2.664   5.308   3.857
 1119SOL    HW2 4257   2.713   5.212   3.980
 1120SOL     OW 4258   6.952   3.441   1.116
 1120SOL    HW1 4259   6.883   3.477   1.053
 1120SOL    HW2 4260   6.917   3.443   1.209
 1121SOL     OW 4261   5.980   4.782   5.851
 1121SOL    HW1 4262   5.949   4.829   5.768
 1121SOL    HW2 4263   6.001   4.850   5.922
 1122SOL     OW 4264   6.171   1.052   1.827
 1122SOL    HW1 4265   6.226   1.120   1.875
 1122SOL    HW2 4266   6.164   1.077   1.730
 1123SOL     OW 4267   4.144   1.800   4.698
 1123SOL    HW1 4268   4.130   1.780   4.795
 1123SOL    HW2 4269   4.057   1.790   4.650
 1124SOL     OW 4270   2.369   2.742   3.778
 1124SOL    HW1 4271   2.445   2.685   3.808
 1124SOL    HW2 4272   2.336   2.797   3.856
 1125SOL     OW 4273   1.164   3.302   3.480
 1125SOL    HW1 4274   1.154   3.259   3.569
 1125SOL    HW2 4275   1.205   3.393   3.491
 1126SOL     OW 4276   4.369   4.824   4.050
 1126SOL    HW1 4277   4.422   4.805   4.132
 1126SOL    HW2 4278   4.373   4.745   3.988
 1127SOL     OW 4279   6.214   6.683   1.133
 1127SOL    HW1 4280   6.313   6.697   1.131
 1127SOL    HW2 4281   6.194   6.587   1.115
 1128SOL     OW 4282   4.336   1.617   5.073
 1128SOL    HW1 4283   4.308   1.574   5.159
 1128SOL    HW2 4284   4.417   1.570   5.037
 1129SOL     OW 4285   1.077   0.899   0.002
 1129SOL    HW1 4286   1.145   0.900   0.075
 1129SOL    HW2 4287   1.061   0.993   6.996
 1130SOL     OW 4288   2.307   5.511   1.810
 1130SOL    HW1 4289   2.288   5.427   1.760
 1130SOL    HW2 4290   2.313   5.588   1.746
 1131SOL     OW 4291   1.398   5.482   3.814
 1131SOL    HW1 4292   1.343   5.444   3.739
 1131SOL    HW2 4293   1.450   5.560   3.780
 1132SOL     OW 4294   1.338   1.804   2.938
 1132SOL    HW1 4295   1.332   1.902   2.954
 1132SOL    HW2 4296   1.383   1.787   2.851
 1133SOL     OW 4297   1.361   6.551   6.541
 1133SOL    HW1 4298   1.396   6.577   6.451
 1133SOL    HW2 4299   1.396   6.462   6.567
 1134SOL     OW 4300   4.781   5.578   0.812
 1134SOL    HW1 4301   4.724   5.555   0.734
 1134SOL    HW2 4302   4.742   5.539   0.895
 1135SOL     OW 4303   1.731   0.342   3.002
 1135SOL    HW1 4304   1.642   0.369   2.966
 1135SOL    HW2 4305   1.783   0.423   3.029
 1136SOL     OW 4306   1.344   4.810   2.488
 1136SOL    HW1 4307   1.434   4.768   2.481
 1136SOL    HW2 4308   1.332   4.848   2.580
 1137SOL     OW 4309   0.585   5.288   4.372
 1137SOL    HW1 4310   0.594   5.355   4.445
 1137SOL    HW2 4311   0.633   5.204   4.397
 1138SOL     OW 4312   1.792   3.851   4.809
 1138SOL    HW1 4313   1.844   3.909   4.747
 1138SOL    HW2 4314   1.701   3.888   4.821
 1139SOL     OW 4315   2.906   5.805   5.170
 1139SOL    HW1 4316   2.927   5.888   5.117
 1139SOL    HW2 4317   2.814   5.774   5.147
 1140SOL     OW 4318   2.268   2.604   1.488
 1140SOL    HW1 4319   2.208   2.551   1.548
 1140SOL    HW2 4320   2.309   2.542   1.420
 1141SOL     OW 4321   6.368   5.094   5.400
 1141SOL    HW1 4322   6.328   5.090   5.492
 1141SOL    HW2 4323   6.439   5.165   5.398
 1142SOL     OW 4324   1.048   5.819   2.949
 1142SOL    HW1 4325   1.115   5.890   2.969
 1142SOL    HW2 4326   1.065   5.740   3.008
 1143SOL     OW 4327   6.848   4.321   1.417
 1143SOL    HW1 4328   6.827   4.414   1.387
 1143SOL    HW2 4329   6.824   4.311   1.514
 1144SOL     OW 4330   5.064   4.380   0.684
 1144SOL    HW1 4331   4.985   4.391   0.744
 1144SOL    HW2 4332   5.047   4.427   0.597
 1145SOL     OW 4333   6.283   0.112   0.656
 1145SOL    HW1 4334   6.264   0.140   0.562
 1145SOL    HW2 4335   6.334   0.026   0.656
 1146SOL     OW 4336   1.591   1.090   1.376
 1146SOL    HW1 4337   1.669   1.140   1.413
 1146SOL    HW2 4338   1.513   1.101   1.437
 1147SOL     OW 4339   2.155   6.632   1.223
 1147SOL    HW1 4340   2.181   6.680   1.139
 1147SOL    HW2 4341   2.095   6.556   1.200
 1148SOL     OW 4342   3.773   6.028   2.226
 1148SOL    HW1 4343   3.680   6.055   2.200
 1148SOL    HW2 4344   3.768   5.968   2.306
 1149SOL     OW 4345   5.334   2.302   1.629
 1149SOL    HW1 4346   5.374   2.382   1.672
 1149SOL    HW2 4347   5.234   2.308   1.632
 1150SOL     OW 4348   1.007   2.481   1.032
 1150SOL    HW1 4349   1.074   2.456   0.962
 1150SOL    HW2 4350   1.029   2.572   1.068
 1151SOL     OW 4351   5.511   5.247   3.939
 1151SOL    HW1 4352   5.568   5.278   3.862
 1151SOL    HW2 4353   5.565   5.246   4.022
 1152SOL     OW 4354   3.793   6.421   6.144
 1152SOL    HW1 4355   3.718   6.396   6.082
 1152SOL    HW2 4356   3.859   6.346   6.148
 1153SOL     OW 4357   5.719   6.587   1.389
 1153SOL    HW1 4358   5.686   6.639   1.468
 1153SOL    HW2 4359   5.819   6.589   1.388
 1154SOL     OW 4360   1.558   3.271   0.828
 1154SOL    HW1 4361   1.643   3.248   0.780
 1154SOL    HW2 4362   1.482   3.219   0.790
 1155SOL     OW 4363   3.379   5.742   3.489
 1155SOL    HW1 4364   3.476   5.766   3.478
 1155SOL    HW2 4365   3.360   5.657   3.439
 1156SOL     OW 4366   2.526   1.092   1.867
 1156SOL    HW1 4367   2.549   0.995   1.859
 1156SOL    HW2 4368   2.593   1.146   1.818
 1157SOL     OW 4369   2.667   2.109   0.335
 1157SOL    HW1 4370   2.673   2.032   0.272
 1157SOL    HW2 4371   2.628   2.078   0.422
 1158SOL     OW 4372   5.411   4.754   3.944
 1158SOL    HW1 4373   5.403   4.854   3.941
 1158SOL    HW2 4374   5.321   4.714   3.926
 1159SOL     OW 4375   5.825   4.894   0.493
 1159SOL    HW1 4376   5.855   4.801   0.472
 1159SOL    HW2 4377   5.785   4.936   0.411
 1160SOL     OW 4378   4.638   2.102   0.385
 1160SOL    HW1 4379   4.722   2.058   0.418
 1160SOL    HW2 4380   4.581   2.034   0.339
 1161SOL     OW 4381   6.615   5.081   0.792
 1161SOL    HW1 4382   6.535   5.116   0.841
 1161SOL    HW2 4383   6.595   4.990   0.757
 1162SOL     OW 4384   2.560   2.187   4.873
 1162SOL    HW1 4385   2.489   2.147   4.815
 1162SOL    HW2 4386   2.567   2.135   4.958
 1163SOL     OW 4387   5.500   2.130   1.755
 1163SOL    HW1 4388   5.440   2.194   1.707
 1163SOL    HW2 4389   5.480   2.037   1.723
 1164SOL     OW 4390   4.558   2.295   5.535
 1164SOL    HW1 4391   4.475   2.345   5.561
 1164SOL    HW2 4392   4.623   2.297   5.611
 1165SOL     OW 4393   4.365   0.135   3.450
 1165SOL    HW1 4394   4.390   0.088   3.535
 1165SOL    HW2 4395   4.308   0.214   3.472
 1166SOL     OW 4396   3.734   4.126   6.396
 1166SOL    HW1 4397   3.757   4.213   6.352
 1166SOL    HW2 4398   3.723   4.140   6.494
 1167SOL     OW 4399   5.130   4.642   2.970
 1167SOL    HW1 4400   5.110   4.646   3.067
 1167SOL    HW2 4401   5.197   4.570   2.953
 1168SOL     OW 4402   0.663   7.008   1.000
 1168SOL    HW1 4403   0.619   6.963   0.922
 1168SOL    HW2 4404   0.685   6.939   1.069
 1169SOL     OW 4405   4.858   1.844   5.219
 1169SOL    HW1 4406   4.770   1.889   5.234
 1169SOL    HW2 4407   4.930   1.914   5.212
 1170SOL     OW 4408   5.017   4.675   2.516
 1170SOL    HW1 4409   5.068   4.700   2.598
 1170SOL    HW2 4410   4.946   4.609   2.540
 1171SOL     OW 4411   0.686   6.357   0.683
 1171SOL    HW1 4412   0.606   6.405   0.646
 1171SOL    HW2 4413   0.674   6.342   0.781
 1172SOL     OW 4414   5.825   3.212   6.959
 1172SOL    HW1 4415   5.759   3.174   6.895
 1172SOL    HW2 4416   5.832   3.311   6.944
 1173SOL     OW 4417   4.064   2.423   0.894
 1173SOL    HW1 4418   4.064   2.518   0.923
 1173SOL    HW2 4419   3.976   2.401   0.850
 1174SOL     OW 4420   2.586   4.803   0.194
 1174SOL    HW1 4421   2.510   4.865   0.176
 1174SOL    HW2 4422   2.552   4.713   0.219
 1175SOL     OW 4423   3.179   4.100   4.235
 1175SOL    HW1 4424   3.109   4.037   4.201
 1175SOL    HW2 4425   3.255   4.104   4.169
 1176SOL     OW 4426   5.611   3.011   6.369
 1176SOL    HW1 4427   5.654   2.969   6.449
 1176SOL    HW2 4428   5.680   3.033   6.301
 1177SOL     OW 4429   1.063   2.092   5.204
 1177SOL    HW1 4430   1.162   2.086   5.213
 1177SOL    HW2 4431   1.035   2.050   5.117
 1178SOL     OW 4432   4.638   6.664   0.287
 1178SOL    HW1 4433   4.546   6.697   0.265
 1178SOL    HW2 4434   4.706   6.721   0.242
 1179SOL     OW 4435   0.289   6.069   0.554
 1179SOL    HW1 4436   0.251   6.111   0.471
 1179SOL    HW2 4437   0.267   5.971   0.554
 1180SOL     OW 4438   3.585   6.144   0.594
 1180SOL    HW1 4439   3.600   6.218   0.529
 1180SOL    HW2 4440   3.670   6.094   0.609
 1181SOL     OW 4441   6.635   6.392   6.485
 1181SOL    HW1 4442   6.554   6.334   6.491
 1181SOL    HW2 4443   6.624   6.472   6.542
 1182SOL     OW 4444   4.872   3.736   3.265
 1182SOL    HW1 4445   4.883   3.835   3.277
 1182SOL    HW2 4446   4.794   3.705   3.318
 1183SOL     OW 4447   1.884   4.532   6.670
 1183SOL    HW1 4448   1.973   4.535   6.716
 1183SOL    HW2 4449   1.830   4.457   6.709
 1184SOL     OW 4450   0.137   0.691   5.559
 1184SOL    HW1 4451   0.133   0.637   5.475
 1184SOL    HW2 4452   0.210   0.758   5.551
 1185SOL     OW 4453   6.242   1.524   6.825
 1185SOL    HW1 4454   6.305   1.588   6.782
 1185SOL    HW2 4455   6.151   1.565   6.830
 1186SOL     OW 4456   5.689   6.701   4.554
 1186SOL    HW1 4457   5.728   6.758   4.627
 1186SOL    HW2 4458   5.723   6.733   4.465
 1187SOL     OW 4459   6.558   2.086   6.198
 1187SOL    HW1 4460   6.554   2.128   6.288
 1187SOL    HW2 4461   6.519   1.994   6.202
 1188SOL     OW 4462   3.883   1.695   6.524
 1188SOL    HW1 4463   3.814   1.725   6.458
 1188SOL    HW2 4464   3.900   1.767   6.590
 1189SOL     OW 4465   5.763   3.409   3.577
 1189SOL    HW1 4466   5.782   3.441   3.670
 1189SOL    HW2 4467   5.665   3.403   3.563
 1190SOL     OW 4468   3.162   0.105   3.713
 1190SOL    HW1 4469   3.115   0.190   3.736
 1190SOL    HW2 4470   3.167   0.047   3.794
 1191SOL     OW 4471   3.638   6.366   2.797
 1191SOL    HW1 4472   3.596   6.456   2.801
 1191SOL    HW2 4473   3.611   6.312   2.877
 1192SOL     OW 4474   6.347   5.563   3.590
 1192SOL    HW1 4475   6.332   5.641   3.529
 1192SOL    HW2 4476   6.259   5.523   3.615
 1193SOL     OW 4477   6.486   5.831   4.351
 1193SOL    HW1 4478   6.511   5.915   4.399
 1193SOL    HW2 4479   6.526   5.832   4.259
 1194SOL     OW 4480   3.638   0.141   1.052
 1194SOL    HW1 4481   3.613   0.074   0.981
 1194SOL    HW2 4482   3.737   0.157   1.049
 1195SOL     OW 4483   5.023   2.573   2.995
 1195SOL    HW1 4484   5.113   2.543   2.966
 1195SOL    HW2 4485   5.019   2.673   2.991
 1196SOL     OW 4486   0.199   6.609   5.135
 1196SOL    HW1 4487   0.218   6.705   5.112
 1196SOL    HW2 4488   0.253   6.550   5.076
 1197SOL     OW 4489   1.904   5.946   0.632
 1197SOL    HW1 4490   1.951   5.999   0.704
 1197SOL    HW2 4491   1.836   6.004   0.587
 1198SOL     OW 4492   1.691   2.333   6.926
 1198SOL    HW1 4493   1.622   2.285   6.980
 1198SOL    HW2 4494   1.782   2.299   6.950
 1199SOL     OW 4495   6.068   3.974   2.087
 1199SOL    HW1 4496   6.093   4.045   2.153
 1199SOL    HW2 4497   6.081   3.884   2.129
 1200SOL     OW 4498   3.388   4.151   2.726
 1200SOL    HW1 4499   3.477   4.183   2.757
 1200SOL    HW2 4500   3.337   4.114   2.803
 1201SOL     OW 4501   1.299   2.289   4.955
 1201SOL    HW1 4502   1.266   2.301   4.861
 1201SOL    HW2 4503   1.330   2.195   4.968
 1202SOL     OW 4504   0.900   5.586   5.189
 1202SOL    HW1 4505   0.942   5.497   5.172
 1202SOL    HW2 4506   0.970   5.657   5.194
 1203SOL     OW 4507   3.929   6.222   5.316
 1203SOL    HW1 4508   4.017   6.179   5.335
 1203SOL    HW2 4509   3.892   6.262   5.400
 1204SOL     OW 4510   1.899   6.941   3.219
 1204SOL    HW1 4511   1.940   6.977   3.135
 1204SOL    HW2 4512   1.819   6.886   3.196
 1205SOL     OW 4513   5.867   3.697   1.960
 1205SOL    HW1 4514   5.882   3.640   2.041
 1205SOL    HW2 4515   5.774   3.734   1.961
 1206SOL     OW 4516   3.199   3.513   4.466
 1206SOL    HW1 4517   3.146   3.519   4.550
 1206SOL    HW2 4518   3.177   3.428   4.418
 1207SOL     OW 4519   1.239   5.977   2.761
 1207SOL    HW1 4520   1.161   6.039   2.766
 1207SOL    HW2 4521   1.285   5.973   2.849
 1208SOL     OW 4522   3.259   3.516   6.415
 1208SOL    HW1 4523   3.192   3.588   6.394
 1208SOL    HW2 4524   3.312   3.495   6.333
 1209SOL     OW 4525   3.805   6.376   5.088
 1209SOL    HW1 4526   3.859   6.293   5.076
 1209SOL    HW2 4527   3.708   6.353   5.090
 1210SOL     OW 4528   3.173   0.778   2.595
 1210SOL    HW1 4529   3.214   0.848   2.536
 1210SOL    HW2 4530   3.102   0.820   2.652
 1211SOL     OW 4531   1.004   2.777   0.378
 1211SOL    HW1 4532   1.037   2.744   0.290
 1211SOL    HW2 4533   0.956   2.704   0.426
 1212SOL     OW 4534   1.131   6.950   0.183
 1212SOL    HW1 4535   1.126   6.901   0.096
 1212SOL    HW2 4536   1.076   6.901   0.251
 1213SOL     OW 4537   5.688   3.183   1.218
 1213SOL    HW1 4538   5.700   3.282   1.229
 1213SOL    HW2 4539   5.600   3.165   1.173
 1214SOL     OW 4540   7.023   2.489   2.553
 1214SOL    HW1 4541   6.978   2.434   2.624
 1214SOL    HW2 4542   0.075   2.538   2.593
 1215SOL     OW 4543   2.104   6.144   2.915
 1215SOL    HW1 4544   2.059   6.218   2.865
 1215SOL    HW2 4545   2.057   6.129   3.002
 1216SOL     OW 4546   3.909   0.134   1.749
 1216SOL    HW1 4547   3.973   0.149   1.673
 1216SOL    HW2 4548   3.816   0.156   1.718
 1217SOL     OW 4549   2.866   3.995   6.670
 1217SOL    HW1 4550   2.930   4.065   6.639
 1217SOL    HW2 4551   2.872   3.915   6.611
 1218SOL     OW 4552   2.518   5.000   3.628
 1218SOL    HW1 4553   2.446   4.961   3.686
 1218SOL    HW2 4554   2.608   4.978   3.666
 1219SOL     OW 4555   4.007   5.951   1.879
 1219SOL    HW1 4556   3.943   5.875   1.883
 1219SOL    HW2 4557   4.018   5.980   1.783
 1220SOL     OW 4558   0.628   4.646   1.835
 1220SOL    HW1 4559   0.626   4.547   1.825
 1220SOL    HW2 4560   0.716   4.674   1.873
 1221SOL     OW 4561   4.449   4.694   6.567
 1221SOL    HW1 4562   4.407   4.605   6.547
 1221SOL    HW2 4563   4.467   4.701   6.665
 1222SOL     OW 4564   6.747   0.959   6.682
 1222SOL    HW1 4565   6.705   1.001   6.602
 1222SOL    HW2 4566   6.676   0.919   6.739
 1223SOL     OW 4567   3.764   6.545   1.415
 1223SOL    HW1 4568   3.824   6.571   1.490
 1223SOL    HW2 4569   3.715   6.461   1.440
 1224SOL     OW 4570   3.019   1.117   1.677
 1224SOL    HW1 4571   3.034   1.177   1.756
 1224SOL    HW2 4572   3.107   1.081   1.646
 1225SOL     OW 4573   3.047   3.703   6.084
 1225SOL    HW1 4574   3.112   3.775   6.059
 1225SOL    HW2 4575   3.008   3.663   6.001
 1226SOL     OW 4576   2.207   5.192   0.321
 1226SOL    HW1 4577   2.123   5.138   0.325
 1226SOL    HW2 4578   2.187   5.287   0.342
 1227SOL     OW 4579   1.179   4.171   6.044
 1227SOL    HW1 4580   1.115   4.105   6.004
 1227SOL    HW2 4581   1.266   4.127   6.062
 1228SOL     OW 4582   3.996   1.976   0.231
 1228SOL    HW1 4583   4.052   2.047   0.274
 1228SOL    HW2 4584   3.987   1.995   0.133
 1229SOL     OW 4585   3.273   3.831   6.276
 1229SOL    HW1 4586   3.345   3.899   6.285
 1229SOL    HW2 4587   3.209   3.840   6.352
 1230SOL     OW 4588   4.375   0.573   4.060
 1230SOL    HW1 4589   4.312   0.643   4.092
 1230SOL    HW2 4590   4.324   0.505   4.007
 1231SOL     OW 4591   0.673   3.548   4.138
 1231SOL    HW1 4592   0.627   3.615   4.079
 1231SOL    HW2 4593   0.642   3.560   4.232
 1232SOL     OW 4594   2.285   2.999   2.941
 1232SOL    HW1 4595   2.279   3.081   2.884
 1232SOL    HW2 4596   2.273   3.024   3.037
 1233SOL     OW 4597   0.791   2.327   4.175
 1233SOL    HW1 4598   0.871   2.383   4.198
 1233SOL    HW2 4599   0.709   2.385   4.179
 1234SOL     OW 4600   6.284   4.800   4.201
 1234SOL    HW1 4601   6.372   4.844   4.223
 1234SOL    HW2 4602   6.263   4.814   4.105
 1235SOL     OW 4603   6.934   5.503   3.407
 1235SOL    HW1 4604   6.873   5.577   3.378
 1235SOL    HW2 4605   6.878   5.426   3.438
 1236SOL     OW 4606   5.552   0.868   6.471
 1236SOL    HW1 4607   5.590   0.786   6.427
 1236SOL    HW2 4608   5.504   0.923   6.403
 1237SOL     OW 4609   1.911   4.846   6.060
 1237SOL    HW1 4610   1.874   4.873   5.971
 1237SOL    HW2 4611   1.997   4.894   6.076
 1238SOL     OW 4612   1.866   1.676   0.731
 1238SOL    HW1 4613   1.940   1.633   0.679
 1238SOL    HW2 4614   1.784   1.620   0.723
 1239SOL     OW 4615   1.107   0.415   6.139
 1239SOL    HW1 4616   1.173   0.396   6.066
 1239SOL    HW2 4617   1.084   0.512   6.140
 1240SOL     OW 4618   4.983   5.443   0.993
 1240SOL    HW1 4619   4.947   5.482   0.909
 1240SOL    HW2 4620   4.907   5.419   1.054
 1241SOL     OW 4621   0.218   2.055   4.804
 1241SOL    HW1 4622   0.257   1.975   4.757
 1241SOL    HW2 4623   0.152   2.023   4.872
 1242SOL     OW 4624   2.113   2.243   6.409
 1242SOL    HW1 4625   2.039   2.269   6.470
 1242SOL    HW2 4626   2.077   2.227   6.317
 1243SOL     OW 4627   2.497   5.094   5.239
 1243SOL    HW1 4628   2.579   5.040   5.260
 1243SOL    HW2 4629   2.430   5.037   5.192
 1244SOL     OW 4630   0.427   2.088   2.853
 1244SOL    HW1 4631   0.414   2.139   2.768
 1244SOL    HW2 4632   0.339   2.080   2.900
 1245SOL     OW 4633   2.864   2.817   5.655
 1245SOL    HW1 4634   2.958   2.823   5.689
 1245SOL    HW2 4635   2.853   2.879   5.577
 1246SOL     OW 4636   1.311   6.454   0.986
 1246SOL    HW1 4637   1.400   6.497   0.968
 1246SOL    HW2 4638   1.306   6.426   1.082
 1247SOL     OW 4639   0.937   6.493   6.369
 1247SOL    HW1 4640   0.994   6.575   6.362
 1247SOL    HW2 4641   0.858   6.502   6.307
 1248SOL     OW 4642   2.341   6.844   3.825
 1248SOL    HW1 4643   2.306   6.814   3.736
 1248SOL    HW2 4644   2.431   6.804   3.841
 1249SOL     OW 4645   5.580   2.828   3.013
 1249SOL    HW1 4646   5.508   2.807   2.947
 1249SOL    HW2 4647   5.660   2.771   2.995
 1250SOL     OW 4648   0.086   3.514   4.552
 1250SOL    HW1 4649   0.135   3.428   4.566
 1250SOL    HW2 4650   7.013   3.499   4.559
 1251SOL     OW 4651   3.198   0.590   6.456
 1251SOL    HW1 4652   3.276   0.651   6.461
 1251SOL    HW2 4653   3.150   0.605   6.369
 1252SOL     OW 4654   3.274   4.126   0.085
 1252SOL    HW1 4655   3.289   4.029   0.104
 1252SOL    HW2 4656   3.313   4.148   7.021
 1253SOL     OW 4657   4.783   1.130   3.128
 1253SOL    HW1 4658   4.685   1.136   3.148
 1253SOL    HW2 4659   4.834   1.185   3.194
 1254SOL     OW 4660   5.320   1.184   3.541
 1254SOL    HW1 4661   5.346   1.260   3.481
 1254SOL    HW2 4662   5.368   1.192   3.628
 1255SOL     OW 4663   6.037   0.268   1.691
 1255SOL    HW1 4664   6.061   0.311   1.778
 1255SOL    HW2 4665   5.999   0.177   1.708
 1256SOL     OW 4666   4.922   2.598   3.808
 1256SOL    HW1 4667   4.864   2.521   3.835
 1256SOL    HW2 4668   4.872   2.684   3.822
 1257SOL     OW 4669   5.842   1.061   4.464
 1257SOL    HW1 4670   5.758   1.088   4.510
 1257SOL    HW2 4671   5.823   0.987   4.400
 1258SOL     OW 4672   0.002   5.237   3.274
 1258SOL    HW1 4673   0.050   5.288   3.346
 1258SOL    HW2 4674   6.929   5.254   3.283
 1259SOL     OW 4675   5.120   2.043   4.740
 1259SOL    HW1 4676   5.065   2.120   4.773
 1259SOL    HW2 4677   5.096   1.960   4.791
 1260SOL     OW 4678   0.666   1.776   5.190
 1260SOL    HW1 4679   0.711   1.793   5.278
 1260SOL    HW2 4680   0.625   1.861   5.157
 1261SOL     OW 4681   6.819   3.630   0.974
 1261SOL    HW1 4682   6.816   3.562   0.901
 1261SOL    HW2 4683   6.729   3.674   0.982
 1262SOL     OW 4684   4.949   6.352   2.299
 1262SOL    HW1 4685   5.034   6.389   2.337
 1262SOL    HW2 4686   4.927   6.400   2.214
 1263SOL     OW 4687   0.587   2.020   3.274
 1263SOL    HW1 4688   0.488   2.008   3.274
 1263SOL    HW2 4689   0.623   1.998   3.183
 1264SOL     OW 4690   0.728   2.643   5.251
 1264SOL    HW1 4691   0.790   2.720   5.237
 1264SOL    HW2 4692   0.700   2.639   5.347
 1265SOL     OW 4693   5.952   0.072   5.281
 1265SOL    HW1 4694   6.043   0.114   5.277
 1265SOL    HW2 4695   5.899   0.115   5.354
 1266SOL     OW 4696   3.208   1.400   5.085
 1266SOL    HW1 4697   3.168   1.449   5.162
 1266SOL    HW2 4698   3.160   1.314   5.071
 1267SOL     OW 4699   2.960   0.280   2.179
 1267SOL    HW1 4700   2.959   0.234   2.090
 1267SOL    HW2 4701   2.869   0.318   2.198
 1268SOL     OW 4702   4.241   2.193   5.360
 1268SOL    HW1 4703   4.298   2.122   5.402
 1268SOL    HW2 4704   4.236   2.272   5.420
 1269SOL     OW 4705   5.323   1.783   3.809
 1269SOL    HW1 4706   5.253   1.758   3.743
 1269SOL    HW2 4707   5.309   1.732   3.894
 1270SOL     OW 4708   6.184   5.318   2.808
 1270SOL    HW1 4709   6.253   5.272   2.864
 1270SOL    HW2 4710   6.109   5.350   2.867
 1271SOL     OW 4711   1.819   0.929   1.844
 1271SOL    HW1 4712   1.735   0.938   1.897
 1271SOL    HW2 4713   1.888   0.992   1.880
 1272SOL     OW 4714   6.247   2.779   0.745
 1272SOL    HW1 4715   6.299   2.837   0.808
 1272SOL    HW2 4716   6.164   2.746   0.790
 1273SOL     OW 4717   1.933   4.184   5.496
 1273SOL    HW1 4718   1.884   4.228   5.571
 1273SOL    HW2 4719   2.031   4.206   5.503
 1274SOL     OW 4720   0.284   4.036   4.120
 1274SOL    HW1 4721   0.310   4.125   4.083
 1274SOL    HW2 4722   0.197   4.045   4.168
 1275SOL     OW 4723   1.787   1.577   2.885
 1275SOL    HW1 4724   1.793   1.617   2.794
 1275SOL    HW2 4725   1.768   1.648   2.952
 1276SOL     OW 4726   5.617   4.310   3.782
 1276SOL    HW1 4727   5.677   4.288   3.705
 1276SOL    HW2 4728   5.654   4.388   3.832
 1277SOL     OW 4729   1.560   5.986   6.657
 1277SOL    HW1 4730   1.633   6.053   6.672
 1277SOL    HW2 4731   1.594   5.895   6.683
 1278SOL     OW 4732   0.304   5.746   2.737
 1278SOL    HW1 4733   0.267   5.831   2.774
 1278SOL    HW2 4734   0.263   5.669   2.786
 1279SOL     OW 4735   2.875   3.260   0.622
 1279SOL    HW1 4736   2.912   3.343   0.662
 1279SOL    HW2 4737   2.776   3.269   0.611
 1280SOL     OW 4738   2.535   2.539   3.851
 1280SOL    HW1 4739   2.492   2.526   3.940
 1280SOL    HW2 4740   2.635   2.542   3.862
 1281SOL     OW 4741   5.093   6.265   5.419
 1281SOL    HW1 4742   5.111   6.348   5.366
 1281SOL    HW2 4743   5.149   6.265   5.502
 1282SOL     OW 4744   0.741   2.900   1.211
 1282SOL    HW1 4745   0.652   2.941   1.192
 1282SOL    HW2 4746   0.746   2.809   1.169
 1283SOL     OW 4747   0.535   1.283   4.623
 1283SOL    HW1 4748   0.494   1.222   4.554
 1283SOL    HW2 4749   0.605   1.340   4.579
 1284SOL     OW 4750   3.866   2.060   1.831
 1284SOL    HW1 4751   3.801   2.133   1.855
 1284SOL    HW2 4752   3.957   2.086   1.862
 1285SOL     OW 4753   4.364   1.807   4.562
 1285SOL    HW1 4754   4.281   1.791   4.616
 1285SOL    HW2 4755   4.370   1.740   4.489
 1286SOL     OW 4756   4.856   1.020   2.449
 1286SOL    HW1 4757   4.850   1.092   2.380
 1286SOL    HW2 4758   4.769   0.971   2.453
 1287SOL     OW 4759   5.117   4.807   6.341
 1287SOL    HW1 4760   5.174   4.866   6.399
 1287SOL    HW2 4761   5.167   4.785   6.257
 1288SOL     OW 4762   4.589   4.352   6.715
 1288SOL    HW1 4763   4.675   4.388   6.752
 1288SOL    HW2 4764   4.534   4.315   6.789
 1289SOL     OW 4765   0.917   6.529   0.652
 1289SOL    HW1 4766   0.978   6.463   0.608
 1289SOL    HW2 4767   0.852   6.480   0.711
 1290SOL     OW 4768   1.509   6.837   5.008
 1290SOL    HW1 4769   1.608   6.828   5.002
 1290SOL    HW2 4770   1.476   6.897   4.936
 1291SOL     OW 4771   5.633   5.303   3.694
 1291SOL    HW1 4772   5.728   5.274   3.687
 1291SOL    HW2 4773   5.582   5.270   3.614
 1292SOL     OW 4774   0.534   6.669   2.834
 1292SOL    HW1 4775   0.460   6.655   2.769
 1292SOL    HW2 4776   0.609   6.718   2.790
 1293SOL     OW 4777   5.304   0.077   1.100
 1293SOL    HW1 4778   5.207   0.053   1.100
 1293SOL    HW2 4779   5.337   0.084   1.194
 1294SOL     OW 4780   2.157   4.451   5.376
 1294SOL    HW1 4781   2.087   4.493   5.434
 1294SOL    HW2 4782   2.116   4.421   5.290
 1295SOL     OW 4783   0.362   4.526   0.203
 1295SOL    HW1 4784   0.379   4.613   0.250
 1295SOL    HW2 4785   0.275   4.531   0.154
 1296SOL     OW 4786   4.707   0.559   5.653
 1296SOL    HW1 4787   4.727   0.538   5.749
 1296SOL    HW2 4788   4.608   0.568   5.641
 1297SOL     OW 4789   6.418   6.929   6.826
 1297SOL    HW1 4790   6.413   0.004   6.823
 1297SOL    HW2 4791   6.409   6.899   6.921
 1298SOL     OW 4792   5.407   0.448   3.079
 1298SOL    HW1 4793   5.326   0.501   3.106
 1298SOL    HW2 4794   5.465   0.434   3.159
 1299SOL     OW 4795   0.957   4.287   4.708
 1299SOL    HW1 4796   0.942   4.282   4.610
 1299SOL    HW2 4797   1.047   4.247   4.730
 1300SOL     OW 4798   1.513   5.484   0.178
 1300SOL    HW1 4799   1.488   5.512   0.270
 1300SOL    HW2 4800   1.431   5.482   0.120
 1301SOL     OW 4801   6.224   1.066   0.355
 1301SOL    HW1 4802   6.197   1.158   0.327
 1301SOL    HW2 4803   6.214   1.057   0.454
 1302SOL     OW 4804   6.986   0.009   4.962
 1302SOL    HW1 4805   0.012   0.011   4.877
 1302SOL    HW2 4806   7.024   6.964   5.022
 1303SOL     OW 4807   3.371   6.763   1.434
 1303SOL    HW1 4808   3.315   6.742   1.354
 1303SOL    HW2 4809   3.466   6.737   1.415
 1304SOL     OW 4810   0.066   0.432   0.328
 1304SOL    HW1 4811   0.125   0.486   0.387
 1304SOL    HW2 4812   0.111   0.418   0.239
 1305SOL     OW 4813   4.315   4.011   5.880
 1305SOL    HW1 4814   4.349   3.926   5.920
 1305SOL    HW2 4815   4.284   4.072   5.952
 1306SOL     OW 4816   2.998   6.245   4.531
 1306SOL    HW1 4817   3.045   6.172   4.580
 1306SOL    HW2 4818   3.021   6.240   4.434
 1307SOL     OW 4819   2.202   3.222   4.252
 1307SOL    HW1 4820   2.187   3.316   4.283
 1307SOL    HW2 4821   2.166   3.158   4.320
 1308SOL     OW 4822   6.840   3.592   6.329
 1308SOL    HW1 4823   6.801   3.595   6.421
 1308SOL    HW2 4824   6.767   3.593   6.261
 1309SOL     OW 4825   5.967   4.065   6.584
 1309SOL    HW1 4826   5.872   4.080   6.610
 1309SOL    HW2 4827   5.979   4.090   6.488
 1310SOL     OW 4828   2.193   3.244   3.239
 1310SOL    HW1 4829   2.158   3.327   3.283
 1310SOL    HW2 4830   2.242   3.190   3.307
 1311SOL     OW 4831   5.890   5.385   0.140
 1311SOL    HW1 4832   5.809   5.375   0.198
 1311SOL    HW2 4833   5.874   5.339   0.053
 1312SOL     OW 4834   2.742   1.658   6.523
 1312SOL    HW1 4835   2.809   1.719   6.481
 1312SOL    HW2 4836   2.725   1.687   6.617
 1313SOL     OW 4837   5.658   5.093   1.842
 1313SOL    HW1 4838   5.570   5.078   1.887
 1313SOL    HW2 4839   5.725   5.125   1.909
 1314SOL     OW 4840   2.076   1.076   3.861
 1314SOL    HW1 4841   2.022   0.993   3.872
 1314SOL    HW2 4842   2.022   1.156   3.888
 1315SOL     OW 4843   6.187   0.712   3.374
 1315SOL    HW1 4844   6.158   0.617   3.385
 1315SOL    HW2 4845   6.228   0.724   3.284
 1316SOL     OW 4846   5.336   0.097   6.187
 1316SOL    HW1 4847   5.324   0.085   6.285
 1316SOL    HW2 4848   5.270   0.040   6.138
 1317SOL     OW 4849   3.740   2.915   4.543
 1317SOL    HW1 4850   3.717   2.927   4.639
 1317SOL    HW2 4851   3.658   2.896   4.490
 1318SOL     OW 4852   1.806   1.546   6.375
 1318SOL    HW1 4853   1.808   1.639   6.412
 1318SOL    HW2 4854   1.750   1.488   6.434
 1319SOL     OW 4855   6.818   1.305   0.551
 1319SOL    HW1 4856   6.906   1.334   0.589
 1319SOL    HW2 4857   6.789   1.370   0.481
 1320SOL     OW 4858   2.769   3.069   6.000
 1320SOL    HW1 4859   2.863   3.054   6.029
 1320SOL    HW2 4860   2.735   2.986   5.955
 1321SOL     OW 4861   6.872   2.587   1.510
 1321SOL    HW1 4862   6.926   2.668   1.491
 1321SOL    HW2 4863   6.887   2.519   1.439
 1322SOL     OW 4864   2.682   2.685   6.855
 1322SOL    HW1 4865   2.710   2.732   6.771
 1322SOL    HW2 4866   2.752   2.698   6.925
 1323SOL     OW 4867   4.086   0.781   1.469
 1323SOL    HW1 4868   4.057   0.707   1.409
 1323SOL    HW2 4869   4.032   0.780   1.553
 1324SOL     OW 4870   2.409   4.094   5.832
 1324SOL    HW1 4871   2.398   3.994   5.827
 1324SOL    HW2 4872   2.433   4.129   5.742
 1325SOL     OW 4873   4.116   6.416   4.571
 1325SOL    HW1 4874   4.097   6.337   4.629
 1325SOL    HW2 4875   4.214   6.438   4.576
 1326SOL     OW 4876   4.864   1.353   4.667
 1326SOL    HW1 4877   4.950   1.312   4.637
 1326SOL    HW2 4878   4.816   1.288   4.726
 1327SOL     OW 4879   4.995   5.797   2.196
 1327SOL    HW1 4880   4.957   5.711   2.163
 1327SOL    HW2 4881   4.923   5.851   2.240
 1328SOL     OW 4882   2.236   1.839   6.103
 1328SOL    HW1 4883   2.181   1.892   6.167
 1328SOL    HW2 4884   2.332   1.866   6.112
 1329SOL     OW 4885   1.456   3.133   3.805
 1329SOL    HW1 4886   1.450   3.211   3.867
 1329SOL    HW2 4887   1.384   3.140   3.735
 1330SOL     OW 4888   6.315   3.409   2.956
 1330SOL    HW1 4889   6.412   3.392   2.942
 1330SOL    HW2 4890   6.281   3.469   2.883
 1331SOL     OW 4891   4.203   2.088   3.232
 1331SOL    HW1 4892   4.172   2.082   3.137
 1331SOL    HW2 4893   4.283   2.147   3.237
 1332SOL     OW 4894   2.169   5.946   7.017
 1332SOL    HW1 4895   2.074   5.953   0.021
 1332SOL    HW2 4896   2.187   6.013   6.945
 1333SOL     OW 4897   3.289   3.423   3.036
 1333SOL    HW1 4898   3.329   3.394   2.949
 1333SOL    HW2 4899   3.315   3.358   3.108
 1334SOL     OW 4900   6.269   4.343   1.661
 1334SOL    HW1 4901   6.354   4.388   1.690
 1334SOL    HW2 4902   6.281   4.244   1.668
 1335SOL     OW 4903   0.315   3.387   3.161
 1335SOL    HW1 4904   0.392   3.366   3.221
 1335SOL    HW2 4905   0.314   3.322   3.085
 1336SOL     OW 4906   2.471   6.841   5.801
 1336SOL    HW1 4907   2.551   6.875   5.850
 1336SOL    HW2 4908   2.406   6.803   5.867
 1337SOL     OW 4909   0.612   0.066   1.946
 1337SOL    HW1 4910   0.592   0.086   1.850
 1337SOL    HW2 4911   0.536   0.097   2.003
 1338SOL     OW 4912   0.170   3.846   5.229
 1338SOL    HW1 4913   0.162   3.752   5.261
 1338SOL    HW2 4914   0.221   3.849   5.144
 1339SOL     OW 4915   5.458   1.407   6.931
 1339SOL    HW1 4916   5.494   1.351   7.006
 1339SOL    HW2 4917   5.491   1.370   6.844
 1340SOL     OW 4918   3.427   2.786   1.196
 1340SOL    HW1 4919   3.432   2.769   1.294
 1340SOL    HW2 4920   3.504   2.843   1.168
 1341SOL     OW 4921   5.477   5.596   6.233
 1341SOL    HW1 4922   5.396   5.551   6.196
 1341SOL    HW2 4923   5.489   5.571   6.329
 1342SOL     OW 4924   1.939   6.066   1.370
 1342SOL    HW1 4925   2.010   6.135   1.361
 1342SOL    HW2 4926   1.896   6.073   1.460
 1343SOL     OW 4927   4.979   6.312   2.799
 1343SOL    HW1 4928   4.990   6.227   2.851
 1343SOL    HW2 4929   4.940   6.291   2.709
 1344SOL     OW 4930   0.942   0.886   4.146
 1344SOL    HW1 4931   0.858   0.914   4.194
 1344SOL    HW2 4932   0.917   0.839   4.061
 1345SOL     OW 4933   1.459   6.711   5.651
 1345SOL    HW1 4934   1.506   6.622   5.650
 1345SOL    HW2 4935   1.527   6.784   5.660
 1346SOL     OW 4936   3.068   5.282   4.111
 1346SOL    HW1 4937   2.990   5.252   4.165
 1346SOL    HW2 4938   3.117   5.354   4.159
 1347SOL     OW 4939   1.496   0.829   6.353
 1347SOL    HW1 4940   1.561   0.757   6.331
 1347SOL    HW2 4941   1.417   0.824   6.292
 1348SOL     OW 4942   1.623   6.578   4.811
 1348SOL    HW1 4943   1.670   6.539   4.890
 1348SOL    HW2 4944   1.691   6.604   4.741
 1349SOL     OW 4945   5.496   3.765   4.217
 1349SOL    HW1 4946   5.515   3.668   4.201
 1349SOL    HW2 4947   5.440   3.775   4.299
 1350SOL     OW 4948   4.818   4.849   6.577
 1350SOL    HW1 4949   4.749   4.918   6.600
 1350SOL    HW2 4950   4.881   4.839   6.654
 1351SOL     OW 4951   0.027   2.335   6.334
 1351SOL    HW1 4952   6.988   2.266   6.299
 1351SOL    HW2 4953   0.073   2.379   6.256
 1352SOL     OW 4954   0.005   0.530   2.260
 1352SOL    HW1 4955   6.974   0.470   2.316
 1352SOL    HW2 4956   7.007   0.625   2.278
 1353SOL     OW 4957   6.426   2.042   6.504
 1353SOL    HW1 4958   6.414   2.103   6.583
 1353SOL    HW2 4959   6.524   2.025   6.490
 1354SOL     OW 4960   5.009   5.008   2.769
 1354SOL    HW1 4961   4.930   5.069   2.777
 1354SOL    HW2 4962   5.048   4.993   2.860
 1355SOL     OW 4963   4.223   3.688   5.124
 1355SOL    HW1 4964   4.221   3.588   5.121
 1355SOL    HW2 4965   4.179   3.725   5.042
 1356SOL     OW 4966   2.774   3.169   6.749
 1356SOL    HW1 4967   2.814   3.246   6.799
 1356SOL    HW2 4968   2.677   3.188   6.731
 1357SOL     OW 4969   1.048   3.149   5.557
 1357SOL    HW1 4970   1.099   3.233   5.572
 1357SOL    HW2 4971   1.101   3.071   5.589
 1358SOL     OW 4972   2.412   6.740   6.700
 1358SOL    HW1 4973   2.506   6.715   6.677
 1358SOL    HW2 4974   2.398   6.837   6.684
 1359SOL     OW 4975   6.444   4.752   0.122
 1359SOL    HW1 4976   6.482   4.843   0.107
 1359SOL    HW2 4977   6.452   4.727   0.218
 1360SOL     OW 4978   2.969   1.866   6.315
 1360SOL    HW1 4979   3.000   1.795   6.251
 1360SOL    HW2 4980   2.903   1.925   6.270
 1361SOL     OW 4981   6.550   5.437   5.274
 1361SOL    HW1 4982   6.588   5.345   5.271
 1361SOL    HW2 4983   6.472   5.443   5.212
 1362SOL     OW 4984   3.664   3.890   4.140
 1362SOL    HW1 4985   3.566   3.900   4.154
 1362SOL    HW2 4986   3.692   3.798   4.170
 1363SOL     OW 4987   0.652   6.364   3.416
 1363SOL    HW1 4988   0.587   6.340   3.344
 1363SOL    HW2 4989   0.683   6.280   3.461
 1364SOL     OW 4990   3.791   4.170   0.240
 1364SOL    HW1 4991   3.739   4.233   0.182
 1364SOL    HW2 4992   3.756   4.077   0.230
 1365SOL     OW 4993   6.004   2.655   6.420
 1365SOL    HW1 4994   6.021   2.561   6.391
 1365SOL    HW2 4995   5.908   2.677   6.408
 1366SOL     OW 4996   2.398   0.301   5.206
 1366SOL    HW1 4997   2.328   0.301   5.134
 1366SOL    HW2 4998   2.361   0.346   5.288
 1367SOL     OW 4999   2.688   1.781   2.526
 1367SOL    HW1 5000   2.767   1.840   2.544
 1367SOL    HW2 5001   2.609   1.837   2.500
 1368SOL     OW 5002   6.966   0.467   2.922
 1368SOL    HW1 5003   6.985   0.565   2.909
 1368SOL    HW2 5004   6.904   0.455   3.000
 1369SOL     OW 5005   0.211   0.261   2.320
 1369SOL    HW1 5006   0.127   0.315   2.319
 1369SOL    HW2 5007   0.285   0.315   2.359
 1370SOL     OW 5008   1.643   0.862   2.332
 1370SOL    HW1 5009   1.728   0.809   2.337
 1370SOL    HW2 5010   1.628   0.909   2.419
 1371SOL     OW 5011   3.129   0.074   6.598
 1371SOL    HW1 5012   3.149   0.028   6.511
 1371SOL    HW2 5013   3.084   0.009   6.660
 1372SOL     OW 5014   2.674   1.850   1.850
 1372SOL    HW1 5015   2.662   1.939   1.807
 1372SOL    HW2 5016   2.596   1.791   1.828
 1373SOL     OW 5017   1.950   5.765   6.832
 1373SOL    HW1 5018   2.025   5.700   6.819
 1373SOL    HW2 5019   1.946   5.792   6.928
 1374SOL     OW 5020   5.038   3.811   5.544
 1374SOL    HW1 5021   4.954   3.756   5.533
 1374SOL    HW2 5022   5.095   3.800   5.463
 1375SOL     OW 5023   0.898   3.918   4.408
 1375SOL    HW1 5024   0.980   3.886   4.361
 1375SOL    HW2 5025   0.921   3.998   4.463
 1376SOL     OW 5026   5.303   0.478   1.962
 1376SOL    HW1 5027   5.312   0.412   2.037
 1376SOL    HW2 5028   5.284   0.429   1.877
 1377SOL     OW 5029   0.661   4.229   4.985
 1377SOL    HW1 5030   0.627   4.229   4.891
 1377SOL    HW2 5031   0.760   4.243   4.985
 1378SOL     OW 5032   1.859   2.144   0.285
 1378SOL    HW1 5033   1.882   2.238   0.261
 1378SOL    HW2 5034   1.933   2.104   0.339
 1379SOL     OW 5035   4.268   5.701   1.826
 1379SOL    HW1 5036   4.259   5.756   1.909
 1379SOL    HW2 5037   4.289   5.760   1.749
 1380SOL     OW 5038   6.004   4.994   2.718
 1380SOL    HW1 5039   6.028   5.045   2.636
 1380SOL    HW2 5040   6.019   4.896   2.702
 1381SOL     OW 5041   4.796   0.044   2.419
 1381SOL    HW1 5042   4.726   0.098   2.467
 1381SOL    HW2 5043   4.847   7.014   2.485
 1382SOL     OW 5044   0.454   4.096   0.406
 1382SOL    HW1 5045   0.477   4.189   0.432
 1382SOL    HW2 5046   0.379   4.063   0.464
 1383SOL     OW 5047   2.657   0.139   0.870
 1383SOL    HW1 5048   2.737   0.133   0.931
 1383SOL    HW2 5049   2.636   0.235   0.852
 1384SOL     OW 5050   1.562   1.717   1.950
 1384SOL    HW1 5051   1.548   1.619   1.959
 1384SOL    HW2 5052   1.490   1.756   1.892
 1385SOL     OW 5053   4.934   3.601   4.207
 1385SOL    HW1 5054   4.951   3.502   4.213
 1385SOL    HW2 5055   5.018   3.650   4.232
 1386SOL     OW 5056   2.585   2.254   3.618
 1386SOL    HW1 5057   2.565   2.286   3.711
 1386SOL    HW2 5058   2.525   2.301   3.553
 1387SOL     OW 5059   3.289   0.943   3.497
 1387SOL    HW1 5060   3.338   1.023   3.533
 1387SOL    HW2 5061   3.234   0.903   3.570
 1388SOL     OW 5062   5.128   2.058   3.658
 1388SOL    HW1 5063   5.119   2.158   3.658
 1388SOL    HW2 5064   5.169   2.028   3.744
 1389SOL     OW 5065   0.037   0.333   3.629
 1389SOL    HW1 5066   0.111   0.359   3.691
 1389SOL    HW2 5067   0.071   0.264   3.565
 1390SOL     OW 5068   5.324   1.680   2.218
 1390SOL    HW1 5069   5.404   1.655   2.164
 1390SOL    HW2 5070   5.342   1.664   2.315
 1391SOL     OW 5071   5.805   0.998   5.130
 1391SOL    HW1 5072   5.785   1.095   5.115
 1391SOL    HW2 5073   5.744   0.943   5.074
 1392SOL     OW 5074   3.724   6.896   5.255
 1392SOL    HW1 5075   3.643   6.952   5.272
 1392SOL    HW2 5076   3.695   6.807   5.219
 1393SOL     OW 5077   5.290   0.778   6.804
 1393SOL    HW1 5078   5.202   0.731   6.793
 1393SOL    HW2 5079   5.316   0.779   6.901
 1394SOL     OW 5080   4.086   0.906   4.114
 1394SOL    HW1 5081   4.037   0.979   4.162
 1394SOL    HW2 5082   4.150   0.862   4.177
 1395SOL     OW 5083   0.728   4.985   2.645
 1395SOL    HW1 5084   0.716   4.948   2.553
 1395SOL    HW2 5085   0.643   4.977   2.696
 1396SOL     OW 5086   1.551   1.579   3.569
 1396SOL    HW1 5087   1.523   1.675   3.570
 1396SOL    HW2 5088   1.498   1.530   3.499
 1397SOL     OW 5089   2.535   4.526   5.523
 1397SOL    HW1 5090   2.483   4.553   5.604
 1397SOL    HW2 5091   2.537   4.426   5.516
 1398SOL     OW 5092   3.253   6.674   6.607
 1398SOL    HW1 5093   3.326   6.743   6.603
 1398SOL    HW2 5094   3.232   6.642   6.515
 1399SOL     OW 5095   4.010   0.329   0.209
 1399SOL    HW1 5096   4.089   0.391   0.204
 1399SOL    HW2 5097   4.042   0.236   0.229
 1400SOL     OW 5098   0.665   1.288   5.709
 1400SOL    HW1 5099   0.622   1.273   5.798
 1400SOL    HW2 5100   0.699   1.200   5.673
 1401SOL     OW 5101   4.917   0.047   2.143
 1401SOL    HW1 5102   4.824   0.025   2.173
 1401SOL    HW2 5103   4.973   0.072   2.222
 1402SOL     OW 5104   4.838   4.338   1.936
 1402SOL    HW1 5105   4.834   4.376   2.029
 1402SOL    HW2 5106   4.752   4.358   1.889
 1403SOL     OW 5107   3.059   3.151   6.996
 1403SOL    HW1 5108   3.156   3.130   7.005
 1403SOL    HW2 5109   3.019   3.097   6.922
 1404SOL     OW 5110   3.904   6.314   0.327
 1404SOL    HW1 5111   3.968   6.369   0.381
 1404SOL    HW2 5112   3.951   6.278   0.247
 1405SOL     OW 5113   1.153   3.874   6.718
 1405SOL    HW1 5114   1.220   3.945   6.695
 1405SOL    HW2 5115   1.111   3.895   6.806
 1406SOL     OW 5116   2.156   2.560   6.651
 1406SOL    HW1 5117   2.174   2.566   6.553
 1406SOL    HW2 5118   2.235   2.593   6.702
 1407SOL     OW 5119   6.910   2.406   2.064
 1407SOL    HW1 5120   6.825   2.354   2.064
 1407SOL    HW2 5121   6.923   2.450   1.975
 1408SOL     OW 5122   5.930   6.342   1.012
 1408SOL    HW1 5123   5.969   6.256   0.980
 1408SOL    HW2 5124   5.968   6.418   0.959
 1409SOL     OW 5125   5.858   1.883   5.813
 1409SOL    HW1 5126   5.827   1.796   5.849
 1409SOL    HW2 5127   5.939   1.914   5.863
 1410SOL     OW 5128   3.108   0.669   0.512
 1410SOL    HW1 5129   3.096   0.607   0.590
 1410SOL    HW2 5130   3.070   0.758   0.535
 1411SOL     OW 5131   3.485   6.424   0.423
 1411SOL    HW1 5132   3.412   6.441   0.490
 1411SOL    HW2 5133   3.475   6.488   0.347
 1412SOL     OW 5134   2.552   1.316   6.846
 1412SOL    HW1 5135   2.604   1.301   6.930
 1412SOL    HW2 5136   2.486   1.242   6.834
 1413SOL     OW 5137   2.551   1.336   5.341
 1413SOL    HW1 5138   2.599   1.280   5.274
 1413SOL    HW2 5139   2.486   1.396   5.294
 1414SOL     OW 5140   0.457   4.835   1.969
 1414SOL    HW1 5141   0.504   4.772   1.908
 1414SOL    HW2 5142   0.479   4.929   1.942
 1415SOL     OW 5143   3.697   1.901   5.173
 1415SOL    HW1 5144   3.629   1.901   5.100
 1415SOL    HW2 5145   3.652   1.891   5.261
 1416SOL     OW 5146   4.789   0.361   4.975
 1416SOL    HW1 5147   4.885   0.378   4.953
 1416SOL    HW2 5148   4.734   0.441   4.950
 1417SOL     OW 5149   3.510   3.633   4.422
 1417SOL    HW1 5150   3.565   3.644   4.505
 1417SOL    HW2 5151   3.492   3.536   4.406
 1418SOL     OW 5152   3.568   3.756   5.422
 1418SOL    HW1 5153   3.572   3.700   5.339
 1418SOL    HW2 5154   3.480   3.742   5.467
 1419SOL     OW 5155   0.076   5.099   2.017
 1419SOL    HW1 5156   0.100   5.193   2.040
 1419SOL    HW2 5157   0.100   5.039   2.092
 1420SOL     OW 5158   2.774   6.633   3.151
 1420SOL    HW1 5159   2.847   6.658   3.088
 1420SOL    HW2 5160   2.811   6.626   3.244
 1421SOL     OW 5161   1.713   5.278   0.760
 1421SOL    HW1 5162   1.700   5.178   0.757
 1421SOL    HW2 5163   1.715   5.308   0.855
 1422SOL     OW 5164   1.622   4.095   6.847
 1422SOL    HW1 5165   1.626   4.134   6.754
 1422SOL    HW2 5166   1.532   4.054   6.862
 1423SOL     OW 5167   4.518   1.123   4.606
 1423SOL    HW1 5168   4.530   1.201   4.545
 1423SOL    HW2 5169   4.421   1.106   4.622
 1424SOL     OW 5170   6.501   3.436   1.358
 1424SOL    HW1 5171   6.552   3.360   1.318
 1424SOL    HW2 5172   6.556   3.478   1.430
 1425SOL     OW 5173   5.759   6.571   3.260
 1425SOL    HW1 5174   5.799   6.498   3.204
 1425SOL    HW2 5175   5.690   6.532   3.320
 1426SOL     OW 5176   3.664   1.509   0.644
 1426SOL    HW1 5177   3.602   1.569   0.594
 1426SOL    HW2 5178   3.624   1.418   0.652
 1427SOL     OW 5179   0.850   1.133   3.950
 1427SOL    HW1 5180   0.811   1.102   3.864
 1427SOL    HW2 5181   0.857   1.056   4.014
 1428SOL     OW 5182   1.706   3.716   4.112
 1428SOL    HW1 5183   1.622   3.760   4.141
 1428SOL    HW2 5184   1.702   3.697   4.014
 1429SOL     OW 5185   6.572   0.306   1.619
 1429SOL    HW1 5186   6.500   0.285   1.685
 1429SOL    HW2 5187   6.566   0.402   1.592
 1430SOL     OW 5188   2.207   3.999   4.477
 1430SOL    HW1 5189   2.233   4.059   4.401
 1430SOL    HW2 5190   2.217   3.904   4.450
 1431SOL     OW 5191   3.614   2.187   0.590
 1431SOL    HW1 5192   3.545   2.222   0.653
 1431SOL    HW2 5193   3.577   2.187   0.497
 1432SOL     OW 5194   3.467   0.441   2.962
 1432SOL    HW1 5195   3.490   0.509   2.892
 1432SOL    HW2 5196   3.429   0.488   3.042
 1433SOL     OW 5197   3.024   2.150   4.317
 1433SOL    HW1 5198   3.112   2.129   4.359
 1433SOL    HW2 5199   2.956   2.165   4.389
 1434SOL     OW 5200   5.624   3.552   0.814
 1434SOL    HW1 5201   5.545   3.491   0.810
 1434SOL    HW2 5202   5.638   3.593   0.724
 1435SOL     OW 5203   0.393   6.254   4.175
 1435SOL    HW1 5204   0.476   6.235   4.227
 1435SOL    HW2 5205   0.316   6.205   4.216
 1436SOL     OW 5206   5.624   0.976   0.199
 1436SOL    HW1 5207   5.631   1.033   0.281
 1436SOL    HW2 5208   5.605   0.881   0.227
 1437SOL     OW 5209   4.517   1.094   0.657
 1437SOL    HW1 5210   4.467   1.165   0.608
 1437SOL    HW2 5211   4.454   1.047   0.720
 1438SOL     OW 5212   2.503   7.017   3.059
 1438SOL    HW1 5213   2.589   0.036   3.035
 1438SOL    HW2 5214   2.455   0.047   3.127
 1439SOL     OW 5215   0.072   5.317   4.926
 1439SOL    HW1 5216   0.003   5.326   4.854
 1439SOL    HW2 5217   0.134   5.242   4.903
 1440SOL     OW 5218   3.377   3.263   2.767
 1440SOL    HW1 5219   3.296   3.302   2.724
 1440SOL    HW2 5220   3.409   3.184   2.714
 1441SOL     OW 5221   0.419   1.725   6.026
 1441SOL    HW1 5222   0.448   1.712   6.121
 1441SOL    HW2 5223   0.464   1.658   5.967
 1442SOL     OW 5224   5.483   5.964   0.135
 1442SOL    HW1 5225   5.549   5.918   0.075
 1442SOL    HW2 5226   5.532   6.007   0.211
 1443SOL     OW 5227   1.541   3.352   4.012
 1443SOL    HW1 5228   1.572   3.425   3.951
 1443SOL    HW2 5229   1.611   3.333   4.080
 1444SOL     OW 5230   5.080   7.013   4.446
 1444SOL    HW1 5231   5.094   6.964   4.361
 1444SOL    HW2 5232   4.984   7.008   4.473
 1445SOL     OW 5233   6.816   2.399   0.254
 1445SOL    HW1 5234   6.781   2.352   0.173
 1445SOL    HW2 5235   6.741   2.415   0.318
 1446SOL     OW 5236   2.907   5.729   2.248
 1446SOL    HW1 5237   2.876   5.731   2.153
 1446SOL    HW2 5238   2.997   5.684   2.252
 1447SOL     OW 5239   6.801   0.838   4.459
 1447SOL    HW1 5240   6.878   0.902   4.463
 1447SOL    HW2 5241   6.738   0.855   4.534
 1448SOL     OW 5242   5.394   0.842   0.852
 1448SOL    HW1 5243   5.410   0.805   0.761
 1448SOL    HW2 5244   5.429   0.935   0.858
 1449SOL     OW 5245   4.561   5.269   0.433
 1449SOL    HW1 5246   4.497   5.193   0.438
 1449SOL    HW2 5247   4.631   5.250   0.364
 1450SOL     OW 5248   5.129   1.091   3.362
 1450SOL    HW1 5249   5.063   1.159   3.331
 1450SOL    HW2 5250   5.190   1.133   3.430
 1451SOL     OW 5251   0.950   6.781   1.876
 1451SOL    HW1 5252   0.941   6.682   1.874
 1451SOL    HW2 5253   1.047   6.807   1.874
 1452SOL     OW 5254   1.999   6.859   6.320
 1452SOL    HW1 5255   2.077   6.916   6.345
 1452SOL    HW2 5256   1.978   6.796   6.394
 1453SOL     OW 5257   5.926   4.624   4.319
 1453SOL    HW1 5258   5.978   4.637   4.234
 1453SOL    HW2 5259   5.988   4.597   4.393
 1454SOL     OW 5260   5.575   3.733   0.988
 1454SOL    HW1 5261   5.590   3.647   0.939
 1454SOL    HW2 5262   5.636   3.803   0.951
 1455SOL     OW 5263   1.977   2.053   1.699
 1455SOL    HW1 5264   1.908   2.020   1.763
 1455SOL    HW2 5265   2.066   2.056   1.744
 1456SOL     OW 5266   5.463   5.294   4.758
 1456SOL    HW1 5267   5.389   5.354   4.788
 1456SOL    HW2 5268   5.450   5.203   4.798
 1457SOL     OW 5269   2.063   1.016   4.397
 1457SOL    HW1 5270   1.974   0.975   4.417
 1457SOL    HW2 5271   2.083   1.086   4.467
 1458SOL     OW 5272   6.643   5.264   0.326
 1458SOL    HW1 5273   6.697   5.181   0.318
 1458SOL    HW2 5274   6.622   5.282   0.422
 1459SOL     OW 5275   2.560   6.953   1.793
 1459SOL    HW1 5276   2.644   6.902   1.809
 1459SOL    HW2 5277   2.552   6.976   1.696
 1460SOL     OW 5278   0.268   1.237   6.647
 1460SOL    HW1 5279   0.267   1.145   6.608
 1460SOL    HW2 5280   0.357   1.254   6.691
 1461SOL     OW 5281   4.739   4.200   2.780
 1461SOL    HW1 5282   4.769   4.223   2.873
 1461SOL    HW2 5283   4.766   4.106   2.759
 1462SOL     OW 5284   5.594   7.002   4.910
 1462SOL    HW1 5285   5.560   7.024   5.001
 1462SOL    HW2 5286   5.598   0.060   4.855
 1463SOL     OW 5287   0.851   2.119   5.662
 1463SOL    HW1 5288   0.833   2.024   5.686
 1463SOL    HW2 5289   0.820   2.136   5.568
 1464SOL     OW 5290   0.751   0.919   1.121
 1464SOL    HW1 5291   0.773   0.895   1.216
 1464SOL    HW2 5292   0.652   0.929   1.111
 1465SOL     OW 5293   1.887   1.309   3.786
 1465SOL    HW1 5294   1.858   1.371   3.713
 1465SOL    HW2 5295   1.807   1.262   3.823
 1466SOL     OW 5296   6.244   5.800   3.781
 1466SOL    HW1 5297   6.164   5.809   3.721
 1466SOL    HW2 5298   6.229   5.724   3.845
 1467SOL     OW 5299   6.798   3.754   4.809
 1467SOL    HW1 5300   6.700   3.763   4.826
 1467SOL    HW2 5301   6.826   3.816   4.736
 1468SOL     OW 5302   4.685   0.226   2.849
 1468SOL    HW1 5303   4.726   0.144   2.889
 1468SOL    HW2 5304   4.679   0.298   2.918
 1469SOL     OW 5305   0.289   0.619   2.358
 1469SOL    HW1 5306   0.346   0.548   2.397
 1469SOL    HW2 5307   0.193   0.592   2.364
 1470SOL     OW 5308   0.730   0.415   3.152
 1470SOL    HW1 5309   0.769   0.493   3.104
 1470SOL    HW2 5310   0.631   0.413   3.136
 1471SOL     OW 5311   5.977   1.379   1.161
 1471SOL    HW1 5312   6.036   1.397   1.239
 1471SOL    HW2 5313   5.918   1.301   1.181
 1472SOL     OW 5314   4.923   5.076   4.905
 1472SOL    HW1 5315   4.846   5.137   4.917
 1472SOL    HW2 5316   4.892   4.981   4.909
 1473SOL     OW 5317   6.900   3.243   4.004
 1473SOL    HW1 5318   6.852   3.278   4.084
 1473SOL    HW2 5319   6.866   3.151   3.982
 1474SOL     OW 5320   4.618   6.115   2.629
 1474SOL    HW1 5321   4.568   6.186   2.679
 1474SOL    HW2 5322   4.716   6.124   2.646
 1475SOL     OW 5323   6.187   6.897   2.909
 1475SOL    HW1 5324   6.218   6.829   2.842
 1475SOL    HW2 5325   6.182   6.987   2.865
 1476SOL     OW 5326   0.793   2.100   1.469
 1476SOL    HW1 5327   0.809   2.140   1.560
 1476SOL    HW2 5328   0.856   2.141   1.403
 1477SOL     OW 5329   2.698   6.293   4.809
 1477SOL    HW1 5330   2.749   6.286   4.895
 1477SOL    HW2 5331   2.601   6.303   4.829
 1478SOL     OW 5332   0.374   3.682   1.107
 1478SOL    HW1 5333   0.423   3.595   1.109
 1478SOL    HW2 5334   0.276   3.664   1.094
 1479SOL     OW 5335   1.512   5.131   0.100
 1479SOL    HW1 5336   1.452   5.176   0.034
 1479SOL    HW2 5337   1.492   5.033   0.101
 1480SOL     OW 5338   3.273   0.937   0.229
 1480SOL    HW1 5339   3.188   0.982   0.255
 1480SOL    HW2 5340   3.313   0.985   0.150
 1481SOL     OW 5341   0.095   3.411   0.329
 1481SOL    HW1 5342   0.120   3.402   0.232
 1481SOL    HW2 5343   0.014   3.469   0.338
 1482SOL     OW 5344   5.953   0.615   6.403
 1482SOL    HW1 5345   5.876   0.576   6.454
 1482SOL    HW2 5346   5.962   0.569   6.315
 1483SOL     OW 5347   0.085   2.651   6.990
 1483SOL    HW1 5348   0.139   2.576   6.951
 1483SOL    HW2 5349   0.009   2.613   0.017
 1484SOL     OW 5350   6.394   6.811   3.615
 1484SOL    HW1 5351   6.471   6.876   3.614
 1484SOL    HW2 5352   6.379   6.776   3.523
 1485SOL     OW 5353   5.162   3.326   3.922
 1485SOL    HW1 5354   5.233   3.257   3.912
 1485SOL    HW2 5355   5.161   3.384   3.841
 1486SOL     OW 5356   4.896   3.065   1.394
 1486SOL    HW1 5357   4.932   2.977   1.424
 1486SOL    HW2 5358   4.856   3.055   1.302
 1487SOL     OW 5359   0.653   0.069   5.600
 1487SOL    HW1 5360   0.579   0.005   5.580
 1487SOL    HW2 5361   0.741   0.020   5.598
 1488SOL     OW 5362   4.973   1.888   4.386
 1488SOL    HW1 5363   4.981   1.980   4.425
 1488SOL    HW2 5364   4.877   1.859   4.389
 1489SOL     OW 5365   3.021   4.878   4.695
 1489SOL    HW1 5366   3.021   4.958   4.635
 1489SOL    HW2 5367   3.114   4.860   4.727
 1490SOL     OW 5368   2.535   2.850   0.400
 1490SOL    HW1 5369   2.590   2.799   0.333
 1490SOL    HW2 5370   2.493   2.786   0.464
 1491SOL     OW 5371   0.560   1.854   4.361
 1491SOL    HW1 5372   0.566   1.953   4.351
 1491SOL    HW2 5373   0.634   1.811   4.311
 1492SOL     OW 5374   0.450   2.065   1.889
 1492SOL    HW1 5375   0.368   2.034   1.842
 1492SOL    HW2 5376   0.475   2.156   1.855
 1493SOL     OW 5377   6.259   2.839   4.720
 1493SOL    HW1 5378   6.346   2.790   4.708
 1493SOL    HW2 5379   6.274   2.919   4.778
 1494SOL     OW 5380   5.310   1.532   3.966
 1494SOL    HW1 5381   5.282   1.448   3.919
 1494SOL    HW2 5382   5.374   1.510   4.039
 1495SOL     OW 5383   1.495   3.861   1.747
 1495SOL    HW1 5384   1.458   3.802   1.675
 1495SOL    HW2 5385   1.593   3.877   1.730
 1496SOL     OW 5386   0.958   0.387   2.440
 1496SOL    HW1 5387   0.879   0.369   2.499
 1496SOL    HW2 5388   0.958   0.322   2.364
 1497SOL     OW 5389   5.680   5.092   6.036
 1497SOL    HW1 5390   5.605   5.104   6.101
 1497SOL    HW2 5391   5.710   4.997   6.037
 1498SOL     OW 5392   3.107   5.697   6.987
 1498SOL    HW1 5393   3.039   5.687   6.915
 1498SOL    HW2 5394   3.179   5.629   6.974
 1499SOL     OW 5395   1.000   4.161   4.459
 1499SOL    HW1 5396   0.967   4.217   4.383
 1499SOL    HW2 5397   1.100   4.170   4.466
 1500SOL     OW 5398   4.026   6.453   5.907
 1500SOL    HW1 5399   3.998   6.529   5.848
 1500SOL    HW2 5400   3.946   6.420   5.959
 1501SOL     OW 5401   3.559   0.234   1.284
 1501SOL    HW1 5402   3.490   0.170   1.319
 1501SOL    HW2 5403   3.578   0.213   1.189
 1502SOL     OW 5404   0.487   1.133   6.375
 1502SOL    HW1 5405   0.437   1.219   6.380
 1502SOL    HW2 5406   0.541   1.131   6.291
 1503SOL     OW 5407   3.586   3.911   5.138
 1503SOL    HW1 5408   3.624   3.822   5.161
 1503SOL    HW2 5409   3.642   3.954   5.067
 1504SOL     OW 5410   2.794   6.890   3.818
 1504SOL    HW1 5411   2.756   6.979   3.792
 1504SOL    HW2 5412   2.858   6.859   3.747
 1505SOL     OW 5413   5.379   6.753   3.071
 1505SOL    HW1 5414   5.347   6.837   3.027
 1505SOL    HW2 5415   5.386   6.680   3.003
 1506SOL     OW 5416   0.613   6.162   4.320
 1506SOL    HW1 5417   0.641   6.077   4.275
 1506SOL    HW2 5418   0.670   6.237   4.287
 1507SOL     OW 5419   2.153   1.311   7.001
 1507SOL    HW1 5420   2.164   1.409   6.983
 1507SOL    HW2 5421   2.080   1.297   0.042
 1508SOL     OW 5422   4.599   6.356   1.063
 1508SOL    HW1 5423   4.683   6.311   1.032
 1508SOL    HW2 5424   4.606   6.375   1.161
 1509SOL     OW 5425   5.546   1.646   6.749
 1509SOL    HW1 5426   5.558   1.679   6.656
 1509SOL    HW2 5427   5.536   1.546   6.748
 1510SOL     OW 5428   6.613   1.667   2.241
 1510SOL    HW1 5429   6.610   1.598   2.313
 1510SOL    HW2 5430   6.699   1.717   2.247
 1511SOL     OW 5431   0.724   2.934   0.068
 1511SOL    HW1 5432   0.763   2.953   0.159
 1511SOL    HW2 5433   0.773   2.857   0.027
 1512SOL     OW 5434   6.805   0.934   2.146
 1512SOL    HW1 5435   6.733   0.951   2.079
 1512SOL    HW2 5436   6.850   1.020   2.169
 1513SOL     OW 5437   1.977   0.869   2.753
 1513SOL    HW1 5438   1.935   0.951   2.714
 1513SOL    HW2 5439   2.047   0.835   2.690
 1514SOL     OW 5440   4.647   0.766   5.916
 1514SOL    HW1 5441   4.635   0.790   5.820
 1514SOL    HW2 5442   4.716   0.694   5.924
 1515SOL     OW 5443   5.637   5.330   5.865
 1515SOL    HW1 5444   5.620   5.318   5.767
 1515SOL    HW2 5445   5.657   5.241   5.906
 1516SOL     OW 5446   6.030   1.763   1.977
 1516SOL    HW1 5447   5.943   1.716   1.964
 1516SOL    HW2 5448   6.019   1.834   2.046
 1517SOL     OW 5449   3.501   5.422   2.486
 1517SOL    HW1 5450   3.472   5.342   2.538
 1517SOL    HW2 5451   3.545   5.393   2.401
 1518SOL     OW 5452   0.575   4.647   1.286
 1518SOL    HW1 5453   0.538   4.566   1.330
 1518SOL    HW2 5454   0.675   4.639   1.277
 1519SOL     OW 5455   0.369   4.044   1.062
 1519SOL    HW1 5456   0.407   3.969   1.008
 1519SOL    HW2 5457   0.283   4.074   1.022
 1520SOL     OW 5458   1.488   3.959   2.534
 1520SOL    HW1 5459   1.407   3.955   2.593
 1520SOL    HW2 5460   1.560   3.902   2.571
 1521SOL     OW 5461   2.272   5.569   5.187
 1521SOL    HW1 5462   2.367   5.555   5.215
 1521SOL    HW2 5463   2.260   5.537   5.093
 1522SOL     OW 5464   1.790   2.009   5.997
 1522SOL    HW1 5465   1.849   2.035   6.073
 1522SOL    HW2 5466   1.755   2.091   5.952
 1523SOL     OW 5467   6.007   0.611   1.841
 1523SOL    HW1 5468   5.956   0.598   1.756
 1523SOL    HW2 5469   5.944   0.614   1.918
 1524SOL     OW 5470   0.663   1.897   1.306
 1524SOL    HW1 5471   0.731   1.861   1.242
 1524SOL    HW2 5472   0.708   1.955   1.374
 1525SOL     OW 5473   5.339   1.157   5.448
 1525SOL    HW1 5474   5.430   1.184   5.480
 1525SOL    HW2 5475   5.313   1.071   5.492
 1526SOL     OW 5476   5.575   2.611   6.923
 1526SOL    HW1 5477   5.487   2.563   6.923
 1526SOL    HW2 5478   5.610   2.615   7.017
 1527SOL     OW 5479   2.882   0.824   5.385
 1527SOL    HW1 5480   2.954   0.776   5.436
 1527SOL    HW2 5481   2.794   0.781   5.403
 1528SOL     OW 5482   5.552   6.256   3.902
 1528SOL    HW1 5483   5.633   6.314   3.896
 1528SOL    HW2 5484   5.474   6.304   3.862
 1529SOL     OW 5485   2.076   0.080   5.276
 1529SOL    HW1 5486   2.126   0.056   5.193
 1529SOL    HW2 5487   2.025   0.165   5.260
 1530SOL     OW 5488   3.073   6.571   1.338
 1530SOL    HW1 5489   3.129   6.633   1.283
 1530SOL    HW2 5490   3.039   6.619   1.418
 1531SOL     OW 5491   5.906   1.612   6.463
 1531SOL    HW1 5492   5.921   1.531   6.519
 1531SOL    HW2 5493   5.903   1.585   6.366
 1532SOL     OW 5494   3.093   1.455   5.340
 1532SOL    HW1 5495   2.998   1.433   5.363
 1532SOL    HW2 5496   3.120   1.540   5.384
 1533SOL     OW 5497   4.722   3.309   0.306
 1533SOL    HW1 5498   4.669   3.274   0.383
 1533SOL    HW2 5499   4.819   3.290   0.321
 1534SOL     OW 5500   0.415   0.132   0.071
 1534SOL    HW1 5501   0.443   0.203   0.136
 1534SOL    HW2 5502   0.482   0.127   7.023
 1535SOL     OW 5503   5.358   4.137   4.340
 1535SOL    HW1 5504   5.429   4.084   4.386
 1535SOL    HW2 5505   5.373   4.234   4.357
 1536SOL     OW 5506   3.064   6.175   3.124
 1536SOL    HW1 5507   3.156   6.190   3.087
 1536SOL    HW2 5508   2.996   6.205   3.057
 1537SOL     OW 5509   2.004   5.749   4.491
 1537SOL    HW1 5510   1.925   5.735   4.431
 1537SOL    HW2 5511   2.015   5.669   4.550
 1538SOL     OW 5512   3.363   6.046   0.445
 1538SOL    HW1 5513   3.436   6.004   0.392
 1538SOL    HW2 5514   3.402   6.111   0.511
 1539SOL     OW 5515   2.343   6.796   2.439
 1539SOL    HW1 5516   2.406   6.749   2.377
 1539SOL    HW2 5517   2.395   6.851   2.504
 1540SOL     OW 5518   5.939   0.441   4.992
 1540SOL    HW1 5519   6.000   0.483   5.060
 1540SOL    HW2 5520   5.994   0.404   4.917
 1541SOL     OW 5521   5.264   1.803   1.886
 1541SOL    HW1 5522   5.315   1.778   1.803
 1541SOL    HW2 5523   5.329   1.825   1.959
 1542SOL     OW 5524   6.804   5.563   1.176
 1542SOL    HW1 5525   6.739   5.498   1.215
 1542SOL    HW2 5526   6.817   5.543   1.079
 1543SOL     OW 5527   3.407   3.474   3.556
 1543SOL    HW1 5528   3.449   3.540   3.493
 1543SOL    HW2 5529   3.308   3.481   3.552
 1544SOL     OW 5530   3.557   3.677   1.917
 1544SOL    HW1 5531   3.582   3.719   2.004
 1544SOL    HW2 5532   3.488   3.734   1.871
 1545SOL     OW 5533   0.395   6.621   5.401
 1545SOL    HW1 5534   0.342   6.666   5.329
 1545SOL    HW2 5535   0.332   6.579   5.468
 1546SOL     OW 5536   0.174   6.711   0.105
 1546SOL    HW1 5537   0.102   6.766   0.064
 1546SOL    HW2 5538   0.261   6.761   0.098
 1547SOL     OW 5539   3.338   6.035   0.056
 1547SOL    HW1 5540   3.429   6.048   0.018
 1547SOL    HW2 5541   3.341   5.963   0.126
 1548SOL     OW 5542   6.495   4.267   3.076
 1548SOL    HW1 5543   6.476   4.272   2.978
 1548SOL    HW2 5544   6.445   4.190   3.116
 1549SOL     OW 5545   5.910   2.015   1.079
 1549SOL    HW1 5546   5.836   2.056   1.026
 1549SOL    HW2 5547   5.918   1.918   1.056
 1550SOL     OW 5548   2.602   5.192   2.618
 1550SOL    HW1 5549   2.512   5.229   2.639
 1550SOL    HW2 5550   2.591   5.109   2.562
 1551SOL     OW 5551   0.767   2.626   1.723
 1551SOL    HW1 5552   0.837   2.558   1.702
 1551SOL    HW2 5553   0.788   2.711   1.677
 1552SOL     OW 5554   1.688   6.718   1.867
 1552SOL    HW1 5555   1.634   6.636   1.888
 1552SOL    HW2 5556   1.728   6.754   1.952
 1553SOL     OW 5557   5.530   1.432   5.481
 1553SOL    HW1 5558   5.570   1.422   5.572
 1553SOL    HW2 5559   5.471   1.513   5.480
 1554SOL     OW 5560   2.763   3.082   0.796
 1554SOL    HW1 5561   2.817   3.008   0.837
 1554SOL    HW2 5562   2.812   3.118   0.716
 1555SOL     OW 5563   4.312   1.109   1.308
 1555SOL    HW1 5564   4.287   1.196   1.265
 1555SOL    HW2 5565   4.401   1.118   1.352
 1556SOL     OW 5566   2.961   2.321   0.937
 1556SOL    HW1 5567   2.886   2.375   0.976
 1556SOL    HW2 5568   3.012   2.377   0.872
 1557SOL     OW 5569   1.936   2.803   1.329
 1557SOL    HW1 5570   1.859   2.829   1.388
 1557SOL    HW2 5571   1.903   2.793   1.235
 1558SOL     OW 5572   4.678   2.460   6.536
 1558SOL    HW1 5573   4.762   2.429   6.580
 1558SOL    HW2 5574   4.671   2.419   6.444
 1559SOL     OW 5575   2.452   6.287   3.361
 1559SOL    HW1 5576   2.412   6.197   3.343
 1559SOL    HW2 5577   2.535   6.276   3.417
 1560SOL     OW 5578   4.614   3.123   1.431
 1560SOL    HW1 5579   4.586   3.027   1.420
 1560SOL    HW2 5580   4.702   3.127   1.478
 1561SOL     OW 5581   6.180   6.522   0.597
 1561SOL    HW1 5582   6.185   6.518   0.498
 1561SOL    HW2 5583   6.273   6.516   0.635
 1562SOL     OW 5584   2.708   6.769   2.879
 1562SOL    HW1 5585   2.742   6.860   2.853
 1562SOL    HW2 5586   2.757   6.737   2.960
 1563SOL     OW 5587   2.216   3.889   3.824
 1563SOL    HW1 5588   2.233   3.873   3.922
 1563SOL    HW2 5589   2.292   3.939   3.784
 1564SOL     OW 5590   1.311   1.827   3.400
 1564SOL    HW1 5591   1.387   1.874   3.355
 1564SOL    HW2 5592   1.233   1.822   3.338
 1565SOL     OW 5593   5.039   1.607   5.362
 1565SOL    HW1 5594   5.074   1.514   5.371
 1565SOL    HW2 5595   4.948   1.605   5.319
 1566SOL     OW 5596   1.170   3.158   3.734
 1566SOL    HW1 5597   1.161   3.213   3.817
 1566SOL    HW2 5598   1.101   3.086   3.734
 1567SOL     OW 5599   5.332   0.643   4.674
 1567SOL    HW1 5600   5.382   0.559   4.697
 1567SOL    HW2 5601   5.235   0.622   4.665
 1568SOL     OW 5602   2.145   4.250   1.118
 1568SOL    HW1 5603   2.070   4.286   1.063
 1568SOL    HW2 5604   2.109   4.207   1.201
 1569SOL     OW 5605   2.272   0.989   2.186
 1569SOL    HW1 5606   2.236   0.903   2.148
 1569SOL    HW2 5607   2.265   0.987   2.285
 1570SOL     OW 5608   3.107   6.054   6.529
 1570SOL    HW1 5609   3.176   5.985   6.505
 1570SOL    HW2 5610   3.033   6.010   6.579
 1571SOL     OW 5611   0.938   1.492   4.539
 1571SOL    HW1 5612   0.854   1.451   4.503
 1571SOL    HW2 5613   0.929   1.507   4.637
 1572SOL     OW 5614   1.770   6.357   3.619
 1572SOL    HW1 5615   1.707   6.359   3.697
 1572SOL    HW2 5616   1.843   6.424   3.633
 1573SOL     OW 5617   5.333   6.337   0.368
 1573SOL    HW1 5618   5.309   6.311   0.274
 1573SOL    HW2 5619   5.307   6.263   0.430
 1574SOL     OW 5620   0.074   3.491   3.140
 1574SOL    HW1 5621   0.079   3.589   3.121
 1574SOL    HW2 5622   0.166   3.454   3.152
 1575SOL     OW 5623   6.576   2.427   7.019
 1575SOL    HW1 5624   6.523   2.495   0.044
 1575SOL    HW2 5625   6.610   2.468   6.934
 1576SOL     OW 5626   1.626   6.144   2.649
 1576SOL    HW1 5627   1.692   6.211   2.615
 1576SOL    HW2 5628   1.565   6.117   2.575
 1577SOL     OW 5629   4.180   5.806   4.036
 1577SOL    HW1 5630   4.233   5.723   4.018
 1577SOL    HW2 5631   4.103   5.783   4.095
 1578SOL     OW 5632   5.304   1.662   1.603
 1578SOL    HW1 5633   5.399   1.683   1.625
 1578SOL    HW2 5634   5.273   1.719   1.527
 1579SOL     OW 5635   1.409   3.355   2.242
 1579SOL    HW1 5636   1.473   3.339   2.167
 1579SOL    HW2 5637   1.382   3.451   2.245
 1580SOL     OW 5638   3.366   4.164   4.077
 1580SOL    HW1 5639   3.328   4.155   3.985
 1580SOL    HW2 5640   3.450   4.111   4.083
 1581SOL     OW 5641   5.057   4.349   5.666
 1581SOL    HW1 5642   4.993   4.368   5.591
 1581SOL    HW2 5643   5.012   4.291   5.734
 1582SOL     OW 5644   4.301   5.998   3.891
 1582SOL    HW1 5645   4.380   6.021   3.948
 1582SOL    HW2 5646   4.247   5.926   3.936
 1583SOL     OW 5647   0.281   5.530   4.638
 1583SOL    HW1 5648   0.315   5.519   4.731
 1583SOL    HW2 5649   0.234   5.447   4.610
 1584SOL     OW 5650   0.129   4.293   6.961
 1584SOL    HW1 5651   0.218   4.330   6.932
 1584SOL    HW2 5652   0.140   4.198   6.991
 1585SOL     OW 5653   4.788   6.282   4.319
 1585SOL    HW1 5654   4.858   6.330   4.266
 1585SOL    HW2 5655   4.705   6.272   4.264
 1586SOL     OW 5656   2.235   5.899   3.610
 1586SOL    HW1 5657   2.303   5.908   3.683
 1586SOL    HW2 5658   2.246   5.811   3.564
 1587SOL     OW 5659   3.704   6.586   0.625
 1587SOL    HW1 5660   3.687   6.683   0.610
 1587SOL    HW2 5661   3.637   6.532   0.573
 1588SOL     OW 5662   6.351   2.070   3.651
 1588SOL    HW1 5663   6.375   1.995   3.588
 1588SOL    HW2 5664   6.293   2.035   3.724
 1589SOL     OW 5665   0.337   1.448   4.320
 1589SOL    HW1 5666   0.282   1.377   4.364
 1589SOL    HW2 5667   0.330   1.533   4.372
 1590SOL     OW 5668   5.590   0.589   3.774
 1590SOL    HW1 5669   5.649   0.604   3.694
 1590SOL    HW2 5670   5.628   0.516   3.830
 1591SOL     OW 5671   0.177   5.684   0.730
 1591SOL    HW1 5672   0.269   5.649   0.749
 1591SOL    HW2 5673   0.159   5.762   0.790
 1592SOL     OW 5674   6.522   4.336   4.862
 1592SOL    HW1 5675   6.539   4.237   4.863
 1592SOL    HW2 5676   6.485   4.365   4.950
 1593SOL     OW 5677   3.808   5.753   1.824
 1593SOL    HW1 5678   3.730   5.778   1.881
 1593SOL    HW2 5679   3.795   5.787   1.731
 1594SOL     OW 5680   5.108   1.552   2.599
 1594SOL    HW1 5681   5.155   1.634   2.567
 1594SOL    HW2 5682   5.016   1.576   2.630
 1595SOL     OW 5683   0.287   4.106   6.694
 1595SOL    HW1 5684   0.383   4.086   6.674
 1595SOL    HW2 5685   0.232   4.023   6.680
 1596SOL     OW 5686   5.173   4.609   3.942
 1596SOL    HW1 5687   5.175   4.541   4.015
 1596SOL    HW2 5688   5.161   4.563   3.854
 1597SOL     OW 5689   4.251   0.042   1.378
 1597SOL    HW1 5690   4.270   6.983   1.428
 1597SOL    HW2 5691   4.286   0.034   1.284
 1598SOL     OW 5692   0.833   5.082   5.931
 1598SOL    HW1 5693   0.868   5.126   5.848
 1598SOL    HW2 5694   0.898   5.011   5.960
 1599SOL     OW 5695   5.395   5.481   4.033
 1599SOL    HW1 5696   5.420   5.550   3.966
 1599SOL    HW2 5697   5.432   5.392   4.005
 1600SOL     OW 5698   4.471   1.049   1.567
 1600SOL    HW1 5699   4.413   0.968   1.567
 1600SOL    HW2 5700   4.455   1.102   1.650
 1601SOL     OW 5701   5.962   0.817   4.503
 1601SOL    HW1 5702   6.039   0.874   4.531
 1601SOL    HW2 5703   5.936   0.839   4.409
 1602SOL     OW 5704   4.335   5.767   3.212
 1602SOL    HW1 5705   4.399   5.733   3.281
 1602SOL    HW2 5706   4.328   5.702   3.137
 1603SOL     OW 5707   3.382   4.877   1.787
 1603SOL    HW1 5708   3.462   4.822   1.807
 1603SOL    HW2 5709   3.348   4.920   1.871
 1604SOL     OW 5710   4.500   5.265   1.907
 1604SOL    HW1 5711   4.575   5.274   1.973
 1604SOL    HW2 5712   4.534   5.278   1.815
 1605SOL     OW 5713   4.715   4.905   0.303
 1605SOL    HW1 5714   4.784   4.963   0.258
 1605SOL    HW2 5715   4.715   4.815   0.262
 1606SOL     OW 5716   4.432   5.779   4.962
 1606SOL    HW1 5717   4.524   5.764   4.999
 1606SOL    HW2 5718   4.407   5.701   4.905
 1607SOL     OW 5719   4.943   3.695   3.811
 1607SOL    HW1 5720   4.977   3.769   3.870
 1607SOL    HW2 5721   5.018   3.659   3.756
 1608SOL     OW 5722   6.551   3.333   3.253
 1608SOL    HW1 5723   6.562   3.377   3.164
 1608SOL    HW2 5724   6.585   3.239   3.249
 1609SOL     OW 5725   1.917   0.192   0.871
 1609SOL    HW1 5726   1.885   0.136   0.947
 1609SOL    HW2 5727   1.845   0.198   0.802
 1610SOL     OW 5728   6.072   5.939   1.259
 1610SOL    HW1 5729   5.993   5.878   1.248
 1610SOL    HW2 5730   6.104   5.968   1.168
 1611SOL     OW 5731   0.568   4.503   6.562
 1611SOL    HW1 5732   0.584   4.436   6.634
 1611SOL    HW2 5733   0.655   4.541   6.531
 1612SOL     OW 5734   5.014   0.981   2.095
 1612SOL    HW1 5735   5.046   1.047   2.027
 1612SOL    HW2 5736   5.050   0.890   2.073
 1613SOL     OW 5737   0.440   6.137   2.659
 1613SOL    HW1 5738   0.526   6.148   2.709
 1613SOL    HW2 5739   0.455   6.080   2.578
 1614SOL     OW 5740   5.400   1.652   5.512
 1614SOL    HW1 5741   5.335   1.723   5.487
 1614SOL    HW2 5742   5.464   1.687   5.580
 1615SOL     OW 5743   6.805   3.216   5.630
 1615SOL    HW1 5744   6.815   3.196   5.533
 1615SOL    HW2 5745   6.711   3.242   5.650
 1616SOL     OW 5746   0.867   1.440   3.651
 1616SOL    HW1 5747   0.920   1.364   3.690
 1616SOL    HW2 5748   0.770   1.428   3.673
 1617SOL     OW 5749   0.013   5.698   4.347
 1617SOL    HW1 5750   6.982   5.753   4.285
 1617SOL    HW2 5751   7.017   5.723   4.442
 1618SOL     OW 5752   2.761   5.441   3.115
 1618SOL    HW1 5753   2.691   5.512   3.125
 1618SOL    HW2 5754   2.771   5.392   3.202
 1619SOL     OW 5755   0.902   3.628   6.097
 1619SOL    HW1 5756   0.819   3.639   6.043
 1619SOL    HW2 5757   0.954   3.550   6.063
 1620SOL     OW 5758   2.839   6.937   4.558
 1620SOL    HW1 5759   2.816   6.954   4.462
 1620SOL    HW2 5760   2.758   6.907   4.607
 1621SOL     OW 5761   5.714   4.869   0.940
 1621SOL    HW1 5762   5.656   4.949   0.954
 1621SOL    HW2 5763   5.749   4.837   1.028
 1622SOL     OW 5764   6.705   3.077   2.923
 1622SOL    HW1 5765   6.615   3.065   2.881
 1622SOL    HW2 5766   6.721   3.174   2.939
 1623SOL     OW 5767   0.521   2.560   3.950
 1623SOL    HW1 5768   0.421   2.551   3.947
 1623SOL    HW2 5769   0.562   2.483   3.901
 1624SOL     OW 5770   4.448   3.048   0.683
 1624SOL    HW1 5771   4.361   3.006   0.660
 1624SOL    HW2 5772   4.519   2.978   0.688
 1625SOL     OW 5773   1.123   6.241   0.379
 1625SOL    HW1 5774   1.212   6.208   0.349
 1625SOL    HW2 5775   1.072   6.278   0.301
 1626SOL     OW 5776   2.443   1.681   1.850
 1626SOL    HW1 5777   2.347   1.707   1.839
 1626SOL    HW2 5778   2.455   1.633   1.937
 1627SOL     OW 5779   4.606   1.743   6.232
 1627SOL    HW1 5780   4.565   1.660   6.271
 1627SOL    HW2 5781   4.701   1.724   6.207
 1628SOL     OW 5782   5.142   5.866   0.862
 1628SOL    HW1 5783   5.179   5.785   0.908
 1628SOL    HW2 5784   5.046   5.878   0.889
 1629SOL     OW 5785   1.686   6.780   3.124
 1629SOL    HW1 5786   1.660   6.810   3.032
 1629SOL    HW2 5787   1.646   6.689   3.141
 1630SOL     OW 5788   0.417   4.675   6.275
 1630SOL    HW1 5789   0.472   4.745   6.321
 1630SOL    HW2 5790   0.459   4.585   6.289
 1631SOL     OW 5791   5.118   4.125   0.244
 1631SOL    HW1 5792   5.169   4.205   0.278
 1631SOL    HW2 5793   5.058   4.154   0.169
 1632SOL     OW 5794   6.291   6.609   2.395
 1632SOL    HW1 5795   6.205   6.616   2.345
 1632SOL    HW2 5796   6.289   6.529   2.455
 1633SOL     OW 5797   6.167   3.865   4.410
 1633SOL    HW1 5798   6.204   3.823   4.327
 1633SOL    HW2 5799   6.126   3.954   4.387
 1634SOL     OW 5800   1.653   3.892   6.463
 1634SOL    HW1 5801   1.570   3.837   6.449
 1634SOL    HW2 5802   1.693   3.915   6.374
 1635SOL     OW 5803   2.908   0.622   4.258
 1635SOL    HW1 5804   2.959   0.705   4.236
 1635SOL    HW2 5805   2.820   0.647   4.298
 1636SOL     OW 5806   0.275   6.376   1.330
 1636SOL    HW1 5807   0.288   6.426   1.415
 1636SOL    HW2 5808   0.208   6.303   1.344
 1637SOL     OW 5809   1.389   1.240   1.905
 1637SOL    HW1 5810   1.299   1.251   1.862
 1637SOL    HW2 5811   1.379   1.183   1.987
 1638SOL     OW 5812   5.420   2.314   3.440
 1638SOL    HW1 5813   5.428   2.219   3.410
 1638SOL    HW2 5814   5.436   2.319   3.539
 1639SOL     OW 5815   5.082   2.343   1.268
 1639SOL    HW1 5816   5.119   2.324   1.359
 1639SOL    HW2 5817   4.984   2.363   1.276
 1640SOL     OW 5818   6.456   1.038   0.207
 1640SOL    HW1 5819   6.485   1.134   0.208
 1640SOL    HW2 5820   6.360   1.031   0.232
 1641SOL     OW 5821   5.633   0.935   2.973
 1641SOL    HW1 5822   5.616   0.989   2.891
 1641SOL    HW2 5823   5.545   0.910   3.015
 1642SOL     OW 5824   0.058   3.052   6.016
 1642SOL    HW1 5825   0.052   3.151   6.013
 1642SOL    HW2 5826   0.134   3.022   5.958
 1643SOL     OW 5827   2.382   5.025   4.480
 1643SOL    HW1 5828   2.469   5.016   4.432
 1643SOL    HW2 5829   2.371   4.948   4.544
 1644SOL     OW 5830   5.678   1.677   1.109
 1644SOL    HW1 5831   5.665   1.631   1.197
 1644SOL    HW2 5832   5.774   1.672   1.081
 1645SOL     OW 5833   2.560   1.144   4.523
 1645SOL    HW1 5834   2.535   1.148   4.620
 1645SOL    HW2 5835   2.567   1.048   4.495
 1646SOL     OW 5836   0.305   5.510   1.734
 1646SOL    HW1 5837   0.226   5.458   1.699
 1646SOL    HW2 5838   0.361   5.449   1.790
 1647SOL     OW 5839   6.283   3.064   4.855
 1647SOL    HW1 5840   6.238   3.055   4.944
 1647SOL    HW2 5841   6.224   3.115   4.793
 1648SOL     OW 5842   5.367   6.213   2.094
 1648SOL    HW1 5843   5.312   6.247   2.171
 1648SOL    HW2 5844   5.352   6.115   2.083
 1649SOL     OW 5845   3.955   0.628   2.529
 1649SOL    HW1 5846   4.025   0.698   2.538
 1649SOL    HW2 5847   3.866   0.671   2.514
 1650SOL     OW 5848   2.584   2.570   4.874
 1650SOL    HW1 5849   2.640   2.608   4.947
 1650SOL    HW2 5850   2.487   2.587   4.894
 1651SOL     OW 5851   1.209   2.279   4.182
 1651SOL    HW1 5852   1.126   2.326   4.152
 1651SOL    HW2 5853   1.288   2.337   4.163
 1652SOL     OW 5854   6.982   4.372   1.748
 1652SOL    HW1 5855   6.886   4.353   1.727
 1652SOL    HW2 5856   0.007   4.286   1.751
 1653SOL     OW 5857   6.722   4.291   1.702
 1653SOL    HW1 5858   6.768   4.203   1.719
 1653SOL    HW2 5859   6.627   4.284   1.733
 1654SOL     OW 5860   7.009   3.563   1.907
 1654SOL    HW1 5861   0.047   3.638   1.922
 1654SOL    HW2 5862   6.916   3.598   1.899
 1655SOL     OW 5863   6.936   0.337   5.944
 1655SOL    HW1 5864   7.012   0.345   5.879
 1655SOL    HW2 5865   6.946   0.252   5.995
 1656SOL     OW 5866   2.256   4.183   2.513
 1656SOL    HW1 5867   2.307   4.261   2.549
 1656SOL    HW2 5868   2.272   4.174   2.415
 1657SOL     OW 5869   0.488   1.348   5.934
 1657SOL    HW1 5870   0.443   1.299   6.008
 1657SOL    HW2 5871   0.425   1.360   5.858
 1658SOL     OW 5872   5.225   6.772   5.547
 1658SOL    HW1 5873   5.259   6.684   5.580
 1658SOL    HW2 5874   5.292   6.844   5.566
 1659SOL     OW 5875   3.415   0.371   6.396
 1659SOL    HW1 5876   3.435   0.294   6.456
 1659SOL    HW2 5877   3.319   0.367   6.367
 1660SOL     OW 5878   2.629   0.733   2.214
 1660SOL    HW1 5879   2.605   0.712   2.119
 1660SOL    HW2 5880   2.715   0.784   2.217
 1661SOL     OW 5881   4.910   5.004   3.330
 1661SOL    HW1 5882   4.973   4.973   3.402
 1661SOL    HW2 5883   4.819   4.965   3.346
 1662SOL     OW 5884   0.201   1.658   3.837
 1662SOL    HW1 5885   0.105   1.629   3.836
 1662SOL    HW2 5886   0.257   1.586   3.879
 1663SOL     OW 5887   5.776   4.197   0.905
 1663SOL    HW1 5888   5.720   4.214   0.986
 1663SOL    HW2 5889   5.796   4.100   0.897
 1664SOL     OW 5890   1.471   1.818   6.214
 1664SOL    HW1 5891   1.487   1.903   6.163
 1664SOL    HW2 5892   1.374   1.794   6.210
 1665SOL     OW 5893   1.931   4.227   6.999
 1665SOL    HW1 5894   1.991   4.189   6.928
 1665SOL    HW2 5895   1.873   4.155   0.011
 1666SOL     OW 5896   5.635   6.174   5.411
 1666SOL    HW1 5897   5.710   6.109   5.410
 1666SOL    HW2 5898   5.648   6.242   5.338
 1667SOL     OW 5899   6.620   4.867   1.127
 1667SOL    HW1 5900   6.640   4.840   1.221
 1667SOL    HW2 5901   6.641   4.964   1.115
 1668SOL     OW 5902   6.640   3.491   1.688
 1668SOL    HW1 5903   6.724   3.546   1.683
 1668SOL    HW2 5904   6.562   3.552   1.703
 1669SOL     OW 5905   6.337   2.484   5.067
 1669SOL    HW1 5906   6.283   2.441   5.139
 1669SOL    HW2 5907   6.292   2.474   4.979
 1670SOL     OW 5908   3.144   4.394   5.339
 1670SOL    HW1 5909   3.063   4.430   5.293
 1670SOL    HW2 5910   3.151   4.296   5.321
 1671SOL     OW 5911   5.917   2.318   0.585
 1671SOL    HW1 5912   5.949   2.228   0.616
 1671SOL    HW2 5913   5.931   2.385   0.658
 1672SOL     OW 5914   0.155   1.824   1.511
 1672SOL    HW1 5915   0.132   1.728   1.528
 1672SOL    HW2 5916   0.241   1.830   1.461
 1673SOL     OW 5917   1.420   0.490   5.533
 1673SOL    HW1 5918   1.383   0.582   5.529
 1673SOL    HW2 5919   1.407   0.453   5.625
 1674SOL     OW 5920   4.877   2.393   3.142
 1674SOL    HW1 5921   4.899   2.455   3.067
 1674SOL    HW2 5922   4.961   2.353   3.179
 1675SOL     OW 5923   5.428   0.969   2.237
 1675SOL    HW1 5924   5.424   1.002   2.332
 1675SOL    HW2 5925   5.515   0.924   2.221
 1676SOL     OW 5926   1.219   2.611   4.119
 1676SOL    HW1 5927   1.316   2.588   4.119
 1676SOL    HW2 5928   1.198   2.670   4.196
 1677SOL     OW 5929   3.233   4.087   2.361
 1677SOL    HW1 5930   3.217   4.161   2.297
 1677SOL    HW2 5931   3.330   4.087   2.388
 1678SOL     OW 5932   0.372   6.863   0.027
 1678SOL    HW1 5933   0.413   6.953   0.015
 1678SOL    HW2 5934   0.380   6.811   6.967
 1679SOL     OW 5935   6.145   1.732   0.537
 1679SOL    HW1 5936   6.185   1.705   0.625
 1679SOL    HW2 5937   6.195   1.810   0.500
 1680SOL     OW 5938   5.579   2.550   2.832
 1680SOL    HW1 5939   5.668   2.595   2.842
 1680SOL    HW2 5940   5.527   2.559   2.917
 1681SOL     OW 5941   3.848   6.506   4.532
 1681SOL    HW1 5942   3.937   6.491   4.575
 1681SOL    HW2 5943   3.861   6.521   4.434
 1682SOL     OW 5944   3.900   0.958   5.081
 1682SOL    HW1 5945   3.818   0.936   5.027
 1682SOL    HW2 5946   3.947   1.035   5.039
 1683SOL     OW 5947   1.117   3.208   2.927
 1683SOL    HW1 5948   1.062   3.284   2.894
 1683SOL    HW2 5949   1.164   3.235   3.012
 1684SOL     OW 5950   3.095   5.171   1.519
 1684SOL    HW1 5951   3.165   5.237   1.545
 1684SOL    HW2 5952   3.103   5.089   1.576
 1685SOL     OW 5953   0.266   1.732   5.712
 1685SOL    HW1 5954   0.241   1.648   5.759
 1685SOL    HW2 5955   0.365   1.739   5.704
 1686SOL     OW 5956   3.570   5.325   1.879
 1686SOL    HW1 5957   3.643   5.269   1.917
 1686SOL    HW2 5958   3.596   5.355   1.787
 1687SOL     OW 5959   4.389   4.440   0.197
 1687SOL    HW1 5960   4.477   4.454   0.241
 1687SOL    HW2 5961   4.368   4.342   0.195
 1688SOL     OW 5962   2.956   0.430   3.236
 1688SOL    HW1 5963   2.912   0.383   3.159
 1688SOL    HW2 5964   2.948   0.529   3.224
 1689SOL     OW 5965   3.958   0.821   1.700
 1689SOL    HW1 5966   3.944   0.724   1.718
 1689SOL    HW2 5967   3.903   0.876   1.763
 1690SOL     OW 5968   6.744   4.676   4.418
 1690SOL    HW1 5969   6.742   4.583   4.455
 1690SOL    HW2 5970   6.742   4.672   4.318
 1691SOL     OW 5971   4.287   2.638   5.350
 1691SOL    HW1 5972   4.385   2.638   5.369
 1691SOL    HW2 5973   4.268   2.577   5.273
 1692SOL     OW 5974   6.501   5.182   2.563
 1692SOL    HW1 5975   6.508   5.189   2.663
 1692SOL    HW2 5976   6.591   5.197   2.522
 1693SOL     OW 5977   5.609   6.871   5.250
 1693SOL    HW1 5978   5.568   6.952   5.209
 1693SOL    HW2 5979   5.575   6.789   5.203
 1694SOL     OW 5980   4.420   1.075   6.533
 1694SOL    HW1 5981   4.359   1.154   6.544
 1694SOL    HW2 5982   4.503   1.104   6.486
 1695SOL     OW 5983   4.618   6.921   4.895
 1695SOL    HW1 5984   4.715   6.903   4.908
 1695SOL    HW2 5985   4.603   7.020   4.887
 1696SOL     OW 5986   4.983   6.845   1.277
 1696SOL    HW1 5987   4.896   6.796   1.270
 1696SOL    HW2 5988   4.982   6.901   1.360
 1697SOL     OW 5989   4.322   3.240   1.754
 1697SOL    HW1 5990   4.319   3.147   1.719
 1697SOL    HW2 5991   4.403   3.287   1.718
 1698SOL     OW 5992   4.396   1.066   2.200
 1698SOL    HW1 5993   4.462   1.040   2.271
 1698SOL    HW2 5994   4.445   1.108   2.123
 1699SOL     OW 5995   1.604   0.622   1.032
 1699SOL    HW1 5996   1.533   0.671   1.082
 1699SOL    HW2 5997   1.690   0.628   1.083
 1700SOL     OW 5998   5.715   3.461   2.371
 1700SOL    HW1 5999   5.740   3.492   2.463
 1700SOL    HW2 6000   5.666   3.374   2.378
 1701SOL     OW 6001   1.126   5.325   5.410
 1701SOL    HW1 6002   1.115   5.413   5.364
 1701SOL    HW2 6003   1.222   5.312   5.437
 1702SOL     OW 6004   2.264   2.311   6.964
 1702SOL    HW1 6005   2.206   2.390   6.986
 1702SOL    HW2 6006   2.311   2.328   6.878
 1703SOL     OW 6007   1.432   2.344   2.275
 1703SOL    HW1 6008   1.418   2.313   2.369
 1703SOL    HW2 6009   1.517   2.304   2.240
 1704SOL     OW 6010   3.108   3.230   6.527
 1704SOL    HW1 6011   3.195   3.276   6.507
 1704SOL    HW2 6012   3.036   3.299   6.536
 1705SOL     OW 6013   5.230   2.772   0.802
 1705SOL    HW1 6014   5.326   2.774   0.772
 1705SOL    HW2 6015   5.225   2.729   0.892
 1706SOL     OW 6016   5.611   0.698   5.802
 1706SOL    HW1 6017   5.670   0.635   5.852
 1706SOL    HW2 6018   5.668   0.763   5.750
 1707SOL     OW 6019   3.534   1.429   2.154
 1707SOL    HW1 6020   3.571   1.520   2.135
 1707SOL    HW2 6021   3.440   1.438   2.186
 1708SOL     OW 6022   2.646   4.769   1.964
 1708SOL    HW1 6023   2.731   4.720   1.983
 1708SOL    HW2 6024   2.660   4.829   1.885
 1709SOL     OW 6025   5.329   4.972   1.579
 1709SOL    HW1 6026   5.343   4.884   1.534
 1709SOL    HW2 6027   5.330   4.960   1.678
 1710SOL     OW 6028   4.700   2.759   2.065
 1710SOL    HW1 6029   4.763   2.699   2.114
 1710SOL    HW2 6030   4.683   2.841   2.119
 1711SOL     OW 6031   4.565   5.453   6.886
 1711SOL    HW1 6032   4.654   5.428   6.923
 1711SOL    HW2 6033   4.535   5.383   6.820
 1712SOL     OW 6034   0.612   1.927   2.354
 1712SOL    HW1 6035   0.562   1.865   2.414
 1712SOL    HW2 6036   0.558   1.945   2.272
 1713SOL     OW 6037   2.780   1.580   2.347
 1713SOL    HW1 6038   2.788   1.617   2.254
 1713SOL    HW2 6039   2.734   1.646   2.406
 1714SOL     OW 6040   2.919   4.568   1.428
 1714SOL    HW1 6041   2.827   4.549   1.463
 1714SOL    HW2 6042   2.940   4.664   1.441
 1715SOL     OW 6043   1.685   6.057   0.958
 1715SOL    HW1 6044   1.687   6.088   1.053
 1715SOL    HW2 6045   1.753   5.986   0.944
 1716SOL     OW 6046   5.001   1.444   2.888
 1716SOL    HW1 6047   4.931   1.381   2.856
 1716SOL    HW2 6048   5.051   1.481   2.809
 1717SOL     OW 6049   3.648   5.963   3.921
 1717SOL    HW1 6050   3.556   5.979   3.884
 1717SOL    HW2 6051   3.642   5.898   3.997
 1718SOL     OW 6052   1.825   3.503   1.805
 1718SOL    HW1 6053   1.889   3.513   1.729
 1718SOL    HW2 6054   1.874   3.503   1.891
 1719SOL     OW 6055   1.086   4.856   3.356
 1719SOL    HW1 6056   0.990   4.845   3.380
 1719SOL    HW2 6057   1.139   4.782   3.396
 1720SOL     OW 6058   1.414   2.925   5.310
 1720SOL    HW1 6059   1.484   2.937   5.240
 1720SOL    HW2 6060   1.411   2.829   5.338
 1721SOL     OW 6061   2.380   2.680   0.158
 1721SOL    HW1 6062   2.328   2.753   0.202
 1721SOL    HW2 6063   2.391   2.604   0.223
 1722SOL     OW 6064   3.194   2.122   3.343
 1722SOL    HW1 6065   3.155   2.031   3.360
 1722SOL    HW2 6066   3.271   2.113   3.280
 1723SOL     OW 6067   6.603   4.865   1.408
 1723SOL    HW1 6068   6.662   4.942   1.431
 1723SOL    HW2 6069   6.519   4.870   1.463
 1724SOL     OW 6070   6.028   3.564   0.772
 1724SOL    HW1 6071   6.023   3.655   0.812
 1724SOL    HW2 6072   6.123   3.533   0.772
 1725SOL     OW 6073   1.788   6.596   5.867
 1725SOL    HW1 6074   1.752   6.635   5.782
 1725SOL    HW2 6075   1.747   6.506   5.883
 1726SOL     OW 6076   5.059   4.802   3.509
 1726SOL    HW1 6077   5.090   4.826   3.601
 1726SOL    HW2 6078   5.132   4.820   3.443
 1727SOL     OW 6079   2.887   3.457   4.058
 1727SOL    HW1 6080   2.830   3.536   4.081
 1727SOL    HW2 6081   2.982   3.486   4.050
 1728SOL     OW 6082   5.637   2.130   4.833
 1728SOL    HW1 6083   5.538   2.141   4.847
 1728SOL    HW2 6084   5.686   2.163   4.913
 1729SOL     OW 6085   1.893   3.427   3.020
 1729SOL    HW1 6086   1.987   3.414   2.989
 1729SOL    HW2 6087   1.833   3.360   2.976
 1730SOL     OW 6088   2.871   0.739   4.561
 1730SOL    HW1 6089   2.925   0.812   4.603
 1730SOL    HW2 6090   2.928   0.657   4.552
 1731SOL     OW 6091   5.922   4.488   3.568
 1731SOL    HW1 6092   5.888   4.550   3.497
 1731SOL    HW2 6093   5.938   4.539   3.652
 1732SOL     OW 6094   4.166   3.415   5.150
 1732SOL    HW1 6095   4.222   3.364   5.215
 1732SOL    HW2 6096   4.128   3.352   5.083
 1733SOL     OW 6097   1.106   1.842   0.099
 1733SOL    HW1 6098   1.043   1.919   0.084
 1733SOL    HW2 6099   1.200   1.874   0.095
 1734SOL     OW 6100   0.664   4.096   1.943
 1734SOL    HW1 6101   0.735   4.084   2.012
 1734SOL    HW2 6102   0.594   4.026   1.954
 1735SOL     OW 6103   3.437   5.616   5.941
 1735SOL    HW1 6104   3.440   5.654   5.849
 1735SOL    HW2 6105   3.349   5.572   5.957
 1736SOL     OW 6106   4.821   2.074   5.484
 1736SOL    HW1 6107   4.914   2.037   5.474
 1736SOL    HW2 6108   4.758   2.020   5.428
 1737SOL     OW 6109   2.561   1.300   6.467
 1737SOL    HW1 6110   2.502   1.363   6.517
 1737SOL    HW2 6111   2.506   1.251   6.399
 1738SOL     OW 6112   1.372   3.618   1.967
 1738SOL    HW1 6113   1.312   3.571   2.032
 1738SOL    HW2 6114   1.425   3.688   2.016
 1739SOL     OW 6115   4.494   5.018   2.370
 1739SOL    HW1 6116   4.539   5.004   2.281
 1739SOL    HW2 6117   4.401   5.052   2.355
 1740SOL     OW 6118   6.736   2.228   4.644
 1740SOL    HW1 6119   6.704   2.261   4.733
 1740SOL    HW2 6120   6.767   2.133   4.654
 1741SOL     OW 6121   0.955   3.125   4.276
 1741SOL    HW1 6122   0.914   3.170   4.356
 1741SOL    HW2 6123   1.003   3.042   4.305
 1742SOL     OW 6124   5.966   0.277   7.008
 1742SOL    HW1 6125   5.954   0.325   6.921
 1742SOL    HW2 6126   6.035   0.206   6.997
 1743SOL     OW 6127   1.243   2.360   1.833
 1743SOL    HW1 6128   1.254   2.366   1.734
 1743SOL    HW2 6129   1.168   2.297   1.854
 1744SOL     OW 6130   3.292   1.862   5.126
 1744SOL    HW1 6131   3.266   1.815   5.210
 1744SOL    HW2 6132   3.321   1.955   5.147
 1745SOL     OW 6133   6.273   6.360   0.972
 1745SOL    HW1 6134   6.196   6.304   1.005
 1745SOL    HW2 6135   6.237   6.446   0.935
 1746SOL     OW 6136   2.458   5.481   2.816
 1746SOL    HW1 6137   2.497   5.395   2.848
 1746SOL    HW2 6138   2.517   5.521   2.746
 1747SOL     OW 6139   2.598   6.828   2.124
 1747SOL    HW1 6140   2.544   6.905   2.088
 1747SOL    HW2 6141   2.688   6.862   2.153
 1748SOL     OW 6142   6.792   1.379   3.873
 1748SOL    HW1 6143   6.695   1.369   3.850
 1748SOL    HW2 6144   6.808   1.349   3.966
 1749SOL     OW 6145   6.631   4.834   2.757
 1749SOL    HW1 6146   6.654   4.737   2.751
 1749SOL    HW2 6147   6.715   4.888   2.764
 1750SOL     OW 6148   2.887   1.232   1.261
 1750SOL    HW1 6149   2.951   1.185   1.201
 1750SOL    HW2 6150   2.871   1.325   1.226
 1751SOL     OW 6151   6.252   4.319   4.493
 1751SOL    HW1 6152   6.263   4.399   4.434
 1751SOL    HW2 6153   6.218   4.348   4.582
 1752SOL     OW 6154   6.402   0.861   2.335
 1752SOL    HW1 6155   6.376   0.805   2.257
 1752SOL    HW2 6156   6.320   0.892   2.383
 1753SOL     OW 6157   6.399   1.373   1.477
 1753SOL    HW1 6158   6.400   1.342   1.572
 1753SOL    HW2 6159   6.493   1.377   1.442
 1754SOL     OW 6160   2.136   5.112   3.386
 1754SOL    HW1 6161   2.144   5.161   3.472
 1754SOL    HW2 6162   2.116   5.177   3.312
 1755SOL     OW 6163   5.952   6.306   5.284
 1755SOL    HW1 6164   5.865   6.354   5.281
 1755SOL    HW2 6165   5.936   6.208   5.292
 1756SOL     OW 6166   4.493   6.195   1.565
 1756SOL    HW1 6167   4.403   6.166   1.598
 1756SOL    HW2 6168   4.555   6.204   1.643
 1757SOL     OW 6169   2.551   4.978   4.901
 1757SOL    HW1 6170   2.549   4.878   4.898
 1757SOL    HW2 6171   2.578   5.013   4.812
 1758SOL     OW 6172   0.651   6.478   4.032
 1758SOL    HW1 6173   0.679   6.405   4.094
 1758SOL    HW2 6174   0.553   6.471   4.013
 1759SOL     OW 6175   1.650   5.636   6.208
 1759SOL    HW1 6176   1.628   5.687   6.125
 1759SOL    HW2 6177   1.686   5.698   6.277
 1760SOL     OW 6178   5.853   1.399   3.944
 1760SOL    HW1 6179   5.872   1.342   4.024
 1760SOL    HW2 6180   5.838   1.494   3.974
 1761SOL     OW 6181   5.483   2.272   3.721
 1761SOL    HW1 6182   5.521   2.183   3.695
 1761SOL    HW2 6183   5.453   2.269   3.816
 1762SOL     OW 6184   0.827   1.894   5.903
 1762SOL    HW1 6185   0.774   1.868   5.822
 1762SOL    HW2 6186   0.797   1.840   5.981
 1763SOL     OW 6187   1.510   4.793   3.758
 1763SOL    HW1 6188   1.451   4.864   3.721
 1763SOL    HW2 6189   1.582   4.834   3.814
 1764SOL     OW 6190   0.814   5.844   3.755
 1764SOL    HW1 6191   0.902   5.841   3.708
 1764SOL    HW2 6192   0.759   5.920   3.720
 1765SOL     OW 6193   5.407   3.903   2.185
 1765SOL    HW1 6194   5.399   3.806   2.207
 1765SOL    HW2 6195   5.464   3.915   2.104
 1766SOL     OW 6196   4.258   4.938   3.680
 1766SOL    HW1 6197   4.230   5.029   3.652
 1766SOL    HW2 6198   4.181   4.891   3.724
 1767SOL     OW 6199   1.480   4.306   1.537
 1767SOL    HW1 6200   1.573   4.270   1.542
 1767SOL    HW2 6201   1.480   4.392   1.485
 1768SOL     OW 6202   3.539   5.009   3.311
 1768SOL    HW1 6203   3.462   4.970   3.361
 1768SOL    HW2 6204   3.617   5.020   3.373
 1769SOL     OW 6205   5.199   0.477   1.103
 1769SOL    HW1 6206   5.123   0.415   1.121
 1769SOL    HW2 6207   5.217   0.531   1.184
 1770SOL     OW 6208   2.421   4.628   0.639
 1770SOL    HW1 6209   2.349   4.621   0.708
 1770SOL    HW2 6210   2.488   4.697   0.669
 1771SOL     OW 6211   1.395   3.161   6.098
 1771SOL    HW1 6212   1.322   3.110   6.144
 1771SOL    HW2 6213   1.363   3.253   6.076
 1772SOL     OW 6214   2.621   4.977   2.457
 1772SOL    HW1 6215   2.676   4.999   2.376
 1772SOL    HW2 6216   2.679   4.938   2.528
 1773SOL     OW 6217   2.247   6.452   4.845
 1773SOL    HW1 6218   2.227   6.430   4.750
 1773SOL    HW2 6219   2.232   6.372   4.902
 1774SOL     OW 6220   5.510   5.676   1.913
 1774SOL    HW1 6221   5.433   5.697   1.973
 1774SOL    HW2 6222   5.595   5.676   1.965
 1775SOL     OW 6223   1.751   6.600   1.187
 1775SOL    HW1 6224   1.841   6.585   1.147
 1775SOL    HW2 6225   1.757   6.670   1.258
 1776SOL     OW 6226   4.617   3.217   6.279
 1776SOL    HW1 6227   4.669   3.164   6.212
 1776SOL    HW2 6228   4.652   3.310   6.283
 1777SOL     OW 6229   4.835   5.397   6.939
 1777SOL    HW1 6230   4.891   5.318   6.959
 1777SOL    HW2 6231   4.864   5.438   6.852
 1778SOL     OW 6232   0.149   0.562   3.197
 1778SOL    HW1 6233   0.247   0.567   3.212
 1778SOL    HW2 6234   0.111   0.654   3.186
 1779SOL     OW 6235   6.624   0.205   4.542
 1779SOL    HW1 6236   6.717   0.235   4.563
 1779SOL    HW2 6237   6.614   0.193   4.444
 1780SOL     OW 6238   2.818   6.669   4.383
 1780SOL    HW1 6239   2.881   6.649   4.307
 1780SOL    HW2 6240   2.793   6.766   4.381
 1781SOL     OW 6241   5.034   1.172   6.156
 1781SOL    HW1 6242   5.084   1.181   6.242
 1781SOL    HW2 6243   5.098   1.174   6.079
 1782SOL     OW 6244   4.924   0.322   2.341
 1782SOL    HW1 6245   4.932   0.416   2.308
 1782SOL    HW2 6246   4.830   0.290   2.330
 1783SOL     OW 6247   1.817   3.277   0.036
 1783SOL    HW1 6248   1.718   3.287   0.047
 1783SOL    HW2 6249   1.848   3.196   0.085
 1784SOL     OW 6250   2.238   5.629   1.437
 1784SOL    HW1 6251   2.146   5.595   1.418
 1784SOL    HW2 6252   2.265   5.694   1.366
 1785SOL     OW 6253   1.975   5.197   4.439
 1785SOL    HW1 6254   1.958   5.269   4.372
 1785SOL    HW2 6255   2.067   5.207   4.476
 1786SOL     OW 6256   0.316   5.721   1.931
 1786SOL    HW1 6257   0.303   5.659   1.854
 1786SOL    HW2 6258   0.391   5.687   1.989
 1787SOL     OW 6259   2.567   2.499   6.252
 1787SOL    HW1 6260   2.661   2.529   6.268
 1787SOL    HW2 6261   2.529   2.549   6.174
 1788SOL     OW 6262   3.775   4.383   0.620
 1788SOL    HW1 6263   3.741   4.418   0.533
 1788SOL    HW2 6264   3.797   4.286   0.611
 1789SOL     OW 6265   5.705   2.803   2.214
 1789SOL    HW1 6266   5.670   2.756   2.133
 1789SOL    HW2 6267   5.801   2.826   2.199
 1790SOL     OW 6268   2.575   2.024   5.087
 1790SOL    HW1 6269   2.632   2.027   5.169
 1790SOL    HW2 6270   2.506   1.951   5.097
 1791SOL     OW 6271   6.359   0.406   3.581
 1791SOL    HW1 6272   6.419   0.393   3.502
 1791SOL    HW2 6273   6.264   0.411   3.552
 1792SOL     OW 6274   6.931   2.591   5.979
 1792SOL    HW1 6275   6.950   2.686   5.954
 1792SOL    HW2 6276   6.912   2.586   6.078
 1793SOL     OW 6277   0.840   1.529   4.795
 1793SOL    HW1 6278   0.757   1.584   4.805
 1793SOL    HW2 6279   0.905   1.555   4.866
 1794SOL     OW 6280   6.458   1.702   6.757
 1794SOL    HW1 6281   6.529   1.742   6.815
 1794SOL    HW2 6282   6.489   1.701   6.662
 1795SOL     OW 6283   5.448   4.658   0.460
 1795SOL    HW1 6284   5.389   4.690   0.534
 1795SOL    HW2 6285   5.392   4.627   0.384
 1796SOL     OW 6286   6.184   0.605   0.065
 1796SOL    HW1 6287   6.235   0.573   0.144
 1796SOL    HW2 6288   6.093   0.561   0.064
 1797SOL     OW 6289   3.122   6.194   5.189
 1797SOL    HW1 6290   3.082   6.168   5.277
 1797SOL    HW2 6291   3.137   6.293   5.187
 1798SOL     OW 6292   2.452   3.887   6.777
 1798SOL    HW1 6293   2.420   3.963   6.720
 1798SOL    HW2 6294   2.527   3.918   6.835
 1799SOL     OW 6295   3.440   1.731   2.160
 1799SOL    HW1 6296   3.398   1.821   2.167
 1799SOL    HW2 6297   3.411   1.687   2.075
 1800SOL     OW 6298   5.678   2.122   5.809
 1800SOL    HW1 6299   5.661   2.147   5.714
 1800SOL    HW2 6300   5.735   2.040   5.812
 1801SOL     OW 6301   0.774   1.515   2.161
 1801SOL    HW1 6302   0.702   1.573   2.121
 1801SOL    HW2 6303   0.787   1.434   2.104
 1802SOL     OW 6304   6.264   4.556   4.350
 1802SOL    HW1 6305   6.229   4.620   4.282
 1802SOL    HW2 6306   6.364   4.557   4.349
 1803SOL     OW 6307   0.103   6.158   3.683
 1803SOL    HW1 6308   0.148   6.198   3.763
 1803SOL    HW2 6309   0.147   6.193   3.600
 1804SOL     OW 6310   1.004   3.061   6.421
 1804SOL    HW1 6311   0.944   3.034   6.496
 1804SOL    HW2 6312   1.046   3.149   6.443
 1805SOL     OW 6313   6.357   4.771   5.783
 1805SOL    HW1 6314   6.428   4.789   5.715
 1805SOL    HW2 6315   6.268   4.795   5.745
 1806SOL     OW 6316   0.273   1.116   1.206
 1806SOL    HW1 6317   0.327   1.136   1.124
 1806SOL    HW2 6318   0.273   1.196   1.266
 1807SOL     OW 6319   6.451   2.411   2.296
 1807SOL    HW1 6320   6.456   2.449   2.204
 1807SOL    HW2 6321   6.391   2.467   2.353
 1808SOL     OW 6322   6.578   0.458   0.021
 1808SOL    HW1 6323   6.503   0.524   0.011
 1808SOL    HW2 6324   6.599   0.446   0.118
 1809SOL     OW 6325   4.643   0.237   5.151
 1809SOL    HW1 6326   4.708   0.275   5.085
 1809SOL    HW2 6327   4.564   0.199   5.103
 1810SOL     OW 6328   1.026   1.780   5.156
 1810SOL    HW1 6329   1.091   1.717   5.198
 1810SOL    HW2 6330   0.994   1.846   5.225
 1811SOL     OW 6331   3.723   5.591   2.070
 1811SOL    HW1 6332   3.691   5.676   2.027
 1811SOL    HW2 6333   3.806   5.560   2.024
 1812SOL     OW 6334   4.076   0.967   6.505
 1812SOL    HW1 6335   4.147   1.035   6.520
 1812SOL    HW2 6336   4.058   0.918   6.591
 1813SOL     OW 6337   5.864   3.469   1.740
 1813SOL    HW1 6338   5.780   3.427   1.703
 1813SOL    HW2 6339   5.842   3.558   1.779
 1814SOL     OW 6340   6.535   5.686   0.888
 1814SOL    HW1 6341   6.540   5.743   0.806
 1814SOL    HW2 6342   6.612   5.622   0.888
 1815SOL     OW 6343   6.263   5.408   1.386
 1815SOL    HW1 6344   6.248   5.494   1.436
 1815SOL    HW2 6345   6.215   5.334   1.433
 1816SOL     OW 6346   3.478   4.951   4.607
 1816SOL    HW1 6347   3.463   4.861   4.648
 1816SOL    HW2 6348   3.569   4.954   4.566
 1817SOL     OW 6349   6.847   2.444   3.327
 1817SOL    HW1 6350   6.841   2.536   3.289
 1817SOL    HW2 6351   6.770   2.430   3.390
 1818SOL     OW 6352   2.334   1.824   0.483
 1818SOL    HW1 6353   2.407   1.771   0.525
 1818SOL    HW2 6354   2.357   1.921   0.486
 1819SOL     OW 6355   0.787   3.325   1.139
 1819SOL    HW1 6356   0.871   3.367   1.105
 1819SOL    HW2 6357   0.755   3.257   1.073
 1820SOL     OW 6358   4.197   6.766   5.196
 1820SOL    HW1 6359   4.148   6.843   5.153
 1820SOL    HW2 6360   4.289   6.761   5.158
 1821SOL     OW 6361   3.608   1.096   2.482
 1821SOL    HW1 6362   3.622   1.154   2.401
 1821SOL    HW2 6363   3.561   1.149   2.552
 1822SOL     OW 6364   2.058   3.990   4.689
 1822SOL    HW1 6365   2.082   4.073   4.739
 1822SOL    HW2 6366   2.109   3.988   4.603
 1823SOL     OW 6367   4.073   6.950   3.710
 1823SOL    HW1 6368   4.155   6.996   3.745
 1823SOL    HW2 6369   3.995   6.973   3.769
 1824SOL     OW 6370   4.608   2.670   1.833
 1824SOL    HW1 6371   4.603   2.707   1.926
 1824SOL    HW2 6372   4.526   2.617   1.814
 1825SOL     OW 6373   1.391   3.931   0.175
 1825SOL    HW1 6374   1.307   3.878   0.177
 1825SOL    HW2 6375   1.468   3.870   0.154
 1826SOL     OW 6376   3.646   3.508   0.247
 1826SOL    HW1 6377   3.661   3.414   0.277
 1826SOL    HW2 6378   3.602   3.560   0.320
 1827SOL     OW 6379   5.357   4.770   0.735
 1827SOL    HW1 6380   5.399   4.697   0.790
 1827SOL    HW2 6381   5.428   4.830   0.698
 1828SOL     OW 6382   2.456   5.282   5.019
 1828SOL    HW1 6383   2.465   5.191   5.060
 1828SOL    HW2 6384   2.375   5.284   4.959
 1829SOL     OW 6385   1.793   6.362   2.277
 1829SOL    HW1 6386   1.726   6.416   2.327
 1829SOL    HW2 6387   1.834   6.293   2.337
 1830SOL     OW 6388   4.275   1.302   6.525
 1830SOL    HW1 6389   4.303   1.342   6.612
 1830SOL    HW2 6390   4.221   1.369   6.474
 1831SOL     OW 6391   3.386   4.575   7.013
 1831SOL    HW1 6392   3.287   4.577   6.998
 1831SOL    HW2 6393   3.424   4.493   6.972
 1832SOL     OW 6394   2.004   3.108   5.873
 1832SOL    HW1 6395   2.041   3.200   5.881
 1832SOL    HW2 6396   2.034   3.053   5.951
 1833SOL     OW 6397   5.727   1.458   0.529
 1833SOL    HW1 6398   5.705   1.552   0.555
 1833SOL    HW2 6399   5.801   1.458   0.462
 1834SOL     OW 6400   2.016   3.689   6.191
 1834SOL    HW1 6401   1.942   3.698   6.125
 1834SOL    HW2 6402   2.011   3.764   6.257
 1835SOL     OW 6403   6.185   0.116   0.046
 1835SOL    HW1 6404   6.222   0.024   0.034
 1835SOL    HW2 6405   6.171   0.134   0.143
 1836SOL     OW 6406   5.862   1.302   4.638
 1836SOL    HW1 6407   5.763   1.304   4.632
 1836SOL    HW2 6408   5.898   1.243   4.565
 1837SOL     OW 6409   1.174   1.941   0.939
 1837SOL    HW1 6410   1.188   2.019   1.001
 1837SOL    HW2 6411   1.109   1.967   0.868
 1838SOL     OW 6412   5.175   0.507   0.525
 1838SOL    HW1 6413   5.246   0.440   0.543
 1838SOL    HW2 6414   5.107   0.469   0.463
 1839SOL     OW 6415   6.915   1.715   6.101
 1839SOL    HW1 6416   6.950   1.805   6.126
 1839SOL    HW2 6417   6.911   1.708   6.001
 1840SOL     OW 6418   2.824   6.861   5.615
 1840SOL    HW1 6419   2.903   6.901   5.568
 1840SOL    HW2 6420   2.818   6.898   5.707
 1841SOL     OW 6421   2.450   0.014   2.038
 1841SOL    HW1 6422   2.350   0.006   2.030
 1841SOL    HW2 6423   2.491   0.008   1.947
 1842SOL     OW 6424   6.990   4.596   1.559
 1842SOL    HW1 6425   6.982   4.555   1.469
 1842SOL    HW2 6426   6.975   4.526   1.629
 1843SOL     OW 6427   2.966   0.868   6.915
 1843SOL    HW1 6428   3.059   0.835   6.899
 1843SOL    HW2 6429   2.941   0.852   7.011
 1844SOL     OW 6430   4.999   3.443   0.767
 1844SOL    HW1 6431   4.939   3.520   0.786
 1844SOL    HW2 6432   4.982   3.371   0.834
 1845SOL     OW 6433   0.889   2.696   4.593
 1845SOL    HW1 6434   0.918   2.736   4.680
 1845SOL    HW2 6435   0.870   2.769   4.528
 1846SOL     OW 6436   3.716   1.505   2.474
 1846SOL    HW1 6437   3.678   1.538   2.560
 1846SOL    HW2 6438   3.705   1.575   2.403
 1847SOL     OW 6439   3.388   6.034   6.687
 1847SOL    HW1 6440   3.359   6.091   6.611
 1847SOL    HW2 6441   3.425   6.091   6.760
 1848SOL     OW 6442   3.024   6.008   4.618
 1848SOL    HW1 6443   3.060   5.962   4.537
 1848SOL    HW2 6444   2.941   5.962   4.649
 1849SOL     OW 6445   4.756   2.789   2.413
 1849SOL    HW1 6446   4.779   2.856   2.343
 1849SOL    HW2 6447   4.707   2.712   2.371
 1850SOL     OW 6448   4.975   1.280   1.117
 1850SOL    HW1 6449   4.902   1.267   1.184
 1850SOL    HW2 6450   4.945   1.346   1.048
 1851SOL     OW 6451   0.802   5.100   4.099
 1851SOL    HW1 6452   0.891   5.106   4.146
 1851SOL    HW2 6453   0.756   5.189   4.105
 1852SOL     OW 6454   0.868   6.831   3.486
 1852SOL    HW1 6455   0.933   6.794   3.420
 1852SOL    HW2 6456   0.783   6.855   3.438
 1853SOL     OW 6457   0.769   1.837   5.618
 1853SOL    HW1 6458   0.775   1.741   5.644
 1853SOL    HW2 6459   0.685   1.852   5.565
 1854SOL     OW 6460   0.210   6.889   3.892
 1854SOL    HW1 6461   0.196   6.910   3.988
 1854SOL    HW2 6462   0.305   6.861   3.877
 1855SOL     OW 6463   6.553   1.263   5.080
 1855SOL    HW1 6464   6.470   1.258   5.135
 1855SOL    HW2 6465   6.616   1.329   5.121
 1856SOL     OW 6466   5.019   3.902   6.589
 1856SOL    HW1 6467   5.013   3.803   6.598
 1856SOL    HW2 6468   4.965   3.932   6.510
 1857SOL     OW 6469   4.510   0.801   6.541
 1857SOL    HW1 6470   4.475   0.893   6.557
 1857SOL    HW2 6471   4.568   0.801   6.460
 1858SOL     OW 6472   5.365   2.159   4.474
 1858SOL    HW1 6473   5.337   2.097   4.401
 1858SOL    HW2 6474   5.299   2.234   4.481
 1859SOL     OW 6475   6.099   6.437   2.768
 1859SOL    HW1 6476   6.000   6.452   2.776
 1859SOL    HW2 6477   6.136   6.494   2.695
 1860SOL     OW 6478   2.429   1.001   0.253
 1860SOL    HW1 6479   2.521   0.961   0.253
 1860SOL    HW2 6480   2.361   0.928   0.245
 1861SOL     OW 6481   6.707   6.623   5.225
 1861SOL    HW1 6482   6.805   6.620   5.246
 1861SOL    HW2 6483   6.656   6.579   5.299
 1862SOL     OW 6484   3.850   5.222   5.259
 1862SOL    HW1 6485   3.878   5.313   5.289
 1862SOL    HW2 6486   3.843   5.161   5.338
 1863SOL     OW 6487   6.677   1.135   1.454
 1863SOL    HW1 6488   6.660   1.230   1.428
 1863SOL    HW2 6489   6.739   1.132   1.533
 1864SOL     OW 6490   2.462   5.854   2.515
 1864SOL    HW1 6491   2.458   5.954   2.506
 1864SOL    HW2 6492   2.504   5.830   2.602
 1865SOL     OW 6493   6.367   2.751   5.769
 1865SOL    HW1 6494   6.356   2.661   5.810
 1865SOL    HW2 6495   6.386   2.741   5.671
 1866SOL     OW 6496   0.489   3.730   5.389
 1866SOL    HW1 6497   0.444   3.790   5.454
 1866SOL    HW2 6498   0.539   3.658   5.438
 1867SOL     OW 6499   1.369   0.767   1.179
 1867SOL    HW1 6500   1.445   0.797   1.237
 1867SOL    HW2 6501   1.287   0.756   1.234
 1868SOL     OW 6502   5.856   3.296   5.800
 1868SOL    HW1 6503   5.911   3.212   5.796
 1868SOL    HW2 6504   5.901   3.367   5.745
 1869SOL     OW 6505   5.243   0.316   5.112
 1869SOL    HW1 6506   5.214   0.405   5.077
 1869SOL    HW2 6507   5.341   0.319   5.133
 1870SOL     OW 6508   5.804   0.880   5.741
 1870SOL    HW1 6509   5.761   0.938   5.810
 1870SOL    HW2 6510   5.866   0.816   5.786
 1871SOL     OW 6511   2.514   4.936   6.765
 1871SOL    HW1 6512   2.442   4.981   6.713
 1871SOL    HW2 6513   2.477   4.900   6.850
 1872SOL     OW 6514   2.574   3.273   0.669
 1872SOL    HW1 6515   2.613   3.184   0.690
 1872SOL    HW2 6516   2.536   3.272   0.576
 1873SOL     OW 6517   6.190   1.710   2.408
 1873SOL    HW1 6518   6.233   1.626   2.374
 1873SOL    HW2 6519   6.185   1.777   2.334
 1874SOL     OW 6520   2.112   5.339   6.444
 1874SOL    HW1 6521   2.036   5.375   6.390
 1874SOL    HW2 6522   2.076   5.288   6.522
 1875SOL     OW 6523   1.333   6.263   2.084
 1875SOL    HW1 6524   1.430   6.257   2.111
 1875SOL    HW2 6525   1.278   6.205   2.144
 1876SOL     OW 6526   0.951   4.850   5.991
 1876SOL    HW1 6527   0.859   4.828   5.960
 1876SOL    HW2 6528   1.016   4.785   5.951
 1877SOL     OW 6529   0.410   1.007   3.645
 1877SOL    HW1 6530   0.496   1.035   3.602
 1877SOL    HW2 6531   0.402   0.908   3.644
 1878SOL     OW 6532   5.916   4.098   4.106
 1878SOL    HW1 6533   5.982   4.104   4.182
 1878SOL    HW2 6534   5.834   4.051   4.137
 1879SOL     OW 6535   4.163   6.230   5.600
 1879SOL    HW1 6536   4.205   6.318   5.577
 1879SOL    HW2 6537   4.066   6.245   5.622
 1880SOL     OW 6538   1.458   3.366   4.639
 1880SOL    HW1 6539   1.417   3.420   4.566
 1880SOL    HW2 6540   1.524   3.301   4.600
 1881SOL     OW 6541   2.210   2.132   3.268
 1881SOL    HW1 6542   2.203   2.226   3.233
 1881SOL    HW2 6543   2.242   2.134   3.363
 1882SOL     OW 6544   4.207   6.635   0.666
 1882SOL    HW1 6545   4.276   6.563   0.667
 1882SOL    HW2 6546   4.168   6.645   0.758
 1883SOL     OW 6547   1.998   3.634   2.609
 1883SOL    HW1 6548   2.027   3.727   2.630
 1883SOL    HW2 6549   2.036   3.606   2.521
 1884SOL     OW 6550   4.805   1.020   6.942
 1884SOL    HW1 6551   4.801   0.923   6.965
 1884SOL    HW2 6552   4.720   1.047   6.897
 1885SOL     OW 6553   0.155   1.596   0.769
 1885SOL    HW1 6554   0.073   1.650   0.749
 1885SOL    HW2 6555   0.235   1.643   0.732
 1886SOL     OW 6556   3.479   3.041   4.679
 1886SOL    HW1 6557   3.501   2.964   4.739
 1886SOL    HW2 6558   3.458   3.121   4.734
 1887SOL     OW 6559   0.751   5.899   5.394
 1887SOL    HW1 6560   0.794   5.815   5.426
 1887SOL    HW2 6561   0.731   5.958   5.473
 1888SOL     OW 6562   1.992   1.481   6.215
 1888SOL    HW1 6563   2.071   1.540   6.228
 1888SOL    HW2 6564   1.922   1.503   6.282
 1889SOL     OW 6565   3.565   3.790   7.016
 1889SOL    HW1 6566   3.587   3.869   0.047
 1889SOL    HW2 6567   3.565   3.817   6.920
 1890SOL     OW 6568   6.079   6.524   6.524
 1890SOL    HW1 6569   5.993   6.570   6.543
 1890SOL    HW2 6570   6.155   6.579   6.559
 1891SOL     OW 6571   5.310   3.385   6.658
 1891SOL    HW1 6572   5.350   3.321   6.592
 1891SOL    HW2 6573   5.325   3.479   6.627
 1892SOL     OW 6574   4.159   0.463   2.953
 1892SOL    HW1 6575   4.134   0.400   2.879
 1892SOL    HW2 6576   4.086   0.531   2.964
 1893SOL     OW 6577   3.050   2.107   6.730
 1893SOL    HW1 6578   3.001   2.179   6.680
 1893SOL    HW2 6579   3.069   2.030   6.669
 1894SOL     OW 6580   5.016   3.079   0.580
 1894SOL    HW1 6581   5.092   3.130   0.619
 1894SOL    HW2 6582   5.047   2.986   0.557
 1895SOL     OW 6583   4.928   5.740   3.198
 1895SOL    HW1 6584   5.022   5.765   3.175
 1895SOL    HW2 6585   4.930   5.671   3.270
 1896SOL     OW 6586   6.903   1.385   4.787
 1896SOL    HW1 6587   6.907   1.474   4.741
 1896SOL    HW2 6588   6.808   1.361   4.805
 1897SOL     OW 6589   5.686   5.399   3.276
 1897SOL    HW1 6590   5.625   5.321   3.281
 1897SOL    HW2 6591   5.634   5.482   3.259
 1898SOL     OW 6592   5.533   6.681   6.944
 1898SOL    HW1 6593   5.488   6.613   7.002
 1898SOL    HW2 6594   5.616   6.641   6.904
 1899SOL     OW 6595   2.090   2.803   3.708
 1899SOL    HW1 6596   2.183   2.774   3.733
 1899SOL    HW2 6597   2.044   2.728   3.660
 1900SOL     OW 6598   2.942   5.479   1.390
 1900SOL    HW1 6599   3.016   5.448   1.330
 1900SOL    HW2 6600   2.978   5.498   1.481
 1901SOL     OW 6601   0.702   1.497   5.979
 1901SOL    HW1 6602   0.623   1.442   5.953
 1901SOL    HW2 6603   0.690   1.530   6.072
 1902SOL     OW 6604   1.457   2.563   4.663
 1902SOL    HW1 6605   1.530   2.542   4.727
 1902SOL    HW2 6606   1.373   2.585   4.714
 1903SOL     OW 6607   6.706   5.617   3.655
 1903SOL    HW1 6608   6.763   5.658   3.727
 1903SOL    HW2 6609   6.722   5.666   3.569
 1904SOL     OW 6610   0.533   0.077   4.213
 1904SOL    HW1 6611   0.622   0.114   4.241
 1904SOL    HW2 6612   0.543   0.031   4.125
 1905SOL     OW 6613   6.025   3.377   5.530
 1905SOL    HW1 6614   6.114   3.422   5.539
 1905SOL    HW2 6615   6.038   3.283   5.500
 1906SOL     OW 6616   2.581   6.540   5.764
 1906SOL    HW1 6617   2.530   6.604   5.707
 1906SOL    HW2 6618   2.552   6.551   5.860
 1907SOL     OW 6619   3.952   6.738   3.412
 1907SOL    HW1 6620   4.051   6.732   3.399
 1907SOL    HW2 6621   3.928   6.829   3.447
 1908SOL     OW 6622   5.106   4.899   0.645
 1908SOL    HW1 6623   5.176   4.833   0.674
 1908SOL    HW2 6624   5.131   4.938   0.557
 1909SOL     OW 6625   5.348   5.524   3.642
 1909SOL    HW1 6626   5.288   5.602   3.630
 1909SOL    HW2 6627   5.296   5.447   3.679
 1910SOL     OW 6628   4.855   3.854   4.116
 1910SOL    HW1 6629   4.820   3.889   4.203
 1910SOL    HW2 6630   4.859   3.754   4.121
 1911SOL     OW 6631   0.521   2.464   5.656
 1911SOL    HW1 6632   0.613   2.455   5.693
 1911SOL    HW2 6633   0.498   2.383   5.602
 1912SOL     OW 6634   3.132   6.531   2.523
 1912SOL    HW1 6635   3.067   6.599   2.488
 1912SOL    HW2 6636   3.097   6.439   2.504
 1913SOL     OW 6637   2.686   4.176   6.804
 1913SOL    HW1 6638   2.738   4.113   6.746
 1913SOL    HW2 6639   2.694   4.147   6.899
 1914SOL     OW 6640   4.209   1.262   4.808
 1914SOL    HW1 6641   4.280   1.322   4.845
 1914SOL    HW2 6642   4.142   1.316   4.759
 1915SOL     OW 6643   2.885   6.509   5.607
 1915SOL    HW1 6644   2.867   6.561   5.690
 1915SOL    HW2 6645   2.880   6.411   5.627
 1916SOL     OW 6646   3.379   6.475   2.301
 1916SOL    HW1 6647   3.371   6.575   2.307
 1916SOL    HW2 6648   3.298   6.438   2.257
 1917SOL     OW 6649   3.706   3.989   3.476
 1917SOL    HW1 6650   3.782   4.033   3.522
 1917SOL    HW2 6651   3.700   3.893   3.504
 1918SOL     OW 6652   0.484   6.360   5.713
 1918SOL    HW1 6653   0.456   6.310   5.795
 1918SOL    HW2 6654   0.461   6.306   5.632
 1919SOL     OW 6655   5.849   0.580   2.065
 1919SOL    HW1 6656   5.867   0.562   2.162
 1919SOL    HW2 6657   5.751   0.587   2.050
 1920SOL     OW 6658   6.475   6.093   4.505
 1920SOL    HW1 6659   6.512   6.147   4.581
 1920SOL    HW2 6660   6.503   6.134   4.418
 1921SOL     OW 6661   2.553   6.194   6.914
 1921SOL    HW1 6662   2.521   6.289   6.910
 1921SOL    HW2 6663   2.602   6.179   7.000
 1922SOL     OW 6664   3.925   4.543   0.141
 1922SOL    HW1 6665   3.969   4.474   0.083
 1922SOL    HW2 6666   3.981   4.625   0.144
 1923SOL     OW 6667   1.827   2.821   1.089
 1923SOL    HW1 6668   1.752   2.887   1.090
 1923SOL    HW2 6669   1.834   2.781   0.998
 1924SOL     OW 6670   0.444   3.697   1.415
 1924SOL    HW1 6671   0.434   3.659   1.323
 1924SOL    HW2 6672   0.432   3.625   1.483
 1925SOL     OW 6673   3.158   4.532   0.619
 1925SOL    HW1 6674   3.080   4.480   0.586
 1925SOL    HW2 6675   3.129   4.592   0.693
 1926SOL     OW 6676   0.772   0.754   3.625
 1926SOL    HW1 6677   0.749   0.686   3.694
 1926SOL    HW2 6678   0.871   0.750   3.606
 1927SOL     OW 6679   5.203   3.408   1.393
 1927SOL    HW1 6680   5.197   3.327   1.334
 1927SOL    HW2 6681   5.118   3.419   1.443
 1928SOL     OW 6682   0.093   5.320   4.568
 1928SOL    HW1 6683   0.012   5.373   4.543
 1928SOL    HW2 6684   0.066   5.228   4.596
 1929SOL     OW 6685   0.600   4.778   2.878
 1929SOL    HW1 6686   0.541   4.770   2.797
 1929SOL    HW2 6687   0.547   4.815   2.954
 1930SOL     OW 6688   6.591   5.554   5.781
 1930SOL    HW1 6689   6.508   5.538   5.836
 1930SOL    HW2 6690   6.565   5.576   5.687
 1931SOL     OW 6691   2.015   2.441   4.253
 1931SOL    HW1 6692   1.929   2.490   4.239
 1931SOL    HW2 6693   1.996   2.345   4.271
 1932SOL     OW 6694   5.979   3.272   2.332
 1932SOL    HW1 6695   6.045   3.261   2.257
 1932SOL    HW2 6696   5.886   3.270   2.295
 1933SOL     OW 6697   3.075   4.988   0.211
 1933SOL    HW1 6698   3.166   4.959   0.242
 1933SOL    HW2 6699   3.078   5.010   0.114
 1934SOL     OW 6700   0.344   6.223   2.930
 1934SOL    HW1 6701   0.422   6.282   2.950
 1934SOL    HW2 6702   0.355   6.182   2.839
 1935SOL     OW 6703   0.854   1.082   3.385
 1935SOL    HW1 6704   0.890   1.137   3.310
 1935SOL    HW2 6705   0.929   1.035   3.432
 1936SOL     OW 6706   0.275   5.836   5.055
 1936SOL    HW1 6707   0.195   5.812   5.000
 1936SOL    HW2 6708   0.266   5.797   5.146
 1937SOL     OW 6709   4.622   1.830   3.223
 1937SOL    HW1 6710   4.701   1.772   3.240
 1937SOL    HW2 6711   4.541   1.789   3.266
 1938SOL     OW 6712   5.311   6.824   3.836
 1938SOL    HW1 6713   5.349   6.912   3.865
 1938SOL    HW2 6714   5.327   6.756   3.908
 1939SOL     OW 6715   2.666   0.261   4.485
 1939SOL    HW1 6716   2.728   0.241   4.560
 1939SOL    HW2 6717   2.595   0.191   4.480
 1940SOL     OW 6718   6.115   6.833   6.727
 1940SOL    HW1 6719   6.189   6.801   6.667
 1940SOL    HW2 6720   6.116   6.933   6.730
 1941SOL     OW 6721   4.565   4.967   2.636
 1941SOL    HW1 6722   4.638   4.903   2.659
 1941SOL    HW2 6723   4.556   4.974   2.537
 1942SOL     OW 6724   0.351   2.906   2.802
 1942SOL    HW1 6725   0.348   2.923   2.901
 1942SOL    HW2 6726   0.440   2.868   2.777
 1943SOL     OW 6727   3.282   5.375   3.357
 1943SOL    HW1 6728   3.191   5.417   3.350
 1943SOL    HW2 6729   3.289   5.300   3.292
 1944SOL     OW 6730   0.143   6.382   2.146
 1944SOL    HW1 6731   0.225   6.349   2.193
 1944SOL    HW2 6732   0.109   6.310   2.085
 1945SOL     OW 6733   2.802   4.819   2.637
 1945SOL    HW1 6734   2.866   4.824   2.714
 1945SOL    HW2 6735   2.850   4.845   2.553
 1946SOL     OW 6736   1.792   6.678   6.760
 1946SOL    HW1 6737   1.862   6.629   6.812
 1946SOL    HW2 6738   1.711   6.691   6.817
 1947SOL     OW 6739   4.455   0.635   3.631
 1947SOL    HW1 6740   4.453   0.648   3.532
 1947SOL    HW2 6741   4.380   0.687   3.673
 1948SOL     OW 6742   6.124   2.871   5.215
 1948SOL    HW1 6743   6.061   2.817   5.158
 1948SOL    HW2 6744   6.218   2.844   5.195
 1949SOL     OW 6745   4.976   3.661   6.868
 1949SOL    HW1 6746   4.946   3.565   6.869
 1949SOL    HW2 6747   5.012   3.683   6.777
 1950SOL     OW 6748   3.150   5.085   0.868
 1950SOL    HW1 6749   3.226   5.046   0.921
 1950SOL    HW2 6750   3.076   5.112   0.930
 1951SOL     OW 6751   6.189   2.841   0.083
 1951SOL    HW1 6752   6.207   2.843   7.010
 1951SOL    HW2 6753   6.268   2.877   0.132
 1952SOL     OW 6754   3.184   3.279   4.310
 1952SOL    HW1 6755   3.275   3.237   4.307
 1952SOL    HW2 6756   3.156   3.301   4.216
 1953SOL     OW 6757   0.580   2.136   4.322
 1953SOL    HW1 6758   0.539   2.217   4.365
 1953SOL    HW2 6759   0.668   2.161   4.281
 1954SOL     OW 6760   2.153   1.801   4.321
 1954SOL    HW1 6761   2.134   1.861   4.398
 1954SOL    HW2 6762   2.075   1.801   4.258
 1955SOL     OW 6763   6.485   5.862   2.504
 1955SOL    HW1 6764   6.568   5.827   2.460
 1955SOL    HW2 6765   6.505   5.950   2.547
 1956SOL     OW 6766   4.638   5.816   2.929
 1956SOL    HW1 6767   4.600   5.773   3.011
 1956SOL    HW2 6768   4.568   5.872   2.885
 1957SOL     OW 6769   2.568   6.456   5.111
 1957SOL    HW1 6770   2.643   6.517   5.088
 1957SOL    HW2 6771   2.525   6.485   5.196
 1958SOL     OW 6772   3.886   3.902   6.434
 1958SOL    HW1 6773   3.985   3.911   6.423
 1958SOL    HW2 6774   3.841   3.986   6.403
 1959SOL     OW 6775   2.596   0.388   0.828
 1959SOL    HW1 6776   2.594   0.426   0.736
 1959SOL    HW2 6777   2.580   0.461   0.895
 1960SOL     OW 6778   5.214   5.477   2.569
 1960SOL    HW1 6779   5.169   5.440   2.650
 1960SOL    HW2 6780   5.145   5.506   2.503
 1961SOL     OW 6781   5.481   4.713   5.904
 1961SOL    HW1 6782   5.536   4.664   5.836
 1961SOL    HW2 6783   5.404   4.758   5.858
 1962SOL     OW 6784   0.051   6.743   4.334
 1962SOL    HW1 6785   0.015   6.672   4.273
 1962SOL    HW2 6786   0.137   6.713   4.374
 1963SOL     OW 6787   2.401   1.358   3.861
 1963SOL    HW1 6788   2.392   1.263   3.832
 1963SOL    HW2 6789   2.424   1.361   3.958
 1964SOL     OW 6790   6.482   2.955   2.097
 1964SOL    HW1 6791   6.538   2.965   2.179
 1964SOL    HW2 6792   6.440   3.043   2.074
 1965SOL     OW 6793   2.296   6.764   3.559
 1965SOL    HW1 6794   2.386   6.777   3.517
 1965SOL    HW2 6795   2.225   6.794   3.495
 1966SOL     OW 6796   6.855   6.786   6.810
 1966SOL    HW1 6797   6.864   6.690   6.784
 1966SOL    HW2 6798   6.801   6.835   6.742
 1967SOL     OW 6799   5.692   2.831   4.822
 1967SOL    HW1 6800   5.789   2.809   4.835
 1967SOL    HW2 6801   5.681   2.887   4.740
 1968SOL     OW 6802   4.067   5.702   4.941
 1968SOL    HW1 6803   4.011   5.772   4.986
 1968SOL    HW2 6804   4.009   5.623   4.919
 1969SOL     OW 6805   6.443   1.068   1.601
 1969SOL    HW1 6806   6.510   1.075   1.527
 1969SOL    HW2 6807   6.352   1.091   1.566
 1970SOL     OW 6808   1.696   0.936   3.972
 1970SOL    HW1 6809   1.741   1.012   4.019
 1970SOL    HW2 6810   1.723   0.850   4.016
 1971SOL     OW 6811   6.751   1.392   6.012
 1971SOL    HW1 6812   6.689   1.347   5.946
 1971SOL    HW2 6813   6.697   1.444   6.078
 1972SOL     OW 6814   1.338   6.828   3.806
 1972SOL    HW1 6815   1.390   6.776   3.738
 1972SOL    HW2 6816   1.270   6.768   3.849
 1973SOL     OW 6817   2.696   3.072   0.316
 1973SOL    HW1 6818   2.716   3.068   0.218
 1973SOL    HW2 6819   2.638   2.994   0.341
 1974SOL     OW 6820   6.433   6.375   4.169
 1974SOL    HW1 6821   6.348   6.366   4.118
 1974SOL    HW2 6822   6.439   6.468   4.207
 1975SOL     OW 6823   2.545   6.813   3.505
 1975SOL    HW1 6824   2.627   6.802   3.562
 1975SOL    HW2 6825   2.571   6.812   3.408
 1976SOL     OW 6826   6.440   4.510   5.785
 1976SOL    HW1 6827   6.408   4.605   5.786
 1976SOL    HW2 6828   6.414   4.465   5.870
 1977SOL     OW 6829   3.407   2.108   5.128
 1977SOL    HW1 6830   3.330   2.156   5.087
 1977SOL    HW2 6831   3.453   2.168   5.194
 1978SOL     OW 6832   6.943   2.361   5.089
 1978SOL    HW1 6833   6.920   2.335   5.183
 1978SOL    HW2 6834   7.015   2.430   5.090
 1979SOL     OW 6835   6.834   3.844   2.311
 1979SOL    HW1 6836   6.915   3.853   2.368
 1979SOL    HW2 6837   6.785   3.931   2.307
 1980SOL     OW 6838   2.680   0.838   2.735
 1980SOL    HW1 6839   2.641   0.929   2.750
 1980SOL    HW2 6840   2.659   0.807   2.643
 1981SOL     OW 6841   5.839   3.325   1.953
 1981SOL    HW1 6842   5.847   3.356   1.858
 1981SOL    HW2 6843   5.856   3.227   1.958
 1982SOL     OW 6844   0.115   0.192   5.538
 1982SOL    HW1 6845   0.042   0.197   5.470
 1982SOL    HW2 6846   0.147   0.097   5.545
 1983SOL     OW 6847   1.189   4.491   1.542
 1983SOL    HW1 6848   1.214   4.480   1.638
 1983SOL    HW2 6849   1.231   4.575   1.506
 1984SOL     OW 6850   4.547   0.759   5.377
 1984SOL    HW1 6851   4.597   0.771   5.464
 1984SOL    HW2 6852   4.480   0.832   5.368
 1985SOL     OW 6853   1.343   5.802   1.611
 1985SOL    HW1 6854   1.272   5.850   1.663
 1985SOL    HW2 6855   1.349   5.707   1.643
 1986SOL     OW 6856   6.802   2.707   0.608
 1986SOL    HW1 6857   6.829   2.650   0.530
 1986SOL    HW2 6858   6.884   2.746   0.651
 1987SOL     OW 6859   2.566   3.678   0.193
 1987SOL    HW1 6860   2.536   3.734   0.270
 1987SOL    HW2 6861   2.665   3.667   0.196
 1988SOL     OW 6862   4.826   3.030   1.101
 1988SOL    HW1 6863   4.891   2.957   1.080
 1988SOL    HW2 6864   4.738   3.011   1.059
 1989SOL     OW 6865   2.334   2.341   3.733
 1989SOL    HW1 6866   2.356   2.433   3.768
 1989SOL    HW2 6867   2.258   2.303   3.786
 1990SOL     OW 6868   0.963   0.636   3.309
 1990SOL    HW1 6869   0.937   0.539   3.303
 1990SOL    HW2 6870   1.057   0.643   3.343
 1991SOL     OW 6871   4.548   6.294   2.857
 1991SOL    HW1 6872   4.578   6.240   2.936
 1991SOL    HW2 6873   4.455   6.267   2.832
 1992SOL     OW 6874   2.673   5.323   5.736
 1992SOL    HW1 6875   2.601   5.289   5.676
 1992SOL    HW2 6876   2.707   5.410   5.701
 1993SOL     OW 6877   2.899   3.381   4.421
 1993SOL    HW1 6878   2.859   3.464   4.383
 1993SOL    HW2 6879   2.983   3.358   4.371
 1994SOL     OW 6880   6.668   2.266   2.052
 1994SOL    HW1 6881   6.642   2.205   2.127
 1994SOL    HW2 6882   6.590   2.324   2.028
 1995SOL     OW 6883   3.664   2.304   1.404
 1995SOL    HW1 6884   3.593   2.236   1.423
 1995SOL    HW2 6885   3.717   2.321   1.487
 1996SOL     OW 6886   2.430   4.526   5.240
 1996SOL    HW1 6887   2.356   4.512   5.306
 1996SOL    HW2 6888   2.506   4.465   5.263
 1997SOL     OW 6889   5.983   5.938   4.102
 1997SOL    HW1 6890   5.935   5.982   4.178
 1997SOL    HW2 6891   5.936   5.852   4.078
 1998SOL     OW 6892   2.794   4.761   4.652
 1998SOL    HW1 6893   2.750   4.733   4.737
 1998SOL    HW2 6894   2.883   4.801   4.672
 1999SOL     OW 6895   2.326   1.408   2.165
 1999SOL    HW1 6896   2.253   1.467   2.131
 1999SOL    HW2 6897   2.399   1.403   2.096
 2000SOL     OW 6898   3.054   1.171   5.018
 2000SOL    HW1 6899   3.029   1.246   4.956
 2000SOL    HW2 6900   2.972   1.127   5.052
 2001SOL     OW 6901   2.406   2.686   6.712
 2001SOL    HW1 6902   2.491   2.698   6.764
 2001SOL    HW2 6903   2.419   2.719   6.618
 2002SOL     OW 6904   1.479   4.736   4.717
 2002SOL    HW1 6905   1.446   4.744   4.623
 2002SOL    HW2 6906   1.412   4.685   4.772
 2003SOL     OW 6907   6.349   3.846   3.491
 2003SOL    HW1 6908   6.368   3.891   3.578
 2003SOL    HW2 6909   6.281   3.773   3.505
 2004SOL     OW 6910   3.435   0.038   6.971
 2004SOL    HW1 6911   3.504   0.103   7.001
 2004SOL    HW2 6912   3.369   0.023   0.020
 2005SOL     OW 6913   2.913   6.409   5.286
 2005SOL    HW1 6914   2.882   6.489   5.338
 2005SOL    HW2 6915   2.943   6.338   5.349
 2006SOL     OW 6916   4.668   6.859   3.419
 2006SOL    HW1 6917   4.740   6.909   3.466
 2006SOL    HW2 6918   4.617   6.922   3.360
 2007SOL     OW 6919   6.529   5.634   6.940
 2007SOL    HW1 6920   6.578   5.721   6.938
 2007SOL    HW2 6921   6.556   5.583   7.021
 2008SOL     OW 6922   6.905   5.910   5.656
 2008SOL    HW1 6923   6.874   5.820   5.624
 2008SOL    HW2 6924   6.828   5.974   5.656
 2009SOL     OW 6925   0.840   0.703   0.080
 2009SOL    HW1 6926   0.892   0.783   0.051
 2009SOL    HW2 6927   0.898   0.622   0.076
 2010SOL     OW 6928   2.120   0.888   0.726
 2010SOL    HW1 6929   2.039   0.936   0.761
 2010SOL    HW2 6930   2.092   0.827   0.652
 2011SOL     OW 6931   6.782   1.962   4.683
 2011SOL    HW1 6932   6.684   1.965   4.698
 2011SOL    HW2 6933   6.830   1.966   4.770
 2012SOL     OW 6934   0.066   3.262   0.928
 2012SOL    HW1 6935   0.003   3.255   0.851
 2012SOL    HW2 6936   0.021   3.307   1.005
 2013SOL     OW 6937   3.964   2.115   1.569
 2013SOL    HW1 6938   3.933   2.063   1.649
 2013SOL    HW2 6939   3.927   2.208   1.573
 2014SOL     OW 6940   3.442   5.600   3.104
 2014SOL    HW1 6941   3.354   5.553   3.097
 2014SOL    HW2 6942   3.429   5.698   3.086
 2015SOL     OW 6943   3.573   5.754   0.002
 2015SOL    HW1 6944   3.517   5.824   0.047
 2015SOL    HW2 6945   3.592   5.782   6.933
 2016SOL     OW 6946   6.214   5.690   4.288
 2016SOL    HW1 6947   6.208   5.712   4.191
 2016SOL    HW2 6948   6.292   5.737   4.328
 2017SOL     OW 6949   1.866   5.394   2.369
 2017SOL    HW1 6950   1.807   5.449   2.310
 2017SOL    HW2 6951   1.899   5.315   2.318
 2018SOL     OW 6952   0.540   4.070   5.862
 2018SOL    HW1 6953   0.453   4.034   5.898
 2018SOL    HW2 6954   0.559   4.158   5.906
 2019SOL     OW 6955   5.215   1.236   2.882
 2019SOL    HW1 6956   5.181   1.324   2.915
 2019SOL    HW2 6957   5.205   1.167   2.954
 2020SOL     OW 6958   2.096   5.328   3.222
 2020SOL    HW1 6959   2.142   5.417   3.220
 2020SOL    HW2 6960   2.069   5.303   3.129
 2021SOL     OW 6961   1.806   5.992   1.847
 2021SOL    HW1 6962   1.892   6.018   1.803
 2021SOL    HW2 6963   1.826   5.939   1.929
 2022SOL     OW 6964   3.263   5.398   1.546
 2022SOL    HW1 6965   3.312   5.437   1.467
 2022SOL    HW2 6966   3.310   5.425   1.630
 2023SOL     OW 6967   6.458   2.086   5.613
 2023SOL    HW1 6968   6.474   2.119   5.520
 2023SOL    HW2 6969   6.477   1.988   5.617
 2024SOL     OW 6970   6.204   0.270   3.157
 2024SOL    HW1 6971   6.149   0.201   3.203
 2024SOL    HW2 6972   6.299   0.261   3.187
 2025SOL     OW 6973   5.926   0.943   1.239
 2025SOL    HW1 6974   5.893   1.037   1.246
 2025SOL    HW2 6975   6.007   0.940   1.179
 2026SOL     OW 6976   2.149   1.804   5.256
 2026SOL    HW1 6977   2.141   1.897   5.291
 2026SOL    HW2 6978   2.076   1.786   5.190
 2027SOL     OW 6979   7.013   0.207   1.810
 2027SOL    HW1 6980   0.033   0.271   1.872
 2027SOL    HW2 6981   6.940   0.255   1.761
 2028SOL     OW 6982   3.855   3.792   5.732
 2028SOL    HW1 6983   3.925   3.783   5.803
 2028SOL    HW2 6984   3.843   3.705   5.686
 2029SOL     OW 6985   1.754   0.707   0.279
 2029SOL    HW1 6986   1.800   0.760   0.207
 2029SOL    HW2 6987   1.785   0.612   0.275
 2030SOL     OW 6988   1.853   2.560   2.887
 2030SOL    HW1 6989   1.757   2.583   2.905
 2030SOL    HW2 6990   1.857   2.489   2.816
 2031SOL     OW 6991   6.469   0.298   2.706
 2031SOL    HW1 6992   6.452   0.382   2.758
 2031SOL    HW2 6993   6.464   0.219   2.768
 2032SOL     OW 6994   4.754   6.191   2.174
 2032SOL    HW1 6995   4.813   6.169   2.096
 2032SOL    HW2 6996   4.774   6.128   2.249
 2033SOL     OW 6997   0.369   5.331   6.305
 2033SOL    HW1 6998   0.289   5.304   6.252
 2033SOL    HW2 6999   0.391   5.427   6.285
 2034SOL     OW 7000   2.119   5.407   3.983
 2034SOL    HW1 7001   2.193   5.355   4.025
 2034SOL    HW2 7002   2.143   5.429   3.888
 2035SOL     OW 7003   0.577   2.127   3.703
 2035SOL    HW1 7004   0.672   2.110   3.728
 2035SOL    HW2 7005   0.524   2.043   3.713
 2036SOL     OW 7006   0.582   4.835   0.735
 2036SOL    HW1 7007   0.553   4.927   0.762
 2036SOL    HW2 7008   0.621   4.788   0.815
 2037SOL     OW 7009   0.248   2.283   6.754
 2037SOL    HW1 7010   0.152   2.286   6.725
 2037SOL    HW2 7011   0.300   2.225   6.692
 2038SOL     OW 7012   1.513   0.102   4.617
 2038SOL    HW1 7013   1.445   0.161   4.572
 2038SOL    HW2 7014   1.469   0.055   4.694
 2039SOL     OW 7015   1.320   5.314   1.527
 2039SOL    HW1 7016   1.279   5.320   1.618
 2039SOL    HW2 7017   1.262   5.362   1.461
 2040SOL     OW 7018   3.688   3.647   4.612
 2040SOL    HW1 7019   3.673   3.585   4.690
 2040SOL    HW2 7020   3.763   3.611   4.556
 2041SOL     OW 7021   4.637   2.903   6.859
 2041SOL    HW1 7022   4.542   2.914   6.828
 2041SOL    HW2 7023   4.685   2.839   6.799
 2042SOL     OW 7024   3.130   5.448   0.698
 2042SOL    HW1 7025   3.052   5.450   0.634
 2042SOL    HW2 7026   3.193   5.522   0.676
 2043SOL     OW 7027   4.261   5.950   2.501
 2043SOL    HW1 7028   4.161   5.962   2.500
 2043SOL    HW2 7029   4.290   5.912   2.413
 2044SOL     OW 7030   6.752   1.199   1.747
 2044SOL    HW1 7031   6.703   1.286   1.752
 2044SOL    HW2 7032   6.692   1.125   1.778
 2045SOL     OW 7033   3.159   6.651   6.869
 2045SOL    HW1 7034   3.172   6.643   6.770
 2045SOL    HW2 7035   3.076   6.602   6.896
 2046SOL     OW 7036   5.889   6.782   5.798
 2046SOL    HW1 7037   5.948   6.793   5.718
 2046SOL    HW2 7038   5.844   6.868   5.818
 2047SOL     OW 7039   4.998   3.264   0.379
 2047SOL    HW1 7040   5.022   3.351   0.421
 2047SOL    HW2 7041   5.003   3.191   0.447
 2048SOL     OW 7042   4.646   6.336   5.409
 2048SOL    HW1 7043   4.604   6.245   5.407
 2048SOL    HW2 7044   4.727   6.336   5.351
 2049SOL     OW 7045   4.861   5.568   6.716
 2049SOL    HW1 7046   4.925   5.641   6.738
 2049SOL    HW2 7047   4.839   5.571   6.618
 2050SOL     OW 7048   5.491   1.011   3.457
 2050SOL    HW1 7049   5.403   1.056   3.473
 2050SOL    HW2 7050   5.532   1.048   3.373
 2051SOL     OW 7051   3.137   5.377   1.214
 2051SOL    HW1 7052   3.118   5.395   1.117
 2051SOL    HW2 7053   3.181   5.288   1.223
 2052SOL     OW 7054   2.065   2.732   0.932
 2052SOL    HW1 7055   2.114   2.647   0.912
 2052SOL    HW2 7056   2.078   2.756   1.028
 2053SOL     OW 7057   4.937   1.128   0.779
 2053SOL    HW1 7058   5.003   1.118   0.854
 2053SOL    HW2 7059   4.845   1.135   0.817
 2054SOL     OW 7060   0.571   3.196   0.942
 2054SOL    HW1 7061   0.575   3.152   1.032
 2054SOL    HW2 7062   0.478   3.189   0.906
 2055SOL     OW 7063   6.305   1.251   3.911
 2055SOL    HW1 7064   6.308   1.221   4.006
 2055SOL    HW2 7065   6.211   1.276   3.887
 2056SOL     OW 7066   0.848   6.721   2.455
 2056SOL    HW1 7067   0.834   6.741   2.552
 2056SOL    HW2 7068   0.838   6.805   2.402
 2057SOL     OW 7069   4.853   3.248   3.682
 2057SOL    HW1 7070   4.868   3.308   3.760
 2057SOL    HW2 7071   4.782   3.288   3.623
 2058SOL     OW 7072   0.632   0.610   1.735
 2058SOL    HW1 7073   0.683   0.554   1.670
 2058SOL    HW2 7074   0.696   0.652   1.800
 2059SOL     OW 7075   1.491   0.887   6.699
 2059SOL    HW1 7076   1.422   0.949   6.662
 2059SOL    HW2 7077   1.578   0.902   6.652
 2060SOL     OW 7078   0.225   4.597   2.961
 2060SOL    HW1 7079   0.188   4.537   3.031
 2060SOL    HW2 7080   0.303   4.554   2.916
 2061SOL     OW 7081   1.239   0.872   0.683
 2061SOL    HW1 7082   1.219   0.944   0.617
 2061SOL    HW2 7083   1.254   0.912   0.773
 2062SOL     OW 7084   4.171   0.445   3.913
 2062SOL    HW1 7085   4.158   0.352   3.877
 2062SOL    HW2 7086   4.104   0.462   3.986
 2063SOL     OW 7087   2.370   2.217   1.055
 2063SOL    HW1 7088   2.334   2.130   1.090
 2063SOL    HW2 7089   2.313   2.292   1.088
 2064SOL     OW 7090   1.283   1.919   1.461
 2064SOL    HW1 7091   1.299   1.825   1.432
 2064SOL    HW2 7092   1.250   1.920   1.556
 2065SOL     OW 7093   0.101   2.944   2.677
 2065SOL    HW1 7094   0.190   2.942   2.723
 2065SOL    HW2 7095   0.074   3.039   2.661
 2066SOL     OW 7096   1.598   5.974   2.849
 2066SOL    HW1 7097   1.628   6.039   2.780
 2066SOL    HW2 7098   1.617   5.881   2.818
 2067SOL     OW 7099   0.511   0.539   0.194
 2067SOL    HW1 7100   0.511   0.439   0.192
 2067SOL    HW2 7101   0.578   0.571   0.259
 2068SOL     OW 7102   1.946   2.110   5.088
 2068SOL    HW1 7103   1.860   2.069   5.058
 2068SOL    HW2 7104   1.963   2.087   5.184
 2069SOL     OW 7105   0.985   1.926   2.277
 2069SOL    HW1 7106   0.951   1.923   2.183
 2069SOL    HW2 7107   0.982   1.834   2.316
 2070SOL     OW 7108   6.947   1.431   2.820
 2070SOL    HW1 7109   6.892   1.500   2.774
 2070SOL    HW2 7110   0.014   1.466   2.834
 2071SOL     OW 7111   2.638   6.321   5.633
 2071SOL    HW1 7112   2.608   6.390   5.698
 2071SOL    HW2 7113   2.724   6.280   5.664
 2072SOL     OW 7114   5.041   5.234   2.528
 2072SOL    HW1 7115   5.046   5.262   2.624
 2072SOL    HW2 7116   5.080   5.143   2.517
 2073SOL     OW 7117   3.337   6.639   5.375
 2073SOL    HW1 7118   3.396   6.716   5.352
 2073SOL    HW2 7119   3.276   6.666   5.450
 2074SOL     OW 7120   5.641   2.427   2.567
 2074SOL    HW1 7121   5.629   2.479   2.652
 2074SOL    HW2 7122   5.682   2.486   2.498
 2075SOL     OW 7123   3.887   2.905   6.036
 2075SOL    HW1 7124   3.815   2.925   5.969
 2075SOL    HW2 7125   3.971   2.954   6.011
 2076SOL     OW 7126   5.184   0.298   0.327
 2076SOL    HW1 7127   5.127   0.277   0.247
 2076SOL    HW2 7128   5.183   0.219   0.389
 2077SOL     OW 7129   4.326   1.073   4.121
 2077SOL    HW1 7130   4.342   1.008   4.195
 2077SOL    HW2 7131   4.255   1.038   4.061
 2078SOL     OW 7132   4.053   5.987   4.490
 2078SOL    HW1 7133   4.150   5.980   4.467
 2078SOL    HW2 7134   4.009   6.055   4.431
 2079SOL     OW 7135   6.407   6.861   4.014
 2079SOL    HW1 7136   6.443   6.852   4.106
 2079SOL    HW2 7137   6.471   6.913   3.957
 2080SOL     OW 7138   2.469   1.892   3.629
 2080SOL    HW1 7139   2.442   1.853   3.541
 2080SOL    HW2 7140   2.496   1.819   3.691
 2081SOL     OW 7141   1.241   6.439   4.169
 2081SOL    HW1 7142   1.180   6.519   4.170
 2081SOL    HW2 7143   1.232   6.390   4.256
 2082SOL     OW 7144   4.737   0.812   2.212
 2082SOL    HW1 7145   4.662   0.746   2.202
 2082SOL    HW2 7146   4.731   0.880   2.139
 2083SOL     OW 7147   4.009   4.084   6.247
 2083SOL    HW1 7148   3.958   4.012   6.200
 2083SOL    HW2 7149   3.950   4.164   6.260
 2084SOL     OW 7150   6.925   2.656   3.176
 2084SOL    HW1 7151   6.895   2.749   3.158
 2084SOL    HW2 7152   6.960   2.615   3.091
 2085SOL     OW 7153   6.117   6.694   6.976
 2085SOL    HW1 7154   6.136   6.750   6.895
 2085SOL    HW2 7155   6.032   6.725   7.019
 2086SOL     OW 7156   3.548   5.021   0.014
 2086SOL    HW1 7157   3.632   5.049   0.060
 2086SOL    HW2 7158   3.557   4.926   7.009
 2087SOL     OW 7159   5.604   5.944   3.503
 2087SOL    HW1 7160   5.701   5.967   3.502
 2087SOL    HW2 7161   5.593   5.845   3.514
 2088SOL     OW 7162   2.560   6.601   1.564
 2088SOL    HW1 7163   2.497   6.557   1.627
 2088SOL    HW2 7164   2.651   6.604   1.604
 2089SOL     OW 7165   2.326   1.182   6.844
 2089SOL    HW1 7166   2.341   1.088   6.876
 2089SOL    HW2 7167   2.263   1.229   6.905
 2090SOL     OW 7168   3.375   3.887   4.104
 2090SOL    HW1 7169   3.293   3.895   4.160
 2090SOL    HW2 7170   3.349   3.867   4.009
 2091SOL     OW 7171   2.910   4.426   0.823
 2091SOL    HW1 7172   2.872   4.419   0.916
 2091SOL    HW2 7173   2.952   4.516   0.811
 2092SOL     OW 7174   0.224   6.394   1.058
 2092SOL    HW1 7175   0.237   6.425   1.152
 2092SOL    HW2 7176   0.168   6.311   1.057
 2093SOL     OW 7177   1.620   2.043   1.529
 2093SOL    HW1 7178   1.697   2.094   1.490
 2093SOL    HW2 7179   1.614   1.953   1.485
 2094SOL     OW 7180   6.554   0.637   1.940
 2094SOL    HW1 7181   6.633   0.622   1.881
 2094SOL    HW2 7182   6.490   0.699   1.895
 2095SOL     OW 7183   6.522   4.596   5.297
 2095SOL    HW1 7184   6.574   4.566   5.377
 2095SOL    HW2 7185   6.496   4.691   5.308
 2096SOL     OW 7186   4.730   4.268   3.713
 2096SOL    HW1 7187   4.706   4.190   3.771
 2096SOL    HW2 7188   4.661   4.340   3.723
 2097SOL     OW 7189   6.645   3.567   6.145
 2097SOL    HW1 7190   6.713   3.566   6.072
 2097SOL    HW2 7191   6.554   3.582   6.105
 2098SOL     OW 7192   4.356   0.356   4.351
 2098SOL    HW1 7193   4.317   0.441   4.385
 2098SOL    HW2 7194   4.438   0.375   4.297
 2099SOL     OW 7195   2.729   2.027   3.549
 2099SOL    HW1 7196   2.658   2.087   3.587
 2099SOL    HW2 7197   2.693   1.982   3.467
 2100SOL     OW 7198   4.106   4.700   6.187
 2100SOL    HW1 7199   4.034   4.712   6.256
 2100SOL    HW2 7200   4.096   4.611   6.144
 2101SOL     OW 7201   6.265   6.833   1.819
 2101SOL    HW1 7202   6.303   6.835   1.912
 2101SOL    HW2 7203   6.284   6.920   1.774
 2102SOL     OW 7204   0.234   4.944   1.493
 2102SOL    HW1 7205   0.145   4.900   1.492
 2102SOL    HW2 7206   0.306   4.876   1.509
 2103SOL     OW 7207   3.672   3.583   6.227
 2103SOL    HW1 7208   3.573   3.591   6.214
 2103SOL    HW2 7209   3.719   3.654   6.174
 2104SOL     OW 7210   1.593   4.401   5.686
 2104SOL    HW1 7211   1.561   4.465   5.617
 2104SOL    HW2 7212   1.515   4.367   5.739
 2105SOL     OW 7213   5.627   6.181   2.183
 2105SOL    HW1 7214   5.548   6.238   2.161
 2105SOL    HW2 7215   5.609   6.087   2.155
 2106SOL     OW 7216   5.432   6.008   6.308
 2106SOL    HW1 7217   5.395   5.925   6.349
 2106SOL    HW2 7218   5.532   6.002   6.306
 2107SOL     OW 7219   2.665   5.172   0.404
 2107SOL    HW1 7220   2.717   5.104   0.353
 2107SOL    HW2 7221   2.676   5.261   0.362
 2108SOL     OW 7222   6.323   4.316   6.487
 2108SOL    HW1 7223   6.223   4.324   6.481
 2108SOL    HW2 7224   6.363   4.408   6.489
 2109SOL     OW 7225   5.636   5.813   2.514
 2109SOL    HW1 7226   5.560   5.792   2.452
 2109SOL    HW2 7227   5.709   5.747   2.501
 2110SOL     OW 7228   1.077   4.782   5.414
 2110SOL    HW1 7229   1.007   4.831   5.362
 2110SOL    HW2 7230   1.126   4.718   5.353
 2111SOL     OW 7231   1.976   2.004   6.625
 2111SOL    HW1 7232   2.072   2.027   6.639
 2111SOL    HW2 7233   1.926   2.086   6.598
 2112SOL     OW 7234   4.969   3.830   0.554
 2112SOL    HW1 7235   4.996   3.739   0.583
 2112SOL    HW2 7236   4.990   3.843   0.457
 2113SOL     OW 7237   6.646   2.070   3.159
 2113SOL    HW1 7238   6.693   2.121   3.231
 2113SOL    HW2 7239   6.554   2.046   3.189
 2114SOL     OW 7240   1.400   3.752   6.978
 2114SOL    HW1 7241   1.481   3.746   0.010
 2114SOL    HW2 7242   1.427   3.742   6.882
 2115SOL     OW 7243   4.018   5.444   2.086
 2115SOL    HW1 7244   4.005   5.538   2.118
 2115SOL    HW2 7245   4.044   5.445   1.990
 2116SOL     OW 7246   0.680   3.830   4.251
 2116SOL    HW1 7247   0.649   3.740   4.281
 2116SOL    HW2 7248   0.766   3.852   4.297
 2117SOL     OW 7249   6.790   5.948   6.172
 2117SOL    HW1 7250   6.775   6.009   6.094
 2117SOL    HW2 7251   6.838   5.998   6.244
 2118SOL     OW 7252   6.953   3.122   2.252
 2118SOL    HW1 7253   6.951   3.059   2.329
 2118SOL    HW2 7254   0.008   3.104   2.195
 2119SOL     OW 7255   4.385   6.321   0.271
 2119SOL    HW1 7256   4.422   6.380   0.200
 2119SOL    HW2 7257   4.458   6.293   0.333
 2120SOL     OW 7258   6.872   3.912   2.021
 2120SOL    HW1 7259   6.857   3.908   2.120
 2120SOL    HW2 7260   6.798   3.864   1.974
 2121SOL     OW 7261   0.329   3.599   5.212
 2121SOL    HW1 7262   0.320   3.519   5.270
 2121SOL    HW2 7263   0.390   3.665   5.255
 2122SOL     OW 7264   4.306   4.782   5.282
 2122SOL    HW1 7265   4.285   4.870   5.325
 2122SOL    HW2 7266   4.374   4.734   5.338
 2123SOL     OW 7267   4.962   5.531   3.371
 2123SOL    HW1 7268   4.922   5.592   3.440
 2123SOL    HW2 7269   4.894   5.463   3.345
 2124SOL     OW 7270   2.775   2.307   1.488
 2124SOL    HW1 7271   2.862   2.350   1.516
 2124SOL    HW2 7272   2.794   2.229   1.429
 2125SOL     OW 7273   4.944   6.158   0.452
 2125SOL    HW1 7274   5.012   6.123   0.517
 2125SOL    HW2 7275   4.977   6.245   0.414
 2126SOL     OW 7276   2.955   1.609   1.502
 2126SOL    HW1 7277   2.998   1.660   1.427
 2126SOL    HW2 7278   2.911   1.527   1.465
 2127SOL     OW 7279   5.548   2.756   4.542
 2127SOL    HW1 7280   5.478   2.785   4.477
 2127SOL    HW2 7281   5.605   2.834   4.566
 2128SOL     OW 7282   0.284   3.705   4.514
 2128SOL    HW1 7283   0.229   3.622   4.526
 2128SOL    HW2 7284   0.279   3.734   4.419
 2129SOL     OW 7285   4.443   2.346   4.877
 2129SOL    HW1 7286   4.416   2.353   4.781
 2129SOL    HW2 7287   4.509   2.272   4.888
 2130SOL     OW 7288   4.997   0.099   3.424
 2130SOL    HW1 7289   4.925   0.116   3.492
 2130SOL    HW2 7290   4.963   0.124   3.333
 2131SOL     OW 7291   5.159   1.881   6.732
 2131SOL    HW1 7292   5.132   1.962   6.783
 2131SOL    HW2 7293   5.187   1.907   6.640
 2132SOL     OW 7294   1.902   3.650   0.832
 2132SOL    HW1 7295   1.918   3.748   0.829
 2132SOL    HW2 7296   1.811   3.632   0.868
 2133SOL     OW 7297   2.190   4.533   6.201
 2133SOL    HW1 7298   2.203   4.627   6.169
 2133SOL    HW2 7299   2.175   4.533   6.300
 2134SOL     OW 7300   0.122   6.875   0.383
 2134SOL    HW1 7301   0.083   6.854   0.294
 2134SOL    HW2 7302   0.221   6.887   0.374
 2135SOL     OW 7303   6.745   5.067   5.476
 2135SOL    HW1 7304   6.683   4.990   5.492
 2135SOL    HW2 7305   6.744   5.127   5.556
 2136SOL     OW 7306   1.347   5.574   6.857
 2136SOL    HW1 7307   1.301   5.621   6.782
 2136SOL    HW2 7308   1.442   5.554   6.831
 2137SOL     OW 7309   1.416   6.360   3.648
 2137SOL    HW1 7310   1.491   6.333   3.708
 2137SOL    HW2 7311   1.440   6.445   3.600
 2138SOL     OW 7312   5.137   2.033   1.654
 2138SOL    HW1 7313   5.041   2.062   1.649
 2138SOL    HW2 7314   5.163   1.991   1.568
 2139SOL     OW 7315   3.234   6.111   5.717
 2139SOL    HW1 7316   3.312   6.162   5.681
 2139SOL    HW2 7317   3.202   6.046   5.648
 2140SOL     OW 7318   2.017   2.031   3.600
 2140SOL    HW1 7319   2.025   2.127   3.573
 2140SOL    HW2 7320   2.108   1.989   3.604
 2141SOL     OW 7321   6.803   3.185   3.360
 2141SOL    HW1 7322   6.871   3.186   3.286
 2141SOL    HW2 7323   6.740   3.109   3.346
 2142SOL     OW 7324   1.815   2.446   2.116
 2142SOL    HW1 7325   1.893   2.478   2.169
 2142SOL    HW2 7326   1.746   2.518   2.111
 2143SOL     OW 7327   6.843   5.623   5.490
 2143SOL    HW1 7328   6.932   5.621   5.445
 2143SOL    HW2 7329   6.834   5.541   5.548
 2144SOL     OW 7330   6.251   4.738   2.891
 2144SOL    HW1 7331   6.171   4.701   2.843
 2144SOL    HW2 7332   6.271   4.830   2.858
 2145SOL     OW 7333   4.055   1.432   2.898
 2145SOL    HW1 7334   4.055   1.531   2.913
 2145SOL    HW2 7335   3.971   1.406   2.849
 2146SOL     OW 7336   1.850   1.802   6.551
 2146SOL    HW1 7337   1.779   1.836   6.490
 2146SOL    HW2 7338   1.901   1.879   6.590
 2147SOL     OW 7339   6.133   7.010   4.866
 2147SOL    HW1 7340   6.092   6.979   4.952
 2147SOL    HW2 7341   6.065   0.038   4.815
 2148SOL     OW 7342   1.006   2.398   4.956
 2148SOL    HW1 7343   1.091   2.347   4.967
 2148SOL    HW2 7344   0.989   2.415   4.859
 2149SOL     OW 7345   0.351   6.517   0.168
 2149SOL    HW1 7346   0.436   6.568   0.162
 2149SOL    HW2 7347   0.293   6.539   0.090
 2150SOL     OW 7348   1.719   2.709   0.746
 2150SOL    HW1 7349   1.640   2.739   0.693
 2150SOL    HW2 7350   1.714   2.610   0.759
 2151SOL     OW 7351   0.783   4.811   6.544
 2151SOL    HW1 7352   0.805   4.783   6.638
 2151SOL    HW2 7353   0.853   4.874   6.511
 2152SOL     OW 7354   5.135   5.963   4.246
 2152SOL    HW1 7355   5.203   5.957   4.320
 2152SOL    HW2 7356   5.067   5.891   4.258
 2153SOL     OW 7357   4.771   6.986   3.821
 2153SOL    HW1 7358   4.684   6.965   3.866
 2153SOL    HW2 7359   4.823   6.901   3.809
 2154SOL     OW 7360   2.750   6.571   2.720
 2154SOL    HW1 7361   2.706   6.489   2.756
 2154SOL    HW2 7362   2.740   6.646   2.784
 2155SOL     OW 7363   4.602   0.979   1.082
 2155SOL    HW1 7364   4.611   0.891   1.129
 2155SOL    HW2 7365   4.508   0.991   1.050
 2156SOL     OW 7366   6.106   2.024   5.322
 2156SOL    HW1 7367   6.127   1.934   5.359
 2156SOL    HW2 7368   6.007   2.036   5.316
 2157SOL     OW 7369   4.250   6.313   3.953
 2157SOL    HW1 7370   4.258   6.272   4.044
 2157SOL    HW2 7371   4.224   6.409   3.961
 2158SOL     OW 7372   2.847   6.564   0.688
 2158SOL    HW1 7373   2.769   6.533   0.742
 2158SOL    HW2 7374   2.817   6.586   0.596
 2159SOL     OW 7375   0.220   0.967   5.722
 2159SOL    HW1 7376   0.195   0.916   5.804
 2159SOL    HW2 7377   0.136   0.991   5.672
 2160SOL     OW 7378   5.645   0.118   6.627
 2160SOL    HW1 7379   5.587   0.136   6.707
 2160SOL    HW2 7380   5.654   0.020   6.614
 2161SOL     OW 7381   1.585   3.869   0.529
 2161SOL    HW1 7382   1.642   3.787   0.517
 2161SOL    HW2 7383   1.594   3.901   0.623
 2162SOL     OW 7384   1.724   0.175   0.657
 2162SOL    HW1 7385   1.706   0.078   0.641
 2162SOL    HW2 7386   1.638   0.226   0.655
 2163SOL     OW 7387   1.045   2.944   3.921
 2163SOL    HW1 7388   0.976   2.995   3.972
 2163SOL    HW2 7389   1.087   2.876   3.981
 2164SOL     OW 7390   2.240   4.189   2.236
 2164SOL    HW1 7391   2.165   4.252   2.252
 2164SOL    HW2 7392   2.305   4.230   2.171
 2165SOL     OW 7393   6.094   1.309   5.041
 2165SOL    HW1 7394   6.009   1.350   5.073
 2165SOL    HW2 7395   6.080   1.211   5.024
 2166SOL     OW 7396   0.353   2.738   1.821
 2166SOL    HW1 7397   0.378   2.660   1.764
 2166SOL    HW2 7398   0.436   2.780   1.858
 2167SOL     OW 7399   1.414   2.266   3.307
 2167SOL    HW1 7400   1.382   2.323   3.382
 2167SOL    HW2 7401   1.512   2.282   3.291
 2168SOL     OW 7402   1.633   2.542   3.185
 2168SOL    HW1 7403   1.628   2.639   3.162
 2168SOL    HW2 7404   1.614   2.530   3.282
 2169SOL     OW 7405   6.904   0.414   1.156
 2169SOL    HW1 7406   6.997   0.449   1.172
 2169SOL    HW2 7407   6.883   0.346   1.226
 2170SOL     OW 7408   1.606   2.781   6.430
 2170SOL    HW1 7409   1.680   2.791   6.363
 2170SOL    HW2 7410   1.553   2.865   6.433
 2171SOL     OW 7411   6.907   5.909   1.508
 2171SOL    HW1 7412   6.903   5.944   1.602
 2171SOL    HW2 7413   6.867   5.976   1.446
 2172SOL     OW 7414   2.726   2.359   4.757
 2172SOL    HW1 7415   2.701   2.439   4.812
 2172SOL    HW2 7416   2.669   2.281   4.783
 2173SOL     OW 7417   4.862   0.586   4.627
 2173SOL    HW1 7418   4.842   0.624   4.717
 2173SOL    HW2 7419   4.777   0.576   4.575
 2174SOL     OW 7420   5.324   0.359   6.112
 2174SOL    HW1 7421   5.355   0.271   6.149
 2174SOL    HW2 7422   5.224   0.362   6.113
 2175SOL     OW 7423   3.657   2.982   5.928
 2175SOL    HW1 7424   3.583   2.927   5.889
 2175SOL    HW2 7425   3.669   3.065   5.874
 2176SOL     OW 7426   6.169   2.135   3.123
 2176SOL    HW1 7427   6.135   2.159   3.032
 2176SOL    HW2 7428   6.099   2.082   3.171
 2177SOL     OW 7429   0.939   0.840   5.818
 2177SOL    HW1 7430   1.015   0.820   5.756
 2177SOL    HW2 7431   0.974   0.878   5.903
 2178SOL     OW 7432   1.863   2.780   2.354
 2178SOL    HW1 7433   1.835   2.841   2.280
 2178SOL    HW2 7434   1.799   2.703   2.361
 2179SOL     OW 7435   1.075   4.158   0.201
 2179SOL    HW1 7436   1.001   4.218   0.173
 2179SOL    HW2 7437   1.039   4.066   0.216
 2180SOL     OW 7438   0.448   5.599   3.021
 2180SOL    HW1 7439   0.489   5.612   3.112
 2180SOL    HW2 7440   0.351   5.576   3.032
 2181SOL     OW 7441   3.969   4.861   4.067
 2181SOL    HW1 7442   3.872   4.865   4.044
 2181SOL    HW2 7443   4.023   4.849   3.983
 2182SOL     OW 7444   6.928   6.423   1.483
 2182SOL    HW1 7445   6.894   6.468   1.566
 2182SOL    HW2 7446   6.924   6.488   1.407
 2183SOL     OW 7447   3.440   3.306   6.859
 2183SOL    HW1 7448   3.469   3.372   6.929
 2183SOL    HW2 7449   3.386   3.354   6.790
 2184SOL     OW 7450   6.365   1.708   0.219
 2184SOL    HW1 7451   6.358   1.704   0.319
 2184SOL    HW2 7452   6.302   1.641   0.179
 2185SOL     OW 7453   0.990   1.637   6.300
 2185SOL    HW1 7454   0.927   1.630   6.223
 2185SOL    HW2 7455   1.046   1.554   6.304
 2186SOL     OW 7456   6.762   6.332   5.211
 2186SOL    HW1 7457   6.663   6.325   5.194
 2186SOL    HW2 7458   6.782   6.300   5.303
 2187SOL     OW 7459   5.779   4.630   1.469
 2187SOL    HW1 7460   5.874   4.643   1.443
 2187SOL    HW2 7461   5.740   4.555   1.414
 2188SOL     OW 7462   3.078   0.868   0.761
 2188SOL    HW1 7463   3.143   0.801   0.798
 2188SOL    HW2 7464   3.005   0.885   0.828
 2189SOL     OW 7465   1.805   0.322   2.384
 2189SOL    HW1 7466   1.770   0.415   2.390
 2189SOL    HW2 7467   1.800   0.278   2.473
 2190SOL     OW 7468   6.475   5.024   2.172
 2190SOL    HW1 7469   6.523   4.947   2.130
 2190SOL    HW2 7470   6.541   5.096   2.194
 2191SOL     OW 7471   3.739   6.813   0.028
 2191SOL    HW1 7472   3.713   6.717   0.030
 2191SOL    HW2 7473   3.704   6.859   0.109
 2192SOL     OW 7474   4.739   2.105   2.051
 2192SOL    HW1 7475   4.765   2.201   2.050
 2192SOL    HW2 7476   4.751   2.066   1.959
 2193SOL     OW 7477   1.528   0.781   4.787
 2193SOL    HW1 7478   1.519   0.762   4.885
 2193SOL    HW2 7479   1.559   0.699   4.740
 2194SOL     OW 7480   0.613   4.646   5.187
 2194SOL    HW1 7481   0.518   4.632   5.212
 2194SOL    HW2 7482   0.671   4.580   5.236
 2195SOL     OW 7483   0.269   3.570   5.627
 2195SOL    HW1 7484   0.193   3.577   5.563
 2195SOL    HW2 7485   0.328   3.493   5.602
 2196SOL     OW 7486   3.794   1.076   6.837
 2196SOL    HW1 7487   3.834   0.994   6.796
 2196SOL    HW2 7488   3.826   1.156   6.786
 2197SOL     OW 7489   3.986   5.356   6.708
 2197SOL    HW1 7490   3.924   5.348   6.786
 2197SOL    HW2 7491   3.940   5.404   6.634
 2198SOL     OW 7492   1.650   1.433   6.568
 2198SOL    HW1 7493   1.723   1.373   6.601
 2198SOL    HW2 7494   1.596   1.386   6.499
 2199SOL     OW 7495   3.820   6.357   3.998
 2199SOL    HW1 7496   3.830   6.406   3.912
 2199SOL    HW2 7497   3.860   6.266   3.990
 2200SOL     OW 7498   2.430   2.281   4.467
 2200SOL    HW1 7499   2.498   2.272   4.394
 2200SOL    HW2 7500   2.457   2.356   4.528
 2201SOL     OW 7501   5.583   3.645   4.814
 2201SOL    HW1 7502   5.567   3.597   4.900
 2201SOL    HW2 7503   5.681   3.663   4.804
 2202SOL     OW 7504   3.689   6.722   4.058
 2202SOL    HW1 7505   3.735   6.725   4.147
 2202SOL    HW2 7506   3.755   6.695   3.988
 2203SOL     OW 7507   2.049   5.440   0.934
 2203SOL    HW1 7508   2.103   5.356   0.933
 2203SOL    HW2 7509   2.106   5.516   0.964
 2204SOL     OW 7510   5.136   2.992   1.056
 2204SOL    HW1 7511   5.111   2.935   0.978
 2204SOL    HW2 7512   5.139   2.935   1.138
 2205SOL     OW 7513   5.746   5.581   1.059
 2205SOL    HW1 7514   5.677   5.509   1.052
 2205SOL    HW2 7515   5.831   5.542   1.094
 2206SOL     OW 7516   3.446   2.842   5.806
 2206SOL    HW1 7517   3.367   2.879   5.855
 2206SOL    HW2 7518   3.421   2.822   5.712
 2207SOL     OW 7519   4.765   5.776   2.025
 2207SOL    HW1 7520   4.734   5.744   2.114
 2207SOL    HW2 7521   4.818   5.704   1.980
 2208SOL     OW 7522   6.593   6.505   2.917
 2208SOL    HW1 7523   6.610   6.407   2.912
 2208SOL    HW2 7524   6.649   6.552   2.849
 2209SOL     OW 7525   2.343   5.241   3.604
 2209SOL    HW1 7526   2.383   5.151   3.620
 2209SOL    HW2 7527   2.397   5.290   3.536
 2210SOL     OW 7528   5.082   6.597   1.822
 2210SOL    HW1 7529   5.117   6.531   1.888
 2210SOL    HW2 7530   5.005   6.647   1.861
 2211SOL     OW 7531   1.389   1.621   1.490
 2211SOL    HW1 7532   1.424   1.528   1.500
 2211SOL    HW2 7533   1.434   1.666   1.414
 2212SOL     OW 7534   2.923   5.665   6.041
 2212SOL    HW1 7535   2.945   5.732   6.113
 2212SOL    HW2 7536   2.999   5.661   5.976
 2213SOL     OW 7537   3.505   1.479   4.390
 2213SOL    HW1 7538   3.539   1.388   4.413
 2213SOL    HW2 7539   3.527   1.542   4.464
 2214SOL     OW 7540   4.356   4.411   6.554
 2214SOL    HW1 7541   4.300   4.331   6.530
 2214SOL    HW2 7542   4.425   4.384   6.621
 2215SOL     OW 7543   5.583   5.498   6.794
 2215SOL    HW1 7544   5.552   5.592   6.777
 2215SOL    HW2 7545   5.647   5.471   6.722
 2216SOL     OW 7546   0.266   5.830   0.201
 2216SOL    HW1 7547   0.233   5.894   0.132
 2216SOL    HW2 7548   0.339   5.773   0.163
 2217SOL     OW 7549   4.154   1.461   3.542
 2217SOL    HW1 7550   4.226   1.517   3.583
 2217SOL    HW2 7551   4.155   1.370   3.584
 2218SOL     OW 7552   6.534   5.585   5.513
 2218SOL    HW1 7553   6.555   5.683   5.513
 2218SOL    HW2 7554   6.573   5.542   5.432
 2219SOL     OW 7555   5.538   2.164   0.744
 2219SOL    HW1 7556   5.536   2.216   0.659
 2219SOL    HW2 7557   5.509   2.222   0.820
 2220SOL     OW 7558   6.721   6.597   4.169
 2220SOL    HW1 7559   6.730   6.524   4.101
 2220SOL    HW2 7560   6.627   6.629   4.171
 2221SOL     OW 7561   5.593   0.784   4.204
 2221SOL    HW1 7562   5.553   0.700   4.240
 2221SOL    HW2 7563   5.553   0.805   4.115
 2222SOL     OW 7564   3.401   1.193   3.584
 2222SOL    HW1 7565   3.307   1.223   3.571
 2222SOL    HW2 7566   3.457   1.271   3.613
 2223SOL     OW 7567   0.749   0.212   5.271
 2223SOL    HW1 7568   0.770   0.125   5.225
 2223SOL    HW2 7569   0.746   0.198   5.370
 2224SOL     OW 7570   5.483   4.208   6.620
 2224SOL    HW1 7571   5.398   4.191   6.669
 2224SOL    HW2 7572   5.479   4.164   6.530
 2225SOL     OW 7573   6.772   6.578   1.044
 2225SOL    HW1 7574   6.833   6.626   0.981
 2225SOL    HW2 7575   6.784   6.616   1.136
 2226SOL     OW 7576   2.596   3.363   0.055
 2226SOL    HW1 7577   2.639   3.300   7.016
 2226SOL    HW2 7578   2.664   3.394   0.121
 2227SOL     OW 7579   4.151   2.166   1.862
 2227SOL    HW1 7580   4.139   2.220   1.946
 2227SOL    HW2 7581   4.242   2.123   1.863
 2228SOL     OW 7582   5.135   6.766   6.493
 2228SOL    HW1 7583   5.114   6.720   6.579
 2228SOL    HW2 7584   5.216   6.725   6.451
 2229SOL     OW 7585   2.912   3.638   4.305
 2229SOL    HW1 7586   2.986   3.610   4.244
 2229SOL    HW2 7587   2.942   3.715   4.361
 2230SOL     OW 7588   6.570   0.675   6.257
 2230SOL    HW1 7589   6.515   0.731   6.319
 2230SOL    HW2 7590   6.654   0.647   6.303
 2231SOL     OW 7591   1.439   7.014   6.274
 2231SOL    HW1 7592   1.391   6.964   6.346
 2231SOL    HW2 7593   1.383   7.017   6.192
 2232SOL     OW 7594   1.907   0.783   6.521
 2232SOL    HW1 7595   1.844   0.832   6.581
 2232SOL    HW2 7596   1.998   0.824   6.527
 2233SOL     OW 7597   2.779   4.937   1.054
 2233SOL    HW1 7598   2.853   4.976   1.108
 2233SOL    HW2 7599   2.786   4.968   0.959
 2234SOL     OW 7600   4.875   2.115   1.558
 2234SOL    HW1 7601   4.784   2.152   1.574
 2234SOL    HW2 7602   4.868   2.018   1.533
 2235SOL     OW 7603   0.637   1.957   2.990
 2235SOL    HW1 7604   0.643   1.858   2.977
 2235SOL    HW2 7605   0.559   1.993   2.939
 2236SOL     OW 7606   2.696   4.823   5.188
 2236SOL    HW1 7607   2.721   4.912   5.151
 2236SOL    HW2 7608   2.748   4.752   5.141
 2237SOL     OW 7609   5.951   6.705   6.262
 2237SOL    HW1 7610   5.902   6.678   6.179
 2237SOL    HW2 7611   5.885   6.722   6.336
 2238SOL     OW 7612   5.837   3.885   2.297
 2238SOL    HW1 7613   5.926   3.844   2.277
 2238SOL    HW2 7614   5.765   3.818   2.282
 2239SOL     OW 7615   4.103   0.110   2.988
 2239SOL    HW1 7616   4.196   0.145   3.002
 2239SOL    HW2 7617   4.108   0.021   2.942
 2240SOL     OW 7618   4.707   5.294   2.112
 2240SOL    HW1 7619   4.681   5.214   2.166
 2240SOL    HW2 7620   4.804   5.314   2.126
 2241SOL     OW 7621   0.908   1.695   3.306
 2241SOL    HW1 7622   0.845   1.665   3.234
 2241SOL    HW2 7623   1.000   1.659   3.287
 2242SOL     OW 7624   5.624   2.508   4.122
 2242SOL    HW1 7625   5.681   2.518   4.203
 2242SOL    HW2 7626   5.654   2.572   4.051
 2243SOL     OW 7627   2.307   0.363   0.376
 2243SOL    HW1 7628   2.398   0.338   0.408
 2243SOL    HW2 7629   2.298   0.342   0.278
 2244SOL     OW 7630   2.902   1.958   1.104
 2244SOL    HW1 7631   2.954   1.993   1.026
 2244SOL    HW2 7632   2.881   2.034   1.166
 2245SOL     OW 7633   0.114   0.920   0.347
 2245SOL    HW1 7634   0.203   0.906   0.305
 2245SOL    HW2 7635   0.044   0.872   0.295
 2246SOL     OW 7636   5.389   1.051   5.821
 2246SOL    HW1 7637   5.368   1.009   5.732
 2246SOL    HW2 7638   5.328   1.013   5.890
 2247SOL     OW 7639   2.941   3.390   1.643
 2247SOL    HW1 7640   2.906   3.405   1.735
 2247SOL    HW2 7641   2.992   3.304   1.640
 2248SOL     OW 7642   4.829   3.032   4.501
 2248SOL    HW1 7643   4.776   2.951   4.523
 2248SOL    HW2 7644   4.835   3.043   4.402
 2249SOL     OW 7645   2.048   6.526   4.127
 2249SOL    HW1 7646   1.984   6.475   4.184
 2249SOL    HW2 7647   2.087   6.465   4.058
 2250SOL     OW 7648   4.526   5.683   6.195
 2250SOL    HW1 7649   4.578   5.764   6.222
 2250SOL    HW2 7650   4.435   5.687   6.237
 2251SOL     OW 7651   4.120   6.839   4.867
 2251SOL    HW1 7652   4.040   6.817   4.812
 2251SOL    HW2 7653   4.190   6.769   4.853
 2252SOL     OW 7654   3.830   1.222   2.713
 2252SOL    HW1 7655   3.795   1.314   2.731
 2252SOL    HW2 7656   3.847   1.212   2.615
 2253SOL     OW 7657   0.860   3.395   1.906
 2253SOL    HW1 7658   0.938   3.385   1.968
 2253SOL    HW2 7659   0.817   3.306   1.892
 2254SOL     OW 7660   3.445   2.903   3.308
 2254SOL    HW1 7661   3.539   2.873   3.329
 2254SOL    HW2 7662   3.396   2.920   3.393
 2255SOL     OW 7663   1.603   2.573   6.025
 2255SOL    HW1 7664   1.594   2.573   6.124
 2255SOL    HW2 7665   1.587   2.480   5.990
 2256SOL     OW 7666   5.057   0.472   1.468
 2256SOL    HW1 7667   5.021   0.477   1.561
 2256SOL    HW2 7668   5.068   0.564   1.431
 2257SOL     OW 7669   0.401   0.332   6.006
 2257SOL    HW1 7670   0.383   0.424   5.971
 2257SOL    HW2 7671   0.472   0.336   6.076
 2258SOL     OW 7672   1.917   6.856   3.678
 2258SOL    HW1 7673   1.988   6.922   3.655
 2258SOL    HW2 7674   1.936   6.816   3.768
 2259SOL     OW 7675   5.696   0.209   4.700
 2259SOL    HW1 7676   5.690   0.307   4.722
 2259SOL    HW2 7677   5.660   0.194   4.609
 2260SOL     OW 7678   1.504   3.652   1.308
 2260SOL    HW1 7679   1.485   3.615   1.217
 2260SOL    HW2 7680   1.579   3.718   1.303
 2261SOL     OW 7681   5.193   4.218   6.127
 2261SOL    HW1 7682   5.130   4.147   6.095
 2261SOL    HW2 7683   5.178   4.302   6.073
 2262SOL     OW 7684   6.993   6.754   3.854
 2262SOL    HW1 7685   0.044   6.816   3.837
 2262SOL    HW2 7686   6.947   6.780   3.939
 2263SOL     OW 7687   2.328   4.562   6.464
 2263SOL    HW1 7688   2.419   4.547   6.425
 2263SOL    HW2 7689   2.326   4.649   6.512
 2264SOL     OW 7690   2.090   0.377   6.711
 2264SOL    HW1 7691   2.181   0.417   6.710
 2264SOL    HW2 7692   2.083   0.308   6.639
 2265SOL     OW 7693   0.294   6.519   3.579
 2265SOL    HW1 7694   0.280   6.466   3.496
 2265SOL    HW2 7695   0.207   6.531   3.626
 2266SOL     OW 7696   4.695   3.726   6.393
 2266SOL    HW1 7697   4.705   3.809   6.449
 2266SOL    HW2 7698   4.769   3.722   6.326
 2267SOL     OW 7699   5.675   2.902   4.235
 2267SOL    HW1 7700   5.770   2.872   4.226
 2267SOL    HW2 7701   5.668   2.970   4.308
 2268SOL     OW 7702   0.868   6.222   5.349
 2268SOL    HW1 7703   0.880   6.122   5.345
 2268SOL    HW2 7704   0.873   6.252   5.444
 2269SOL     OW 7705   2.247   2.612   5.856
 2269SOL    HW1 7706   2.303   2.570   5.784
 2269SOL    HW2 7707   2.304   2.675   5.909
 2270SOL     OW 7708   5.355   2.218   6.173
 2270SOL    HW1 7709   5.255   2.212   6.165
 2270SOL    HW2 7710   5.395   2.222   6.082
 2271SOL     OW 7711   3.977   5.504   5.376
 2271SOL    HW1 7712   4.046   5.531   5.308
 2271SOL    HW2 7713   4.014   5.517   5.468
 2272SOL     OW 7714   5.881   1.488   6.219
 2272SOL    HW1 7715   5.825   1.408   6.198
 2272SOL    HW2 7716   5.925   1.520   6.135
 2273SOL     OW 7717   0.784   2.729   3.972
 2273SOL    HW1 7718   0.732   2.702   3.891
 2273SOL    HW2 7719   0.765   2.824   3.995
 2274SOL     OW 7720   1.016   1.153   6.926
 2274SOL    HW1 7721   1.067   1.227   6.969
 2274SOL    HW2 7722   0.984   1.182   6.835
 2275SOL     OW 7723   5.726   3.817   3.462
 2275SOL    HW1 7724   5.661   3.862   3.402
 2275SOL    HW2 7725   5.729   3.719   3.441
 2276SOL     OW 7726   1.849   1.756   1.004
 2276SOL    HW1 7727   1.855   1.683   1.072
 2276SOL    HW2 7728   1.802   1.722   0.923
 2277SOL     OW 7729   3.666   3.369   3.546
 2277SOL    HW1 7730   3.575   3.402   3.525
 2277SOL    HW2 7731   3.692   3.395   3.639
 2278SOL     OW 7732   6.789   2.990   3.956
 2278SOL    HW1 7733   6.781   2.895   3.985
 2278SOL    HW2 7734   6.736   3.004   3.873
 2279SOL     OW 7735   1.415   4.911   5.796
 2279SOL    HW1 7736   1.450   4.861   5.875
 2279SOL    HW2 7737   1.338   4.861   5.756
 2280SOL     OW 7738   4.873   2.491   5.652
 2280SOL    HW1 7739   4.881   2.528   5.745
 2280SOL    HW2 7740   4.848   2.394   5.657
 2281SOL     OW 7741   5.170   6.913   2.227
 2281SOL    HW1 7742   5.241   6.965   2.179
 2281SOL    HW2 7743   5.127   6.972   2.296
 2282SOL     OW 7744   3.640   5.594   6.109
 2282SOL    HW1 7745   3.713   5.545   6.062
 2282SOL    HW2 7746   3.566   5.613   6.043
 2283SOL     OW 7747   0.058   0.778   4.944
 2283SOL    HW1 7748   7.008   0.713   4.944
 2283SOL    HW2 7749   0.023   0.871   4.955
 2284SOL     OW 7750   1.976   3.752   6.473
 2284SOL    HW1 7751   1.923   3.832   6.502
 2284SOL    HW2 7752   1.940   3.670   6.518
 2285SOL     OW 7753   1.340   4.825   6.348
 2285SOL    HW1 7754   1.410   4.758   6.322
 2285SOL    HW2 7755   1.250   4.791   6.322
 2286SOL     OW 7756   4.568   4.376   2.645
 2286SOL    HW1 7757   4.544   4.443   2.715
 2286SOL    HW2 7758   4.607   4.295   2.689
 2287SOL     OW 7759   1.388   1.691   4.456
 2287SOL    HW1 7760   1.404   1.655   4.363
 2287SOL    HW2 7761   1.419   1.786   4.460
 2288SOL     OW 7762   6.713   5.519   2.505
 2288SOL    HW1 7763   6.720   5.617   2.486
 2288SOL    HW2 7764   6.766   5.468   2.437
 2289SOL     OW 7765   0.462   5.221   0.347
 2289SOL    HW1 7766   0.533   5.273   0.394
 2289SOL    HW2 7767   0.399   5.284   0.302
 2290SOL     OW 7768   0.832   5.575   6.301
 2290SOL    HW1 7769   0.806   5.659   6.348
 2290SOL    HW2 7770   0.855   5.505   6.369
 2291SOL     OW 7771   2.112   1.595   6.942
 2291SOL    HW1 7772   2.106   1.677   6.999
 2291SOL    HW2 7773   2.177   1.611   6.868
 2292SOL     OW 7774   1.831   1.155   4.065
 2292SOL    HW1 7775   1.757   1.221   4.072
 2292SOL    HW2 7776   1.880   1.151   4.153
 2293SOL     OW 7777   5.855   3.841   2.816
 2293SOL    HW1 7778   5.883   3.916   2.756
 2293SOL    HW2 7779   5.756   3.827   2.809
 2294SOL     OW 7780   4.273   6.732   0.399
 2294SOL    HW1 7781   4.340   6.806   0.403
 2294SOL    HW2 7782   4.227   6.724   0.487
 2295SOL     OW 7783   1.063   1.176   2.109
 2295SOL    HW1 7784   1.099   1.268   2.091
 2295SOL    HW2 7785   1.077   1.119   2.029
 2296SOL     OW 7786   3.203   6.273   0.514
 2296SOL    HW1 7787   3.242   6.182   0.502
 2296SOL    HW2 7788   3.152   6.299   0.432
 2297SOL     OW 7789   4.468   6.739   0.073
 2297SOL    HW1 7790   4.528   6.687   0.013
 2297SOL    HW2 7791   4.490   6.836   0.066
 2298SOL     OW 7792   3.906   3.366   6.659
 2298SOL    HW1 7793   3.879   3.436   6.725
 2298SOL    HW2 7794   4.002   3.341   6.675
 2299SOL     OW 7795   4.339   0.024   0.630
 2299SOL    HW1 7796   4.245   7.018   0.637
 2299SOL    HW2 7797   4.378   7.019   0.542
 2300SOL     OW 7798   1.107   4.738   1.352
 2300SOL    HW1 7799   1.108   4.788   1.265
 2300SOL    HW2 7800   1.191   4.758   1.402
 2301SOL     OW 7801   3.810   3.772   1.847
 2301SOL    HW1 7802   3.804   3.871   1.856
 2301SOL    HW2 7803   3.726   3.729   1.883
 2302SOL     OW 7804   2.179   5.214   2.955
 2302SOL    HW1 7805   2.277   5.233   2.966
 2302SOL    HW2 7806   2.167   5.133   2.897
 2303SOL     OW 7807   0.016   2.865   6.196
 2303SOL    HW1 7808   0.076   2.886   6.273
 2303SOL    HW2 7809   0.023   2.938   6.128
 2304SOL     OW 7810   2.076   1.463   4.675
 2304SOL    HW1 7811   2.051   1.516   4.595
 2304SOL    HW2 7812   2.057   1.516   4.758
 2305SOL     OW 7813   4.247   4.725   1.832
 2305SOL    HW1 7814   4.298   4.705   1.916
 2305SOL    HW2 7815   4.253   4.647   1.770
 2306SOL     OW 7816   0.312   4.399   0.461
 2306SOL    HW1 7817   0.333   4.454   0.379
 2306SOL    HW2 7818   0.394   4.390   0.517
 2307SOL     OW 7819   0.661   1.677   2.964
 2307SOL    HW1 7820   0.578   1.642   2.922
 2307SOL    HW2 7821   0.697   1.610   3.028
 2308SOL     OW 7822   1.043   6.835   0.455
 2308SOL    HW1 7823   1.061   6.903   0.526
 2308SOL    HW2 7824   1.116   6.766   0.456
 2309SOL     OW 7825   2.373   5.167   5.905
 2309SOL    HW1 7826   2.276   5.143   5.910
 2309SOL    HW2 7827   2.385   5.241   5.839
 2310SOL     OW 7828   5.650   1.437   3.105
 2310SOL    HW1 7829   5.683   1.360   3.159
 2310SOL    HW2 7830   5.639   1.517   3.164
 2311SOL     OW 7831   2.687   0.696   2.489
 2311SOL    HW1 7832   2.664   0.697   2.392
 2311SOL    HW2 7833   2.785   0.676   2.499
 2312SOL     OW 7834   2.319   0.960   2.472
 2312SOL    HW1 7835   2.400   0.919   2.513
 2312SOL    HW2 7836   2.303   1.050   2.513
 2313SOL     OW 7837   5.077   4.203   1.835
 2313SOL    HW1 7838   5.129   4.151   1.902
 2313SOL    HW2 7839   5.002   4.251   1.880
 2314SOL     OW 7840   6.287   6.540   2.988
 2314SOL    HW1 7841   6.234   6.529   2.904
 2314SOL    HW2 7842   6.384   6.525   2.969
 2315SOL     OW 7843   4.454   6.044   4.965
 2315SOL    HW1 7844   4.438   6.090   4.878
 2315SOL    HW2 7845   4.437   5.946   4.955
 2316SOL     OW 7846   3.006   1.313   5.789
 2316SOL    HW1 7847   3.073   1.379   5.755
 2316SOL    HW2 7848   3.033   1.221   5.760
 2317SOL     OW 7849   6.964   5.140   2.997
 2317SOL    HW1 7850   6.957   5.173   3.091
 2317SOL    HW2 7851   6.974   5.219   2.935
 2318SOL     OW 7852   0.794   4.470   4.118
 2318SOL    HW1 7853   0.751   4.462   4.028
 2318SOL    HW2 7854   0.857   4.548   4.117
 2319SOL     OW 7855   1.541   5.635   3.496
 2319SOL    HW1 7856   1.461   5.681   3.536
 2319SOL    HW2 7857   1.623   5.690   3.513
 2320SOL     OW 7858   0.917   1.913   5.380
 2320SOL    HW1 7859   0.857   1.893   5.457
 2320SOL    HW2 7860   0.922   2.012   5.368
 2321SOL     OW 7861   1.819   4.878   5.455
 2321SOL    HW1 7862   1.915   4.881   5.483
 2321SOL    HW2 7863   1.812   4.838   5.364
 2322SOL     OW 7864   1.728   3.740   1.671
 2322SOL    HW1 7865   1.770   3.715   1.583
 2322SOL    HW2 7866   1.712   3.657   1.725
 2323SOL     OW 7867   2.743   5.317   0.848
 2323SOL    HW1 7868   2.661   5.259   0.855
 2323SOL    HW2 7869   2.716   5.413   0.849
 2324SOL     OW 7870   6.756   5.187   2.483
 2324SOL    HW1 7871   6.829   5.244   2.444
 2324SOL    HW2 7872   6.790   5.094   2.497
 2325SOL     OW 7873   6.317   5.435   2.298
 2325SOL    HW1 7874   6.296   5.518   2.246
 2325SOL    HW2 7875   6.348   5.461   2.390
 2326SOL     OW 7876   1.868   0.463   0.148
 2326SOL    HW1 7877   1.819   0.458   0.060
 2326SOL    HW2 7878   1.875   0.371   0.187
 2327SOL     OW 7879   6.881   6.893   2.234
 2327SOL    HW1 7880   6.873   6.794   2.226
 2327SOL    HW2 7881   6.890   6.934   2.143
 2328SOL     OW 7882   1.881   3.986   2.410
 2328SOL    HW1 7883   1.941   4.012   2.334
 2328SOL    HW2 7884   1.936   3.975   2.493
 2329SOL     OW 7885   0.380   4.826   3.107
 2329SOL    HW1 7886   0.325   4.905   3.136
 2329SOL    HW2 7887   0.319   4.749   3.086
 2330SOL     OW 7888   6.208   3.279   0.939
 2330SOL    HW1 7889   6.224   3.325   1.026
 2330SOL    HW2 7890   6.228   3.342   0.864
 2331SOL     OW 7891   4.927   5.710   1.291
 2331SOL    HW1 7892   4.944   5.786   1.228
 2331SOL    HW2 7893   4.936   5.742   1.385
 2332SOL     OW 7894   5.730   6.982   5.952
 2332SOL    HW1 7895   5.633   6.962   5.946
 2332SOL    HW2 7896   5.757   6.991   6.048
 2333SOL     OW 7897   0.819   4.417   2.330
 2333SOL    HW1 7898   0.852   4.460   2.414
 2333SOL    HW2 7899   0.764   4.482   2.278
 2334SOL     OW 7900   2.924   1.455   6.388
 2334SOL    HW1 7901   2.851   1.495   6.442
 2334SOL    HW2 7902   2.885   1.408   6.309
 2335SOL     OW 7903   6.737   1.672   3.380
 2335SOL    HW1 7904   6.776   1.601   3.322
 2335SOL    HW2 7905   6.773   1.761   3.353
 2336SOL     OW 7906   1.572   1.847   3.633
 2336SOL    HW1 7907   1.496   1.859   3.696
 2336SOL    HW2 7908   1.648   1.906   3.661
 2337SOL     OW 7909   3.860   1.507   1.614
 2337SOL    HW1 7910   3.908   1.588   1.645
 2337SOL    HW2 7911   3.786   1.485   1.678
 2338SOL     OW 7912   6.962   3.818   4.009
 2338SOL    HW1 7913   6.895   3.749   4.036
 2338SOL    HW2 7914   0.008   3.825   4.078
 2339SOL     OW 7915   3.124   3.083   3.587
 2339SOL    HW1 7916   3.224   3.075   3.578
 2339SOL    HW2 7917   3.081   3.059   3.500
 2340SOL     OW 7918   2.231   4.641   6.959
 2340SOL    HW1 7919   2.206   4.710   6.891
 2340SOL    HW2 7920   2.241   4.552   6.914
 2341SOL     OW 7921   2.389   4.367   4.079
 2341SOL    HW1 7922   2.480   4.379   4.039
 2341SOL    HW2 7923   2.361   4.452   4.124
 2342SOL     OW 7924   3.209   1.124   4.020
 2342SOL    HW1 7925   3.271   1.046   4.024
 2342SOL    HW2 7926   3.203   1.168   4.109
 2343SOL     OW 7927   0.773   6.973   1.654
 2343SOL    HW1 7928   0.743   6.878   1.660
 2343SOL    HW2 7929   0.716   0.004   1.714
 2344SOL     OW 7930   5.664   4.270   0.308
 2344SOL    HW1 7931   5.763   4.276   0.316
 2344SOL    HW2 7932   5.628   4.211   0.380
 2345SOL     OW 7933   3.447   6.057   4.790
 2345SOL    HW1 7934   3.408   5.967   4.769
 2345SOL    HW2 7935   3.381   6.128   4.767
 2346SOL     OW 7936   4.687   3.743   0.181
 2346SOL    HW1 7937   4.699   3.841   0.166
 2346SOL    HW2 7938   4.708   3.720   0.276
 2347SOL     OW 7939   2.061   1.866   1.442
 2347SOL    HW1 7940   2.073   1.781   1.493
 2347SOL    HW2 7941   2.063   1.943   1.505
 2348SOL     OW 7942   0.467   5.006   2.276
 2348SOL    HW1 7943   0.470   4.957   2.189
 2348SOL    HW2 7944   0.512   5.095   2.265
 2349SOL     OW 7945   1.046   4.380   5.318
 2349SOL    HW1 7946   1.044   4.327   5.403
 2349SOL    HW2 7947   1.125   4.441   5.319
 2350SOL     OW 7948   5.240   3.446   0.146
 2350SOL    HW1 7949   5.148   3.408   0.155
 2350SOL    HW2 7950   5.236   3.545   0.159
 2351SOL     OW 7951   2.650   5.847   2.203
 2351SOL    HW1 7952   2.613   5.782   2.135
 2351SOL    HW2 7953   2.743   5.820   2.227
 2352SOL     OW 7954   0.057   2.374   3.441
 2352SOL    HW1 7955   0.096   2.464   3.419
 2352SOL    HW2 7956   6.998   2.360   3.389
 2353SOL     OW 7957   2.922   5.112   4.306
 2353SOL    HW1 7958   3.009   5.124   4.353
 2353SOL    HW2 7959   2.851   5.166   4.351
 2354SOL     OW 7960   2.401   2.503   4.077
 2354SOL    HW1 7961   2.386   2.419   4.130
 2354SOL    HW2 7962   2.314   2.547   4.058
 2355SOL     OW 7963   2.575   5.763   5.229
 2355SOL    HW1 7964   2.562   5.751   5.131
 2355SOL    HW2 7965   2.567   5.675   5.276
 2356SOL     OW 7966   6.735   3.055   6.831
 2356SOL    HW1 7967   6.658   2.993   6.836
 2356SOL    HW2 7968   6.816   3.012   6.871
 2357SOL     OW 7969   2.114   6.626   3.177
 2357SOL    HW1 7970   2.072   6.659   3.261
 2357SOL    HW2 7971   2.202   6.583   3.198
 2358SOL     OW 7972   3.537   4.543   5.843
 2358SOL    HW1 7973   3.475   4.480   5.795
 2358SOL    HW2 7974   3.616   4.492   5.877
 2359SOL     OW 7975   2.022   0.224   4.553
 2359SOL    HW1 7976   1.943   0.285   4.552
 2359SOL    HW2 7977   2.010   0.155   4.625
 2360SOL     OW 7978   6.577   4.415   0.051
 2360SOL    HW1 7979   6.511   4.394   0.123
 2360SOL    HW2 7980   6.528   4.434   6.991
 2361SOL     OW 7981   3.280   1.386   0.259
 2361SOL    HW1 7982   3.372   1.350   0.242
 2361SOL    HW2 7983   3.212   1.320   0.228
 2362SOL     OW 7984   2.928   5.865   3.316
 2362SOL    HW1 7985   2.982   5.949   3.322
 2362SOL    HW2 7986   2.866   5.869   3.238
 2363SOL     OW 7987   4.010   0.568   4.109
 2363SOL    HW1 7988   4.002   0.632   4.185
 2363SOL    HW2 7989   3.919   0.539   4.080
 2364SOL     OW 7990   1.122   2.450   1.406
 2364SOL    HW1 7991   1.143   2.393   1.327
 2364SOL    HW2 7992   1.206   2.489   1.443
 2365SOL     OW 7993   4.983   2.393   6.885
 2365SOL    HW1 7994   4.979   2.298   6.917
 2365SOL    HW2 7995   4.996   2.454   6.963
 2366SOL     OW 7996   4.584   5.356   0.690
 2366SOL    HW1 7997   4.605   5.374   0.594
 2366SOL    HW2 7998   4.576   5.258   0.705
 2367SOL     OW 7999   2.417   3.814   5.908
 2367SOL    HW1 8000   2.516   3.809   5.900
 2367SOL    HW2 8001   2.376   3.820   5.817
 2368SOL     OW 8002   6.275   6.130   2.270
 2368SOL    HW1 8003   6.200   6.139   2.204
 2368SOL    HW2 8004   6.267   6.043   2.318
 2369SOL     OW 8005   2.311   0.897   3.422
 2369SOL    HW1 8006   2.320   0.971   3.356
 2369SOL    HW2 8007   2.220   0.900   3.463
 2370SOL     OW 8008   6.296   2.663   6.405
 2370SOL    HW1 8009   6.312   2.626   6.314
 2370SOL    HW2 8010   6.198   2.675   6.419
 2371SOL     OW 8011   2.484   6.258   1.732
 2371SOL    HW1 8012   2.548   6.212   1.793
 2371SOL    HW2 8013   2.490   6.218   1.641
 2372SOL     OW 8014   6.395   3.131   2.824
 2372SOL    HW1 8015   6.363   3.069   2.753
 2372SOL    HW2 8016   6.422   3.218   2.782
 2373SOL     OW 8017   2.613   3.430   6.538
 2373SOL    HW1 8018   2.622   3.518   6.492
 2373SOL    HW2 8019   2.658   3.359   6.483
 2374SOL     OW 8020   5.657   3.002   4.582
 2374SOL    HW1 8021   5.699   3.053   4.507
 2374SOL    HW2 8022   5.622   3.066   4.650
 2375SOL     OW 8023   2.238   7.020   5.641
 2375SOL    HW1 8024   2.301   6.957   5.596
 2375SOL    HW2 8025   2.165   6.967   5.685
 2376SOL     OW 8026   6.435   2.653   4.575
 2376SOL    HW1 8027   6.363   2.651   4.507
 2376SOL    HW2 8028   6.520   2.618   4.534
 2377SOL     OW 8029   3.674   2.897   3.939
 2377SOL    HW1 8030   3.578   2.909   3.912
 2377SOL    HW2 8031   3.716   2.827   3.882
 2378SOL     OW 8032   5.106   2.783   0.562
 2378SOL    HW1 8033   5.150   2.802   0.650
 2378SOL    HW2 8034   5.128   2.690   0.534
 2379SOL     OW 8035   6.972   6.917   6.429
 2379SOL    HW1 8036   7.007   7.007   6.457
 2379SOL    HW2 8037   6.874   6.924   6.412
 2380SOL     OW 8038   6.325   2.131   2.657
 2380SOL    HW1 8039   6.335   2.032   2.661
 2380SOL    HW2 8040   6.247   2.159   2.712
 2381SOL     OW 8041   1.715   6.496   3.059
 2381SOL    HW1 8042   1.773   6.517   2.980
 2381SOL    HW2 8043   1.771   6.461   3.133
 2382SOL     OW 8044   1.717   3.531   5.597
 2382SOL    HW1 8045   1.679   3.448   5.636
 2382SOL    HW2 8046   1.745   3.514   5.502
 2383SOL     OW 8047   5.890   5.856   2.230
 2383SOL    HW1 8048   5.798   5.877   2.198
 2383SOL    HW2 8049   5.888   5.840   2.329
 2384SOL     OW 8050   4.285   1.419   1.729
 2384SOL    HW1 8051   4.298   1.468   1.816
 2384SOL    HW2 8052   4.322   1.327   1.738
 2385SOL     OW 8053   0.563   2.622   0.068
 2385SOL    HW1 8054   0.563   2.614   6.994
 2385SOL    HW2 8055   0.491   2.685   0.096
 2386SOL     OW 8056   4.445   5.145   3.732
 2386SOL    HW1 8057   4.542   5.126   3.716
 2386SOL    HW2 8058   4.398   5.061   3.759
 2387SOL     OW 8059   1.453   1.482   2.825
 2387SOL    HW1 8060   1.545   1.513   2.847
 2387SOL    HW2 8061   1.411   1.545   2.759
 2388SOL     OW 8062   6.941   1.903   4.022
 2388SOL    HW1 8063   6.869   1.971   4.012
 2388SOL    HW2 8064   7.020   1.945   4.068
 2389SOL     OW 8065   3.591   6.442   2.530
 2389SOL    HW1 8066   3.671   6.481   2.485
 2389SOL    HW2 8067   3.621   6.377   2.601
 2390SOL     OW 8068   3.007   4.138   1.414
 2390SOL    HW1 8069   2.946   4.140   1.493
 2390SOL    HW2 8070   3.089   4.085   1.435
 2391SOL     OW 8071   4.175   5.584   5.189
 2391SOL    HW1 8072   4.160   5.643   5.110
 2391SOL    HW2 8073   4.220   5.500   5.159
 2392SOL     OW 8074   3.921   1.243   6.643
 2392SOL    HW1 8075   3.903   1.284   6.553
 2392SOL    HW2 8076   3.998   1.181   6.636
 2393SOL     OW 8077   3.355   5.206   5.190
 2393SOL    HW1 8078   3.445   5.250   5.197
 2393SOL    HW2 8079   3.344   5.141   5.265
 2394SOL     OW 8080   6.849   4.728   5.808
 2394SOL    HW1 8081   6.900   4.701   5.890
 2394SOL    HW2 8082   6.909   4.720   5.728
 2395SOL     OW 8083   4.480   6.762   6.428
 2395SOL    HW1 8084   4.452   6.748   6.523
 2395SOL    HW2 8085   4.421   6.707   6.368
 2396SOL     OW 8086   3.380   5.385   0.589
 2396SOL    HW1 8087   3.292   5.345   0.613
 2396SOL    HW2 8088   3.450   5.314   0.589
 2397SOL     OW 8089   0.006   3.656   4.331
 2397SOL    HW1 8090   0.020   3.606   4.416
 2397SOL    HW2 8091   0.073   3.626   4.263
 2398SOL     OW 8092   4.795   3.713   5.442
 2398SOL    HW1 8093   4.712   3.750   5.485
 2398SOL    HW2 8094   4.771   3.635   5.384
 2399SOL     OW 8095   4.146   2.434   1.746
 2399SOL    HW1 8096   4.081   2.481   1.685
 2399SOL    HW2 8097   4.124   2.336   1.747
 2400SOL     OW 8098   1.693   4.903   0.247
 2400SOL    HW1 8099   1.693   4.994   0.290
 2400SOL    HW2 8100   1.657   4.910   0.154
 2401SOL     OW 8101   6.865   6.357   6.052
 2401SOL    HW1 8102   6.851   6.363   6.150
 2401SOL    HW2 8103   6.963   6.354   6.032
 2402SOL     OW 8104   6.824   6.316   3.765
 2402SOL    HW1 8105   6.907   6.368   3.743
 2402SOL    HW2 8106   6.849   6.225   3.796
 2403SOL     OW 8107   0.573   1.379   5.064
 2403SOL    HW1 8108   0.543   1.333   4.981
 2403SOL    HW2 8109   0.519   1.462   5.078
 2404SOL     OW 8110   1.249   0.878   0.209
 2404SOL    HW1 8111   1.347   0.868   0.191
 2404SOL    HW2 8112   1.223   0.817   0.284
 2405SOL     OW 8113   2.764   3.961   1.413
 2405SOL    HW1 8114   2.738   3.882   1.358
 2405SOL    HW2 8115   2.823   4.021   1.360
 2406SOL     OW 8116   4.644   1.066   1.356
 2406SOL    HW1 8117   4.574   1.066   1.428
 2406SOL    HW2 8118   4.599   1.062   1.267
 2407SOL     OW 8119   5.273   7.004   3.502
 2407SOL    HW1 8120   5.213   0.022   3.435
 2407SOL    HW2 8121   5.231   6.920   3.535
 2408SOL     OW 8122   4.351   4.823   2.152
 2408SOL    HW1 8123   4.415   4.769   2.098
 2408SOL    HW2 8124   4.350   4.789   2.246
 2409SOL     OW 8125   1.311   4.257   0.498
 2409SOL    HW1 8126   1.211   4.260   0.509
 2409SOL    HW2 8127   1.341   4.163   0.488
 2410SOL     OW 8128   3.711   2.902   3.358
 2410SOL    HW1 8129   3.755   2.973   3.412
 2410SOL    HW2 8130   3.724   2.922   3.260
 2411SOL     OW 8131   4.552   0.481   4.230
 2411SOL    HW1 8132   4.485   0.516   4.164
 2411SOL    HW2 8133   4.596   0.399   4.193
 2412SOL     OW 8134   4.133   3.574   1.177
 2412SOL    HW1 8135   4.149   3.628   1.095
 2412SOL    HW2 8136   4.154   3.478   1.159
 2413SOL     OW 8137   4.362   0.267   2.944
 2413SOL    HW1 8138   4.455   0.288   2.973
 2413SOL    HW2 8139   4.299   0.330   2.990
 2414SOL     OW 8140   5.311   3.124   4.134
 2414SOL    HW1 8141   5.337   3.051   4.071
 2414SOL    HW2 8142   5.228   3.098   4.183
 2415SOL     OW 8143   4.258   1.047   3.074
 2415SOL    HW1 8144   4.227   0.989   2.998
 2415SOL    HW2 8145   4.196   1.037   3.151
 2416SOL     OW 8146   5.619   2.113   6.638
 2416SOL    HW1 8147   5.650   2.072   6.724
 2416SOL    HW2 8148   5.613   2.212   6.648
 2417SOL     OW 8149   3.326   4.114   5.527
 2417SOL    HW1 8150   3.412   4.147   5.488
 2417SOL    HW2 8151   3.254   4.119   5.457
 2418SOL     OW 8152   3.421   2.923   3.000
 2418SOL    HW1 8153   3.356   2.908   3.075
 2418SOL    HW2 8154   3.514   2.902   3.031
 2419SOL     OW 8155   0.478   0.523   3.289
 2419SOL    HW1 8156   0.438   0.501   3.378
 2419SOL    HW2 8157   0.510   0.618   3.290
 2420SOL     OW 8158   2.070   0.152   1.589
 2420SOL    HW1 8159   1.974   0.168   1.565
 2420SOL    HW2 8160   2.075   0.104   1.677
 2421SOL     OW 8161   3.377   1.727   3.116
 2421SOL    HW1 8162   3.391   1.799   3.183
 2421SOL    HW2 8163   3.289   1.741   3.070
 2422SOL     OW 8164   5.141   1.739   0.859
 2422SOL    HW1 8165   5.208   1.814   0.861
 2422SOL    HW2 8166   5.054   1.773   0.825
 2423SOL     OW 8167   1.863   5.141   2.711
 2423SOL    HW1 8168   1.892   5.217   2.653
 2423SOL    HW2 8169   1.852   5.059   2.656
 2424SOL     OW 8170   6.732   0.343   0.507
 2424SOL    HW1 8171   6.820   0.390   0.514
 2424SOL    HW2 8172   6.748   0.244   0.504
 2425SOL     OW 8173   6.967   6.962   4.441
 2425SOL    HW1 8174   7.022   6.887   4.406
 2425SOL    HW2 8175   6.873   6.931   4.456
 2426SOL     OW 8176   2.381   4.580   4.296
 2426SOL    HW1 8177   2.437   4.653   4.257
 2426SOL    HW2 8178   2.295   4.619   4.330
 2427SOL     OW 8179   6.163   0.182   5.842
 2427SOL    HW1 8180   6.181   0.140   5.931
 2427SOL    HW2 8181   6.146   0.111   5.774
 2428SOL     OW 8182   5.579   1.059   0.497
 2428SOL    HW1 8183   5.568   1.125   0.571
 2428SOL    HW2 8184   5.675   1.052   0.472
 2429SOL     OW 8185   4.754   5.161   2.397
 2429SOL    HW1 8186   4.799   5.077   2.427
 2429SOL    HW2 8187   4.656   5.145   2.386
 2430SOL     OW 8188   4.760   6.807   2.800
 2430SOL    HW1 8189   4.678   6.750   2.810
 2430SOL    HW2 8190   4.842   6.750   2.810
 2431SOL     OW 8191   4.301   6.952   2.356
 2431SOL    HW1 8192   4.255   6.876   2.403
 2431SOL    HW2 8193   4.332   7.019   2.424
 2432SOL     OW 8194   2.602   6.323   2.299
 2432SOL    HW1 8195   2.694   6.316   2.260
 2432SOL    HW2 8196   2.534   6.316   2.226
 2433SOL     OW 8197   4.883   0.485   0.700
 2433SOL    HW1 8198   4.850   0.577   0.718
 2433SOL    HW2 8199   4.972   0.490   0.653
 2434SOL     OW 8200   3.344   3.067   4.437
 2434SOL    HW1 8201   3.409   3.060   4.513
 2434SOL    HW2 8202   3.251   3.071   4.474
 2435SOL     OW 8203   5.714   6.034   6.303
 2435SOL    HW1 8204   5.777   5.956   6.309
 2435SOL    HW2 8205   5.749   6.109   6.358
 2436SOL     OW 8206   2.689   4.637   0.769
 2436SOL    HW1 8207   2.675   4.543   0.739
 2436SOL    HW2 8208   2.787   4.656   0.778
 2437SOL     OW 8209   6.636   0.851   5.628
 2437SOL    HW1 8210   6.730   0.825   5.608
 2437SOL    HW2 8211   6.601   0.795   5.703
 2438SOL     OW 8212   3.456   3.336   0.738
 2438SOL    HW1 8213   3.447   3.256   0.797
 2438SOL    HW2 8214   3.468   3.418   0.793
 2439SOL     OW 8215   6.212   4.517   6.265
 2439SOL    HW1 8216   6.229   4.469   6.179
 2439SOL    HW2 8217   6.281   4.588   6.277
 2440SOL     OW 8218   6.197   5.083   5.620
 2440SOL    HW1 8219   6.161   4.990   5.626
 2440SOL    HW2 8220   6.200   5.124   5.711
 2441SOL     OW 8221   6.296   2.263   0.603
 2441SOL    HW1 8222   6.308   2.296   0.697
 2441SOL    HW2 8223   6.262   2.169   0.605
 2442SOL     OW 8224   6.875   1.930   4.961
 2442SOL    HW1 8225   6.891   2.026   4.937
 2442SOL    HW2 8226   6.805   1.925   5.032
 2443SOL     OW 8227   2.940   4.875   5.395
 2443SOL    HW1 8228   2.856   4.923   5.372
 2443SOL    HW2 8229   2.986   4.845   5.311
 2444SOL     OW 8230   3.871   2.647   6.094
 2444SOL    HW1 8231   3.894   2.741   6.069
 2444SOL    HW2 8232   3.775   2.642   6.122
 2445SOL     OW 8233   1.265   0.177   0.554
 2445SOL    HW1 8234   1.220   0.248   0.608
 2445SOL    HW2 8235   1.364   0.194   0.552
 2446SOL     OW 8236   4.583   2.966   6.516
 2446SOL    HW1 8237   4.677   2.979   6.549
 2446SOL    HW2 8238   4.584   2.960   6.416
 2447SOL     OW 8239   1.100   3.334   6.352
 2447SOL    HW1 8240   1.081   3.317   6.256
 2447SOL    HW2 8241   1.181   3.392   6.361
 2448SOL     OW 8242   6.883   0.295   4.602
 2448SOL    HW1 8243   6.880   0.388   4.568
 2448SOL    HW2 8244   6.907   0.296   4.699
 2449SOL     OW 8245   0.214   2.864   5.302
 2449SOL    HW1 8246   0.219   2.945   5.361
 2449SOL    HW2 8247   0.306   2.832   5.281
 2450SOL     OW 8248   2.619   3.439   1.503
 2450SOL    HW1 8249   2.631   3.445   1.602
 2450SOL    HW2 8250   2.686   3.497   1.458
 2451SOL     OW 8251   1.810   5.634   4.108
 2451SOL    HW1 8252   1.821   5.677   4.198
 2451SOL    HW2 8253   1.870   5.555   4.101
 2452SOL     OW 8254   2.329   2.334   5.168
 2452SOL    HW1 8255   2.314   2.256   5.107
 2452SOL    HW2 8256   2.247   2.391   5.168
 2453SOL     OW 8257   0.580   3.825   0.981
 2453SOL    HW1 8258   0.508   3.793   1.042
 2453SOL    HW2 8259   0.558   3.797   0.887
 2454SOL     OW 8260   1.310   0.044   2.054
 2454SOL    HW1 8261   1.220   0.001   2.058
 2454SOL    HW2 8262   1.311   0.112   1.981
 2455SOL     OW 8263   5.473   3.426   1.166
 2455SOL    HW1 8264   5.555   3.456   1.214
 2455SOL    HW2 8265   5.430   3.351   1.217
 2456SOL     OW 8266   2.653   6.790   1.379
 2456SOL    HW1 8267   2.677   6.875   1.427
 2456SOL    HW2 8268   2.618   6.724   1.445
 2457SOL     OW 8269   5.768   5.855   1.157
 2457SOL    HW1 8270   5.671   5.867   1.136
 2457SOL    HW2 8271   5.803   5.773   1.111
 2458SOL     OW 8272   0.575   6.439   1.562
 2458SOL    HW1 8273   0.540   6.476   1.647
 2458SOL    HW2 8274   0.655   6.381   1.581
 2459SOL     OW 8275   1.304   1.569   0.490
 2459SOL    HW1 8276   1.361   1.491   0.517
 2459SOL    HW2 8277   1.239   1.540   0.420
 2460SOL     OW 8278   2.620   4.265   1.207
 2460SOL    HW1 8279   2.531   4.220   1.216
 2460SOL    HW2 8280   2.689   4.196   1.184
 2461SOL     OW 8281   4.417   1.645   3.336
 2461SOL    HW1 8282   4.347   1.717   3.343
 2461SOL    HW2 8283   4.372   1.556   3.339
 2462SOL     OW 8284   3.015   4.089   6.276
 2462SOL    HW1 8285   3.084   4.019   6.258
 2462SOL    HW2 8286   3.059   4.169   6.317
 2463SOL     OW 8287   1.020   2.778   5.285
 2463SOL    HW1 8288   1.052   2.839   5.213
 2463SOL    HW2 8289   1.033   2.820   5.374
 2464SOL     OW 8290   0.737   3.438   0.560
 2464SOL    HW1 8291   0.651   3.436   0.612
 2464SOL    HW2 8292   0.808   3.482   0.615
 2465SOL     OW 8293   6.354   4.920   2.678
 2465SOL    HW1 8294   6.449   4.901   2.654
 2465SOL    HW2 8295   6.307   4.961   2.600
 2466SOL     OW 8296   3.678   1.855   1.572
 2466SOL    HW1 8297   3.643   1.794   1.500
 2466SOL    HW2 8298   3.777   1.852   1.573
 2467SOL     OW 8299   0.744   0.994   4.820
 2467SOL    HW1 8300   0.740   1.003   4.720
 2467SOL    HW2 8301   0.777   0.902   4.843
 2468SOL     OW 8302   6.072   5.101   6.636
 2468SOL    HW1 8303   6.017   5.133   6.559
 2468SOL    HW2 8304   6.152   5.161   6.648
 2469SOL     OW 8305   2.885   2.713   5.981
 2469SOL    HW1 8306   2.920   2.625   5.948
 2469SOL    HW2 8307   2.806   2.740   5.927
 2470SOL     OW 8308   5.216   2.887   1.282
 2470SOL    HW1 8309   5.283   2.828   1.327
 2470SOL    HW2 8310   5.124   2.865   1.317
 2471SOL     OW 8311   0.250   1.296   2.978
 2471SOL    HW1 8312   0.286   1.203   2.976
 2471SOL    HW2 8313   0.178   1.303   3.047
 2472SOL     OW 8314   5.991   0.500   3.740
 2472SOL    HW1 8315   6.001   0.456   3.829
 2472SOL    HW2 8316   6.067   0.563   3.725
 2473SOL     OW 8317   0.252   5.981   5.382
 2473SOL    HW1 8318   0.296   5.894   5.406
 2473SOL    HW2 8319   0.285   6.012   5.293
 2474SOL     OW 8320   6.446   6.808   4.522
 2474SOL    HW1 8321   6.395   6.738   4.571
 2474SOL    HW2 8322   6.473   6.880   4.585
 2475SOL     OW 8323   3.900   2.376   6.091
 2475SOL    HW1 8324   3.812   2.385   6.045
 2475SOL    HW2 8325   3.962   2.448   6.059
 2476SOL     OW 8326   0.715   1.499   3.405
 2476SOL    HW1 8327   0.625   1.459   3.423
 2476SOL    HW2 8328   0.769   1.498   3.489
 2477SOL     OW 8329   4.542   4.621   2.516
 2477SOL    HW1 8330   4.580   4.528   2.524
 2477SOL    HW2 8331   4.470   4.621   2.446
 2478SOL     OW 8332   6.898   0.216   2.263
 2478SOL    HW1 8333   6.917   0.254   2.353
 2478SOL    HW2 8334   6.912   0.117   2.264
 2479SOL     OW 8335   1.214   3.291   0.240
 2479SOL    HW1 8336   1.199   3.200   0.201
 2479SOL    HW2 8337   1.261   3.348   0.173
 2480SOL     OW 8338   6.741   5.339   1.412
 2480SOL    HW1 8339   6.643   5.358   1.411
 2480SOL    HW2 8340   6.789   5.412   1.462
 2481SOL     OW 8341   4.300   4.640   2.400
 2481SOL    HW1 8342   4.262   4.659   2.490
 2481SOL    HW2 8343   4.233   4.666   2.330
 2482SOL     OW 8344   4.134   2.305   4.490
 2482SOL    HW1 8345   4.105   2.284   4.583
 2482SOL    HW2 8346   4.070   2.264   4.425
 2483SOL     OW 8347   1.328   3.422   0.018
 2483SOL    HW1 8348   1.304   3.350   6.979
 2483SOL    HW2 8349   1.285   3.508   7.014
 2484SOL     OW 8350   3.704   4.358   5.960
 2484SOL    HW1 8351   3.676   4.359   6.056
 2484SOL    HW2 8352   3.680   4.271   5.919
 2485SOL     OW 8353   0.773   5.664   6.841
 2485SOL    HW1 8354   0.839   5.683   6.768
 2485SOL    HW2 8355   0.684   5.645   6.800
 2486SOL     OW 8356   0.733   5.526   3.581
 2486SOL    HW1 8357   0.634   5.515   3.584
 2486SOL    HW2 8358   0.757   5.598   3.515
 2487SOL     OW 8359   3.211   1.353   1.467
 2487SOL    HW1 8360   3.232   1.334   1.371
 2487SOL    HW2 8361   3.116   1.382   1.475
 2488SOL     OW 8362   3.057   5.665   6.367
 2488SOL    HW1 8363   3.094   5.590   6.312
 2488SOL    HW2 8364   2.965   5.642   6.397
 2489SOL     OW 8365   6.903   5.477   4.468
 2489SOL    HW1 8366   6.852   5.417   4.407
 2489SOL    HW2 8367   6.959   5.540   4.413
 2490SOL     OW 8368   5.905   3.115   1.369
 2490SOL    HW1 8369   5.978   3.184   1.368
 2490SOL    HW2 8370   5.838   3.138   1.298
 2491SOL     OW 8371   6.703   4.144   2.608
 2491SOL    HW1 8372   6.705   4.241   2.630
 2491SOL    HW2 8373   6.781   4.098   2.652
 2492SOL     OW 8374   4.108   1.577   6.846
 2492SOL    HW1 8375   4.145   1.507   6.906
 2492SOL    HW2 8376   4.156   1.664   6.861
 2493SOL     OW 8377   6.261   0.618   5.563
 2493SOL    HW1 8378   6.237   0.711   5.589
 2493SOL    HW2 8379   6.266   0.561   5.645
 2494SOL     OW 8380   5.173   5.317   0.631
 2494SOL    HW1 8381   5.260   5.308   0.582
 2494SOL    HW2 8382   5.115   5.238   0.612
 2495SOL     OW 8383   0.321   1.331   2.471
 2495SOL    HW1 8384   0.323   1.247   2.416
 2495SOL    HW2 8385   0.367   1.315   2.558
 2496SOL     OW 8386   2.077   4.720   0.510
 2496SOL    HW1 8387   2.113   4.636   0.549
 2496SOL    HW2 8388   2.060   4.706   0.412
 2497SOL     OW 8389   6.088   0.960   6.666
 2497SOL    HW1 8390   6.017   0.997   6.726
 2497SOL    HW2 8391   6.054   0.878   6.619
 2498SOL     OW 8392   0.525   3.156   4.579
 2498SOL    HW1 8393   0.467   3.211   4.518
 2498SOL    HW2 8394   0.600   3.117   4.527
 2499SOL     OW 8395   5.232   1.046   7.006
 2499SOL    HW1 8396   5.291   1.117   0.019
 2499SOL    HW2 8397   5.247   0.960   0.029
 2500SOL     OW 8398   5.073   3.405   5.884
 2500SOL    HW1 8399   5.079   3.485   5.944
 2500SOL    HW2 8400   5.007   3.340   5.922
 2501SOL     OW 8401   6.755   4.725   0.887
 2501SOL    HW1 8402   6.703   4.754   0.968
 2501SOL    HW2 8403   6.777   4.805   0.831
 2502SOL     OW 8404   1.050   6.758   3.292
 2502SOL    HW1 8405   1.047   6.840   3.234
 2502SOL    HW2 8406   1.144   6.724   3.296
 2503SOL     OW 8407   5.439   6.615   4.347
 2503SOL    HW1 8408   5.502   6.676   4.394
 2503SOL    HW2 8409   5.435   6.527   4.393
 2504SOL     OW 8410   2.475   4.829   3.140
 2504SOL    HW1 8411   2.377   4.811   3.133
 2504SOL    HW2 8412   2.523   4.769   3.076
 2505SOL     OW 8413   5.066   4.025   4.657
 2505SOL    HW1 8414   5.051   4.049   4.561
 2505SOL    HW2 8415   4.997   3.960   4.687
 2506SOL     OW 8416   0.687   0.831   0.480
 2506SOL    HW1 8417   0.700   0.738   0.445
 2506SOL    HW2 8418   0.766   0.856   0.537
 2507SOL     OW 8419   6.522   6.447   0.323
 2507SOL    HW1 8420   6.547   6.522   0.384
 2507SOL    HW2 8421   6.577   6.367   0.345
 2508SOL     OW 8422   1.818   1.717   2.077
 2508SOL    HW1 8423   1.841   1.631   2.124
 2508SOL    HW2 8424   1.723   1.713   2.046
 2509SOL     OW 8425   6.138   6.963   3.943
 2509SOL    HW1 8426   6.131   6.951   3.844
 2509SOL    HW2 8427   6.221   6.919   3.976
 2510SOL     OW 8428   4.001   5.991   2.543
 2510SOL    HW1 8429   3.913   5.960   2.507
 2510SOL    HW2 8430   3.986   6.045   2.626
 2511SOL     OW 8431   0.705   6.177   3.923
 2511SOL    HW1 8432   0.617   6.131   3.911
 2511SOL    HW2 8433   0.706   6.261   3.869
 2512SOL     OW 8434   5.783   3.343   4.544
 2512SOL    HW1 8435   5.830   3.336   4.632
 2512SOL    HW2 8436   5.705   3.405   4.552
 2513SOL     OW 8437   0.086   4.948   1.133
 2513SOL    HW1 8438   0.168   4.978   1.182
 2513SOL    HW2 8439   0.080   4.996   1.046
 2514SOL     OW 8440   6.737   2.098   3.980
 2514SOL    HW1 8441   6.658   2.102   3.918
 2514SOL    HW2 8442   6.793   2.180   3.967
 2515SOL     OW 8443   0.937   4.286   6.335
 2515SOL    HW1 8444   0.841   4.270   6.359
 2515SOL    HW2 8445   0.970   4.367   6.384
 2516SOL     OW 8446   4.629   6.705   3.944
 2516SOL    HW1 8447   4.618   6.784   4.004
 2516SOL    HW2 8448   4.726   6.693   3.922
 2517SOL     OW 8449   2.715   5.585   0.821
 2517SOL    HW1 8450   2.639   5.620   0.766
 2517SOL    HW2 8451   2.798   5.637   0.800
 2518SOL     OW 8452   2.077   1.828   0.053
 2518SOL    HW1 8453   2.112   1.902   7.021
 2518SOL    HW2 8454   1.993   1.857   0.098
 2519SOL     OW 8455   5.901   4.119   4.646
 2519SOL    HW1 8456   5.819   4.097   4.592
 2519SOL    HW2 8457   5.906   4.218   4.659
 2520SOL     OW 8458   3.944   5.590   0.598
 2520SOL    HW1 8459   3.845   5.601   0.589
 2520SOL    HW2 8460   3.968   5.494   0.586
 2521SOL     OW 8461   5.769   6.642   6.057
 2521SOL    HW1 8462   5.709   6.664   6.134
 2521SOL    HW2 8463   5.782   6.724   6.000
 2522SOL     OW 8464   2.367   4.764   5.085
 2522SOL    HW1 8465   2.449   4.775   5.030
 2522SOL    HW2 8466   2.380   4.688   5.149
 2523SOL     OW 8467   0.700   2.239   6.375
 2523SOL    HW1 8468   0.735   2.289   6.296
 2523SOL    HW2 8469   0.735   2.280   6.459
 2524SOL     OW 8470   1.727   0.313   4.513
 2524SOL    HW1 8471   1.696   0.226   4.551
 2524SOL    HW2 8472   1.674   0.333   4.430
 2525SOL     OW 8473   2.662   4.641   2.232
 2525SOL    HW1 8474   2.757   4.631   2.203
 2525SOL    HW2 8475   2.627   4.729   2.202
 2526SOL     OW 8476   1.829   2.877   4.525
 2526SOL    HW1 8477   1.892   2.942   4.482
 2526SOL    HW2 8478   1.870   2.843   4.610
 2527SOL     OW 8479   0.132   6.502   3.906
 2527SOL    HW1 8480   0.071   6.474   3.832
 2527SOL    HW2 8481   0.099   6.588   3.945
 2528SOL     OW 8482   5.546   5.334   1.027
 2528SOL    HW1 8483   5.530   5.356   1.123
 2528SOL    HW2 8484   5.473   5.375   0.971
 2529SOL     OW 8485   5.331   4.206   5.206
 2529SOL    HW1 8486   5.312   4.145   5.129
 2529SOL    HW2 8487   5.401   4.165   5.265
 2530SOL     OW 8488   1.503   6.513   3.418
 2530SOL    HW1 8489   1.435   6.455   3.372
 2530SOL    HW2 8490   1.594   6.486   3.388
 2531SOL     OW 8491   5.784   2.107   6.368
 2531SOL    HW1 8492   5.692   2.123   6.334
 2531SOL    HW2 8493   5.790   2.135   6.464
 2532SOL     OW 8494   0.580   5.778   6.154
 2532SOL    HW1 8495   0.628   5.699   6.117
 2532SOL    HW2 8496   0.626   5.808   6.238
 2533SOL     OW 8497   5.629   0.763   4.656
 2533SOL    HW1 8498   5.703   0.700   4.632
 2533SOL    HW2 8499   5.541   0.717   4.644
 2534SOL     OW 8500   6.433   1.163   3.184
 2534SOL    HW1 8501   6.433   1.111   3.099
 2534SOL    HW2 8502   6.420   1.260   3.163
 2535SOL     OW 8503   2.871   0.729   1.980
 2535SOL    HW1 8504   2.953   0.703   1.927
 2535SOL    HW2 8505   2.897   0.794   2.052
 2536SOL     OW 8506   1.025   0.329   3.404
 2536SOL    HW1 8507   1.112   0.287   3.378
 2536SOL    HW2 8508   1.042   0.402   3.471
 2537SOL     OW 8509   2.407   6.306   2.074
 2537SOL    HW1 8510   2.428   6.399   2.044
 2537SOL    HW2 8511   2.308   6.292   2.071
 2538SOL     OW 8512   6.959   5.401   5.144
 2538SOL    HW1 8513   6.958   5.501   5.136
 2538SOL    HW2 8514   7.018   5.364   5.072
 2539SOL     OW 8515   1.300   0.289   5.366
 2539SOL    HW1 8516   1.354   0.245   5.293
 2539SOL    HW2 8517   1.359   0.347   5.421
 2540SOL     OW 8518   5.190   2.271   2.057
 2540SOL    HW1 8519   5.156   2.351   2.008
 2540SOL    HW2 8520   5.186   2.191   1.997
 2541SOL     OW 8521   1.505   1.170   0.053
 2541SOL    HW1 8522   1.506   1.070   0.042
 2541SOL    HW2 8523   1.475   1.213   6.993
 2542SOL     OW 8524   4.192   1.940   2.646
 2542SOL    HW1 8525   4.229   1.880   2.575
 2542SOL    HW2 8526   4.125   1.890   2.700
 2543SOL     OW 8527   6.149   6.874   5.385
 2543SOL    HW1 8528   6.184   6.795   5.335
 2543SOL    HW2 8529   6.098   6.933   5.322
 2544SOL     OW 8530   0.052   0.102   0.472
 2544SOL    HW1 8531   0.069   0.015   0.425
 2544SOL    HW2 8532   0.139   0.149   0.488
 2545SOL     OW 8533   6.866   1.752   0.369
 2545SOL    HW1 8534   6.821   1.801   0.445
 2545SOL    HW2 8535   6.828   1.660   0.362
 2546SOL     OW 8536   6.162   3.374   2.517
 2546SOL    HW1 8537   6.106   3.335   2.444
 2546SOL    HW2 8538   6.193   3.465   2.490
 2547SOL     OW 8539   5.676   3.968   1.186
 2547SOL    HW1 8540   5.659   3.886   1.132
 2547SOL    HW2 8541   5.765   4.006   1.162
 2548SOL     OW 8542   6.429   0.324   5.613
 2548SOL    HW1 8543   6.365   0.365   5.678
 2548SOL    HW2 8544   6.486   0.395   5.573
 2549SOL     OW 8545   2.805   5.332   6.888
 2549SOL    HW1 8546   2.860   5.282   6.821
 2549SOL    HW2 8547   2.770   5.269   6.957
 2550SOL     OW 8548   3.985   0.488   0.867
 2550SOL    HW1 8549   3.951   0.564   0.923
 2550SOL    HW2 8550   4.080   0.469   0.891
 2551SOL     OW 8551   3.745   4.353   1.269
 2551SOL    HW1 8552   3.696   4.285   1.322
 2551SOL    HW2 8553   3.684   4.429   1.247
 2552SOL     OW 8554   2.913   5.354   1.651
 2552SOL    HW1 8555   2.976   5.307   1.590
 2552SOL    HW2 8556   2.910   5.451   1.628
 2553SOL     OW 8557   4.545   1.667   0.638
 2553SOL    HW1 8558   4.483   1.604   0.592
 2553SOL    HW2 8559   4.491   1.727   0.698
 2554SOL     OW 8560   1.115   6.092   0.710
 2554SOL    HW1 8561   1.148   6.186   0.721
 2554SOL    HW2 8562   1.024   6.093   0.668
 2555SOL     OW 8563   0.889   6.645   5.376
 2555SOL    HW1 8564   0.962   6.583   5.348
 2555SOL    HW2 8565   0.801   6.597   5.373
 2556SOL     OW 8566   5.775   0.363   1.054
 2556SOL    HW1 8567   5.755   0.347   1.151
 2556SOL    HW2 8568   5.854   0.308   1.027
 2557SOL     OW 8569   2.800   1.364   6.716
 2557SOL    HW1 8570   2.831   1.281   6.669
 2557SOL    HW2 8571   2.713   1.346   6.762
 2558SOL     OW 8572   5.872   2.930   1.079
 2558SOL    HW1 8573   5.875   3.027   1.057
 2558SOL    HW2 8574   5.912   2.915   1.169
 2559SOL     OW 8575   6.134   5.156   3.608
 2559SOL    HW1 8576   6.091   5.097   3.676
 2559SOL    HW2 8577   6.065   5.215   3.566
 2560SOL     OW 8578   4.285   2.715   1.641
 2560SOL    HW1 8579   4.189   2.698   1.619
 2560SOL    HW2 8580   4.319   2.641   1.699
 2561SOL     OW 8581   3.592   0.247   4.555
 2561SOL    HW1 8582   3.509   0.302   4.567
 2561SOL    HW2 8583   3.568   0.150   4.553
 2562SOL     OW 8584   1.576   6.343   4.999
 2562SOL    HW1 8585   1.478   6.325   4.993
 2562SOL    HW2 8586   1.623   6.304   4.920
 2563SOL     OW 8587   4.286   2.791   6.207
 2563SOL    HW1 8588   4.348   2.863   6.175
 2563SOL    HW2 8589   4.207   2.832   6.252
 2564SOL     OW 8590   1.586   1.454   1.330
 2564SOL    HW1 8591   1.662   1.405   1.374
 2564SOL    HW2 8592   1.617   1.490   1.241
 2565SOL     OW 8593   6.944   0.676   0.829
 2565SOL    HW1 8594   6.857   0.691   0.875
 2565SOL    HW2 8595   7.008   0.749   0.853
 2566SOL     OW 8596   2.575   1.401   0.326
 2566SOL    HW1 8597   2.638   1.350   0.384
 2566SOL    HW2 8598   2.482   1.364   0.336
 2567SOL     OW 8599   2.481   0.831   6.274
 2567SOL    HW1 8600   2.558   0.846   6.336
 2567SOL    HW2 8601   2.441   0.919   6.249
 2568SOL     OW 8602   2.771   6.177   0.837
 2568SOL    HW1 8603   2.828   6.235   0.779
 2568SOL    HW2 8604   2.800   6.082   0.827
 2569SOL     OW 8605   2.580   6.172   6.627
 2569SOL    HW1 8606   2.575   6.077   6.595
 2569SOL    HW2 8607   2.600   6.173   6.725
 2570SOL     OW 8608   0.140   0.054   3.266
 2570SOL    HW1 8609   0.139   0.058   3.366
 2570SOL    HW2 8610   0.103   0.139   3.229
 2571SOL     OW 8611   3.626   3.321   2.858
 2571SOL    HW1 8612   3.648   3.321   2.956
 2571SOL    HW2 8613   3.527   3.319   2.846
 2572SOL     OW 8614   2.989   6.030   2.320
 2572SOL    HW1 8615   2.984   5.980   2.233
 2572SOL    HW2 8616   2.929   5.986   2.387
 2573SOL     OW 8617   6.498   0.783   2.973
 2573SOL    HW1 8618   6.576   0.818   3.024
 2573SOL    HW2 8619   6.512   0.799   2.875
 2574SOL     OW 8620   0.341   4.118   2.127
 2574SOL    HW1 8621   0.320   4.118   2.030
 2574SOL    HW2 8622   0.394   4.200   2.150
 2575SOL     OW 8623   4.574   3.488   5.330
 2575SOL    HW1 8624   4.537   3.567   5.282
 2575SOL    HW2 8625   4.651   3.450   5.278
 2576SOL     OW 8626   0.477   0.471   2.766
 2576SOL    HW1 8627   0.475   0.409   2.844
 2576SOL    HW2 8628   0.417   0.549   2.784
 2577SOL     OW 8629   1.726   4.373   0.657
 2577SOL    HW1 8630   1.786   4.380   0.737
 2577SOL    HW2 8631   1.778   4.397   0.575
 2578SOL     OW 8632   4.396   2.325   4.612
 2578SOL    HW1 8633   4.315   2.342   4.556
 2578SOL    HW2 8634   4.446   2.246   4.576
 2579SOL     OW 8635   7.011   1.657   6.351
 2579SOL    HW1 8636   0.042   1.578   6.329
 2579SOL    HW2 8637   6.966   1.690   6.268
 2580SOL     OW 8638   1.889   1.905   5.702
 2580SOL    HW1 8639   1.980   1.902   5.661
 2580SOL    HW2 8640   1.880   1.833   5.770
 2581SOL     OW 8641   5.297   6.661   4.084
 2581SOL    HW1 8642   5.333   6.638   4.174
 2581SOL    HW2 8643   5.268   6.577   4.037
 2582SOL     OW 8644   6.366   4.031   3.172
 2582SOL    HW1 8645   6.352   3.932   3.170
 2582SOL    HW2 8646   6.279   4.077   3.158
 2583SOL     OW 8647   2.679   0.909   0.191
 2583SOL    HW1 8648   2.682   0.809   0.186
 2583SOL    HW2 8649   2.685   0.947   0.098
 2584SOL     OW 8650   3.932   0.270   3.164
 2584SOL    HW1 8651   3.989   0.214   3.104
 2584SOL    HW2 8652   3.898   0.349   3.113
 2585SOL     OW 8653   3.708   0.726   2.509
 2585SOL    HW1 8654   3.712   0.787   2.429
 2585SOL    HW2 8655   3.642   0.761   2.575
 2586SOL     OW 8656   1.185   1.524   4.400
 2586SOL    HW1 8657   1.246   1.574   4.460
 2586SOL    HW2 8658   1.092   1.524   4.438
 2587SOL     OW 8659   6.468   4.995   2.951
 2587SOL    HW1 8660   6.486   4.971   3.046
 2587SOL    HW2 8661   6.528   4.942   2.891
 2588SOL     OW 8662   3.463   6.907   3.031
 2588SOL    HW1 8663   3.479   6.891   3.129
 2588SOL    HW2 8664   3.456   7.005   3.014
 2589SOL     OW 8665   4.572   6.598   2.113
 2589SOL    HW1 8666   4.579   6.686   2.161
 2589SOL    HW2 8667   4.637   6.533   2.153
 2590SOL     OW 8668   4.417   5.803   3.684
 2590SOL    HW1 8669   4.465   5.720   3.715
 2590SOL    HW2 8670   4.392   5.858   3.763
 2591SOL     OW 8671   6.240   0.289   1.377
 2591SOL    HW1 8672   6.302   0.361   1.409
 2591SOL    HW2 8673   6.150   0.328   1.359
 2592SOL     OW 8674   2.845   4.726   1.692
 2592SOL    HW1 8675   2.924   4.785   1.707
 2592SOL    HW2 8676   2.847   4.650   1.757
 2593SOL     OW 8677   2.671   0.083   3.437
 2593SOL    HW1 8678   2.603   0.126   3.376
 2593SOL    HW2 8679   2.637   0.084   3.531
 2594SOL     OW 8680   2.203   6.117   6.563
 2594SOL    HW1 8681   2.199   6.207   6.518
 2594SOL    HW2 8682   2.263   6.056   6.510
 2595SOL     OW 8683   6.430   3.153   4.354
 2595SOL    HW1 8684   6.355   3.086   4.355
 2595SOL    HW2 8685   6.517   3.105   4.337
 2596SOL     OW 8686   4.822   1.471   0.987
 2596SOL    HW1 8687   4.743   1.446   1.041
 2596SOL    HW2 8688   4.838   1.570   0.995
 2597SOL     OW 8689   2.682   2.292   6.108
 2597SOL    HW1 8690   2.636   2.251   6.029
 2597SOL    HW2 8691   2.622   2.362   6.149
 2598SOL     OW 8692   6.559   1.089   2.787
 2598SOL    HW1 8693   6.581   1.044   2.700
 2598SOL    HW2 8694   6.620   1.167   2.800
 2599SOL     OW 8695   5.080   5.644   6.429
 2599SOL    HW1 8696   5.118   5.619   6.340
 2599SOL    HW2 8697   4.994   5.594   6.443
 2600SOL     OW 8698   0.416   2.781   4.730
 2600SOL    HW1 8699   0.492   2.722   4.703
 2600SOL    HW2 8700   0.373   2.818   4.648
 2601SOL     OW 8701   4.039   4.276   5.456
 2601SOL    HW1 8702   4.107   4.349   5.460
 2601SOL    HW2 8703   3.997   4.266   5.546
 2602SOL     OW 8704   5.890   6.685   6.647
 2602SOL    HW1 8705   5.976   6.724   6.678
 2602SOL    HW2 8706   5.852   6.741   6.573
 2603SOL     OW 8707   1.622   1.872   6.946
 2603SOL    HW1 8708   1.684   1.870   7.025
 2603SOL    HW2 8709   1.663   1.822   6.871
 2604SOL     OW 8710   5.399   1.712   1.070
 2604SOL    HW1 8711   5.357   1.622   1.065
 2604SOL    HW2 8712   5.499   1.703   1.077
 2605SOL     OW 8713   5.235   2.975   4.864
 2605SOL    HW1 8714   5.253   2.999   4.768
 2605SOL    HW2 8715   5.321   2.946   4.907
 2606SOL     OW 8716   6.496   4.513   1.652
 2606SOL    HW1 8717   6.486   4.551   1.561
 2606SOL    HW2 8718   6.591   4.485   1.667
 2607SOL     OW 8719   1.030   1.207   3.669
 2607SOL    HW1 8720   1.076   1.132   3.717
 2607SOL    HW2 8721   1.078   1.225   3.583
 2608SOL     OW 8722   4.299   0.697   6.989
 2608SOL    HW1 8723   4.397   0.685   6.974
 2608SOL    HW2 8724   4.253   0.702   6.900
 2609SOL     OW 8725   0.724   3.489   3.357
 2609SOL    HW1 8726   0.790   3.539   3.300
 2609SOL    HW2 8727   0.773   3.438   3.428
 2610SOL     OW 8728   4.937   5.525   4.585
 2610SOL    HW1 8729   4.938   5.608   4.528
 2610SOL    HW2 8730   4.883   5.454   4.540
 2611SOL     OW 8731   3.026   5.946   2.044
 2611SOL    HW1 8732   2.951   5.996   2.001
 2611SOL    HW2 8733   3.063   5.880   1.978
 2612SOL     OW 8734   0.776   6.995   5.182
 2612SOL    HW1 8735   0.850   6.928   5.180
 2612SOL    HW2 8736   0.706   6.965   5.246
 2613SOL     OW 8737   3.527   1.222   7.004
 2613SOL    HW1 8738   3.617   1.227   0.021
 2613SOL    HW2 8739   3.494   1.128   7.006
 2614SOL     OW 8740   6.300   6.680   6.597
 2614SOL    HW1 8741   6.377   6.661   6.658
 2614SOL    HW2 8742   6.333   6.685   6.503
 2615SOL     OW 8743   6.886   4.213   1.165
 2615SOL    HW1 8744   6.889   4.251   1.257
 2615SOL    HW2 8745   6.808   4.251   1.116
 2616SOL     OW 8746   3.794   4.028   1.893
 2616SOL    HW1 8747   3.707   4.078   1.887
 2616SOL    HW2 8748   3.862   4.073   1.836
 2617SOL     OW 8749   2.444   6.706   1.215
 2617SOL    HW1 8750   2.378   6.669   1.280
 2617SOL    HW2 8751   2.518   6.752   1.264
 2618SOL     OW 8752   0.816   6.119   0.360
 2618SOL    HW1 8753   0.778   6.210   0.341
 2618SOL    HW2 8754   0.743   6.051   0.355
 2619SOL     OW 8755   6.253   1.657   2.077
 2619SOL    HW1 8756   6.187   1.699   2.015
 2619SOL    HW2 8757   6.315   1.726   2.113
 2620SOL     OW 8758   1.265   5.545   4.039
 2620SOL    HW1 8759   1.314   5.587   4.116
 2620SOL    HW2 8760   1.330   5.511   3.972
 2621SOL     OW 8761   1.009   6.214   4.804
 2621SOL    HW1 8762   0.948   6.195   4.881
 2621SOL    HW2 8763   0.991   6.306   4.769
 2622SOL     OW 8764   2.513   2.532   4.627
 2622SOL    HW1 8765   2.554   2.570   4.709
 2622SOL    HW2 8766   2.450   2.599   4.587
 2623SOL     OW 8767   3.174   6.990   6.376
 2623SOL    HW1 8768   3.098   6.992   6.312
 2623SOL    HW2 8769   3.241   6.922   6.346
 2624SOL     OW 8770   5.281   1.853   4.575
 2624SOL    HW1 8771   5.262   1.878   4.480
 2624SOL    HW2 8772   5.214   1.896   4.635
 2625SOL     OW 8773   2.671   6.651   6.307
 2625SOL    HW1 8774   2.651   6.724   6.243
 2625SOL    HW2 8775   2.614   6.572   6.287
 2626SOL     OW 8776   2.529   6.773   3.240
 2626SOL    HW1 8777   2.510   6.861   3.195
 2626SOL    HW2 8778   2.604   6.727   3.192
 2627SOL     OW 8779   1.077   0.061   4.569
 2627SOL    HW1 8780   1.105   7.005   4.619
 2627SOL    HW2 8781   0.990   0.043   4.522
 2628SOL     OW 8782   4.710   5.545   0.256
 2628SOL    HW1 8783   4.761   5.627   0.283
 2628SOL    HW2 8784   4.612   5.566   0.253
 2629SOL     OW 8785   2.828   3.516   1.976
 2629SOL    HW1 8786   2.850   3.419   1.988
 2629SOL    HW2 8787   2.862   3.568   2.054
 2630SOL     OW 8788   3.375   2.070   2.420
 2630SOL    HW1 8789   3.338   2.068   2.327
 2630SOL    HW2 8790   3.320   2.132   2.476
 2631SOL     OW 8791   3.236   6.576   4.320
 2631SOL    HW1 8792   3.324   6.542   4.287
 2631SOL    HW2 8793   3.219   6.543   4.413
 2632SOL     OW 8794   4.307   1.517   1.464
 2632SOL    HW1 8795   4.221   1.526   1.414
 2632SOL    HW2 8796   4.290   1.474   1.553
 2633SOL     OW 8797   6.837   2.644   0.075
 2633SOL    HW1 8798   6.782   2.618   7.021
 2633SOL    HW2 8799   6.801   2.601   0.157
 2634SOL     OW 8800   2.785   4.999   0.226
 2634SOL    HW1 8801   2.722   4.922   0.236
 2634SOL    HW2 8802   2.872   4.967   0.189
 2635SOL     OW 8803   6.192   4.453   3.543
 2635SOL    HW1 8804   6.128   4.395   3.492
 2635SOL    HW2 8805   6.279   4.404   3.554
 2636SOL     OW 8806   5.196   5.521   5.133
 2636SOL    HW1 8807   5.245   5.544   5.218
 2636SOL    HW2 8808   5.142   5.599   5.103
 2637SOL     OW 8809   5.281   5.738   2.768
 2637SOL    HW1 8810   5.230   5.730   2.682
 2637SOL    HW2 8811   5.344   5.661   2.776
 2638SOL     OW 8812   5.246   5.595   0.690
 2638SOL    HW1 8813   5.162   5.641   0.661
 2638SOL    HW2 8814   5.228   5.498   0.706
 2639SOL     OW 8815   6.774   0.087   6.978
 2639SOL    HW1 8816   6.843   0.067   0.022
 2639SOL    HW2 8817   6.683   0.073   7.017
 2640SOL     OW 8818   6.756   6.237   6.982
 2640SOL    HW1 8819   6.766   6.272   6.889
 2640SOL    HW2 8820   6.784   6.308   0.022
 2641SOL     OW 8821   0.261   5.560   1.067
 2641SOL    HW1 8822   0.213   5.586   1.151
 2641SOL    HW2 8823   0.226   5.472   1.034
 2642SOL     OW 8824   6.547   0.187   4.273
 2642SOL    HW1 8825   6.502   0.186   4.184
 2642SOL    HW2 8826   6.645   0.205   4.260
 2643SOL     OW 8827   2.088   0.526   2.266
 2643SOL    HW1 8828   2.120   0.507   2.173
 2643SOL    HW2 8829   2.093   0.443   2.320
 2644SOL     OW 8830   6.239   6.393   4.751
 2644SOL    HW1 8831   6.261   6.323   4.684
 2644SOL    HW2 8832   6.250   6.484   4.710
 2645SOL     OW 8833   5.261   6.198   0.142
 2645SOL    HW1 8834   5.343   6.140   0.138
 2645SOL    HW2 8835   5.180   6.140   0.150
 2646SOL     OW 8836   5.837   5.856   5.820
 2646SOL    HW1 8837   5.795   5.926   5.878
 2646SOL    HW2 8838   5.803   5.766   5.847
 2647SOL     OW 8839   3.426   3.837   0.609
 2647SOL    HW1 8840   3.359   3.856   0.537
 2647SOL    HW2 8841   3.410   3.897   0.687
 2648SOL     OW 8842   4.145   1.193   3.662
 2648SOL    HW1 8843   4.204   1.152   3.731
 2648SOL    HW2 8844   4.074   1.127   3.635
 2649SOL     OW 8845   3.159   4.117   5.253
 2649SOL    HW1 8846   3.075   4.065   5.265
 2649SOL    HW2 8847   3.237   4.055   5.255
 2650SOL     OW 8848   0.754   6.795   2.720
 2650SOL    HW1 8849   0.698   6.875   2.696
 2650SOL    HW2 8850   0.792   6.807   2.812
 2651SOL     OW 8851   1.052   6.999   3.166
 2651SOL    HW1 8852   1.137   7.014   3.115
 2651SOL    HW2 8853   1.036   0.050   3.228
 2652SOL     OW 8854   3.029   3.184   2.550
 2652SOL    HW1 8855   3.078   3.133   2.621
 2652SOL    HW2 8856   2.997   3.271   2.588
 2653SOL     OW 8857   6.819   6.325   1.017
 2653SOL    HW1 8858   6.874   6.334   0.933
 2653SOL    HW2 8859   6.788   6.415   1.046
 2654SOL     OW 8860   6.705   2.604   5.812
 2654SOL    HW1 8861   6.659   2.531   5.761
 2654SOL    HW2 8862   6.778   2.564   5.868
 2655SOL     OW 8863   5.630   5.267   4.192
 2655SOL    HW1 8864   5.554   5.234   4.248
 2655SOL    HW2 8865   5.715   5.262   4.244
 2656SOL     OW 8866   6.119   3.133   5.088
 2656SOL    HW1 8867   6.087   3.043   5.116
 2656SOL    HW2 8868   6.112   3.197   5.165
 2657SOL     OW 8869   4.283   2.405   5.538
 2657SOL    HW1 8870   4.228   2.398   5.621
 2657SOL    HW2 8871   4.269   2.494   5.496
 2658SOL     OW 8872   6.689   3.893   5.226
 2658SOL    HW1 8873   6.693   3.804   5.272
 2658SOL    HW2 8874   6.676   3.965   5.294
 2659SOL     OW 8875   6.543   1.286   3.775
 2659SOL    HW1 8876   6.458   1.282   3.828
 2659SOL    HW2 8877   6.558   1.199   3.729
 2660SOL     OW 8878   1.001   2.210   3.927
 2660SOL    HW1 8879   0.957   2.299   3.920
 2660SOL    HW2 8880   0.944   2.141   3.882
 2661SOL     OW 8881   3.660   6.777   3.315
 2661SOL    HW1 8882   3.752   6.791   3.349
 2661SOL    HW2 8883   3.655   6.688   3.269
 2662SOL     OW 8884   3.700   1.367   3.898
 2662SOL    HW1 8885   3.663   1.377   3.806
 2662SOL    HW2 8886   3.626   1.377   3.965
 2663SOL     OW 8887   0.981   4.556   2.950
 2663SOL    HW1 8888   1.061   4.598   2.993
 2663SOL    HW2 8889   1.004   4.462   2.923
 2664SOL     OW 8890   4.631   4.382   1.719
 2664SOL    HW1 8891   4.560   4.344   1.777
 2664SOL    HW2 8892   4.671   4.309   1.663
 2665SOL     OW 8893   4.735   0.620   4.889
 2665SOL    HW1 8894   4.650   0.665   4.861
 2665SOL    HW2 8895   4.798   0.688   4.926
 2666SOL     OW 8896   5.099   5.849   1.495
 2666SOL    HW1 8897   5.081   5.919   1.565
 2666SOL    HW2 8898   5.162   5.781   1.532
 2667SOL     OW 8899   2.084   4.768   2.776
 2667SOL    HW1 8900   2.131   4.774   2.687
 2667SOL    HW2 8901   1.992   4.731   2.762
 2668SOL     OW 8902   6.699   2.420   5.544
 2668SOL    HW1 8903   6.716   2.513   5.511
 2668SOL    HW2 8904   6.783   2.382   5.582
 2669SOL     OW 8905   3.884   6.053   4.710
 2669SOL    HW1 8906   3.953   6.029   4.642
 2669SOL    HW2 8907   3.794   6.027   4.676
 2670SOL     OW 8908   2.338   6.375   4.218
 2670SOL    HW1 8909   2.261   6.330   4.173
 2670SOL    HW2 8910   2.323   6.375   4.317
 2671SOL     OW 8911   3.007   3.900   6.973
 2671SOL    HW1 8912   3.009   3.894   0.047
 2671SOL    HW2 8913   2.993   3.995   6.946
 2672SOL     OW 8914   0.583   4.406   0.549
 2672SOL    HW1 8915   0.621   4.498   0.555
 2672SOL    HW2 8916   0.572   4.369   0.641
 2673SOL     OW 8917   3.837   2.139   2.653
 2673SOL    HW1 8918   3.744   2.173   2.641
 2673SOL    HW2 8919   3.865   2.151   2.748
 2674SOL     OW 8920   5.073   5.730   5.039
 2674SOL    HW1 8921   5.040   5.703   4.948
 2674SOL    HW2 8922   5.061   5.828   5.051
 2675SOL     OW 8923   0.272   5.103   5.537
 2675SOL    HW1 8924   0.347   5.119   5.602
 2675SOL    HW2 8925   0.200   5.171   5.552
 2676SOL     OW 8926   4.250   0.735   1.955
 2676SOL    HW1 8927   4.283   0.815   1.904
 2676SOL    HW2 8928   4.309   0.720   2.034
 2677SOL     OW 8929   2.480   4.559   2.022
 2677SOL    HW1 8930   2.554   4.566   2.089
 2677SOL    HW2 8931   2.488   4.632   1.955
 2678SOL     OW 8932   0.497   6.548   6.633
 2678SOL    HW1 8933   0.596   6.553   6.647
 2678SOL    HW2 8934   0.477   6.554   6.536
 2679SOL     OW 8935   2.361   5.233   2.002
 2679SOL    HW1 8936   2.299   5.175   1.950
 2679SOL    HW2 8937   2.312   5.276   2.078
 2680SOL     OW 8938   0.288   2.287   1.220
 2680SOL    HW1 8939   0.369   2.230   1.205
 2680SOL    HW2 8940   0.307   2.381   1.192
 2681SOL     OW 8941   2.320   2.272   1.516
 2681SOL    HW1 8942   2.269   2.312   1.592
 2681SOL    HW2 8943   2.406   2.234   1.551
 2682SOL     OW 8944   0.249   2.551   3.921
 2682SOL    HW1 8945   0.243   2.507   3.832
 2682SOL    HW2 8946   0.207   2.642   3.916
 2683SOL     OW 8947   1.776   6.962   0.466
 2683SOL    HW1 8948   1.853   6.936   0.524
 2683SOL    HW2 8949   1.714   6.885   0.456
 2684SOL     OW 8950   2.010   5.425   2.868
 2684SOL    HW1 8951   2.039   5.460   2.780
 2684SOL    HW2 8952   2.040   5.330   2.878
 2685SOL     OW 8953   5.464   5.110   5.705
 2685SOL    HW1 8954   5.493   5.194   5.659
 2685SOL    HW2 8955   5.545   5.060   5.736
 2686SOL     OW 8956   0.924   3.266   4.945
 2686SOL    HW1 8957   1.005   3.320   4.965
 2686SOL    HW2 8958   0.935   3.218   4.858
 2687SOL     OW 8959   4.823   5.307   3.312
 2687SOL    HW1 8960   4.891   5.235   3.319
 2687SOL    HW2 8961   4.750   5.278   3.250
 2688SOL     OW 8962   3.508   4.600   5.380
 2688SOL    HW1 8963   3.543   4.508   5.361
 2688SOL    HW2 8964   3.418   4.611   5.337
 2689SOL     OW 8965   6.009   2.082   4.248
 2689SOL    HW1 8966   6.046   2.161   4.298
 2689SOL    HW2 8967   6.082   2.018   4.226
 2690SOL     OW 8968   3.383   4.136   3.796
 2690SOL    HW1 8969   3.395   4.228   3.759
 2690SOL    HW2 8970   3.347   4.076   3.725
 2691SOL     OW 8971   1.317   6.157   1.466
 2691SOL    HW1 8972   1.303   6.082   1.402
 2691SOL    HW2 8973   1.228   6.187   1.502
 2692SOL     OW 8974   6.741   4.089   3.771
 2692SOL    HW1 8975   6.781   4.112   3.859
 2692SOL    HW2 8976   6.813   4.073   3.704
 2693SOL     OW 8977   1.558   3.495   2.625
 2693SOL    HW1 8978   1.652   3.461   2.630
 2693SOL    HW2 8979   1.496   3.428   2.665
 2694SOL     OW 8980   2.062   1.693   2.752
 2694SOL    HW1 8981   1.989   1.743   2.706
 2694SOL    HW2 8982   2.071   1.602   2.710
 2695SOL     OW 8983   4.017   1.823   2.247
 2695SOL    HW1 8984   3.994   1.848   2.341
 2695SOL    HW2 8985   3.957   1.873   2.184
 2696SOL     OW 8986   3.732   3.341   6.081
 2696SOL    HW1 8987   3.695   3.412   6.142
 2696SOL    HW2 8988   3.684   3.255   6.097
 2697SOL     OW 8989   2.828   0.985   5.142
 2697SOL    HW1 8990   2.837   0.940   5.230
 2697SOL    HW2 8991   2.743   1.039   5.140
 2698SOL     OW 8992   1.250   1.519   6.899
 2698SOL    HW1 8993   1.335   1.542   6.946
 2698SOL    HW2 8994   1.271   1.491   6.805
 2699SOL     OW 8995   1.279   4.976   3.749
 2699SOL    HW1 8996   1.242   4.901   3.803
 2699SOL    HW2 8997   1.218   5.055   3.755
 2700SOL     OW 8998   2.256   4.430   2.851
 2700SOL    HW1 8999   2.300   4.435   2.761
 2700SOL    HW2 9000   2.235   4.522   2.883
 2701SOL     OW 9001   2.611   0.713   5.066
 2701SOL    HW1 9002   2.708   0.735   5.059
 2701SOL    HW2 9003   2.567   0.728   4.977
 2702SOL     OW 9004   6.064   6.586   3.107
 2702SOL    HW1 9005   6.144   6.555   3.056
 2702SOL    HW2 9006   5.999   6.511   3.118
 2703SOL     OW 9007   1.739   2.306   3.041
 2703SOL    HW1 9008   1.837   2.299   3.024
 2703SOL    HW2 9009   1.720   2.388   3.095
 2704SOL     OW 9010   1.241   6.632   0.419
 2704SOL    HW1 9011   1.207   6.561   0.481
 2704SOL    HW2 9012   1.271   6.589   0.333
 2705SOL     OW 9013   0.055   3.253   2.583
 2705SOL    HW1 9014   0.069   3.235   2.680
 2705SOL    HW2 9015   6.986   3.282   2.567
 2706SOL     OW 9016   6.465   2.747   3.736
 2706SOL    HW1 9017   6.542   2.743   3.673
 2706SOL    HW2 9018   6.494   2.788   3.822
 2707SOL     OW 9019   3.167   1.242   6.752
 2707SOL    HW1 9020   3.256   1.286   6.747
 2707SOL    HW2 9021   3.096   1.311   6.759
 2708SOL     OW 9022   1.301   4.676   6.869
 2708SOL    HW1 9023   1.376   4.634   6.818
 2708SOL    HW2 9024   1.336   4.714   6.955
 2709SOL     OW 9025   4.353   6.608   1.839
 2709SOL    HW1 9026   4.266   6.647   1.868
 2709SOL    HW2 9027   4.427   6.671   1.861
 2710SOL     OW 9028   6.429   4.309   2.801
 2710SOL    HW1 9029   6.353   4.246   2.790
 2710SOL    HW2 9030   6.479   4.317   2.714
 2711SOL     OW 9031   1.340   6.450   2.282
 2711SOL    HW1 9032   1.335   6.376   2.216
 2711SOL    HW2 9033   1.259   6.507   2.275
 2712SOL     OW 9034   3.046   5.489   2.773
 2712SOL    HW1 9035   3.124   5.461   2.829
 2712SOL    HW2 9036   2.972   5.521   2.832
 2713SOL     OW 9037   1.789   2.961   5.561
 2713SOL    HW1 9038   1.736   3.037   5.523
 2713SOL    HW2 9039   1.862   2.936   5.498
 2714SOL     OW 9040   5.547   0.300   0.012
 2714SOL    HW1 9041   5.590   0.380   6.995
 2714SOL    HW2 9042   5.545   0.312   0.112
 2715SOL     OW 9043   6.237   0.780   0.374
 2715SOL    HW1 9044   6.243   0.879   0.387
 2715SOL    HW2 9045   6.327   0.739   0.390
 2716SOL     OW 9046   6.052   6.457   2.064
 2716SOL    HW1 9047   5.980   6.390   2.044
 2716SOL    HW2 9048   6.054   6.474   2.163
 2717SOL     OW 9049   0.508   6.784   3.073
 2717SOL    HW1 9050   0.510   6.750   2.979
 2717SOL    HW2 9051   0.537   6.712   3.135
 2718SOL     OW 9052   6.981   3.762   3.106
 2718SOL    HW1 9053   6.926   3.845   3.113
 2718SOL    HW2 9054   0.052   3.785   3.118
 2719SOL     OW 9055   3.900   4.890   3.051
 2719SOL    HW1 9056   3.968   4.836   3.100
 2719SOL    HW2 9057   3.823   4.831   3.025
 2720SOL     OW 9058   0.605   6.295   4.559
 2720SOL    HW1 9059   0.643   6.253   4.641
 2720SOL    HW2 9060   0.615   6.232   4.482
 2721SOL     OW 9061   5.331   6.458   3.459
 2721SOL    HW1 9062   5.278   6.508   3.390
 2721SOL    HW2 9063   5.399   6.401   3.413
 2722SOL     OW 9064   0.529   5.632   2.124
 2722SOL    HW1 9065   0.523   5.620   2.223
 2722SOL    HW2 9066   0.619   5.670   2.101
 2723SOL     OW 9067   1.885   2.168   4.533
 2723SOL    HW1 9068   1.788   2.187   4.550
 2723SOL    HW2 9069   1.941   2.232   4.584
 2724SOL     OW 9070   4.761   5.629   6.059
 2724SOL    HW1 9071   4.669   5.647   6.093
 2724SOL    HW2 9072   4.814   5.713   6.062
 2725SOL     OW 9073   2.527   4.700   3.423
 2725SOL    HW1 9074   2.561   4.732   3.511
 2725SOL    HW2 9075   2.478   4.775   3.377
 2726SOL     OW 9076   4.191   6.217   2.625
 2726SOL    HW1 9077   4.191   6.127   2.668
 2726SOL    HW2 9078   4.103   6.262   2.640
 2727SOL     OW 9079   2.095   5.755   4.211
 2727SOL    HW1 9080   2.184   5.711   4.224
 2727SOL    HW2 9081   2.048   5.761   4.299
 2728SOL     OW 9082   2.491   6.945   5.560
 2728SOL    HW1 9083   2.587   6.928   5.542
 2728SOL    HW2 9084   2.466   6.907   5.650
 2729SOL     OW 9085   0.387   4.745   2.650
 2729SOL    HW1 9086   0.395   4.843   2.668
 2729SOL    HW2 9087   0.344   4.730   2.561
 2730SOL     OW 9088   1.273   4.257   1.207
 2730SOL    HW1 9089   1.299   4.171   1.162
 2730SOL    HW2 9090   1.350   4.322   1.202
 2731SOL     OW 9091   2.287   3.419   0.226
 2731SOL    HW1 9092   2.348   3.362   0.281
 2731SOL    HW2 9093   2.220   3.463   0.285
 2732SOL     OW 9094   5.480   3.318   4.525
 2732SOL    HW1 9095   5.421   3.326   4.444
 2732SOL    HW2 9096   5.441   3.251   4.588
 2733SOL     OW 9097   2.131   0.577   0.092
 2733SOL    HW1 9098   2.178   0.491   0.073
 2733SOL    HW2 9099   2.042   0.558   0.134
 2734SOL     OW 9100   1.848   6.875   4.396
 2734SOL    HW1 9101   1.816   6.781   4.406
 2734SOL    HW2 9102   1.879   6.909   4.485
 2735SOL     OW 9103   1.882   5.339   1.398
 2735SOL    HW1 9104   1.858   5.248   1.362
 2735SOL    HW2 9105   1.890   5.403   1.322
 2736SOL     OW 9106   4.269   0.025   6.649
 2736SOL    HW1 9107   4.318   7.006   6.575
 2736SOL    HW2 9108   4.181   7.005   6.663
 2737SOL     OW 9109   4.049   3.859   5.485
 2737SOL    HW1 9110   3.962   3.848   5.436
 2737SOL    HW2 9111   4.051   3.949   5.529
 2738SOL     OW 9112   6.454   4.077   4.186
 2738SOL    HW1 9113   6.496   3.987   4.180
 2738SOL    HW2 9114   6.488   4.125   4.267
 2739SOL     OW 9115   4.561   3.987   6.964
 2739SOL    HW1 9116   4.648   3.951   6.930
 2739SOL    HW2 9117   4.570   4.010   0.036
 2740SOL     OW 9118   5.971   2.594   4.256
 2740SOL    HW1 9119   5.879   2.573   4.290
 2740SOL    HW2 9120   5.975   2.690   4.228
 2741SOL     OW 9121   1.969   3.186   5.509
 2741SOL    HW1 9122   1.879   3.225   5.491
 2741SOL    HW2 9123   1.972   3.150   5.602
 2742SOL     OW 9124   2.903   6.252   5.726
 2742SOL    HW1 9125   2.874   6.225   5.818
 2742SOL    HW2 9126   2.965   6.183   5.689
 2743SOL     OW 9127   6.025   4.358   6.420
 2743SOL    HW1 9128   6.080   4.430   6.378
 2743SOL    HW2 9129   5.960   4.399   6.484
 2744SOL     OW 9130   5.022   0.010   1.071
 2744SOL    HW1 9131   4.978   6.969   1.131
 2744SOL    HW2 9132   4.984   0.001   0.979
 2745SOL     OW 9133   3.255   6.135   2.072
 2745SOL    HW1 9134   3.184   6.065   2.072
 2745SOL    HW2 9135   3.269   6.169   1.979
 2746SOL     OW 9136   1.175   2.081   6.682
 2746SOL    HW1 9137   1.208   1.999   6.728
 2746SOL    HW2 9138   1.203   2.079   6.586
 2747SOL     OW 9139   5.158   6.094   3.751
 2747SOL    HW1 9140   5.114   6.181   3.727
 2747SOL    HW2 9141   5.238   6.081   3.692
 2748SOL     OW 9142   5.423   1.081   4.838
 2748SOL    HW1 9143   5.472   1.103   4.753
 2748SOL    HW2 9144   5.466   1.128   4.915
 2749SOL     OW 9145   5.645   4.632   3.072
 2749SOL    HW1 9146   5.696   4.708   3.031
 2749SOL    HW2 9147   5.690   4.546   3.049
 2750SOL     OW 9148   0.937   6.889   6.969
 2750SOL    HW1 9149   0.923   6.988   6.964
 2750SOL    HW2 9150   0.862   6.847   7.020
 2751SOL     OW 9151   1.658   0.272   6.682
 2751SOL    HW1 9152   1.739   0.214   6.691
 2751SOL    HW2 9153   1.615   0.255   6.593
 2752SOL     OW 9154   0.557   6.776   6.265
 2752SOL    HW1 9155   0.522   6.844   6.202
 2752SOL    HW2 9156   0.481   6.737   6.318
 2753SOL     OW 9157   3.077   5.112   4.573
 2753SOL    HW1 9158   3.177   5.121   4.576
 2753SOL    HW2 9159   3.037   5.200   4.547
 2754SOL     OW 9160   1.073   5.695   4.224
 2754SOL    HW1 9161   1.055   5.625   4.294
 2754SOL    HW2 9162   1.133   5.657   4.154
 2755SOL     OW 9163   4.618   6.552   2.889
 2755SOL    HW1 9164   4.638   6.546   2.987
 2755SOL    HW2 9165   4.596   6.461   2.854
 2756SOL     OW 9166   0.122   2.611   5.123
 2756SOL    HW1 9167   0.127   2.684   5.191
 2756SOL    HW2 9168   0.211   2.600   5.079
 2757SOL     OW 9169   5.265   3.892   5.673
 2757SOL    HW1 9170   5.308   3.983   5.678
 2757SOL    HW2 9171   5.186   3.897   5.612
 2758SOL     OW 9172   0.284   6.357   1.877
 2758SOL    HW1 9173   0.199   6.393   1.838
 2758SOL    HW2 9174   0.275   6.349   1.976
 2759SOL     OW 9175   3.628   3.651   5.170
 2759SOL    HW1 9176   3.572   3.605   5.101
 2759SOL    HW2 9177   3.724   3.623   5.160
 2760SOL     OW 9178   5.315   5.351   2.990
 2760SOL    HW1 9179   5.289   5.428   3.048
 2760SOL    HW2 9180   5.407   5.367   2.953
 2761SOL     OW 9181   1.811   3.451   4.154
 2761SOL    HW1 9182   1.874   3.435   4.078
 2761SOL    HW2 9183   1.773   3.543   4.147
 2762SOL     OW 9184   4.570   1.370   2.290
 2762SOL    HW1 9185   4.471   1.388   2.285
 2762SOL    HW2 9186   4.616   1.448   2.331
 2763SOL     OW 9187   5.384   1.061   4.191
 2763SOL    HW1 9188   5.402   0.979   4.137
 2763SOL    HW2 9189   5.300   1.050   4.243
 2764SOL     OW 9190   6.706   2.134   3.433
 2764SOL    HW1 9191   6.725   2.231   3.451
 2764SOL    HW2 9192   6.793   2.084   3.426
 2765SOL     OW 9193   0.406   6.745   6.809
 2765SOL    HW1 9194   0.377   6.823   6.754
 2765SOL    HW2 9195   0.427   6.667   6.750
 2766SOL     OW 9196   4.927   0.440   0.365
 2766SOL    HW1 9197   4.955   0.456   0.271
 2766SOL    HW2 9198   4.829   0.457   0.374
 2767SOL     OW 9199   0.417   6.225   5.972
 2767SOL    HW1 9200   0.410   6.128   5.993
 2767SOL    HW2 9201   0.335   6.272   6.003
 2768SOL     OW 9202   4.098   6.833   1.673
 2768SOL    HW1 9203   4.024   6.872   1.619
 2768SOL    HW2 9204   4.082   6.851   1.770
 2769SOL     OW 9205   0.479   4.826   5.821
 2769SOL    HW1 9206   0.397   4.811   5.876
 2769SOL    HW2 9207   0.460   4.803   5.725
 2770SOL     OW 9208   2.408   6.494   0.951
 2770SOL    HW1 9209   2.327   6.509   0.896
 2770SOL    HW2 9210   2.400   6.408   1.001
 2771SOL     OW 9211   4.149   6.725   5.482
 2771SOL    HW1 9212   4.059   6.764   5.463
 2771SOL    HW2 9213   4.202   6.723   5.398
 2772SOL     OW 9214   5.938   1.694   3.198
 2772SOL    HW1 9215   5.949   1.718   3.101
 2772SOL    HW2 9216   6.027   1.669   3.237
 2773SOL     OW 9217   5.390   1.612   6.298
 2773SOL    HW1 9218   5.440   1.643   6.378
 2773SOL    HW2 9219   5.412   1.516   6.280
 2774SOL     OW 9220   6.639   0.225   3.512
 2774SOL    HW1 9221   6.683   0.262   3.594
 2774SOL    HW2 9222   6.575   0.292   3.475
 2775SOL     OW 9223   6.692   2.266   4.399
 2775SOL    HW1 9224   6.696   2.245   4.497
 2775SOL    HW2 9225   6.653   2.189   4.350
 2776SOL     OW 9226   4.913   3.684   5.785
 2776SOL    HW1 9227   4.986   3.623   5.756
 2776SOL    HW2 9228   4.930   3.776   5.751
 2777SOL     OW 9229   1.523   1.647   0.299
 2777SOL    HW1 9230   1.500   1.604   0.387
 2777SOL    HW2 9231   1.504   1.583   0.225
 2778SOL     OW 9232   2.468   0.021   6.031
 2778SOL    HW1 9233   2.374   0.054   6.041
 2778SOL    HW2 9234   2.523   0.090   5.985
 2779SOL     OW 9235   5.198   1.069   3.108
 2779SOL    HW1 9236   5.149   1.049   3.193
 2779SOL    HW2 9237   5.269   1.000   3.093
 2780SOL     OW 9238   0.882   0.764   5.144
 2780SOL    HW1 9239   0.948   0.730   5.077
 2780SOL    HW2 9240   0.876   0.864   5.137
 2781SOL     OW 9241   0.083   0.384   2.706
 2781SOL    HW1 9242   0.078   0.289   2.675
 2781SOL    HW2 9243   0.033   0.395   2.791
 2782SOL     OW 9244   5.962   0.117   4.694
 2782SOL    HW1 9245   5.875   0.155   4.724
 2782SOL    HW2 9246   5.956   0.093   4.597
 2783SOL     OW 9247   6.259   3.087   1.889
 2783SOL    HW1 9248   6.194   3.035   1.833
 2783SOL    HW2 9249   6.352   3.063   1.863
 2784SOL     OW 9250   0.820   2.268   1.702
 2784SOL    HW1 9251   0.874   2.223   1.773
 2784SOL    HW2 9252   0.871   2.345   1.666
 2785SOL     OW 9253   5.605   3.834   3.712
 2785SOL    HW1 9254   5.521   3.888   3.707
 2785SOL    HW2 9255   5.664   3.858   3.635
 2786SOL     OW 9256   0.031   5.466   0.771
 2786SOL    HW1 9257   0.011   5.424   0.682
 2786SOL    HW2 9258   0.076   5.554   0.756
 2787SOL     OW 9259   0.608   6.942   6.050
 2787SOL    HW1 9260   0.521   6.904   6.019
 2787SOL    HW2 9261   0.613   0.013   6.022
 2788SOL     OW 9262   2.839   6.406   0.250
 2788SOL    HW1 9263   2.796   6.318   0.269
 2788SOL    HW2 9264   2.775   6.463   0.199
 2789SOL     OW 9265   1.904   2.048   3.897
 2789SOL    HW1 9266   1.908   1.963   3.845
 2789SOL    HW2 9267   1.992   2.095   3.891
 2790SOL     OW 9268   0.249   5.126   1.703
 2790SOL    HW1 9269   0.240   5.065   1.624
 2790SOL    HW2 9270   0.168   5.183   1.711
 2791SOL     OW 9271   0.362   3.324   5.333
 2791SOL    HW1 9272   0.437   3.273   5.292
 2791SOL    HW2 9273   0.397   3.378   5.410
 2792SOL     OW 9274   3.190   2.423   6.608
 2792SOL    HW1 9275   3.242   2.491   6.556
 2792SOL    HW2 9276   3.238   2.401   6.693
 2793SOL     OW 9277   3.897   3.635   6.418
 2793SOL    HW1 9278   3.816   3.583   6.390
 2793SOL    HW2 9279   3.879   3.733   6.408
 2794SOL     OW 9280   1.504   1.875   6.659
 2794SOL    HW1 9281   1.529   1.888   6.563
 2794SOL    HW2 9282   1.587   1.860   6.713
 2795SOL     OW 9283   0.998   0.150   0.446
 2795SOL    HW1 9284   1.097   0.150   0.432
 2795SOL    HW2 9285   0.975   0.085   0.519
 2796SOL     OW 9286   3.235   6.388   6.926
 2796SOL    HW1 9287   3.257   6.369   7.022
 2796SOL    HW2 9288   3.233   6.487   6.912
 2797SOL     OW 9289   4.993   4.370   4.482
 2797SOL    HW1 9290   5.032   4.278   4.474
 2797SOL    HW2 9291   5.012   4.423   4.400
 2798SOL     OW 9292   5.250   2.821   1.589
 2798SOL    HW1 9293   5.292   2.906   1.620
 2798SOL    HW2 9294   5.163   2.807   1.636
 2799SOL     OW 9295   3.124   6.987   4.565
 2799SOL    HW1 9296   3.175   6.915   4.519
 2799SOL    HW2 9297   3.026   6.973   4.553
 2800SOL     OW 9298   4.742   1.388   6.609
 2800SOL    HW1 9299   4.729   1.394   6.511
 2800SOL    HW2 9300   4.794   1.304   6.630
 2801SOL     OW 9301   7.007   4.122   3.656
 2801SOL    HW1 9302   7.017   4.201   3.716
 2801SOL    HW2 9303   0.058   4.119   3.591
 2802SOL     OW 9304   1.356   4.075   4.230
 2802SOL    HW1 9305   1.440   4.048   4.184
 2802SOL    HW2 9306   1.377   4.141   4.302
 2803SOL     OW 9307   3.632   2.974   6.750
 2803SOL    HW1 9308   3.712   2.925   6.716
 2803SOL    HW2 9309   3.658   3.034   6.826
 2804SOL     OW 9310   6.033   2.354   3.512
 2804SOL    HW1 9311   6.066   2.416   3.441
 2804SOL    HW2 9312   5.948   2.390   3.551
 2805SOL     OW 9313   3.900   5.194   0.491
 2805SOL    HW1 9314   3.932   5.283   0.524
 2805SOL    HW2 9315   3.801   5.199   0.474
 2806SOL     OW 9316   0.359   2.873   4.496
 2806SOL    HW1 9317   0.325   2.964   4.470
 2806SOL    HW2 9318   0.306   2.803   4.448
 2807SOL     OW 9319   4.321   1.441   3.901
 2807SOL    HW1 9320   4.233   1.425   3.946
 2807SOL    HW2 9321   4.390   1.379   3.938
 2808SOL     OW 9322   1.207   6.122   6.637
 2808SOL    HW1 9323   1.157   6.132   6.551
 2808SOL    HW2 9324   1.261   6.204   6.654
 2809SOL     OW 9325   1.271   6.291   0.784
 2809SOL    HW1 9326   1.351   6.231   0.792
 2809SOL    HW2 9327   1.267   6.352   0.862
 2810SOL     OW 9328   0.680   6.014   2.878
 2810SOL    HW1 9329   0.685   6.079   2.801
 2810SOL    HW2 9330   0.636   5.930   2.847
 2811SOL     OW 9331   0.880   0.560   0.589
 2811SOL    HW1 9332   0.936   0.488   0.630
 2811SOL    HW2 9333   0.787   0.526   0.574
 2812SOL     OW 9334   1.753   1.114   1.099
 2812SOL    HW1 9335   1.701   1.192   1.064
 2812SOL    HW2 9336   1.733   1.100   1.195
 2813SOL     OW 9337   6.380   2.564   1.000
 2813SOL    HW1 9338   6.372   2.635   1.069
 2813SOL    HW2 9339   6.463   2.511   1.015
 2814SOL     OW 9340   2.287   4.390   6.834
 2814SOL    HW1 9341   2.285   4.320   6.905
 2814SOL    HW2 9342   2.337   4.356   6.755
 2815SOL     OW 9343   6.545   6.147   4.767
 2815SOL    HW1 9344   6.476   6.144   4.840
 2815SOL    HW2 9345   6.592   6.235   4.771
 2816SOL     OW 9346   0.867   4.954   4.732
 2816SOL    HW1 9347   0.780   4.956   4.779
 2816SOL    HW2 9348   0.887   4.861   4.701
 2817SOL     OW 9349   2.462   0.536   1.818
 2817SOL    HW1 9350   2.520   0.538   1.900
 2817SOL    HW2 9351   2.389   0.603   1.828
 2818SOL     OW 9352   1.956   1.131   0.463
 2818SOL    HW1 9353   2.051   1.137   0.493
 2818SOL    HW2 9354   1.929   1.035   0.455
 2819SOL     OW 9355   6.272   0.387   6.682
 2819SOL    HW1 9356   6.344   0.350   6.740
 2819SOL    HW2 9357   6.301   0.474   6.643
 2820SOL     OW 9358   1.892   1.493   0.218
 2820SOL    HW1 9359   1.991   1.485   0.232
 2820SOL    HW2 9360   1.874   1.539   0.131
 2821SOL     OW 9361   3.709   1.965   5.825
 2821SOL    HW1 9362   3.773   2.033   5.788
 2821SOL    HW2 9363   3.757   1.880   5.844
 2822SOL     OW 9364   4.239   2.734   1.224
 2822SOL    HW1 9365   4.152   2.768   1.258
 2822SOL    HW2 9366   4.223   2.667   1.152
 2823SOL     OW 9367   5.705   4.288   2.796
 2823SOL    HW1 9368   5.733   4.221   2.727
 2823SOL    HW2 9369   5.641   4.246   2.860
 2824SOL     OW 9370   0.626   4.149   5.258
 2824SOL    HW1 9371   0.670   4.065   5.289
 2824SOL    HW2 9372   0.645   4.162   5.160
 2825SOL     OW 9373   5.038   2.253   5.332
 2825SOL    HW1 9374   4.961   2.286   5.387
 2825SOL    HW2 9375   5.110   2.219   5.392
 2826SOL     OW 9376   2.860   3.319   6.970
 2826SOL    HW1 9377   2.936   3.254   6.971
 2826SOL    HW2 9378   2.857   3.368   0.031
 2827SOL     OW 9379   6.612   1.674   0.085
 2827SOL    HW1 9380   6.516   1.678   0.111
 2827SOL    HW2 9381   6.660   1.608   0.142
 2828SOL     OW 9382   1.540   4.461   0.099
 2828SOL    HW1 9383   1.574   4.392   0.163
 2828SOL    HW2 9384   1.448   4.437   0.071
 2829SOL     OW 9385   3.544   4.224   1.433
 2829SOL    HW1 9386   3.500   4.136   1.450
 2829SOL    HW2 9387   3.533   4.283   1.512
 2830SOL     OW 9388   2.822   5.611   4.735
 2830SOL    HW1 9389   2.780   5.699   4.714
 2830SOL    HW2 9390   2.755   5.550   4.775
 2831SOL     OW 9391   6.431   1.874   2.180
 2831SOL    HW1 9392   6.437   1.963   2.226
 2831SOL    HW2 9393   6.506   1.816   2.210
 2832SOL     OW 9394   1.576   4.081   1.263
 2832SOL    HW1 9395   1.634   4.001   1.279
 2832SOL    HW2 9396   1.492   4.071   1.316
 2833SOL     OW 9397   6.573   2.675   3.339
 2833SOL    HW1 9398   6.480   2.656   3.372
 2833SOL    HW2 9399   6.570   2.697   3.242
 2834SOL     OW 9400   3.241   0.582   4.274
 2834SOL    HW1 9401   3.215   0.590   4.178
 2834SOL    HW2 9402   3.201   0.498   4.313
 2835SOL     OW 9403   6.565   1.625   0.619
 2835SOL    HW1 9404   6.561   1.575   0.705
 2835SOL    HW2 9405   6.504   1.583   0.552
 2836SOL     OW 9406   3.438   5.926   1.659
 2836SOL    HW1 9407   3.474   5.833   1.649
 2836SOL    HW2 9408   3.431   5.969   1.570
 2837SOL     OW 9409   5.472   4.140   2.934
 2837SOL    HW1 9410   5.372   4.133   2.939
 2837SOL    HW2 9411   5.507   4.182   3.017
 2838SOL     OW 9412   0.017   3.841   5.775
 2838SOL    HW1 9413   0.009   3.841   5.875
 2838SOL    HW2 9414   0.114   3.835   5.750
 2839SOL     OW 9415   5.754   2.718   6.369
 2839SOL    HW1 9416   5.761   2.790   6.439
 2839SOL    HW2 9417   5.670   2.731   6.317
 2840SOL     OW 9418   6.337   6.230   4.957
 2840SOL    HW1 9419   6.282   6.219   5.040
 2840SOL    HW2 9420   6.279   6.270   4.885
 2841SOL     OW 9421   5.422   3.562   3.032
 2841SOL    HW1 9422   5.426   3.477   3.085
 2841SOL    HW2 9423   5.462   3.636   3.085
 2842SOL     OW 9424   0.757   6.362   3.715
 2842SOL    HW1 9425   0.657   6.368   3.710
 2842SOL    HW2 9426   0.797   6.438   3.663
 2843SOL     OW 9427   1.285   2.992   4.170
 2843SOL    HW1 9428   1.384   2.989   4.187
 2843SOL    HW2 9429   1.242   2.912   4.211
 2844SOL     OW 9430   5.372   4.120   7.019
 2844SOL    HW1 9431   5.462   4.085   6.994
 2844SOL    HW2 9432   5.303   4.050   6.998
 2845SOL     OW 9433   3.791   1.787   1.267
 2845SOL    HW1 9434   3.856   1.778   1.341
 2845SOL    HW2 9435   3.838   1.818   1.184
 2846SOL     OW 9436   5.131   0.003   6.543
 2846SOL    HW1 9437   5.064   0.046   6.482
 2846SOL    HW2 9438   5.128   6.929   6.530
 2847SOL     OW 9439   5.706   4.870   2.122
 2847SOL    HW1 9440   5.662   4.827   2.043
 2847SOL    HW2 9441   5.731   4.964   2.099
 2848SOL     OW 9442   0.567   3.308   0.214
 2848SOL    HW1 9443   0.592   3.386   0.157
 2848SOL    HW2 9444   0.519   3.340   0.296
 2849SOL     OW 9445   5.297   0.648   1.318
 2849SOL    HW1 9446   5.357   0.680   1.245
 2849SOL    HW2 9447   5.268   0.726   1.374
 2850SOL     OW 9448   0.379   0.922   0.894
 2850SOL    HW1 9449   0.408   0.924   0.798
 2850SOL    HW2 9450   0.377   1.015   0.930
 2851SOL     OW 9451   3.646   3.727   2.174
 2851SOL    HW1 9452   3.667   3.825   2.175
 2851SOL    HW2 9453   3.635   3.695   2.268
 2852SOL     OW 9454   0.619   4.991   4.854
 2852SOL    HW1 9455   0.592   5.080   4.891
 2852SOL    HW2 9456   0.542   4.951   4.804
 2853SOL     OW 9457   0.413   4.510   5.990
 2853SOL    HW1 9458   0.466   4.588   6.025
 2853SOL    HW2 9459   0.465   4.426   6.001
 2854SOL     OW 9460   2.884   0.275   6.926
 2854SOL    HW1 9461   2.948   0.199   6.914
 2854SOL    HW2 9462   2.885   0.332   6.843
 2855SOL     OW 9463   2.632   2.247   4.225
 2855SOL    HW1 9464   2.674   2.269   4.313
 2855SOL    HW2 9465   2.608   2.150   4.223
 2856SOL     OW 9466   1.509   5.249   4.835
 2856SOL    HW1 9467   1.419   5.209   4.853
 2856SOL    HW2 9468   1.551   5.202   4.757
 2857SOL     OW 9469   0.517   4.307   0.141
 2857SOL    HW1 9470   0.469   4.395   0.146
 2857SOL    HW2 9471   0.559   4.286   0.230
 2858SOL     OW 9472   5.566   4.689   4.144
 2858SOL    HW1 9473   5.658   4.727   4.130
 2858SOL    HW2 9474   5.510   4.705   4.063
 2859SOL     OW 9475   6.934   4.889   1.903
 2859SOL    HW1 9476   6.973   4.858   1.817
 2859SOL    HW2 9477   6.990   4.962   1.941
 2860SOL     OW 9478   1.314   6.891   3.052
 2860SOL    HW1 9479   1.364   6.978   3.060
 2860SOL    HW2 9480   1.305   6.868   2.955
 2861SOL     OW 9481   5.595   3.363   5.412
 2861SOL    HW1 9482   5.644   3.412   5.484
 2861SOL    HW2 9483   5.512   3.414   5.388
 2862SOL     OW 9484   4.812   1.315   0.265
 2862SOL    HW1 9485   4.875   1.264   0.206
 2862SOL    HW2 9486   4.767   1.251   0.327
 2863SOL     OW 9487   5.549   1.758   6.129
 2863SOL    HW1 9488   5.485   1.715   6.192
 2863SOL    HW2 9489   5.626   1.796   6.180
 2864SOL     OW 9490   4.191   4.791   0.980
 2864SOL    HW1 9491   4.113   4.775   1.041
 2864SOL    HW2 9492   4.275   4.761   1.025
 2865SOL     OW 9493   5.456   4.653   6.347
 2865SOL    HW1 9494   5.534   4.621   6.294
 2865SOL    HW2 9495   5.399   4.575   6.373
 2866SOL     OW 9496   4.438   5.758   1.006
 2866SOL    HW1 9497   4.414   5.708   1.089
 2866SOL    HW2 9498   4.434   5.696   0.927
 2867SOL     OW 9499   0.822   6.131   3.110
 2867SOL    HW1 9500   0.823   6.071   3.030
 2867SOL    HW2 9501   0.734   6.121   3.157
 2868SOL     OW 9502   6.642   0.511   5.518
 2868SOL    HW1 9503   6.722   0.563   5.487
 2868SOL    HW2 9504   6.655   0.486   5.614
 2869SOL     OW 9505   5.623   4.731   5.427
 2869SOL    HW1 9506   5.608   4.733   5.328
 2869SOL    HW2 9507   5.680   4.653   5.451
 2870SOL     OW 9508   0.243   1.341   1.357
 2870SOL    HW1 9509   0.238   1.425   1.303
 2870SOL    HW2 9510   0.170   1.340   1.425
 2871SOL     OW 9511   4.637   1.143   3.470
 2871SOL    HW1 9512   4.703   1.191   3.528
 2871SOL    HW2 9513   4.619   1.196   3.387
 2872SOL     OW 9514   3.619   1.641   2.696
 2872SOL    HW1 9515   3.565   1.715   2.655
 2872SOL    HW2 9516   3.558   1.581   2.749
 2873SOL     OW 9517   0.279   0.090   2.850
 2873SOL    HW1 9518   0.208   0.039   2.898
 2873SOL    HW2 9519   0.240   0.133   2.768
 2874SOL     OW 9520   1.840   1.079   2.663
 2874SOL    HW1 9521   1.845   1.177   2.684
 2874SOL    HW2 9522   1.745   1.052   2.650
 2875SOL     OW 9523   2.943   0.631   2.490
 2875SOL    HW1 9524   3.008   0.604   2.419
 2875SOL    HW2 9525   2.984   0.702   2.547
 2876SOL     OW 9526   1.395   0.076   1.145
 2876SOL    HW1 9527   1.332   0.114   1.212
 2876SOL    HW2 9528   1.344   0.018   1.081
 2877SOL     OW 9529   1.592   3.471   6.632
 2877SOL    HW1 9530   1.566   3.387   6.680
 2877SOL    HW2 9531   1.595   3.454   6.534
 2878SOL     OW 9532   3.592   3.633   4.878
 2878SOL    HW1 9533   3.666   3.697   4.899
 2878SOL    HW2 9534   3.505   3.683   4.874
 2879SOL     OW 9535   6.405   5.664   0.431
 2879SOL    HW1 9536   6.387   5.702   0.340
 2879SOL    HW2 9537   6.424   5.566   0.423
 2880SOL     OW 9538   1.647   1.936   2.760
 2880SOL    HW1 9539   1.581   1.999   2.719
 2880SOL    HW2 9540   1.663   1.961   2.855
 2881SOL     OW 9541   5.045   4.882   6.767
 2881SOL    HW1 9542   5.131   4.842   6.735
 2881SOL    HW2 9543   5.035   4.974   6.730
 2882SOL     OW 9544   5.235   6.679   0.165
 2882SOL    HW1 9545   5.156   6.686   0.226
 2882SOL    HW2 9546   5.241   6.762   0.109
 2883SOL     OW 9547   5.040   6.053   2.930
 2883SOL    HW1 9548   5.138   6.043   2.913
 2883SOL    HW2 9549   5.025   6.087   3.023
 2884SOL     OW 9550   6.275   5.106   3.378
 2884SOL    HW1 9551   6.349   5.039   3.379
 2884SOL    HW2 9552   6.214   5.090   3.455
 2885SOL     OW 9553   0.400   3.595   3.422
 2885SOL    HW1 9554   0.351   3.508   3.434
 2885SOL    HW2 9555   0.494   3.576   3.395
 2886SOL     OW 9556   2.162   4.139   4.912
 2886SOL    HW1 9557   2.223   4.190   4.851
 2886SOL    HW2 9558   2.213   4.064   4.955
 2887SOL     OW 9559   6.862   4.688   3.005
 2887SOL    HW1 9560   6.833   4.598   2.971
 2887SOL    HW2 9561   6.830   4.759   2.942
 2888SOL     OW 9562   4.506   5.854   6.560
 2888SOL    HW1 9563   4.470   5.938   6.519
 2888SOL    HW2 9564   4.582   5.876   6.620
 2889SOL     OW 9565   4.117   5.601   4.291
 2889SOL    HW1 9566   4.101   5.525   4.229
 2889SOL    HW2 9567   4.199   5.584   4.345
 2890SOL     OW 9568   1.446   2.315   0.950
 2890SOL    HW1 9569   1.447   2.219   0.922
 2890SOL    HW2 9570   1.511   2.366   0.894
 2891SOL     OW 9571   1.803   1.690   5.485
 2891SOL    HW1 9572   1.793   1.591   5.476
 2891SOL    HW2 9573   1.779   1.717   5.579
 2892SOL     OW 9574   5.778   4.148   2.184
 2892SOL    HW1 9575   5.838   4.213   2.138
 2892SOL    HW2 9576   5.825   4.061   2.194
 2893SOL     OW 9577   7.020   6.105   5.240
 2893SOL    HW1 9578   0.073   6.167   5.236
 2893SOL    HW2 9579   7.025   6.051   5.324
 2894SOL     OW 9580   1.900   5.541   1.210
 2894SOL    HW1 9581   1.959   5.547   1.129
 2894SOL    HW2 9582   1.873   5.633   1.238
 2895SOL     OW 9583   5.090   6.757   6.228
 2895SOL    HW1 9584   5.082   6.799   6.318
 2895SOL    HW2 9585   5.024   6.683   6.219
 2896SOL     OW 9586   6.522   0.056   6.100
 2896SOL    HW1 9587   6.426   0.030   6.089
 2896SOL    HW2 9588   6.566   0.060   6.011
 2897SOL     OW 9589   3.310   6.000   3.367
 2897SOL    HW1 9590   3.318   5.908   3.405
 2897SOL    HW2 9591   3.375   6.061   3.412
 2898SOL     OW 9592   5.275   2.340   2.500
 2898SOL    HW1 9593   5.293   2.286   2.583
 2898SOL    HW2 9594   5.281   2.281   2.420
 2899SOL     OW 9595   6.415   2.792   1.168
 2899SOL    HW1 9596   6.479   2.809   1.243
 2899SOL    HW2 9597   6.366   2.876   1.147
 2900SOL     OW 9598   3.110   2.966   5.186
 2900SOL    HW1 9599   3.086   2.880   5.232
 2900SOL    HW2 9600   3.030   3.025   5.183
 2901SOL     OW 9601   1.512   3.408   1.451
 2901SOL    HW1 9602   1.486   3.487   1.395
 2901SOL    HW2 9603   1.437   3.342   1.452
 2902SOL     OW 9604   5.500   6.216   3.331
 2902SOL    HW1 9605   5.567   6.266   3.386
 2902SOL    HW2 9606   5.543   6.136   3.289
 2903SOL     OW 9607   0.761   5.740   0.960
 2903SOL    HW1 9608   0.826   5.673   0.995
 2903SOL    HW2 9609   0.807   5.803   0.897
 2904SOL     OW 9610   2.762   4.711   4.398
 2904SOL    HW1 9611   2.784   4.741   4.491
 2904SOL    HW2 9612   2.678   4.657   4.399
 2905SOL     OW 9613   1.457   4.481   1.809
 2905SOL    HW1 9614   1.512   4.488   1.726
 2905SOL    HW2 9615   1.511   4.438   1.882
 2906SOL     OW 9616   6.530   6.440   6.151
 2906SOL    HW1 9617   6.570   6.377   6.218
 2906SOL    HW2 9618   6.455   6.395   6.103
 2907SOL     OW 9619   6.547   0.845   6.058
 2907SOL    HW1 9620   6.589   0.777   6.118
 2907SOL    HW2 9621   6.551   0.935   6.102
 2908SOL     OW 9622   4.057   6.079   3.783
 2908SOL    HW1 9623   4.139   6.038   3.823
 2908SOL    HW2 9624   3.987   6.008   3.772
 2909SOL     OW 9625   0.559   6.782   0.839
 2909SOL    HW1 9626   0.483   6.775   0.775
 2909SOL    HW2 9627   0.545   6.721   0.916
 2910SOL     OW 9628   1.291   0.789   4.387
 2910SOL    HW1 9629   1.240   0.849   4.326
 2910SOL    HW2 9630   1.240   0.776   4.472
 2911SOL     OW 9631   6.375   3.624   3.787
 2911SOL    HW1 9632   6.312   3.687   3.831
 2911SOL    HW2 9633   6.468   3.663   3.788
 2912SOL     OW 9634   0.431   1.279   2.748
 2912SOL    HW1 9635   0.517   1.316   2.783
 2912SOL    HW2 9636   0.355   1.308   2.806
 2913SOL     OW 9637   1.195   6.349   4.419
 2913SOL    HW1 9638   1.101   6.316   4.410
 2913SOL    HW2 9639   1.200   6.416   4.493
 2914SOL     OW 9640   3.697   4.427   0.878
 2914SOL    HW1 9641   3.698   4.527   0.887
 2914SOL    HW2 9642   3.710   4.402   0.782
 2915SOL     OW 9643   2.333   0.490   3.508
 2915SOL    HW1 9644   2.283   0.569   3.543
 2915SOL    HW2 9645   2.351   0.426   3.583
 2916SOL     OW 9646   0.142   5.930   6.373
 2916SOL    HW1 9647   0.047   5.942   6.344
 2916SOL    HW2 9648   0.161   5.833   6.387
 2917SOL     OW 9649   1.972   0.868   3.352
 2917SOL    HW1 9650   1.897   0.934   3.355
 2917SOL    HW2 9651   2.033   0.884   3.430
 2918SOL     OW 9652   5.237   1.940   1.112
 2918SOL    HW1 9653   5.305   1.870   1.091
 2918SOL    HW2 9654   5.146   1.899   1.116
 2919SOL     OW 9655   0.668   6.014   5.158
 2919SOL    HW1 9656   0.692   5.970   5.244
 2919SOL    HW2 9657   0.624   5.947   5.098
 2920SOL     OW 9658   2.754   2.263   1.791
 2920SOL    HW1 9659   2.806   2.308   1.864
 2920SOL    HW2 9660   2.783   2.299   1.702
 2921SOL     OW 9661   0.239   5.500   3.330
 2921SOL    HW1 9662   0.213   5.446   3.410
 2921SOL    HW2 9663   0.239   5.597   3.355
 2922SOL     OW 9664   4.012   5.040   3.450
 2922SOL    HW1 9665   4.060   5.098   3.515
 2922SOL    HW2 9666   4.065   5.035   3.365
 2923SOL     OW 9667   1.055   4.945   3.958
 2923SOL    HW1 9668   1.016   4.962   4.049
 2923SOL    HW2 9669   1.079   5.032   3.915
 2924SOL     OW 9670   5.179   1.385   6.864
 2924SOL    HW1 9671   5.152   1.481   6.861
 2924SOL    HW2 9672   5.276   1.379   6.889
 2925SOL     OW 9673   5.364   6.896   4.696
 2925SOL    HW1 9674   5.388   6.844   4.777
 2925SOL    HW2 9675   5.367   6.994   4.717
 2926SOL     OW 9676   6.675   2.586   4.463
 2926SOL    HW1 9677   6.712   2.493   4.467
 2926SOL    HW2 9678   6.729   2.640   4.398
 2927SOL     OW 9679   1.135   2.299   2.566
 2927SOL    HW1 9680   1.074   2.284   2.643
 2927SOL    HW2 9681   1.153   2.212   2.520
 2928SOL     OW 9682   5.099   4.838   0.344
 2928SOL    HW1 9683   5.137   4.822   0.252
 2928SOL    HW2 9684   5.081   4.750   0.388
 2929SOL     OW 9685   1.888   2.101   3.308
 2929SOL    HW1 9686   1.811   2.037   3.304
 2929SOL    HW2 9687   1.971   2.051   3.334
 2930SOL     OW 9688   0.480   3.100   4.157
 2930SOL    HW1 9689   0.574   3.128   4.176
 2930SOL    HW2 9690   0.477   3.050   4.071
 2931SOL     OW 9691   6.320   3.914   5.871
 2931SOL    HW1 9692   6.228   3.953   5.872
 2931SOL    HW2 9693   6.362   3.926   5.961
 2932SOL     OW 9694   6.904   6.399   0.517
 2932SOL    HW1 9695   6.950   6.417   0.430
 2932SOL    HW2 9696   6.900   6.484   0.571
 2933SOL     OW 9697   0.728   0.362   0.077
 2933SOL    HW1 9698   0.795   0.419   0.030
 2933SOL    HW2 9699   0.757   0.348   0.172
 2934SOL     OW 9700   5.583   4.741   2.322
 2934SOL    HW1 9701   5.640   4.797   2.261
 2934SOL    HW2 9702   5.511   4.696   2.269
 2935SOL     OW 9703   0.864   3.942   5.798
 2935SOL    HW1 9704   0.858   3.933   5.898
 2935SOL    HW2 9705   0.927   3.874   5.762
 2936SOL     OW 9706   4.180   6.585   2.240
 2936SOL    HW1 9707   4.116   6.508   2.240
 2936SOL    HW2 9708   4.271   6.552   2.265
 2937SOL     OW 9709   6.185   3.365   3.435
 2937SOL    HW1 9710   6.204   3.370   3.337
 2937SOL    HW2 9711   6.116   3.295   3.452
 2938SOL     OW 9712   0.776   4.873   1.104
 2938SOL    HW1 9713   0.712   4.940   1.142
 2938SOL    HW2 9714   0.819   4.822   1.179
 2939SOL     OW 9715   5.826   6.298   1.929
 2939SOL    HW1 9716   5.866   6.208   1.911
 2939SOL    HW2 9717   5.757   6.290   2.000
 2940SOL     OW 9718   4.983   5.947   3.625
 2940SOL    HW1 9719   4.906   5.999   3.588
 2940SOL    HW2 9720   5.057   6.010   3.649
 2941SOL     OW 9721   2.483   4.880   2.806
 2941SOL    HW1 9722   2.433   4.901   2.722
 2941SOL    HW2 9723   2.569   4.932   2.807
 2942SOL     OW 9724   3.294   1.874   1.433
 2942SOL    HW1 9725   3.346   1.959   1.447
 2942SOL    HW2 9726   3.220   1.870   1.500
 2943SOL     OW 9727   0.658   3.895   3.571
 2943SOL    HW1 9728   0.743   3.843   3.577
 2943SOL    HW2 9729   0.621   3.910   3.663
 2944SOL     OW 9730   1.022   5.403   3.324
 2944SOL    HW1 9731   0.970   5.330   3.281
 2944SOL    HW2 9732   1.079   5.366   3.397
 2945SOL     OW 9733   5.721   4.164   0.642
 2945SOL    HW1 9734   5.805   4.196   0.600
 2945SOL    HW2 9735   5.736   4.151   0.740
 2946SOL     OW 9736   3.763   4.149   4.752
 2946SOL    HW1 9737   3.675   4.160   4.798
 2946SOL    HW2 9738   3.752   4.167   4.654
 2947SOL     OW 9739   6.424   6.102   0.188
 2947SOL    HW1 9740   6.349   6.168   0.182
 2947SOL    HW2 9741   6.478   6.107   0.104
 2948SOL     OW 9742   6.223   4.504   0.604
 2948SOL    HW1 9743   6.285   4.432   0.573
 2948SOL    HW2 9744   6.144   4.463   0.649
 2949SOL     OW 9745   2.132   5.975   0.875
 2949SOL    HW1 9746   2.139   5.946   0.970
 2949SOL    HW2 9747   2.157   6.071   0.868
 2950SOL     OW 9748   5.412   5.372   2.129
 2950SOL    HW1 9749   5.392   5.301   2.062
 2950SOL    HW2 9750   5.368   5.348   2.216
 2951SOL     OW 9751   0.525   2.088   1.166
 2951SOL    HW1 9752   0.552   2.015   1.229
 2951SOL    HW2 9753   0.558   2.066   1.074
 2952SOL     OW 9754   0.570   1.628   4.551
 2952SOL    HW1 9755   0.585   1.702   4.486
 2952SOL    HW2 9756   0.599   1.658   4.642
 2953SOL     OW 9757   1.867   5.910   3.017
 2953SOL    HW1 9758   1.801   5.837   3.003
 2953SOL    HW2 9759   1.823   5.998   2.998
 2954SOL     OW 9760   0.659   4.327   6.327
 2954SOL    HW1 9761   0.603   4.245   6.319
 2954SOL    HW2 9762   0.644   4.369   6.417
 2955SOL     OW 9763   1.775   4.660   6.189
 2955SOL    HW1 9764   1.803   4.663   6.285
 2955SOL    HW2 9765   1.807   4.742   6.142
 2956SOL     OW 9766   5.841   3.682   4.736
 2956SOL    HW1 9767   5.933   3.694   4.774
 2956SOL    HW2 9768   5.836   3.729   4.648
 2957SOL     OW 9769   1.548   5.142   2.650
 2957SOL    HW1 9770   1.590   5.054   2.628
 2957SOL    HW2 9771   1.614   5.215   2.632
 2958SOL     OW 9772   1.666   4.262   1.069
 2958SOL    HW1 9773   1.621   4.241   0.983
 2958SOL    HW2 9774   1.663   4.181   1.128
 2959SOL     OW 9775   0.300   4.415   4.219
 2959SOL    HW1 9776   0.260   4.365   4.296
 2959SOL    HW2 9777   0.360   4.487   4.254
 2960SOL     OW 9778   5.116   6.345   0.813
 2960SOL    HW1 9779   5.151   6.438   0.801
 2960SOL    HW2 9780   5.078   6.335   0.905
 2961SOL     OW 9781   5.573   2.153   1.168
 2961SOL    HW1 9782   5.619   2.067   1.147
 2961SOL    HW2 9783   5.637   2.215   1.212
 2962SOL     OW 9784   0.303   0.175   3.687
 2962SOL    HW1 9785   0.395   0.143   3.712
 2962SOL    HW2 9786   0.265   0.230   3.761
 2963SOL     OW 9787   2.107   2.349   5.551
 2963SOL    HW1 9788   2.120   2.283   5.625
 2963SOL    HW2 9789   2.011   2.350   5.522
 2964SOL     OW 9790   1.337   1.256   5.913
 2964SOL    HW1 9791   1.282   1.182   5.952
 2964SOL    HW2 9792   1.324   1.258   5.814
 2965SOL     OW 9793   6.191   0.354   6.386
 2965SOL    HW1 9794   6.242   0.285   6.437
 2965SOL    HW2 9795   6.195   0.441   6.435
 2966SOL     OW 9796   3.558   6.196   2.999
 2966SOL    HW1 9797   3.459   6.203   2.986
 2966SOL    HW2 9798   3.577   6.141   3.080
 2967SOL     OW 9799   6.349   0.156   4.740
 2967SOL    HW1 9800   6.346   0.076   4.800
 2967SOL    HW2 9801   6.409   0.138   4.662
 2968SOL     OW 9802   1.603   3.814   2.013
 2968SOL    HW1 9803   1.576   3.798   1.918
 2968SOL    HW2 9804   1.702   3.802   2.021
 2969SOL     OW 9805   4.678   2.402   4.672
 2969SOL    HW1 9806   4.670   2.463   4.751
 2969SOL    HW2 9807   4.586   2.379   4.639
 2970SOL     OW 9808   3.263   2.489   5.958
 2970SOL    HW1 9809   3.310   2.492   5.869
 2970SOL    HW2 9810   3.212   2.404   5.966
 2971SOL     OW 9811   4.308   3.528   6.194
 2971SOL    HW1 9812   4.311   3.483   6.284
 2971SOL    HW2 9813   4.232   3.594   6.193
 2972SOL     OW 9814   0.452   6.155   6.507
 2972SOL    HW1 9815   0.507   6.193   6.432
 2972SOL    HW2 9816   0.459   6.215   6.587
 2973SOL     OW 9817   6.019   0.395   3.967
 2973SOL    HW1 9818   6.106   0.412   4.011
 2973SOL    HW2 9819   6.014   0.299   3.937
 2974SOL     OW 9820   5.180   6.094   2.628
 2974SOL    HW1 9821   5.221   6.175   2.585
 2974SOL    HW2 9822   5.226   6.076   2.715
 2975SOL     OW 9823   6.607   4.069   4.896
 2975SOL    HW1 9824   6.671   4.020   4.956
 2975SOL    HW2 9825   6.527   4.012   4.880
 2976SOL     OW 9826   4.014   0.560   1.319
 2976SOL    HW1 9827   4.078   0.491   1.285
 2976SOL    HW2 9828   3.920   0.529   1.304
 2977SOL     OW 9829   1.642   1.415   2.465
 2977SOL    HW1 9830   1.632   1.351   2.389
 2977SOL    HW2 9831   1.717   1.385   2.524
 2978SOL     OW 9832   3.836   5.890   0.231
 2978SOL    HW1 9833   3.801   5.969   0.282
 2978SOL    HW2 9834   3.916   5.917   0.178
 2979SOL     OW 9835   2.342   1.612   5.747
 2979SOL    HW1 9836   2.362   1.600   5.650
 2979SOL    HW2 9837   2.422   1.585   5.801
 2980SOL     OW 9838   3.235   2.948   4.024
 2980SOL    HW1 9839   3.328   2.956   4.060
 2980SOL    HW2 9840   3.197   2.859   4.049
 2981SOL     OW 9841   2.970   2.112   1.732
 2981SOL    HW1 9842   3.000   2.175   1.660
 2981SOL    HW2 9843   2.891   2.151   1.779
 2982SOL     OW 9844   1.193   0.641   1.652
 2982SOL    HW1 9845   1.196   0.738   1.675
 2982SOL    HW2 9846   1.160   0.630   1.558
 2983SOL     OW 9847   6.500   2.537   6.539
 2983SOL    HW1 9848   6.425   2.600   6.517
 2983SOL    HW2 9849   6.576   2.555   6.477
 2984SOL     OW 9850   0.679   6.722   1.149
 2984SOL    HW1 9851   0.616   6.645   1.140
 2984SOL    HW2 9852   0.773   6.688   1.143
 2985SOL     OW 9853   6.857   0.129   5.581
 2985SOL    HW1 9854   6.810   0.215   5.599
 2985SOL    HW2 9855   6.864   0.076   5.666
 2986SOL     OW 9856   4.138   3.305   2.900
 2986SOL    HW1 9857   4.229   3.322   2.862
 2986SOL    HW2 9858   4.085   3.251   2.835
 2987SOL     OW 9859   2.429   5.991   5.298
 2987SOL    HW1 9860   2.480   6.076   5.287
 2987SOL    HW2 9861   2.488   5.914   5.273
 2988SOL     OW 9862   0.710   1.900   6.760
 2988SOL    HW1 9863   0.808   1.916   6.765
 2988SOL    HW2 9864   0.678   1.915   6.666
 2989SOL     OW 9865   5.776   3.845   5.981
 2989SOL    HW1 9866   5.795   3.759   6.028
 2989SOL    HW2 9867   5.677   3.860   5.976
 2990SOL     OW 9868   4.715   1.125   4.795
 2990SOL    HW1 9869   4.752   1.033   4.811
 2990SOL    HW2 9870   4.644   1.121   4.725
 2991SOL     OW 9871   6.684   3.345   0.420
 2991SOL    HW1 9872   6.718   3.363   0.327
 2991SOL    HW2 9873   6.586   3.366   0.424
 2992SOL     OW 9874   1.542   4.110   5.002
 2992SOL    HW1 9875   1.478   4.084   5.074
 2992SOL    HW2 9876   1.559   4.031   4.942
 2993SOL     OW 9877   3.652   4.472   6.566
 2993SOL    HW1 9878   3.610   4.545   6.620
 2993SOL    HW2 9879   3.749   4.466   6.587
 2994SOL     OW 9880   2.640   5.022   4.649
 2994SOL    HW1 9881   2.547   4.985   4.639
 2994SOL    HW2 9882   2.706   4.951   4.626
 2995SOL     OW 9883   5.092   7.017   1.863
 2995SOL    HW1 9884   5.032   7.014   1.943
 2995SOL    HW2 9885   5.059   6.953   1.793
 2996SOL     OW 9886   0.268   0.630   4.072
 2996SOL    HW1 9887   0.177   0.643   4.110
 2996SOL    HW2 9888   0.275   0.681   3.986
 2997SOL     OW 9889   4.750   5.894   3.880
 2997SOL    HW1 9890   4.804   5.974   3.906
 2997SOL    HW2 9891   4.806   5.831   3.827
 2998SOL     OW 9892   2.456   0.164   2.287
 2998SOL    HW1 9893   2.472   0.128   2.195
 2998SOL    HW2 9894   2.519   0.122   2.352
 2999SOL     OW 9895   1.975   4.975   0.359
 2999SOL    HW1 9896   2.029   4.936   0.434
 2999SOL    HW2 9897   1.900   4.913   0.336
 3000SOL     OW 9898   1.836   3.835   6.001
 3000SOL    HW1 9899   1.794   3.803   5.916
 3000SOL    HW2 9900   1.925   3.875   5.982
 3001SOL     OW 9901   3.616   0.251   6.741
 3001SOL    HW1 9902   3.659   0.323   6.686
 3001SOL    HW2 9903   3.598   0.285   6.833
 3002SOL     OW 9904   1.239   2.256   2.125
 3002SOL    HW1 9905   1.216   2.324   2.055
 3002SOL    HW2 9906   1.319   2.286   2.176
 3003SOL     OW 9907   1.753   6.122   0.494
 3003SOL    HW1 9908   1.672   6.172   0.525
 3003SOL    HW2 9909   1.834   6.179   0.507
 3004SOL     OW 9910   2.847   0.310   4.243
 3004SOL    HW1 9911   2.812   0.401   4.217
 3004SOL    HW2 9912   2.830   0.294   4.340
 3005SOL     OW 9913   2.640   1.903   0.170
 3005SOL    HW1 9914   2.637   1.803   0.167
 3005SOL    HW2 9915   2.578   1.940   0.101
 3006SOL     OW 9916   5.629   0.875   6.019
 3006SOL    HW1 9917   5.591   0.801   5.963
 3006SOL    HW2 9918   5.673   0.836   6.100
 3007SOL     OW 9919   6.242   5.694   5.654
 3007SOL    HW1 9920   6.242   5.606   5.607
 3007SOL    HW2 9921   6.303   5.757   5.605
 3008SOL     OW 9922   5.549   3.934   5.537
 3008SOL    HW1 9923   5.480   3.868   5.508
 3008SOL    HW2 9924   5.625   3.885   5.582
 3009SOL     OW 9925   5.534   3.638   1.755
 3009SOL    HW1 9926   5.543   3.540   1.740
 3009SOL    HW2 9927   5.494   3.654   1.845
 3010SOL     OW 9928   4.270   4.672   1.312
 3010SOL    HW1 9929   4.306   4.654   1.221
 3010SOL    HW2 9930   4.335   4.728   1.363
 3011SOL     OW 9931   5.879   0.120   0.497
 3011SOL    HW1 9932   5.785   0.113   0.464
 3011SOL    HW2 9933   5.880   0.167   0.585
 3012SOL     OW 9934   2.773   1.223   4.866
 3012SOL    HW1 9935   2.856   1.216   4.810
 3012SOL    HW2 9936   2.714   1.144   4.848
 3013SOL     OW 9937   0.377   5.425   5.244
 3013SOL    HW1 9938   0.443   5.392   5.312
 3013SOL    HW2 9939   0.399   5.387   5.155
 3014SOL     OW 9940   4.186   0.529   0.209
 3014SOL    HW1 9941   4.145   0.611   0.168
 3014SOL    HW2 9942   4.285   0.532   0.196
 3015SOL     OW 9943   2.233   6.390   6.464
 3015SOL    HW1 9944   2.278   6.473   6.431
 3015SOL    HW2 9945   2.168   6.414   6.536
 3016SOL     OW 9946   3.318   0.870   4.390
 3016SOL    HW1 9947   3.386   0.814   4.437
 3016SOL    HW2 9948   3.262   0.811   4.331
 3017SOL     OW 9949   1.452   5.995   0.520
 3017SOL    HW1 9950   1.530   5.933   0.517
 3017SOL    HW2 9951   1.382   5.959   0.582
 3018SOL     OW 9952   2.450   2.777   1.652
 3018SOL    HW1 9953   2.386   2.759   1.577
 3018SOL    HW2 9954   2.457   2.696   1.710
 3019SOL     OW 9955   1.241   0.818   5.731
 3019SOL    HW1 9956   1.327   0.867   5.745
 3019SOL    HW2 9957   1.250   0.724   5.764
 3020SOL     OW 9958   5.152   4.157   6.404
 3020SOL    HW1 9959   5.125   4.202   6.318
 3020SOL    HW2 9960   5.149   4.058   6.391
 3021SOL     OW 9961   4.536   6.499   4.264
 3021SOL    HW1 9962   4.614   6.544   4.307
 3021SOL    HW2 9963   4.457   6.560   4.266
 3022SOL     OW 9964   3.979   6.769   3.085
 3022SOL    HW1 9965   3.935   6.858   3.096
 3022SOL    HW2 9966   4.012   6.737   3.173
 3023SOL     OW 9967   5.347   4.307   4.647
 3023SOL    HW1 9968   5.305   4.296   4.737
 3023SOL    HW2 9969   5.384   4.219   4.616
 3024SOL     OW 9970   6.235   1.327   6.632
 3024SOL    HW1 9971   6.231   1.403   6.697
 3024SOL    HW2 9972   6.322   1.279   6.644
 3025SOL     OW 9973   4.093   5.374   0.587
 3025SOL    HW1 9974   4.125   5.307   0.654
 3025SOL    HW2 9975   4.169   5.402   0.529
 3026SOL     OW 9976   0.186   0.134   2.603
 3026SOL    HW1 9977   0.236   0.194   2.540
 3026SOL    HW2 9978   0.182   0.041   2.565
 3027SOL     OW 9979   4.504   0.277   0.585
 3027SOL    HW1 9980   4.478   0.374   0.586
 3027SOL    HW2 9981   4.423   0.220   0.595
 3028SOL     OW 9982   4.020   3.313   4.207
 3028SOL    HW1 9983   4.050   3.401   4.170
 3028SOL    HW2 9984   4.018   3.245   4.133
 3029SOL     OW 9985   6.605   2.457   4.179
 3029SOL    HW1 9986   6.627   2.411   4.092
 3029SOL    HW2 9987   6.666   2.423   4.250
 3030SOL     OW 9988   0.373   3.768   6.401
 3030SOL    HW1 9989   0.347   3.855   6.361
 3030SOL    HW2 9990   0.472   3.756   6.395
 3031SOL     OW 9991   0.205   4.845   6.840
 3031SOL    HW1 9992   0.159   4.791   6.910
 3031SOL    HW2 9993   0.247   4.784   6.773
 3032SOL     OW 9994   3.556   6.946   3.941
 3032SOL    HW1 9995   3.563   0.007   3.992
 3032SOL    HW2 9996   3.618   6.878   3.980
 3033SOL     OW 9997   2.307   0.856   6.676
 3033SOL    HW1 9998   2.357   0.836   6.760
 3033SOL    HW2 9999   2.358   0.922   6.621
 3034SOL     OW10000   5.542   3.248   3.202
 3034SOL    HW110001   5.566   3.198   3.285
 3034SOL    HW210002   5.442   3.255   3.195
 3035SOL     OW10003   6.718   4.152   6.192
 3035SOL    HW110004   6.803   4.199   6.173
 3035SOL    HW210005   6.707   4.076   6.128
 3036SOL     OW10006   3.339   2.376   6.211
 3036SOL    HW110007   3.276   2.315   6.259
 3036SOL    HW210008   3.293   2.414   6.130
 3037SOL     OW10009   0.277   5.466   5.763
 3037SOL    HW110010   0.235   5.407   5.694
 3037SOL    HW210011   0.209   5.491   5.832
 3038SOL     OW10012   5.806   4.906   5.510
 3038SOL    HW110013   5.811   4.980   5.443
 3038SOL    HW210014   5.732   4.843   5.486
 3039SOL     OW10015   6.011   3.234   6.710
 3039SOL    HW110016   6.039   3.309   6.650
 3039SOL    HW210017   6.009   3.266   6.804
 3040SOL     OW10018   4.331   6.114   6.492
 3040SOL    HW110019   4.358   6.119   6.588
 3040SOL    HW210020   4.373   6.189   6.441
 3041SOL     OW10021   2.324   5.987   6.349
 3041SOL    HW110022   2.414   5.989   6.392
 3041SOL    HW210023   2.309   6.072   6.299
 3042SOL     OW10024   0.400   5.400   3.972
 3042SOL    HW110025   0.483   5.431   4.020
 3042SOL    HW210026   0.336   5.361   4.037
 3043SOL     OW10027   2.495   3.784   1.172
 3043SOL    HW110028   2.437   3.841   1.231
 3043SOL    HW210029   2.587   3.780   1.210
 3044SOL     OW10030   3.878   3.528   4.436
 3044SOL    HW110031   3.839   3.443   4.470
 3044SOL    HW210032   3.966   3.544   4.480
 3045SOL     OW10033   6.047   0.293   2.945
 3045SOL    HW110034   6.106   0.293   3.025
 3045SOL    HW210035   5.958   0.331   2.969
 3046SOL     OW10036   6.794   5.846   1.171
 3046SOL    HW110037   6.711   5.887   1.210
 3046SOL    HW210038   6.772   5.755   1.135
 3047SOL     OW10039   4.610   1.664   3.546
 3047SOL    HW110040   4.682   1.733   3.550
 3047SOL    HW210041   4.564   1.669   3.458
 3048SOL     OW10042   4.390   5.268   0.860
 3048SOL    HW110043   4.324   5.269   0.784
 3048SOL    HW210044   4.470   5.214   0.833
 3049SOL     OW10045   0.384   0.650   1.178
 3049SOL    HW110046   0.431   0.650   1.090
 3049SOL    HW210047   0.450   0.663   1.251
 3050SOL     OW10048   3.889   2.427   5.765
 3050SOL    HW110049   3.810   2.474   5.805
 3050SOL    HW210050   3.914   2.472   5.679
 3051SOL     OW10051   1.872   4.173   5.917
 3051SOL    HW110052   1.940   4.103   5.898
 3051SOL    HW210053   1.905   4.234   5.989
 3052SOL     OW10054   6.119   6.033   3.890
 3052SOL    HW110055   6.048   6.012   3.957
 3052SOL    HW210056   6.189   5.961   3.891
 3053SOL     OW10057   0.396   5.999   6.135
 3053SOL    HW110058   0.321   6.007   6.200
 3053SOL    HW210059   0.466   5.938   6.171
 3054SOL     OW10060   6.052   6.567   3.487
 3054SOL    HW110061   6.136   6.604   3.449
 3054SOL    HW210062   5.975   6.593   3.429
 3055SOL     OW10063   5.226   6.748   0.638
 3055SOL    HW110064   5.161   6.775   0.709
 3055SOL    HW210065   5.220   6.650   0.623
 3056SOL     OW10066   4.290   1.711   0.731
 3056SOL    HW110067   4.210   1.659   0.701
 3056SOL    HW210068   4.260   1.800   0.766
 3057SOL     OW10069   6.860   2.902   3.100
 3057SOL    HW110070   6.801   2.941   3.030
 3057SOL    HW210071   6.898   2.976   3.156
 3058SOL     OW10072   5.749   3.720   6.298
 3058SOL    HW110073   5.748   3.705   6.397
 3058SOL    HW210074   5.772   3.635   6.251
 3059SOL     OW10075   1.757   2.678   3.611
 3059SOL    HW110076   1.844   2.637   3.584
 3059SOL    HW210077   1.738   2.757   3.552
 3060SOL     OW10078   5.531   3.283   4.169
 3060SOL    HW110079   5.460   3.214   4.157
 3060SOL    HW210080   5.554   3.324   4.081
 3061SOL     OW10081   5.465   6.556   2.674
 3061SOL    HW110082   5.430   6.569   2.767
 3061SOL    HW210083   5.563   6.539   2.678
 3062SOL     OW10084   3.612   5.298   0.175
 3062SOL    HW110085   3.680   5.234   0.139
 3062SOL    HW210086   3.629   5.389   0.139
 3063SOL     OW10087   6.592   5.264   0.588
 3063SOL    HW110088   6.613   5.216   0.674
 3063SOL    HW210089   6.607   5.362   0.600
 3064SOL     OW10090   4.969   0.916   5.955
 3064SOL    HW110091   4.944   0.885   5.863
 3064SOL    HW210092   4.896   0.974   5.992
 3065SOL     OW10093   5.133   0.898   6.531
 3065SOL    HW110094   5.228   0.927   6.533
 3065SOL    HW210095   5.089   0.920   6.618
 3066SOL     OW10096   4.991   6.556   5.562
 3066SOL    HW110097   4.936   6.505   5.496
 3066SOL    HW210098   5.017   6.644   5.523
 3067SOL     OW10099   1.366   2.391   4.471
 3067SOL    HW110100   1.280   2.354   4.508
 3067SOL    HW210101   1.398   2.465   4.531
 3068SOL     OW10102   5.815   0.265   0.731
 3068SOL    HW110103   5.731   0.213   0.744
 3068SOL    HW210104   5.867   0.268   0.817
 3069SOL     OW10105   5.858   6.015   3.642
 3069SOL    HW110106   5.900   5.944   3.698
 3069SOL    HW210107   5.885   6.105   3.676
 3070SOL     OW10108   2.586   1.520   0.955
 3070SOL    HW110109   2.619   1.596   1.010
 3070SOL    HW210110   2.648   1.504   0.879
 3071SOL     OW10111   5.375   4.567   4.718
 3071SOL    HW110112   5.351   4.480   4.674
 3071SOL    HW210113   5.460   4.556   4.769
 3072SOL     OW10114   1.926   6.382   4.898
 3072SOL    HW110115   1.954   6.297   4.943
 3072SOL    HW210116   1.878   6.360   4.813
 3073SOL     OW10117   0.243   5.093   3.196
 3073SOL    HW110118   0.166   5.157   3.202
 3073SOL    HW210119   0.325   5.136   3.233
 3074SOL     OW10120   3.290   3.141   2.133
 3074SOL    HW110121   3.361   3.080   2.097
 3074SOL    HW210122   3.229   3.089   2.192
 3075SOL     OW10123   3.600   4.801   0.476
 3075SOL    HW110124   3.518   4.759   0.439
 3075SOL    HW210125   3.602   4.898   0.453
 3076SOL     OW10126   1.684   1.385   4.051
 3076SOL    HW110127   1.760   1.416   4.108
 3076SOL    HW210128   1.651   1.461   3.995
 3077SOL     OW10129   6.794   3.484   2.679
 3077SOL    HW110130   6.831   3.544   2.751
 3077SOL    HW210131   6.738   3.538   2.617
 3078SOL     OW10132   6.193   4.472   1.185
 3078SOL    HW110133   6.152   4.469   1.276
 3078SOL    HW210134   6.132   4.428   1.119
 3079SOL     OW10135   0.397   4.007   2.868
 3079SOL    HW110136   0.437   4.050   2.949
 3079SOL    HW210137   0.455   3.931   2.839
 3080SOL     OW10138   3.742   4.749   1.699
 3080SOL    HW110139   3.834   4.711   1.710
 3080SOL    HW210140   3.677   4.695   1.753
 3081SOL     OW10141   1.794   2.810   6.248
 3081SOL    HW110142   1.850   2.763   6.180
 3081SOL    HW210143   1.722   2.862   6.202
 3082SOL     OW10144   5.954   4.193   4.995
 3082SOL    HW110145   6.007   4.265   5.041
 3082SOL    HW210146   6.016   4.124   4.960
 3083SOL     OW10147   3.842   5.935   1.330
 3083SOL    HW110148   3.782   6.012   1.308
 3083SOL    HW210149   3.937   5.960   1.311
 3084SOL     OW10150   6.821   5.305   4.256
 3084SOL    HW110151   6.786   5.258   4.175
 3084SOL    HW210152   6.906   5.261   4.286
 3085SOL     OW10153   6.609   5.584   6.283
 3085SOL    HW110154   6.618   5.485   6.293
 3085SOL    HW210155   6.648   5.612   6.195
 3086SOL     OW10156   6.053   6.237   6.058
 3086SOL    HW110157   5.969   6.290   6.060
 3086SOL    HW210158   6.072   6.200   6.149
 3087SOL     OW10159   3.014   0.250   1.540
 3087SOL    HW110160   3.113   0.253   1.531
 3087SOL    HW210161   2.973   0.309   1.471
 3088SOL     OW10162   2.383   3.345   5.284
 3088SOL    HW110163   2.350   3.359   5.378
 3088SOL    HW210164   2.378   3.248   5.262
 3089SOL     OW10165   3.843   6.888   0.272
 3089SOL    HW110166   3.858   6.823   0.198
 3089SOL    HW210167   3.745   6.901   0.286
 3090SOL     OW10168   1.664   2.599   2.367
 3090SOL    HW110169   1.642   2.628   2.460
 3090SOL    HW210170   1.591   2.628   2.305
 3091SOL     OW10171   1.528   2.509   6.279
 3091SOL    HW110172   1.586   2.532   6.357
 3091SOL    HW210173   1.497   2.414   6.287
 3092SOL     OW10174   4.791   2.038   3.255
 3092SOL    HW110175   4.747   2.096   3.324
 3092SOL    HW210176   4.733   1.958   3.237
 3093SOL     OW10177   6.282   5.480   6.609
 3093SOL    HW110178   6.299   5.382   6.618
 3093SOL    HW210179   6.279   5.522   6.699
 3094SOL     OW10180   2.642   0.853   5.701
 3094SOL    HW110181   2.663   0.915   5.625
 3094SOL    HW210182   2.602   0.769   5.665
 3095SOL     OW10183   2.219   3.633   6.032
 3095SOL    HW110184   2.247   3.722   5.996
 3095SOL    HW210185   2.154   3.648   6.107
 3096SOL     OW10186   1.903   3.293   3.810
 3096SOL    HW110187   1.952   3.286   3.723
 3096SOL    HW210188   1.841   3.215   3.820
 3097SOL     OW10189   5.559   2.775   6.176
 3097SOL    HW110190   5.602   2.734   6.095
 3097SOL    HW210191   5.519   2.863   6.151
 3098SOL     OW10192   1.532   3.669   2.418
 3098SOL    HW110193   1.542   3.602   2.492
 3098SOL    HW210194   1.588   3.749   2.436
 3099SOL     OW10195   0.197   0.084   5.866
 3099SOL    HW110196   0.226   0.178   5.882
 3099SOL    HW210197   0.158   0.046   5.950
 3100SOL     OW10198   6.452   4.009   2.598
 3100SOL    HW110199   6.456   3.925   2.652
 3100SOL    HW210200   6.540   4.055   2.601
 3101SOL     OW10201   5.464   0.805   3.987
 3101SOL    HW110202   5.482   0.828   3.892
 3101SOL    HW210203   5.409   0.721   3.991
 3102SOL     OW10204   6.034   3.825   3.025
 3102SOL    HW110205   5.988   3.836   2.937
 3102SOL    HW210206   6.116   3.769   3.012
 3103SOL     OW10207   1.183   0.951   2.559
 3103SOL    HW110208   1.094   0.995   2.572
 3103SOL    HW210209   1.175   0.853   2.577
 3104SOL     OW10210   5.736   1.831   6.304
 3104SOL    HW110211   5.752   1.754   6.365
 3104SOL    HW210212   5.790   1.910   6.334
 3105SOL     OW10213   5.658   4.414   0.712
 3105SOL    HW110214   5.736   4.353   0.728
 3105SOL    HW210215   5.573   4.360   0.715
 3106SOL     OW10216   5.403   2.042   5.495
 3106SOL    HW110217   5.421   2.059   5.398
 3106SOL    HW210218   5.362   1.952   5.506
 3107SOL     OW10219   4.053   2.220   4.728
 3107SOL    HW110220   4.125   2.158   4.760
 3107SOL    HW210221   4.049   2.300   4.788
 3108SOL     OW10222   2.032   4.076   3.934
 3108SOL    HW110223   2.096   4.003   3.909
 3108SOL    HW210224   2.077   4.165   3.923
 3109SOL     OW10225   0.215   5.331   3.651
 3109SOL    HW110226   0.117   5.347   3.669
 3109SOL    HW210227   0.250   5.265   3.717
 3110SOL     OW10228   1.360   5.706   4.255
 3110SOL    HW110229   1.441   5.690   4.199
 3110SOL    HW210230   1.384   5.698   4.352
 3111SOL     OW10231   6.556   3.780   4.230
 3111SOL    HW110232   6.584   3.694   4.272
 3111SOL    HW210233   6.460   3.775   4.204
 3112SOL     OW10234   4.511   0.685   1.107
 3112SOL    HW110235   4.485   0.597   1.066
 3112SOL    HW210236   4.453   0.703   1.186
 3113SOL     OW10237   1.346   6.714   4.289
 3113SOL    HW110238   1.313   6.636   4.236
 3113SOL    HW210239   1.420   6.759   4.240
 3114SOL     OW10240   4.944   5.687   5.531
 3114SOL    HW110241   4.856   5.665   5.574
 3114SOL    HW210242   4.969   5.781   5.553
 3115SOL     OW10243   4.869   6.164   4.888
 3115SOL    HW110244   4.790   6.103   4.881
 3115SOL    HW210245   4.953   6.109   4.883
 3116SOL     OW10246   1.049   2.293   6.520
 3116SOL    HW110247   1.137   2.337   6.505
 3116SOL    HW210248   1.059   2.222   6.591
 3117SOL     OW10249   4.358   0.189   1.691
 3117SOL    HW110250   4.401   0.141   1.768
 3117SOL    HW210251   4.266   0.152   1.677
 3118SOL     OW10252   0.935   2.275   3.336
 3118SOL    HW110253   1.025   2.290   3.294
 3118SOL    HW210254   0.864   2.305   3.272
 3119SOL     OW10255   4.570   6.578   3.714
 3119SOL    HW110256   4.595   6.644   3.785
 3119SOL    HW210257   4.545   6.491   3.756
 3120SOL     OW10258   3.692   6.221   6.460
 3120SOL    HW110259   3.614   6.276   6.432
 3120SOL    HW210260   3.775   6.253   6.413
 3121SOL     OW10261   3.667   1.902   3.051
 3121SOL    HW110262   3.702   1.847   2.975
 3121SOL    HW210263   3.583   1.860   3.086
 3122SOL     OW10264   5.608   3.534   6.034
 3122SOL    HW110265   5.614   3.455   6.095
 3122SOL    HW210266   5.516   3.573   6.038
 3123SOL     OW10267   2.063   3.175   2.498
 3123SOL    HW110268   2.122   3.140   2.425
 3123SOL    HW210269   2.044   3.272   2.482
 3124SOL     OW10270   4.864   6.711   5.897
 3124SOL    HW110271   4.962   6.698   5.912
 3124SOL    HW210272   4.820   6.622   5.888
 3125SOL     OW10273   1.496   1.898   5.199
 3125SOL    HW110274   1.469   1.802   5.201
 3125SOL    HW210275   1.568   1.913   5.267
 3126SOL     OW10276   4.874   4.429   5.470
 3126SOL    HW110277   4.907   4.419   5.377
 3126SOL    HW210278   4.775   4.417   5.472
 3127SOL     OW10279   6.099   1.969   5.916
 3127SOL    HW110280   6.132   1.986   6.009
 3127SOL    HW210281   6.113   1.874   5.892
 3128SOL     OW10282   4.195   1.283   1.152
 3128SOL    HW110283   4.158   1.276   1.059
 3128SOL    HW210284   4.146   1.355   1.202
 3129SOL     OW10285   4.459   4.837   0.136
 3129SOL    HW110286   4.361   4.842   0.156
 3129SOL    HW210287   4.505   4.915   0.178
 3130SOL     OW10288   0.005   5.788   2.537
 3130SOL    HW110289   0.031   5.813   2.444
 3130SOL    HW210290   0.033   5.860   2.600
 3131SOL     OW10291   6.876   2.324   3.071
 3131SOL    HW110292   6.873   2.366   3.162
 3131SOL    HW210293   6.945   2.251   3.071
 3132SOL     OW10294   4.531   3.906   6.679
 3132SOL    HW110295   4.550   3.813   6.649
 3132SOL    HW210296   4.456   3.905   6.746
 3133SOL     OW10297   6.010   6.234   3.751
 3133SOL    HW110298   6.080   6.306   3.753
 3133SOL    HW210299   6.039   6.158   3.810
 3134SOL     OW10300   4.529   5.146   2.890
 3134SOL    HW110301   4.459   5.215   2.873
 3134SOL    HW210302   4.547   5.096   2.805
 3135SOL     OW10303   3.661   0.803   6.368
 3135SOL    HW110304   3.726   0.871   6.334
 3135SOL    HW210305   3.707   0.742   6.432
 3136SOL     OW10306   6.550   6.599   2.194
 3136SOL    HW110307   6.508   6.583   2.283
 3136SOL    HW210308   6.555   6.698   2.178
 3137SOL     OW10309   5.171   4.202   6.797
 3137SOL    HW110310   5.203   4.131   6.861
 3137SOL    HW210311   5.091   4.168   6.748
 3138SOL     OW10312   6.756   6.472   4.536
 3138SOL    HW110313   6.846   6.435   4.558
 3138SOL    HW210314   6.767   6.551   4.476
 3139SOL     OW10315   1.250   4.683   2.144
 3139SOL    HW110316   1.165   4.735   2.156
 3139SOL    HW210317   1.303   4.722   2.069
 3140SOL     OW10318   5.052   6.055   0.209
 3140SOL    HW110319   5.093   5.993   0.275
 3140SOL    HW210320   4.963   6.086   0.243
 3141SOL     OW10321   6.030   2.099   0.280
 3141SOL    HW110322   6.088   2.046   0.218
 3141SOL    HW210323   5.987   2.174   0.229
 3142SOL     OW10324   4.573   0.737   3.987
 3142SOL    HW110325   4.601   0.770   4.077
 3142SOL    HW210326   4.497   0.673   3.996
 3143SOL     OW10327   6.249   1.670   0.777
 3143SOL    HW110328   6.277   1.581   0.740
 3143SOL    HW210329   6.172   1.657   0.839
 3144SOL     OW10330   3.918   4.890   6.724
 3144SOL    HW110331   3.991   4.947   6.687
 3144SOL    HW210332   3.850   4.872   6.653
 3145SOL     OW10333   0.847   6.160   5.696
 3145SOL    HW110334   0.927   6.212   5.667
 3145SOL    HW210335   0.791   6.217   5.756
 3146SOL     OW10336   6.510   1.653   4.469
 3146SOL    HW110337   6.432   1.715   4.458
 3146SOL    HW210338   6.584   1.682   4.409
 3147SOL     OW10339   4.478   6.780   0.731
 3147SOL    HW110340   4.383   6.811   0.735
 3147SOL    HW210341   4.525   6.824   0.654
 3148SOL     OW10342   5.813   5.056   0.192
 3148SOL    HW110343   5.845   4.971   0.151
 3148SOL    HW210344   5.884   5.094   0.251
 3149SOL     OW10345   3.900   3.328   0.009
 3149SOL    HW110346   3.968   3.379   6.982
 3149SOL    HW210347   3.935   3.310   0.101
 3150SOL     OW10348   0.445   0.085   5.281
 3150SOL    HW110349   0.397   0.156   5.333
 3150SOL    HW210350   0.489   0.126   5.201
 3151SOL     OW10351   0.284   1.404   6.179
 3151SOL    HW110352   0.240   1.478   6.127
 3151SOL    HW210353   0.315   1.439   6.267
 3152SOL     OW10354   2.982   2.002   5.704
 3152SOL    HW110355   2.950   1.964   5.617
 3152SOL    HW210356   3.057   2.066   5.686
 3153SOL     OW10357   6.229   5.753   1.883
 3153SOL    HW110358   6.149   5.739   1.941
 3153SOL    HW210359   6.251   5.668   1.835
 3154SOL     OW10360   3.350   2.209   0.754
 3154SOL    HW110361   3.412   2.187   0.830
 3154SOL    HW210362   3.286   2.280   0.783
 3155SOL     OW10363   0.482   5.840   6.601
 3155SOL    HW110364   0.496   5.756   6.654
 3155SOL    HW210365   0.484   5.918   6.664
 3156SOL     OW10366   3.174   3.988   1.039
 3156SOL    HW110367   3.259   4.010   0.992
 3156SOL    HW210368   3.124   4.072   1.059
 3157SOL     OW10369   1.336   1.199   3.837
 3157SOL    HW110370   1.334   1.283   3.783
 3157SOL    HW210371   1.272   1.133   3.798
 3158SOL     OW10372   2.595   0.546   6.352
 3158SOL    HW110373   2.691   0.523   6.334
 3158SOL    HW210374   2.587   0.587   6.443
 3159SOL     OW10375   4.552   6.359   1.342
 3159SOL    HW110376   4.467   6.343   1.291
 3159SOL    HW210377   4.544   6.321   1.434
 3160SOL     OW10378   2.664   1.045   5.449
 3160SOL    HW110379   2.624   0.962   5.409
 3160SOL    HW210380   2.590   1.109   5.472
 3161SOL     OW10381   1.698   2.476   1.585
 3161SOL    HW110382   1.672   2.396   1.639
 3161SOL    HW210383   1.768   2.528   1.634
 3162SOL     OW10384   1.230   5.722   1.935
 3162SOL    HW110385   1.325   5.695   1.922
 3162SOL    HW210386   1.211   5.805   1.883
 3163SOL     OW10387   5.000   4.310   1.170
 3163SOL    HW110388   4.911   4.347   1.142
 3163SOL    HW210389   5.010   4.321   1.269
 3164SOL     OW10390   2.353   0.286   3.691
 3164SOL    HW110391   2.254   0.282   3.679
 3164SOL    HW210392   2.383   0.210   3.749
 3165SOL     OW10393   0.513   5.607   6.757
 3165SOL    HW110394   0.534   5.566   6.668
 3165SOL    HW210395   0.457   5.544   6.811
 3166SOL     OW10396   3.787   1.778   4.814
 3166SOL    HW110397   3.762   1.874   4.799
 3166SOL    HW210398   3.835   1.770   4.902
 3167SOL     OW10399   6.500   3.233   2.039
 3167SOL    HW110400   6.445   3.316   2.035
 3167SOL    HW210401   6.567   3.233   1.964
 3168SOL     OW10402   5.196   1.241   0.931
 3168SOL    HW110403   5.118   1.239   0.993
 3168SOL    HW210404   5.227   1.335   0.918
 3169SOL     OW10405   0.852   2.761   1.978
 3169SOL    HW110406   0.876   2.707   2.059
 3169SOL    HW210407   0.832   2.699   1.902
 3170SOL     OW10408   2.139   4.326   3.942
 3170SOL    HW110409   2.224   4.344   3.992
 3170SOL    HW210410   2.068   4.388   3.974
 3171SOL     OW10411   5.400   1.514   5.016
 3171SOL    HW110412   5.460   1.562   5.080
 3171SOL    HW210413   5.383   1.572   4.936
 3172SOL     OW10414   6.221   4.131   1.232
 3172SOL    HW110415   6.153   4.160   1.300
 3172SOL    HW210416   6.307   4.178   1.249
 3173SOL     OW10417   5.056   3.848   0.306
 3173SOL    HW110418   5.092   3.932   0.265
 3173SOL    HW210419   5.010   3.793   0.236
 3174SOL     OW10420   3.043   3.042   6.747
 3174SOL    HW110421   2.954   3.083   6.727
 3174SOL    HW210422   3.113   3.082   6.687
 3175SOL     OW10423   6.088   5.698   5.310
 3175SOL    HW110424   6.079   5.602   5.286
 3175SOL    HW210425   6.161   5.710   5.377
 3176SOL     OW10426   0.226   4.874   3.769
 3176SOL    HW110427   0.241   4.955   3.825
 3176SOL    HW210428   0.262   4.889   3.677
 3177SOL     OW10429   5.363   2.574   2.121
 3177SOL    HW110430   5.387   2.486   2.161
 3177SOL    HW210431   5.273   2.568   2.077
 3178SOL     OW10432   1.076   0.655   2.893
 3178SOL    HW110433   1.116   0.568   2.865
 3178SOL    HW210434   1.121   0.689   2.975
 3179SOL     OW10435   0.918   3.736   2.534
 3179SOL    HW110436   0.964   3.708   2.449
 3179SOL    HW210437   0.847   3.669   2.557
 3180SOL     OW10438   5.977   0.439   6.771
 3180SOL    HW110439   6.076   0.435   6.756
 3180SOL    HW210440   5.929   0.406   6.689
 3181SOL     OW10441   0.378   6.411   5.029
 3181SOL    HW110442   0.438   6.377   5.102
 3181SOL    HW210443   0.341   6.333   4.978
 3182SOL     OW10444   1.621   0.101   1.359
 3182SOL    HW110445   1.620   0.002   1.342
 3182SOL    HW210446   1.528   0.137   1.355
 3183SOL     OW10447   4.413   4.158   0.207
 3183SOL    HW110448   4.353   4.082   0.185
 3183SOL    HW210449   4.506   4.124   0.224
 3184SOL     OW10450   6.232   1.021   4.113
 3184SOL    HW110451   6.176   1.035   4.195
 3184SOL    HW210452   6.184   0.960   4.050
 3185SOL     OW10453   1.735   0.029   5.943
 3185SOL    HW110454   1.785   0.039   6.028
 3185SOL    HW210455   1.780   0.081   5.871
 3186SOL     OW10456   0.335   2.013   5.616
 3186SOL    HW110457   0.316   1.921   5.652
 3186SOL    HW210458   0.251   2.054   5.582
 3187SOL     OW10459   5.235   0.269   2.964
 3187SOL    HW110460   5.139   0.295   2.955
 3187SOL    HW210461   5.283   0.340   3.015
 3188SOL     OW10462   1.558   5.931   1.524
 3188SOL    HW110463   1.611   5.863   1.575
 3188SOL    HW210464   1.461   5.913   1.536
 3189SOL     OW10465   2.496   1.448   6.163
 3189SOL    HW110466   2.499   1.534   6.214
 3189SOL    HW210467   2.407   1.404   6.175
 3190SOL     OW10468   5.984   6.412   4.847
 3190SOL    HW110469   5.924   6.471   4.792
 3190SOL    HW210470   6.072   6.402   4.800
 3191SOL     OW10471   4.173   5.015   1.219
 3191SOL    HW110472   4.126   4.954   1.155
 3191SOL    HW210473   4.140   5.108   1.206
 3192SOL     OW10474   5.802   0.367   3.042
 3192SOL    HW110475   5.744   0.449   3.037
 3192SOL    HW210476   5.749   0.291   3.078
 3193SOL     OW10477   3.464   5.385   4.788
 3193SOL    HW110478   3.405   5.415   4.863
 3193SOL    HW210479   3.486   5.464   4.730
 3194SOL     OW10480   2.225   6.870   5.119
 3194SOL    HW110481   2.176   6.786   5.142
 3194SOL    HW210482   2.301   6.883   5.183
 3195SOL     OW10483   0.545   5.652   0.813
 3195SOL    HW110484   0.620   5.674   0.875
 3195SOL    HW210485   0.459   5.680   0.853
 3196SOL     OW10486   6.084   6.931   2.548
 3196SOL    HW110487   6.088   6.986   2.631
 3196SOL    HW210488   6.177   6.914   2.515
 3197SOL     OW10489   2.964   0.807   0.169
 3197SOL    HW110490   2.988   0.738   0.236
 3197SOL    HW210491   2.902   0.874   0.210
 3198SOL     OW10492   5.333   3.776   3.932
 3198SOL    HW110493   5.235   3.785   3.943
 3198SOL    HW210494   5.379   3.792   4.020
 3199SOL     OW10495   4.883   3.437   3.879
 3199SOL    HW110496   4.863   3.447   3.976
 3199SOL    HW210497   4.892   3.527   3.837
 3200SOL     OW10498   6.109   3.487   4.936
 3200SOL    HW110499   6.075   3.424   5.006
 3200SOL    HW210500   6.201   3.517   4.962
 3201SOL     OW10501   6.604   3.586   2.503
 3201SOL    HW110502   6.544   3.631   2.570
 3201SOL    HW210503   6.567   3.598   2.411
 3202SOL     OW10504   2.835   2.587   6.270
 3202SOL    HW110505   2.877   2.535   6.196
 3202SOL    HW210506   2.887   2.671   6.284
 3203SOL     OW10507   3.341   6.646   1.691
 3203SOL    HW110508   3.332   6.675   1.596
 3203SOL    HW210509   3.435   6.619   1.709
 3204SOL     OW10510   5.030   0.637   3.731
 3204SOL    HW110511   4.957   0.680   3.678
 3204SOL    HW210512   5.029   0.538   3.713
 3205SOL     OW10513   4.652   3.099   0.085
 3205SOL    HW110514   4.648   3.184   0.032
 3205SOL    HW210515   4.710   3.033   0.037
 3206SOL     OW10516   3.081   4.863   0.592
 3206SOL    HW110517   3.071   4.962   0.579
 3206SOL    HW210518   3.059   4.816   0.507
 3207SOL     OW10519   2.000   6.506   3.711
 3207SOL    HW110520   2.078   6.482   3.769
 3207SOL    HW210521   1.978   6.603   3.723
 3208SOL     OW10522   0.158   3.872   6.804
 3208SOL    HW110523   0.226   3.811   6.763
 3208SOL    HW210524   0.124   3.831   6.889
 3209SOL     OW10525   5.083   0.146   5.246
 3209SOL    HW110526   5.144   0.206   5.194
 3209SOL    HW210527   5.127   0.118   5.331
 3210SOL     OW10528   5.178   5.087   2.210
 3210SOL    HW110529   5.123   5.025   2.266
 3210SOL    HW210530   5.214   5.161   2.267
 3211SOL     OW10531   2.496   6.458   6.875
 3211SOL    HW110532   2.486   6.454   6.776
 3211SOL    HW210533   2.424   6.516   6.914
 3212SOL     OW10534   3.550   6.719   4.394
 3212SOL    HW110535   3.547   6.619   4.404
 3212SOL    HW210536   3.645   6.750   4.392
 3213SOL     OW10537   1.946   0.493   5.740
 3213SOL    HW110538   1.856   0.454   5.717
 3213SOL    HW210539   1.943   0.528   5.834
 3214SOL     OW10540   2.975   0.598   2.833
 3214SOL    HW110541   3.001   0.676   2.889
 3214SOL    HW210542   2.947   0.630   2.742
 3215SOL     OW10543   2.149   3.031   1.839
 3215SOL    HW110544   2.049   3.034   1.828
 3215SOL    HW210545   2.184   3.124   1.848
 3216SOL     OW10546   5.997   4.485   0.408
 3216SOL    HW110547   6.073   4.549   0.395
 3216SOL    HW210548   5.932   4.523   0.474
 3217SOL     OW10549   6.536   6.312   3.222
 3217SOL    HW110550   6.543   6.385   3.290
 3217SOL    HW210551   6.448   6.319   3.175
 3218SOL     OW10552   5.794   1.231   3.280
 3218SOL    HW110553   5.893   1.216   3.285
 3218SOL    HW210554   5.757   1.247   3.371
 3219SOL     OW10555   5.239   1.957   4.312
 3219SOL    HW110556   5.264   1.970   4.216
 3219SOL    HW210557   5.144   1.927   4.318
 3220SOL     OW10558   0.054   3.624   5.469
 3220SOL    HW110559   0.012   3.707   5.507
 3220SOL    HW210560   0.039   3.623   5.370
 3221SOL     OW10561   3.925   1.197   2.465
 3221SOL    HW110562   3.983   1.279   2.464
 3221SOL    HW210563   3.847   1.211   2.404
 3222SOL     OW10564   2.910   0.997   3.839
 3222SOL    HW110565   2.862   1.041   3.915
 3222SOL    HW210566   2.853   1.001   3.757
 3223SOL     OW10567   1.570   5.522   0.719
 3223SOL    HW110568   1.599   5.571   0.801
 3223SOL    HW210569   1.595   5.425   0.726
 3224SOL     OW10570   4.514   2.464   3.979
 3224SOL    HW110571   4.415   2.459   3.962
 3224SOL    HW210572   4.562   2.406   3.914
 3225SOL     OW10573   4.529   1.482   4.671
 3225SOL    HW110574   4.550   1.565   4.619
 3225SOL    HW210575   4.444   1.442   4.636
 3226SOL     OW10576   5.766   0.951   0.731
 3226SOL    HW110577   5.708   1.026   0.700
 3226SOL    HW210578   5.761   0.875   0.665
 3227SOL     OW10579   5.686   4.252   5.693
 3227SOL    HW110580   5.726   4.229   5.605
 3227SOL    HW210581   5.644   4.171   5.734
 3228SOL     OW10582   2.193   4.422   0.542
 3228SOL    HW110583   2.157   4.352   0.603
 3228SOL    HW210584   2.286   4.446   0.570
 3229SOL     OW10585   1.241   1.374   1.231
 3229SOL    HW110586   1.289   1.430   1.163
 3229SOL    HW210587   1.155   1.419   1.255
 3230SOL     OW10588   3.175   6.521   5.163
 3230SOL    HW110589   3.220   6.581   5.229
 3230SOL    HW210590   3.079   6.509   5.188
 3231SOL     OW10591   2.520   2.498   2.512
 3231SOL    HW110592   2.467   2.521   2.594
 3231SOL    HW210593   2.615   2.526   2.526
 3232SOL     OW10594   2.754   4.836   3.253
 3232SOL    HW110595   2.675   4.886   3.219
 3232SOL    HW210596   2.725   4.748   3.290
 3233SOL     OW10597   2.805   0.141   6.175
 3233SOL    HW110598   2.713   0.170   6.202
 3233SOL    HW210599   2.871   0.171   6.244
 3234SOL     OW10600   3.498   3.559   0.847
 3234SOL    HW110601   3.432   3.556   0.922
 3234SOL    HW210602   3.540   3.650   0.844
 3235SOL     OW10603   0.125   1.586   2.687
 3235SOL    HW110604   0.056   1.529   2.642
 3235SOL    HW210605   0.116   1.680   2.654
 3236SOL     OW10606   5.635   0.134   0.301
 3236SOL    HW110607   5.546   0.142   0.256
 3236SOL    HW210608   5.661   0.222   0.339
 3237SOL     OW10609   6.017   1.254   5.545
 3237SOL    HW110610   5.999   1.195   5.465
 3237SOL    HW210611   5.965   1.219   5.623
 3238SOL     OW10612   0.127   5.071   0.891
 3238SOL    HW110613   0.217   5.043   0.857
 3238SOL    HW210614   0.057   5.047   0.823
 3239SOL     OW10615   6.366   0.467   5.247
 3239SOL    HW110616   6.432   0.392   5.245
 3239SOL    HW210617   6.302   0.453   5.323
 3240SOL     OW10618   1.075   1.856   1.897
 3240SOL    HW110619   0.982   1.852   1.860
 3240SOL    HW210620   1.138   1.811   1.833
 3241SOL     OW10621   0.111   2.920   5.668
 3241SOL    HW110622   0.182   2.880   5.726
 3241SOL    HW210623   0.154   2.970   5.593
 3242SOL     OW10624   0.021   4.899   5.558
 3242SOL    HW110625   6.955   4.929   5.530
 3242SOL    HW210626   0.090   4.963   5.526
 3243SOL     OW10627   6.009   5.643   4.451
 3243SOL    HW110628   6.088   5.666   4.393
 3243SOL    HW210629   5.933   5.704   4.428
 3244SOL     OW10630   4.638   0.262   6.558
 3244SOL    HW110631   4.644   0.355   6.521
 3244SOL    HW210632   4.600   0.201   6.488
 3245SOL     OW10633   2.555   5.846   4.187
 3245SOL    HW110634   2.533   5.913   4.116
 3245SOL    HW210635   2.628   5.786   4.154
 3246SOL     OW10636   6.633   5.577   3.171
 3246SOL    HW110637   6.570   5.539   3.103
 3246SOL    HW210638   6.615   5.534   3.260
 3247SOL     OW10639   2.017   4.407   4.236
 3247SOL    HW110640   1.987   4.467   4.162
 3247SOL    HW210641   2.040   4.461   4.317
 3248SOL     OW10642   6.277   2.735   3.341
 3248SOL    HW110643   6.234   2.765   3.426
 3248SOL    HW210644   6.292   2.815   3.282
 3249SOL     OW10645   4.033   3.918   4.475
 3249SOL    HW110646   3.965   3.879   4.537
 3249SOL    HW210647   4.096   3.976   4.527
 3250SOL     OW10648   4.802   6.108   3.533
 3250SOL    HW110649   4.704   6.090   3.543
 3250SOL    HW210650   4.815   6.186   3.472
 3251SOL     OW10651   2.447   1.931   2.516
 3251SOL    HW110652   2.387   1.915   2.594
 3251SOL    HW210653   2.443   2.028   2.491
 3252SOL     OW10654   1.825   1.775   2.637
 3252SOL    HW110655   1.772   1.733   2.563
 3252SOL    HW210656   1.765   1.836   2.689
 3253SOL     OW10657   6.651   3.982   0.808
 3253SOL    HW110658   6.600   4.061   0.843
 3253SOL    HW210659   6.741   3.978   0.852
 3254SOL     OW10660   5.882   6.856   0.445
 3254SOL    HW110661   5.895   6.955   0.445
 3254SOL    HW210662   5.957   6.812   0.395
 3255SOL     OW10663   3.713   5.210   2.837
 3255SOL    HW110664   3.636   5.234   2.896
 3255SOL    HW210665   3.699   5.118   2.799
 3256SOL     OW10666   5.605   2.480   1.626
 3256SOL    HW110667   5.593   2.509   1.531
 3256SOL    HW210668   5.698   2.446   1.638
 3257SOL     OW10669   2.462   1.095   3.006
 3257SOL    HW110670   2.436   1.075   3.100
 3257SOL    HW210671   2.554   1.061   2.988
 3258SOL     OW10672   0.666   5.366   3.836
 3258SOL    HW110673   0.650   5.377   3.934
 3258SOL    HW210674   0.695   5.453   3.797
 3259SOL     OW10675   5.945   5.310   3.871
 3259SOL    HW110676   5.909   5.219   3.891
 3259SOL    HW210677   6.028   5.326   3.925
 3260SOL     OW10678   1.695   4.435   3.584
 3260SOL    HW110679   1.722   4.527   3.556
 3260SOL    HW210680   1.772   4.387   3.625
 3261SOL     OW10681   6.265   6.646   3.905
 3261SOL    HW110682   6.309   6.723   3.858
 3261SOL    HW210683   6.266   6.662   4.003
 3262SOL     OW10684   2.953   1.960   3.035
 3262SOL    HW110685   2.880   1.949   2.968
 3262SOL    HW210686   2.973   2.057   3.047
 3263SOL     OW10687   5.684   6.990   1.764
 3263SOL    HW110688   5.708   6.991   1.861
 3263SOL    HW210689   5.754   6.942   1.713
 3264SOL     OW10690   1.082   4.765   6.280
 3264SOL    HW110691   0.999   4.819   6.297
 3264SOL    HW210692   1.083   4.733   6.185
 3265SOL     OW10693   0.110   6.272   6.011
 3265SOL    HW110694   0.128   6.181   5.974
 3265SOL    HW210695   0.099   6.337   5.936
 3266SOL     OW10696   3.416   4.595   6.146
 3266SOL    HW110697   3.413   4.565   6.050
 3266SOL    HW210698   3.334   4.648   6.166
 3267SOL     OW10699   3.372   0.319   0.963
 3267SOL    HW110700   3.449   0.271   1.005
 3267SOL    HW210701   3.341   0.392   1.023
 3268SOL     OW10702   5.191   4.431   2.081
 3268SOL    HW110703   5.164   4.348   2.129
 3268SOL    HW210704   5.229   4.408   1.992
 3269SOL     OW10705   2.269   5.050   1.096
 3269SOL    HW110706   2.306   5.071   1.186
 3269SOL    HW210707   2.209   4.970   1.102
 3270SOL     OW10708   1.638   3.376   6.362
 3270SOL    HW110709   1.693   3.428   6.297
 3270SOL    HW210710   1.682   3.288   6.380
 3271SOL     OW10711   1.048   3.469   1.366
 3271SOL    HW110712   0.987   3.463   1.287
 3271SOL    HW210713   1.009   3.533   1.433
 3272SOL     OW10714   3.928   0.231   1.093
 3272SOL    HW110715   3.962   0.144   1.128
 3272SOL    HW210716   4.000   0.300   1.095
 3273SOL     OW10717   4.193   3.796   6.713
 3273SOL    HW110718   4.247   3.799   6.797
 3273SOL    HW210719   4.195   3.704   6.674
 3274SOL     OW10720   4.142   0.369   2.014
 3274SOL    HW110721   4.103   0.405   1.930
 3274SOL    HW210722   4.072   0.368   2.085
 3275SOL     OW10723   5.565   0.592   1.913
 3275SOL    HW110724   5.482   0.543   1.942
 3275SOL    HW210725   5.542   0.688   1.894
 3276SOL     OW10726   5.410   5.428   0.376
 3276SOL    HW110727   5.431   5.481   0.294
 3276SOL    HW210728   5.338   5.362   0.355
 3277SOL     OW10729   3.361   1.384   2.397
 3277SOL    HW110730   3.267   1.354   2.416
 3277SOL    HW210731   3.418   1.372   2.478
 3278SOL     OW10732   5.081   1.653   6.832
 3278SOL    HW110733   5.096   1.729   6.769
 3278SOL    HW210734   4.991   1.661   6.874
 3279SOL     OW10735   4.128   0.464   2.384
 3279SOL    HW110736   4.112   0.377   2.337
 3279SOL    HW210737   4.046   0.490   2.435
 3280SOL     OW10738   6.740   2.743   4.041
 3280SOL    HW110739   6.790   2.685   4.105
 3280SOL    HW210740   6.647   2.757   4.075
 3281SOL     OW10741   5.942   2.661   1.878
 3281SOL    HW110742   5.912   2.603   1.803
 3281SOL    HW210743   5.877   2.735   1.892
 3282SOL     OW10744   6.423   4.407   5.091
 3282SOL    HW110745   6.435   4.487   5.150
 3282SOL    HW210746   6.353   4.347   5.130
 3283SOL     OW10747   2.884   1.574   0.531
 3283SOL    HW110748   2.908   1.625   0.449
 3283SOL    HW210749   2.899   1.632   0.612
 3284SOL     OW10750   2.216   0.654   5.373
 3284SOL    HW110751   2.312   0.645   5.401
 3284SOL    HW210752   2.205   0.737   5.319
 3285SOL     OW10753   3.949   2.036   3.824
 3285SOL    HW110754   3.940   1.937   3.807
 3285SOL    HW210755   3.902   2.060   3.908
 3286SOL     OW10756   1.281   3.630   3.148
 3286SOL    HW110757   1.320   3.636   3.240
 3286SOL    HW210758   1.350   3.657   3.081
 3287SOL     OW10759   2.640   1.180   0.075
 3287SOL    HW110760   2.673   1.258   0.128
 3287SOL    HW210761   2.550   1.152   0.109
 3288SOL     OW10762   3.137   5.517   1.844
 3288SOL    HW110763   3.220   5.504   1.790
 3288SOL    HW210764   3.132   5.447   1.915
 3289SOL     OW10765   4.786   0.730   6.934
 3289SOL    HW110766   4.815   0.676   7.013
 3289SOL    HW210767   4.736   0.672   6.870
 3290SOL     OW10768   0.652   5.164   6.897
 3290SOL    HW110769   0.578   5.148   6.832
 3290SOL    HW210770   0.736   5.122   6.863
 3291SOL     OW10771   5.183   6.399   5.711
 3291SOL    HW110772   5.272   6.393   5.665
 3291SOL    HW210773   5.120   6.453   5.657
 3292SOL     OW10774   0.187   3.280   0.566
 3292SOL    HW110775   0.137   3.196   0.589
 3292SOL    HW210776   0.138   3.328   0.493
 3293SOL     OW10777   6.584   4.422   2.596
 3293SOL    HW110778   6.529   4.477   2.659
 3293SOL    HW210779   6.590   4.469   2.507
 3294SOL     OW10780   4.117   2.856   5.435
 3294SOL    HW110781   4.139   2.886   5.528
 3294SOL    HW210782   4.178   2.781   5.410
 3295SOL     OW10783   1.390   3.144   3.319
 3295SOL    HW110784   1.384   3.052   3.358
 3295SOL    HW210785   1.313   3.199   3.352
 3296SOL     OW10786   2.362   0.652   6.996
 3296SOL    HW110787   2.271   0.650   0.011
 3296SOL    HW210788   2.361   0.600   6.911
 3297SOL     OW10789   3.328   0.564   5.715
 3297SOL    HW110790   3.263   0.512   5.770
 3297SOL    HW210791   3.417   0.565   5.761
 3298SOL     OW10792   3.656   4.136   6.111
 3298SOL    HW110793   3.729   4.074   6.081
 3298SOL    HW210794   3.573   4.118   6.058
 3299SOL     OW10795   2.470   0.088   4.388
 3299SOL    HW110796   2.401   0.125   4.326
 3299SOL    HW210797   2.428   0.021   4.449
 3300SOL     OW10798   1.566   1.160   3.498
 3300SOL    HW110799   1.470   1.188   3.492
 3300SOL    HW210800   1.589   1.140   3.593
 3301SOL     OW10801   1.379   1.107   2.151
 3301SOL    HW110802   1.408   1.132   2.244
 3301SOL    HW210803   1.292   1.058   2.155
 3302SOL     OW10804   1.318   4.404   5.098
 3302SOL    HW110805   1.284   4.387   5.005
 3302SOL    HW210806   1.343   4.317   5.140
 3303SOL     OW10807   4.151   3.616   0.455
 3303SOL    HW110808   4.222   3.686   0.444
 3303SOL    HW210809   4.061   3.660   0.459
 3304SOL     OW10810   2.416   3.583   1.001
 3304SOL    HW110811   2.439   3.659   1.061
 3304SOL    HW210812   2.317   3.583   0.983
 3305SOL     OW10813   3.071   2.804   6.846
 3305SOL    HW110814   3.063   2.890   6.797
 3305SOL    HW210815   3.162   2.796   6.886
 3306SOL     OW10816   2.700   0.546   1.106
 3306SOL    HW110817   2.717   0.607   1.184
 3306SOL    HW210818   2.644   0.469   1.137
 3307SOL     OW10819   2.407   5.716   4.715
 3307SOL    HW110820   2.309   5.734   4.715
 3307SOL    HW210821   2.426   5.638   4.655
 3308SOL     OW10822   4.621   5.431   1.035
 3308SOL    HW110823   4.659   5.461   1.123
 3308SOL    HW210824   4.535   5.383   1.051
 3309SOL     OW10825   5.681   3.633   3.898
 3309SOL    HW110826   5.709   3.659   3.990
 3309SOL    HW210827   5.665   3.715   3.843
 3310SOL     OW10828   6.658   4.373   6.531
 3310SOL    HW110829   6.747   4.402   6.494
 3310SOL    HW210830   6.667   4.283   6.573
 3311SOL     OW10831   2.258   2.590   6.957
 3311SOL    HW110832   2.321   2.595   6.880
 3311SOL    HW210833   2.308   2.606   0.017
 3312SOL     OW10834   4.818   3.597   0.410
 3312SOL    HW110835   4.905   3.570   0.452
 3312SOL    HW210836   4.774   3.516   0.370
 3313SOL     OW10837   0.582   6.942   3.989
 3313SOL    HW110838   0.538   6.868   3.937
 3313SOL    HW210839   0.681   6.934   3.980
 3314SOL     OW10840   3.492   6.164   3.537
 3314SOL    HW110841   3.428   6.238   3.560
 3314SOL    HW210842   3.584   6.203   3.524
 3315SOL     OW10843   1.034   6.629   4.188
 3315SOL    HW110844   0.997   6.717   4.159
 3315SOL    HW210845   0.995   6.556   4.131
 3316SOL     OW10846   3.103   2.108   0.124
 3316SOL    HW110847   3.164   2.101   0.046
 3316SOL    HW210848   3.151   2.152   0.200
 3317SOL     OW10849   5.717   2.331   1.290
 3317SOL    HW110850   5.800   2.348   1.238
 3317SOL    HW210851   5.678   2.417   1.321
 3318SOL     OW10852   3.833   3.043   0.608
 3318SOL    HW110853   3.888   3.058   0.690
 3318SOL    HW210854   3.862   2.959   0.563
 3319SOL     OW10855   6.655   6.410   3.962
 3319SOL    HW110856   6.704   6.373   3.884
 3319SOL    HW210857   6.584   6.345   3.991
 3320SOL     OW10858   6.257   0.295   2.138
 3320SOL    HW110859   6.274   0.274   2.234
 3320SOL    HW210860   6.343   0.316   2.092
 3321SOL     OW10861   4.733   1.953   6.809
 3321SOL    HW110862   4.703   2.005   6.889
 3321SOL    HW210863   4.772   1.866   6.839
 3322SOL     OW10864   5.910   3.500   1.222
 3322SOL    HW110865   5.892   3.477   1.126
 3322SOL    HW210866   6.001   3.468   1.248
 3323SOL     OW10867   1.565   0.912   2.057
 3323SOL    HW110868   1.608   0.868   2.136
 3323SOL    HW210869   1.525   0.999   2.086
 3324SOL     OW10870   6.170   5.199   5.907
 3324SOL    HW110871   6.220   5.211   5.993
 3324SOL    HW210872   6.148   5.289   5.869
 3325SOL     OW10873   3.224   5.455   5.948
 3325SOL    HW110874   3.238   5.398   5.868
 3325SOL    HW210875   3.187   5.399   6.023
 3326SOL     OW10876   3.581   1.995   2.035
 3326SOL    HW110877   3.604   1.931   1.962
 3326SOL    HW210878   3.607   2.088   2.007
 3327SOL     OW10879   1.779   6.181   5.716
 3327SOL    HW110880   1.838   6.201   5.638
 3327SOL    HW210881   1.835   6.159   5.796
 3328SOL     OW10882   4.621   3.114   5.370
 3328SOL    HW110883   4.679   3.178   5.320
 3328SOL    HW210884   4.669   3.027   5.381
 3329SOL     OW10885   6.756   6.537   5.671
 3329SOL    HW110886   6.738   6.521   5.768
 3329SOL    HW210887   6.694   6.607   5.636
 3330SOL     OW10888   6.860   2.345   2.763
 3330SOL    HW110889   6.802   2.319   2.840
 3330SOL    HW210890   6.838   2.288   2.684
 3331SOL     OW10891   1.746   3.020   0.511
 3331SOL    HW110892   1.752   2.928   0.472
 3331SOL    HW210893   1.654   3.056   0.496
 3332SOL     OW10894   0.439   3.923   1.870
 3332SOL    HW110895   0.474   3.891   1.782
 3332SOL    HW210896   0.433   3.846   1.933
 3333SOL     OW10897   3.150   5.928   5.538
 3333SOL    HW110898   3.243   5.902   5.511
 3333SOL    HW210899   3.085   5.858   5.508
 3334SOL     OW10900   1.436   2.882   1.302
 3334SOL    HW110901   1.403   2.789   1.286
 3334SOL    HW210902   1.512   2.879   1.366
 3335SOL     OW10903   5.322   4.407   4.397
 3335SOL    HW110904   5.303   4.396   4.494
 3335SOL    HW210905   5.365   4.495   4.380
 3336SOL     OW10906   3.455   6.447   5.712
 3336SOL    HW110907   3.360   6.476   5.699
 3336SOL    HW210908   3.510   6.481   5.636
 3337SOL     OW10909   3.817   1.767   0.643
 3337SOL    HW110910   3.910   1.737   0.622
 3337SOL    HW210911   3.761   1.687   0.663
 3338SOL     OW10912   6.821   5.351   6.983
 3338SOL    HW110913   6.769   5.400   0.027
 3338SOL    HW210914   6.771   5.352   6.896
 3339SOL     OW10915   0.856   4.924   6.282
 3339SOL    HW110916   0.866   5.015   6.320
 3339SOL    HW210917   0.790   4.927   6.206
 3340SOL     OW10918   3.923   0.442   1.586
 3340SOL    HW110919   3.934   0.513   1.517
 3340SOL    HW210920   3.981   0.464   1.665
 3341SOL     OW10921   0.820   0.329   0.344
 3341SOL    HW110922   0.894   0.262   0.349
 3341SOL    HW210923   0.772   0.333   0.432
 3342SOL     OW10924   2.612   0.137   5.207
 3342SOL    HW110925   2.647   0.183   5.126
 3342SOL    HW210926   2.518   0.166   5.224
 3343SOL     OW10927   6.915   2.345   1.341
 3343SOL    HW110928   6.948   2.251   1.351
 3343SOL    HW210929   6.961   2.388   1.263
 3344SOL     OW10930   1.370   2.759   6.257
 3344SOL    HW110931   1.436   2.688   6.281
 3344SOL    HW210932   1.279   2.718   6.250
 3345SOL     OW10933   2.804   3.226   5.778
 3345SOL    HW110934   2.786   3.325   5.780
 3345SOL    HW210935   2.761   3.183   5.858
 3346SOL     OW10936   1.986   6.154   2.401
 3346SOL    HW110937   1.992   6.069   2.453
 3346SOL    HW210938   2.061   6.159   2.336
 3347SOL     OW10939   5.944   3.779   3.630
 3347SOL    HW110940   5.848   3.786   3.603
 3347SOL    HW210941   5.954   3.803   3.727
 3348SOL     OW10942   3.215   3.957   3.242
 3348SOL    HW110943   3.245   3.861   3.244
 3348SOL    HW210944   3.288   4.015   3.278
 3349SOL     OW10945   4.959   2.771   0.268
 3349SOL    HW110946   5.030   2.806   0.208
 3349SOL    HW210947   4.874   2.759   0.216
 3350SOL     OW10948   2.167   2.826   1.165
 3350SOL    HW110949   2.075   2.832   1.205
 3350SOL    HW210950   2.235   2.825   1.238
 3351SOL     OW10951   5.907   2.949   0.543
 3351SOL    HW110952   5.914   3.035   0.594
 3351SOL    HW210953   5.851   2.884   0.596
 3352SOL     OW10954   0.194   3.356   0.056
 3352SOL    HW110955   0.144   3.273   0.033
 3352SOL    HW210956   0.284   3.355   0.012
 3353SOL     OW10957   1.378   6.718   6.069
 3353SOL    HW110958   1.472   6.747   6.050
 3353SOL    HW210959   1.376   6.658   6.149
 3354SOL     OW10960   0.931   0.439   1.853
 3354SOL    HW110961   0.980   0.353   1.838
 3354SOL    HW210962   0.923   0.455   1.952
 3355SOL     OW10963   6.152   0.945   2.454
 3355SOL    HW110964   6.140   1.043   2.443
 3355SOL    HW210965   6.203   0.926   2.538
 3356SOL     OW10966   1.327   4.070   6.690
 3356SOL    HW110967   1.369   4.137   6.628
 3356SOL    HW210968   1.309   4.112   6.778
 3357SOL     OW10969   2.403   5.514   2.247
 3357SOL    HW110970   2.493   5.483   2.277
 3357SOL    HW210971   2.340   5.437   2.248
 3358SOL     OW10972   6.830   3.988   3.469
 3358SOL    HW110973   6.922   4.014   3.498
 3358SOL    HW210974   6.772   4.069   3.466
 3359SOL     OW10975   2.045   1.636   1.603
 3359SOL    HW110976   2.087   1.580   1.532
 3359SOL    HW210977   1.991   1.578   1.664
 3360SOL     OW10978   2.774   0.771   6.126
 3360SOL    HW110979   2.733   0.735   6.210
 3360SOL    HW210980   2.873   0.778   6.139
 3361SOL     OW10981   2.879   1.149   2.981
 3361SOL    HW110982   2.825   1.103   3.051
 3361SOL    HW210983   2.897   1.244   3.009
 3362SOL     OW10984   2.950   1.762   4.726
 3362SOL    HW110985   3.023   1.800   4.782
 3362SOL    HW210986   2.861   1.786   4.766
 3363SOL     OW10987   6.622   0.803   6.876
 3363SOL    HW110988   6.716   0.814   6.908
 3363SOL    HW210989   6.564   0.776   6.953
 3364SOL     OW10990   2.005   5.318   5.429
 3364SOL    HW110991   1.910   5.290   5.413
 3364SOL    HW210992   2.017   5.413   5.400
 3365SOL     OW10993   6.382   2.762   5.184
 3365SOL    HW110994   6.465   2.811   5.158
 3365SOL    HW210995   6.380   2.673   5.139
 3366SOL     OW10996   5.579   0.717   0.269
 3366SOL    HW110997   5.488   0.693   0.302
 3366SOL    HW210998   5.641   0.639   0.282
 3367SOL     OW10999   2.149   0.021   2.694
 3367SOL    HW111000   2.235   6.995   2.693
 3367SOL    HW211001   2.083   7.001   2.633
 3368SOL     OW11002   6.588   1.242   4.784
 3368SOL    HW111003   6.521   1.176   4.750
 3368SOL    HW211004   6.550   1.292   4.862
 3369SOL     OW11005   4.010   5.654   6.421
 3369SOL    HW111006   4.045   5.704   6.501
 3369SOL    HW211007   3.960   5.717   6.362
 3370SOL     OW11008   6.163   0.256   4.958
 3370SOL    HW111009   6.191   0.192   4.886
 3370SOL    HW211010   6.212   0.234   5.043
 3371SOL     OW11011   6.910   4.828   1.335
 3371SOL    HW111012   6.967   4.840   1.254
 3371SOL    HW211013   6.873   4.916   1.363
 3372SOL     OW11014   1.256   2.468   2.893
 3372SOL    HW111015   1.234   2.547   2.949
 3372SOL    HW211016   1.179   2.403   2.895
 3373SOL     OW11017   0.822   2.918   6.556
 3373SOL    HW111018   0.756   2.962   6.617
 3373SOL    HW211019   0.777   2.844   6.506
 3374SOL     OW11020   3.530   6.337   5.003
 3374SOL    HW111021   3.512   6.266   4.936
 3374SOL    HW211022   3.455   6.403   5.003
 3375SOL     OW11023   3.336   3.799   4.805
 3375SOL    HW111024   3.367   3.891   4.829
 3375SOL    HW211025   3.273   3.803   4.728
 3376SOL     OW11026   3.366   3.425   1.767
 3376SOL    HW111027   3.296   3.494   1.787
 3376SOL    HW211028   3.336   3.337   1.803
 3377SOL     OW11029   3.237   5.507   5.473
 3377SOL    HW111030   3.146   5.487   5.437
 3377SOL    HW211031   3.288   5.564   5.408
 3378SOL     OW11032   0.313   1.129   0.584
 3378SOL    HW111033   0.314   1.227   0.603
 3378SOL    HW211034   0.219   1.099   0.570
 3379SOL     OW11035   5.991   5.178   5.465
 3379SOL    HW111036   6.065   5.132   5.515
 3379SOL    HW211037   5.974   5.131   5.379
 3380SOL     OW11038   0.694   3.662   5.598
 3380SOL    HW111039   0.683   3.729   5.671
 3380SOL    HW211040   0.791   3.644   5.583
 3381SOL     OW11041   3.309   2.517   1.691
 3381SOL    HW111042   3.246   2.589   1.720
 3381SOL    HW211043   3.403   2.547   1.707
 3382SOL     OW11044   0.468   6.485   0.580
 3382SOL    HW111045   0.474   6.576   0.537
 3382SOL    HW211046   0.400   6.488   0.653
 3383SOL     OW11047   0.718   3.783   1.362
 3383SOL    HW111048   0.771   3.845   1.419
 3383SOL    HW211049   0.620   3.797   1.380
 3384SOL     OW11050   3.169   3.334   4.003
 3384SOL    HW111051   3.212   3.413   3.958
 3384SOL    HW211052   3.123   3.278   3.934
 3385SOL     OW11053   0.057   3.939   4.281
 3385SOL    HW111054   0.085   3.843   4.290
 3385SOL    HW211055   6.983   3.946   4.290
 3386SOL     OW11056   5.684   4.485   4.426
 3386SOL    HW111057   5.648   4.435   4.347
 3386SOL    HW211058   5.757   4.546   4.396
 3387SOL     OW11059   3.437   1.833   2.617
 3387SOL    HW111060   3.413   1.888   2.696
 3387SOL    HW211061   3.434   1.889   2.535
 3388SOL     OW11062   5.396   2.117   1.381
 3388SOL    HW111063   5.407   2.161   1.292
 3388SOL    HW211064   5.385   2.187   1.452
 3389SOL     OW11065   4.312   5.632   2.800
 3389SOL    HW111066   4.330   5.728   2.781
 3389SOL    HW211067   4.213   5.615   2.794
 3390SOL     OW11068   4.622   1.426   5.336
 3390SOL    HW111069   4.691   1.460   5.272
 3390SOL    HW211070   4.603   1.330   5.316
 3391SOL     OW11071   3.649   1.962   3.923
 3391SOL    HW111072   3.568   1.974   3.980
 3391SOL    HW211073   3.635   2.007   3.835
 3392SOL     OW11074   5.372   6.328   3.731
 3392SOL    HW111075   5.392   6.388   3.653
 3392SOL    HW211076   5.336   6.241   3.699
 3393SOL     OW11077   0.120   0.005   6.776
 3393SOL    HW111078   0.030   6.987   6.785
 3393SOL    HW211079   0.160   0.019   6.867
 3394SOL     OW11080   5.664   1.213   2.507
 3394SOL    HW111081   5.585   1.198   2.448
 3394SOL    HW211082   5.645   1.289   2.570
 3395SOL     OW11083   1.333   3.703   4.835
 3395SOL    HW111084   1.281   3.786   4.856
 3395SOL    HW211085   1.347   3.650   4.918
 3396SOL     OW11086   6.277   3.786   4.169
 3396SOL    HW111087   6.259   3.831   4.082
 3396SOL    HW211088   6.296   3.689   4.153
 3397SOL     OW11089   3.941   5.439   6.204
 3397SOL    HW111090   3.979   5.473   6.118
 3397SOL    HW211091   3.938   5.513   6.271
 3398SOL     OW11092   0.337   1.010   3.213
 3398SOL    HW111093   0.328   1.018   3.114
 3398SOL    HW211094   0.398   1.081   3.247
 3399SOL     OW11095   4.312   5.871   4.461
 3399SOL    HW111096   4.290   5.805   4.533
 3399SOL    HW211097   4.404   5.907   4.476
 3400SOL     OW11098   5.201   2.547   0.456
 3400SOL    HW111099   5.151   2.478   0.403
 3400SOL    HW211100   5.281   2.577   0.405
 3401SOL     OW11101   6.946   4.400   6.496
 3401SOL    HW111102   6.935   4.436   6.404
 3401SOL    HW211103   7.012   4.325   6.495
 3402SOL     OW11104   5.011   4.941   2.361
 3402SOL    HW111105   4.944   4.869   2.379
 3402SOL    HW211106   5.085   4.936   2.428
 3403SOL     OW11107   3.625   1.566   5.670
 3403SOL    HW111108   3.700   1.511   5.633
 3403SOL    HW211109   3.552   1.571   5.603
 3404SOL     OW11110   4.699   6.172   1.757
 3404SOL    HW111111   4.759   6.128   1.824
 3404SOL    HW211112   4.689   6.269   1.780
 3405SOL     OW11113   6.282   4.703   6.943
 3405SOL    HW111114   6.333   4.664   6.867
 3405SOL    HW211115   6.344   4.718   7.020
 3406SOL     OW11116   1.354   3.992   1.429
 3406SOL    HW111117   1.269   3.956   1.392
 3406SOL    HW211118   1.334   4.065   1.494
 3407SOL     OW11119   1.137   5.106   2.839
 3407SOL    HW111120   1.182   5.195   2.850
 3407SOL    HW211121   1.202   5.041   2.799
 3408SOL     OW11122   5.224   3.641   2.847
 3408SOL    HW111123   5.319   3.640   2.877
 3408SOL    HW211124   5.174   3.568   2.893
 3409SOL     OW11125   2.997   0.759   6.511
 3409SOL    HW111126   3.041   0.844   6.537
 3409SOL    HW211127   3.066   0.687   6.504
 3410SOL     OW11128   0.055   2.359   0.154
 3410SOL    HW111129   0.079   2.408   0.070
 3410SOL    HW211130   6.981   2.364   0.168
 3411SOL     OW11131   4.404   2.114   2.656
 3411SOL    HW111132   4.318   2.063   2.662
 3411SOL    HW211133   4.461   2.075   2.585
 3412SOL     OW11134   4.673   5.747   6.864
 3412SOL    HW111135   4.740   5.673   6.860
 3412SOL    HW211136   4.586   5.711   6.900
 3413SOL     OW11137   5.135   1.361   2.411
 3413SOL    HW111138   5.065   1.383   2.343
 3413SOL    HW211139   5.130   1.426   2.487
 3414SOL     OW11140   4.036   0.429   5.535
 3414SOL    HW111141   4.093   0.347   5.543
 3414SOL    HW211142   4.005   0.457   5.626
 3415SOL     OW11143   1.267   5.289   4.262
 3415SOL    HW111144   1.346   5.341   4.232
 3415SOL    HW211145   1.293   5.233   4.341
 3416SOL     OW11146   2.261   4.363   5.769
 3416SOL    HW111147   2.241   4.272   5.806
 3416SOL    HW211148   2.291   4.354   5.674
 3417SOL     OW11149   4.999   0.808   1.395
 3417SOL    HW111150   4.922   0.760   1.438
 3417SOL    HW211151   4.975   0.829   1.300
 3418SOL     OW11152   3.137   3.023   6.330
 3418SOL    HW111153   3.072   3.024   6.254
 3418SOL    HW211154   3.109   3.092   6.397
 3419SOL     OW11155   5.179   3.552   6.313
 3419SOL    HW111156   5.275   3.562   6.288
 3419SOL    HW211157   5.146   3.462   6.286
 3420SOL     OW11158   3.948   1.562   4.413
 3420SOL    HW111159   3.938   1.655   4.449
 3420SOL    HW211160   3.868   1.540   4.357
 3421SOL     OW11161   0.322   6.359   2.577
 3421SOL    HW111162   0.373   6.283   2.617
 3421SOL    HW211163   0.225   6.348   2.596
 3422SOL     OW11164   3.069   2.107   2.795
 3422SOL    HW111165   3.146   2.078   2.854
 3422SOL    HW211166   3.101   2.118   2.701
 3423SOL     OW11167   3.177   0.608   1.461
 3423SOL    HW111168   3.148   0.541   1.530
 3423SOL    HW211169   3.129   0.694   1.476
 3424SOL     OW11170   4.054   1.317   1.453
 3424SOL    HW111171   4.037   1.232   1.403
 3424SOL    HW211172   4.036   1.303   1.550
 3425SOL     OW11173   4.042   4.076   1.709
 3425SOL    HW111174   4.103   4.066   1.630
 3425SOL    HW211175   4.064   4.005   1.777
 3426SOL     OW11176   4.666   4.046   0.882
 3426SOL    HW111177   4.745   4.033   0.942
 3426SOL    HW211178   4.694   4.037   0.786
 3427SOL     OW11179   0.729   1.809   0.783
 3427SOL    HW111180   0.729   1.749   0.703
 3427SOL    HW211181   0.635   1.837   0.803
 3428SOL     OW11182   4.195   5.068   3.250
 3428SOL    HW111183   4.294   5.084   3.250
 3428SOL    HW211184   4.147   5.156   3.255
 3429SOL     OW11185   0.524   3.000   0.525
 3429SOL    HW111186   0.606   3.057   0.524
 3429SOL    HW211187   0.547   2.909   0.491
 3430SOL     OW11188   1.296   5.369   6.316
 3430SOL    HW111189   1.303   5.389   6.414
 3430SOL    HW211190   1.276   5.272   6.304
 3431SOL     OW11191   1.785   6.186   6.723
 3431SOL    HW111192   1.858   6.124   6.694
 3431SOL    HW211193   1.806   6.221   6.815
 3432SOL     OW11194   3.532   1.608   6.541
 3432SOL    HW111195   3.495   1.690   6.586
 3432SOL    HW211196   3.516   1.529   6.599
 3433SOL     OW11197   5.161   0.906   4.333
 3433SOL    HW111198   5.247   0.867   4.367
 3433SOL    HW211199   5.093   0.834   4.324
 3434SOL     OW11200   4.238   1.843   3.371
 3434SOL    HW111201   4.233   1.931   3.324
 3434SOL    HW211202   4.212   1.856   3.467
 3435SOL     OW11203   0.846   1.490   0.420
 3435SOL    HW111204   0.834   1.526   0.328
 3435SOL    HW211205   0.940   1.457   0.431
 3436SOL     OW11206   4.380   6.777   2.634
 3436SOL    HW111207   4.428   6.744   2.552
 3436SOL    HW211208   4.392   6.876   2.641
 3437SOL     OW11209   4.228   0.738   6.554
 3437SOL    HW111210   4.195   0.821   6.510
 3437SOL    HW211211   4.328   0.735   6.549
 3438SOL     OW11212   0.928   5.753   6.099
 3438SOL    HW111213   0.884   5.843   6.098
 3438SOL    HW211214   0.885   5.696   6.170
 3439SOL     OW11215   2.610   0.372   4.003
 3439SOL    HW111216   2.611   0.427   4.086
 3439SOL    HW211217   2.672   0.294   4.013
 3440SOL     OW11218   2.967   1.997   0.339
 3440SOL    HW111219   3.022   2.058   0.283
 3440SOL    HW211220   2.879   1.980   0.295
 3441SOL     OW11221   4.955   0.507   4.144
 3441SOL    HW111222   5.025   0.457   4.093
 3441SOL    HW211223   4.894   0.553   4.079
 3442SOL     OW11224   0.861   5.071   3.033
 3442SOL    HW111225   0.954   5.062   3.069
 3442SOL    HW211226   0.852   5.159   2.986
 3443SOL     OW11227   5.982   6.676   4.323
 3443SOL    HW111228   5.986   6.688   4.422
 3443SOL    HW211229   5.952   6.583   4.302
 3444SOL     OW11230   4.028   5.212   0.229
 3444SOL    HW111231   4.043   5.165   0.316
 3444SOL    HW211232   4.117   5.233   0.187
 3445SOL     OW11233   5.683   5.035   4.665
 3445SOL    HW111234   5.610   5.050   4.731
 3445SOL    HW211235   5.732   4.951   4.688
 3446SOL     OW11236   2.920   6.642   2.246
 3446SOL    HW111237   2.834   6.610   2.286
 3446SOL    HW211238   2.920   6.742   2.243
 3447SOL     OW11239   6.397   4.832   5.335
 3447SOL    HW111240   6.400   4.922   5.379
 3447SOL    HW211241   6.308   4.820   5.290
 3448SOL     OW11242   3.862   3.540   0.610
 3448SOL    HW111243   3.843   3.469   0.543
 3448SOL    HW211244   3.920   3.502   0.683
 3449SOL     OW11245   6.970   6.348   2.781
 3449SOL    HW111246   7.005   6.438   2.758
 3449SOL    HW211247   0.001   6.308   2.855
 3450SOL     OW11248   0.792   1.894   1.780
 3450SOL    HW111249   0.716   1.944   1.739
 3450SOL    HW211250   0.826   1.825   1.715
 3451SOL     OW11251   1.590   4.456   4.312
 3451SOL    HW111252   1.555   4.487   4.401
 3451SOL    HW211253   1.527   4.483   4.240
 3452SOL     OW11254   6.744   1.841   0.607
 3452SOL    HW111255   6.670   1.773   0.605
 3452SOL    HW211256   6.706   1.931   0.629
 3453SOL     OW11257   5.876   6.022   5.400
 3453SOL    HW111258   5.893   5.949   5.465
 3453SOL    HW211259   5.875   5.984   5.307
 3454SOL     OW11260   0.837   1.123   0.692
 3454SOL    HW111261   0.849   1.025   0.677
 3454SOL    HW211262   0.740   1.142   0.710
 3455SOL     OW11263   1.743   3.064   3.840
 3455SOL    HW111264   1.768   2.999   3.768
 3455SOL    HW211265   1.644   3.071   3.845
 3456SOL     OW11266   6.925   0.197   0.242
 3456SOL    HW111267   6.998   0.233   0.301
 3456SOL    HW211268   6.921   0.249   0.157
 3457SOL     OW11269   2.206   6.399   3.906
 3457SOL    HW111270   2.211   6.303   3.879
 3457SOL    HW211271   2.294   6.443   3.888
 3458SOL     OW11272   5.373   5.056   0.527
 3458SOL    HW111273   5.430   5.032   0.605
 3458SOL    HW211274   5.417   5.022   0.443
 3459SOL     OW11275   6.204   6.845   3.186
 3459SOL    HW111276   6.210   6.855   3.087
 3459SOL    HW211277   6.142   6.770   3.208
 3460SOL     OW11278   4.283   2.429   6.887
 3460SOL    HW111279   4.309   2.450   6.793
 3460SOL    HW211280   4.364   2.436   6.946
 3461SOL     OW11281   2.560   5.861   2.990
 3461SOL    HW111282   2.508   5.947   2.994
 3461SOL    HW211283   2.498   5.784   3.003
 3462SOL     OW11284   5.218   2.903   2.639
 3462SOL    HW111285   5.213   2.828   2.574
 3462SOL    HW211286   5.126   2.931   2.666
 3463SOL     OW11287   1.456   3.246   1.138
 3463SOL    HW111288   1.509   3.163   1.119
 3463SOL    HW211289   1.405   3.272   1.057
 3464SOL     OW11290   5.200   1.729   5.890
 3464SOL    HW111291   5.289   1.776   5.889
 3464SOL    HW211292   5.141   1.768   5.819
 3465SOL     OW11293   1.957   4.869   1.582
 3465SOL    HW111294   1.960   4.769   1.583
 3465SOL    HW211295   1.925   4.903   1.671
 3466SOL     OW11296   6.055   4.124   4.397
 3466SOL    HW111297   5.996   4.125   4.477
 3466SOL    HW211298   6.138   4.177   4.416
 3467SOL     OW11299   3.539   2.934   0.748
 3467SOL    HW111300   3.625   2.966   0.709
 3467SOL    HW211301   3.495   2.871   0.683
 3468SOL     OW11302   3.624   1.562   1.233
 3468SOL    HW111303   3.661   1.493   1.295
 3468SOL    HW211304   3.682   1.644   1.237
 3469SOL     OW11305   3.888   5.464   4.987
 3469SOL    HW111306   3.809   5.408   4.961
 3469SOL    HW211307   3.956   5.407   5.032
 3470SOL     OW11308   1.216   2.098   2.339
 3470SOL    HW111309   1.190   2.163   2.268
 3470SOL    HW211310   1.175   2.009   2.319
 3471SOL     OW11311   4.859   3.044   4.793
 3471SOL    HW111312   4.857   3.127   4.848
 3471SOL    HW211313   4.828   3.064   4.701
 3472SOL     OW11314   4.607   1.882   2.776
 3472SOL    HW111315   4.645   1.838   2.695
 3472SOL    HW211316   4.606   1.981   2.762
 3473SOL     OW11317   6.170   4.903   1.880
 3473SOL    HW111318   6.133   4.812   1.858
 3473SOL    HW211319   6.251   4.920   1.825
 3474SOL     OW11320   4.706   4.666   3.821
 3474SOL    HW111321   4.786   4.606   3.820
 3474SOL    HW211322   4.708   4.722   3.903
 3475SOL     OW11323   0.022   4.127   4.475
 3475SOL    HW111324   0.035   4.044   4.421
 3475SOL    HW211325   0.112   4.168   4.495
 3476SOL     OW11326   1.726   1.807   3.073
 3476SOL    HW111327   1.720   1.775   3.167
 3476SOL    HW211328   1.697   1.903   3.067
 3477SOL     OW11329   0.754   3.761   1.741
 3477SOL    HW111330   0.670   3.811   1.722
 3477SOL    HW211331   0.826   3.792   1.679
 3478SOL     OW11332   2.287   0.497   0.836
 3478SOL    HW111333   2.312   0.402   0.819
 3478SOL    HW211334   2.339   0.557   0.775
 3479SOL     OW11335   0.753   4.412   5.242
 3479SOL    HW111336   0.849   4.387   5.258
 3479SOL    HW211337   0.700   4.329   5.224
 3480SOL     OW11338   1.490   4.657   6.171
 3480SOL    HW111339   1.588   4.647   6.188
 3480SOL    HW211340   1.462   4.596   6.096
 3481SOL     OW11341   6.147   0.386   4.689
 3481SOL    HW111342   6.172   0.325   4.764
 3481SOL    HW211343   6.118   0.332   4.610
 3482SOL     OW11344   6.287   3.692   6.728
 3482SOL    HW111345   6.292   3.623   6.800
 3482SOL    HW211346   6.192   3.712   6.708
 3483SOL     OW11347   5.397   2.618   5.369
 3483SOL    HW111348   5.302   2.637   5.395
 3483SOL    HW211349   5.434   2.696   5.319
 3484SOL     OW11350   1.079   3.141   4.709
 3484SOL    HW111351   1.134   3.078   4.765
 3484SOL    HW211352   1.140   3.197   4.653
 3485SOL     OW11353   0.546   3.005   6.920
 3485SOL    HW111354   0.515   2.915   6.887
 3485SOL    HW211355   0.618   2.992   6.988
 3486SOL     OW11356   1.851   6.477   5.393
 3486SOL    HW111357   1.867   6.574   5.410
 3486SOL    HW211358   1.815   6.465   5.300
 3487SOL     OW11359   4.416   1.641   6.899
 3487SOL    HW111360   4.437   1.636   6.802
 3487SOL    HW211361   4.486   1.591   6.951
 3488SOL     OW11362   5.492   6.580   5.168
 3488SOL    HW111363   5.465   6.640   5.093
 3488SOL    HW211364   5.426   6.506   5.177
 3489SOL     OW11365   3.454   5.634   0.770
 3489SOL    HW111366   3.409   5.644   0.681
 3489SOL    HW211367   3.406   5.563   0.823
 3490SOL     OW11368   3.836   6.554   0.867
 3490SOL    HW111369   3.773   6.564   0.790
 3490SOL    HW211370   3.785   6.530   0.950
 3491SOL     OW11371   4.266   4.611   5.958
 3491SOL    HW111372   4.334   4.634   6.028
 3491SOL    HW211373   4.288   4.521   5.919
 3492SOL     OW11374   5.783   4.195   3.263
 3492SOL    HW111375   5.826   4.222   3.350
 3492SOL    HW211376   5.838   4.123   3.221
 3493SOL     OW11377   6.781   3.174   5.912
 3493SOL    HW111378   6.804   3.173   5.815
 3493SOL    HW211379   6.859   3.206   5.965
 3494SOL     OW11380   3.819   1.563   1.992
 3494SOL    HW111381   3.782   1.654   1.974
 3494SOL    HW211382   3.854   1.559   2.086
 3495SOL     OW11383   1.597   3.770   3.504
 3495SOL    HW111384   1.690   3.757   3.538
 3495SOL    HW211385   1.532   3.760   3.579
 3496SOL     OW11386   6.444   5.136   1.282
 3496SOL    HW111387   6.381   5.069   1.243
 3496SOL    HW211388   6.410   5.167   1.370
 3497SOL     OW11389   3.413   0.425   1.740
 3497SOL    HW111390   3.495   0.470   1.705
 3497SOL    HW211391   3.397   0.454   1.835
 3498SOL     OW11392   2.357   2.842   1.365
 3498SOL    HW111393   2.319   2.751   1.376
 3498SOL    HW211394   2.328   2.900   1.441
 3499SOL     OW11395   6.012   6.786   4.588
 3499SOL    HW111396   5.953   6.807   4.666
 3499SOL    HW211397   6.046   6.871   4.548
 3500SOL     OW11398   2.814   2.357   3.850
 3500SOL    HW111399   2.785   2.263   3.833
 3500SOL    HW211400   2.861   2.361   3.938
 3501SOL     OW11401   1.320   6.980   5.981
 3501SOL    HW111402   1.228   7.003   5.951
 3501SOL    HW211403   1.321   6.887   6.018
 3502SOL     OW11404   4.477   2.249   2.372
 3502SOL    HW111405   4.554   2.188   2.390
 3502SOL    HW211406   4.500   2.342   2.404
 3503SOL     OW11407   0.235   6.033   6.627
 3503SOL    HW111408   0.171   5.991   6.563
 3503SOL    HW211409   0.319   6.058   6.579
 3504SOL     OW11410   1.783   0.739   6.984
 3504SOL    HW111411   1.829   0.684   6.914
 3504SOL    HW211412   1.838   0.820   7.005
 3505SOL     OW11413   4.510   3.446   5.744
 3505SOL    HW111414   4.575   3.395   5.688
 3505SOL    HW211415   4.546   3.538   5.762
 3506SOL     OW11416   4.259   4.804   5.013
 3506SOL    HW111417   4.310   4.799   5.098
 3506SOL    HW211418   4.257   4.714   4.969
 3507SOL     OW11419   3.451   1.033   0.548
 3507SOL    HW111420   3.352   1.043   0.555
 3507SOL    HW211421   3.476   0.937   0.563
 3508SOL     OW11422   3.206   1.502   5.719
 3508SOL    HW111423   3.197   1.600   5.700
 3508SOL    HW211424   3.269   1.461   5.653
 3509SOL     OW11425   4.381   5.599   6.604
 3509SOL    HW111426   4.331   5.604   6.691
 3509SOL    HW211427   4.440   5.679   6.595
 3510SOL     OW11428   2.524   1.936   1.419
 3510SOL    HW111429   2.620   1.924   1.395
 3510SOL    HW211430   2.516   1.997   1.497
 3511SOL     OW11431   2.739   4.332   1.669
 3511SOL    HW111432   2.800   4.253   1.665
 3511SOL    HW211433   2.772   4.397   1.738
 3512SOL     OW11434   6.907   5.134   5.759
 3512SOL    HW111435   6.988   5.077   5.773
 3512SOL    HW211436   6.828   5.091   5.803
 3513SOL     OW11437   5.768   2.059   0.881
 3513SOL    HW111438   5.845   2.072   0.818
 3513SOL    HW211439   5.682   2.061   0.829
 3514SOL     OW11440   3.093   1.906   1.606
 3514SOL    HW111441   3.051   1.819   1.632
 3514SOL    HW211442   3.039   1.982   1.642
 3515SOL     OW11443   0.463   4.724   4.732
 3515SOL    HW111444   0.539   4.737   4.668
 3515SOL    HW211445   0.448   4.627   4.747
 3516SOL     OW11446   4.705   0.441   1.247
 3516SOL    HW111447   4.741   0.490   1.168
 3516SOL    HW211448   4.678   0.506   1.318
 3517SOL     OW11449   4.802   0.627   1.696
 3517SOL    HW111450   4.777   0.683   1.617
 3517SOL    HW211451   4.868   0.677   1.753
 3518SOL     OW11452   5.281   0.830   4.924
 3518SOL    HW111453   5.316   0.782   4.844
 3518SOL    HW211454   5.330   0.916   4.936
 3519SOL     OW11455   3.126   1.114   1.125
 3519SOL    HW111456   3.151   1.205   1.159
 3519SOL    HW211457   3.204   1.075   1.075
 3520SOL     OW11458   2.671   5.852   4.430
 3520SOL    HW111459   2.741   5.781   4.435
 3520SOL    HW211460   2.629   5.850   4.339
 3521SOL     OW11461   2.768   2.984   6.376
 3521SOL    HW111462   2.679   2.943   6.357
 3521SOL    HW211463   2.839   2.914   6.366
 3522SOL     OW11464   0.867   6.285   6.534
 3522SOL    HW111465   0.894   6.275   6.630
 3522SOL    HW211466   0.896   6.375   6.501
 3523SOL     OW11467   3.464   6.561   0.187
 3523SOL    HW111468   3.424   6.478   0.149
 3523SOL    HW211469   3.429   6.640   0.137
 3524SOL     OW11470   4.755   1.085   3.975
 3524SOL    HW111471   4.803   1.019   4.034
 3524SOL    HW211472   4.700   1.036   3.908
 3525SOL     OW11473   0.150   3.156   3.377
 3525SOL    HW111474   0.174   3.252   3.387
 3525SOL    HW211475   0.192   3.103   3.451
 3526SOL     OW11476   0.502   6.551   1.819
 3526SOL    HW111477   0.426   6.499   1.779
 3526SOL    HW211478   0.492   6.554   1.919
 3527SOL     OW11479   6.793   3.178   6.595
 3527SOL    HW111480   6.774   3.143   6.686
 3527SOL    HW211481   6.805   3.101   6.532
 3528SOL     OW11482   2.252   5.231   4.511
 3528SOL    HW111483   2.246   5.303   4.442
 3528SOL    HW211484   2.310   5.157   4.478
 3529SOL     OW11485   4.004   4.913   0.764
 3529SOL    HW111486   4.055   4.858   0.698
 3529SOL    HW211487   4.047   4.906   0.854
 3530SOL     OW11488   6.611   6.882   0.931
 3530SOL    HW111489   6.627   6.878   1.030
 3530SOL    HW211490   6.554   6.804   0.904
 3531SOL     OW11491   4.575   2.371   0.452
 3531SOL    HW111492   4.618   2.416   0.374
 3531SOL    HW211493   4.596   2.273   0.450
 3532SOL     OW11494   1.646   0.794   1.676
 3532SOL    HW111495   1.630   0.700   1.705
 3532SOL    HW211496   1.722   0.832   1.728
 3533SOL     OW11497   0.966   1.802   3.554
 3533SOL    HW111498   0.933   1.759   3.471
 3533SOL    HW211499   0.978   1.900   3.538
 3534SOL     OW11500   0.504   0.700   0.949
 3534SOL    HW111501   0.579   0.715   0.884
 3534SOL    HW211502   0.443   0.778   0.948
 3535SOL     OW11503   3.404   6.129   3.935
 3535SOL    HW111504   3.419   6.221   3.969
 3535SOL    HW211505   3.316   6.125   3.888
 3536SOL     OW11506   3.862   1.653   3.032
 3536SOL    HW111507   3.920   1.647   3.114
 3536SOL    HW211508   3.779   1.599   3.046
 3537SOL     OW11509   1.573   7.004   3.686
 3537SOL    HW111510   1.606   6.949   3.610
 3537SOL    HW211511   1.619   6.974   3.770
 3538SOL     OW11512   2.759   5.399   2.009
 3538SOL    HW111513   2.686   5.407   1.941
 3538SOL    HW211514   2.793   5.304   2.010
 3539SOL     OW11515   3.300   3.793   4.411
 3539SOL    HW111516   3.376   3.727   4.410
 3539SOL    HW211517   3.214   3.745   4.397
 3540SOL     OW11518   1.481   2.219   3.712
 3540SOL    HW111519   1.511   2.292   3.774
 3540SOL    HW211520   1.537   2.138   3.726
 3541SOL     OW11521   4.136   3.518   4.542
 3541SOL    HW111522   4.185   3.545   4.625
 3541SOL    HW211523   4.129   3.418   4.540
 3542SOL     OW11524   6.543   5.308   1.108
 3542SOL    HW111525   6.553   5.377   1.180
 3542SOL    HW211526   6.512   5.222   1.148
 3543SOL     OW11527   5.214   2.417   4.530
 3543SOL    HW111528   5.163   2.498   4.561
 3543SOL    HW211529   5.173   2.381   4.447
 3544SOL     OW11530   2.491   6.634   0.274
 3544SOL    HW111531   2.465   6.677   0.360
 3544SOL    HW211532   2.436   6.672   0.200
 3545SOL     OW11533   3.339   4.897   0.713
 3545SOL    HW111534   3.251   4.876   0.670
 3545SOL    HW211535   3.332   4.983   0.763
 3546SOL     OW11536   0.283   4.714   2.156
 3546SOL    HW111537   0.198   4.687   2.112
 3546SOL    HW211538   0.333   4.777   2.097
 3547SOL     OW11539   5.183   4.712   4.351
 3547SOL    HW111540   5.172   4.697   4.450
 3547SOL    HW211541   5.280   4.705   4.327
 3548SOL     OW11542   5.080   3.684   5.996
 3548SOL    HW111543   5.019   3.712   5.921
 3548SOL    HW211544   5.037   3.706   6.084
 3549SOL     OW11545   4.919   3.477   2.563
 3549SOL    HW111546   4.890   3.401   2.505
 3549SOL    HW211547   4.910   3.563   2.512
 3550SOL     OW11548   4.763   1.411   3.427
 3550SOL    HW111549   4.739   1.440   3.520
 3550SOL    HW211550   4.755   1.488   3.364
 3551SOL     OW11551   2.373   6.291   2.751
 3551SOL    HW111552   2.364   6.222   2.823
 3551SOL    HW211553   2.282   6.311   2.712
 3552SOL     OW11554   6.773   4.422   2.888
 3552SOL    HW111555   6.678   4.410   2.859
 3552SOL    HW211556   6.782   4.394   2.984
 3553SOL     OW11557   5.761   1.839   3.324
 3553SOL    HW111558   5.825   1.780   3.275
 3553SOL    HW211559   5.794   1.854   3.417
 3554SOL     OW11560   4.421   5.681   6.963
 3554SOL    HW111561   4.457   5.588   6.964
 3554SOL    HW211562   4.322   5.678   6.980
 3555SOL     OW11563   0.804   2.433   3.555
 3555SOL    HW111564   0.867   2.390   3.490
 3555SOL    HW211565   0.710   2.415   3.527
 3556SOL     OW11566   4.088   1.518   6.541
 3556SOL    HW111567   4.116   1.528   6.637
 3556SOL    HW211568   4.021   1.588   6.519
 3557SOL     OW11569   1.039   0.399   4.368
 3557SOL    HW111570   1.125   0.383   4.417
 3557SOL    HW211571   1.035   0.493   4.336
 3558SOL     OW11572   0.226   6.565   1.582
 3558SOL    HW111573   0.191   6.648   1.625
 3558SOL    HW211574   0.170   6.487   1.611
 3559SOL     OW11575   1.430   0.444   5.817
 3559SOL    HW111576   1.451   0.535   5.854
 3559SOL    HW211577   1.382   0.390   5.886
 3560SOL     OW11578   6.754   6.695   1.555
 3560SOL    HW111579   6.673   6.642   1.580
 3560SOL    HW211580   6.808   6.714   1.637
 3561SOL     OW11581   4.899   4.467   3.726
 3561SOL    HW111582   4.884   4.513   3.639
 3561SOL    HW211583   4.855   4.377   3.725
 3562SOL     OW11584   3.937   2.144   2.910
 3562SOL    HW111585   3.890   2.157   2.997
 3562SOL    HW211586   4.022   2.095   2.925
 3563SOL     OW11587   4.774   6.408   1.473
 3563SOL    HW111588   4.752   6.406   1.570
 3563SOL    HW211589   4.689   6.405   1.420
 3564SOL     OW11590   6.749   4.308   3.137
 3564SOL    HW111591   6.651   4.300   3.117
 3564SOL    HW211592   6.761   4.332   3.233
 3565SOL     OW11593   1.638   1.197   5.232
 3565SOL    HW111594   1.579   1.132   5.183
 3565SOL    HW211595   1.689   1.149   5.304
 3566SOL     OW11596   0.963   4.318   5.847
 3566SOL    HW111597   0.882   4.358   5.804
 3566SOL    HW211598   0.936   4.271   5.931
 3567SOL     OW11599   0.079   2.374   1.549
 3567SOL    HW111600   0.010   2.359   1.478
 3567SOL    HW211601   0.116   2.466   1.540
 3568SOL     OW11602   4.758   4.207   3.429
 3568SOL    HW111603   4.675   4.263   3.430
 3568SOL    HW211604   4.788   4.191   3.523
 3569SOL     OW11605   4.012   3.449   3.621
 3569SOL    HW111606   3.917   3.434   3.649
 3569SOL    HW211607   4.071   3.444   3.702
 3570SOL     OW11608   0.173   2.006   5.290
 3570SOL    HW111609   0.136   2.096   5.316
 3570SOL    HW211610   0.142   1.937   5.355
 3571SOL     OW11611   2.678   6.909   4.342
 3571SOL    HW111612   2.713   6.889   4.251
 3571SOL    HW211613   2.592   6.959   4.335
 3572SOL     OW11614   5.182   4.213   2.240
 3572SOL    HW111615   5.101   4.231   2.297
 3572SOL    HW211616   5.248   4.158   2.290
 3573SOL     OW11617   6.927   4.670   3.879
 3573SOL    HW111618   6.917   4.694   3.783
 3573SOL    HW211619   7.022   4.684   3.908
 3574SOL     OW11620   2.212   1.848   5.796
 3574SOL    HW111621   2.253   1.764   5.761
 3574SOL    HW211622   2.218   1.848   5.896
 3575SOL     OW11623   5.029   0.438   6.474
 3575SOL    HW111624   5.112   0.387   6.452
 3575SOL    HW211625   5.036   0.531   6.438
 3576SOL     OW11626   1.111   2.948   0.590
 3576SOL    HW111627   1.103   3.034   0.541
 3576SOL    HW211628   1.140   2.876   0.527
 3577SOL     OW11629   1.408   3.101   4.718
 3577SOL    HW111630   1.408   3.192   4.676
 3577SOL    HW211631   1.500   3.062   4.711
 3578SOL     OW11632   3.733   2.993   0.209
 3578SOL    HW111633   3.813   3.004   0.268
 3578SOL    HW211634   3.731   3.067   0.142
 3579SOL     OW11635   1.406   3.751   1.514
 3579SOL    HW111636   1.416   3.850   1.504
 3579SOL    HW211637   1.426   3.706   1.427
 3580SOL     OW11638   0.070   3.828   1.912
 3580SOL    HW111639   7.008   3.860   1.949
 3580SOL    HW211640   0.144   3.887   1.944
 3581SOL     OW11641   1.749   0.562   2.565
 3581SOL    HW111642   1.654   0.534   2.554
 3581SOL    HW211643   1.755   0.640   2.627
 3582SOL     OW11644   4.273   5.966   6.898
 3582SOL    HW111645   4.233   5.876   6.883
 3582SOL    HW211646   4.344   5.960   6.969
 3583SOL     OW11647   1.846   5.787   1.372
 3583SOL    HW111648   1.863   5.885   1.385
 3583SOL    HW211649   1.775   5.757   1.436
 3584SOL     OW11650   6.065   4.885   4.986
 3584SOL    HW111651   6.122   4.885   4.904
 3584SOL    HW211652   6.119   4.914   5.064
 3585SOL     OW11653   3.549   2.036   3.670
 3585SOL    HW111654   3.464   2.065   3.713
 3585SOL    HW211655   3.529   1.977   3.592
 3586SOL     OW11656   6.435   2.417   5.669
 3586SOL    HW111657   6.524   2.395   5.628
 3586SOL    HW211658   6.363   2.368   5.620
 3587SOL     OW11659   2.984   0.482   5.947
 3587SOL    HW111660   2.917   0.529   5.889
 3587SOL    HW211661   3.010   0.543   6.023
 3588SOL     OW11662   5.672   4.443   4.126
 3588SOL    HW111663   5.765   4.475   4.106
 3588SOL    HW211664   5.621   4.516   4.170
 3589SOL     OW11665   0.823   0.719   6.183
 3589SOL    HW111666   0.789   0.769   6.104
 3589SOL    HW211667   0.752   0.658   6.218
 3590SOL     OW11668   6.171   5.079   5.231
 3590SOL    HW111669   6.209   5.130   5.153
 3590SOL    HW211670   6.230   5.091   5.310
 3591SOL     OW11671   4.879   1.883   0.831
 3591SOL    HW111672   4.874   1.866   0.733
 3591SOL    HW211673   4.862   1.980   0.849
 3592SOL     OW11674   1.259   6.129   1.059
 3592SOL    HW111675   1.313   6.138   0.976
 3592SOL    HW211676   1.276   6.207   1.119
 3593SOL     OW11677   4.232   3.149   5.997
 3593SOL    HW111678   4.141   3.185   5.978
 3593SOL    HW211679   4.262   3.180   6.087
 3594SOL     OW11680   4.585   4.578   5.190
 3594SOL    HW111681   4.577   4.633   5.274
 3594SOL    HW211682   4.493   4.560   5.154
 3595SOL     OW11683   4.755   6.676   4.671
 3595SOL    HW111684   4.655   6.671   4.666
 3595SOL    HW211685   4.784   6.666   4.766
 3596SOL     OW11686   3.621   2.004   2.317
 3596SOL    HW111687   3.603   2.041   2.226
 3596SOL    HW211688   3.547   2.031   2.379
 3597SOL     OW11689   3.885   4.361   5.241
 3597SOL    HW111690   3.937   4.318   5.315
 3597SOL    HW211691   3.942   4.369   5.160
 3598SOL     OW11692   7.001   5.754   4.882
 3598SOL    HW111693   6.995   5.847   4.847
 3598SOL    HW211694   6.957   5.691   4.818
 3599SOL     OW11695   2.652   1.211   5.106
 3599SOL    HW111696   2.562   1.191   5.067
 3599SOL    HW211697   2.715   1.237   5.033
 3600SOL     OW11698   2.964   4.368   0.492
 3600SOL    HW111699   2.864   4.361   0.482
 3600SOL    HW211700   3.007   4.359   0.402
 3601SOL     OW11701   4.049   0.770   5.462
 3601SOL    HW111702   4.060   0.729   5.553
 3601SOL    HW211703   4.067   0.868   5.467
 3602SOL     OW11704   1.318   2.336   1.196
 3602SOL    HW111705   1.379   2.351   1.118
 3602SOL    HW211706   1.362   2.275   1.262
 3603SOL     OW11707   1.999   0.315   6.014
 3603SOL    HW111708   1.949   0.235   5.979
 3603SOL    HW211709   2.094   0.288   6.032
 3604SOL     OW11710   6.638   0.724   3.480
 3604SOL    HW111711   6.696   0.692   3.556
 3604SOL    HW211712   6.545   0.737   3.513
 3605SOL     OW11713   1.516   0.247   4.940
 3605SOL    HW111714   1.485   0.337   4.910
 3605SOL    HW211715   1.556   0.255   5.032
 3606SOL     OW11716   2.450   6.764   2.908
 3606SOL    HW111717   2.543   6.751   2.874
 3606SOL    HW211718   2.444   6.850   2.957
 3607SOL     OW11719   6.301   1.085   3.651
 3607SOL    HW111720   6.305   1.127   3.742
 3607SOL    HW211721   6.205   1.077   3.623
 3608SOL     OW11722   3.880   1.796   5.469
 3608SOL    HW111723   3.941   1.835   5.400
 3608SOL    HW211724   3.934   1.745   5.535
 3609SOL     OW11725   3.428   6.986   5.280
 3609SOL    HW111726   3.344   7.010   5.328
 3609SOL    HW211727   3.418   7.007   5.183
 3610SOL     OW11728   1.997   0.647   5.519
 3610SOL    HW111729   1.987   0.577   5.589
 3610SOL    HW211730   2.067   0.619   5.453
 3611SOL     OW11731   5.402   4.034   3.477
 3611SOL    HW111732   5.309   4.018   3.443
 3611SOL    HW211733   5.402   4.026   3.577
 3612SOL     OW11734   4.667   1.540   0.319
 3612SOL    HW111735   4.724   1.459   0.304
 3612SOL    HW211736   4.713   1.602   0.383
 3613SOL     OW11737   3.863   0.252   2.538
 3613SOL    HW111738   3.929   0.225   2.468
 3613SOL    HW211739   3.909   0.258   2.626
 3614SOL     OW11740   3.915   5.563   0.173
 3614SOL    HW111741   3.973   5.570   0.254
 3614SOL    HW211742   3.820   5.580   0.199
 3615SOL     OW11743   5.287   2.875   5.228
 3615SOL    HW111744   5.359   2.882   5.159
 3615SOL    HW211745   5.215   2.814   5.196
 3616SOL     OW11746   1.520   1.746   0.881
 3616SOL    HW111747   1.579   1.825   0.895
 3616SOL    HW211748   1.481   1.749   0.789
 3617SOL     OW11749   4.061   5.244   5.086
 3617SOL    HW111750   4.096   5.181   5.016
 3617SOL    HW211751   3.965   5.224   5.104
 3618SOL     OW11752   1.072   5.462   4.380
 3618SOL    HW111753   1.068   5.416   4.469
 3618SOL    HW211754   1.125   5.406   4.316
 3619SOL     OW11755   6.440   1.833   2.495
 3619SOL    HW111756   6.522   1.856   2.442
 3619SOL    HW211757   6.382   1.771   2.442
 3620SOL     OW11758   4.909   6.066   5.423
 3620SOL    HW111759   4.970   6.143   5.403
 3620SOL    HW211760   4.962   5.993   5.466
 3621SOL     OW11761   3.440   2.931   3.813
 3621SOL    HW111762   3.444   3.026   3.783
 3621SOL    HW211763   3.347   2.909   3.844
 3622SOL     OW11764   2.448   5.698   6.317
 3622SOL    HW111765   2.406   5.780   6.355
 3622SOL    HW211766   2.524   5.723   6.257
 3623SOL     OW11767   1.540   6.035   5.858
 3623SOL    HW111768   1.485   6.113   5.887
 3623SOL    HW211769   1.591   6.059   5.776
 3624SOL     OW11770   2.538   1.466   2.686
 3624SOL    HW111771   2.478   1.423   2.755
 3624SOL    HW211772   2.490   1.543   2.645
 3625SOL     OW11773   5.902   2.647   1.554
 3625SOL    HW111774   5.834   2.573   1.558
 3625SOL    HW211775   5.988   2.616   1.595
 3626SOL     OW11776   1.298   2.836   6.012
 3626SOL    HW111777   1.238   2.913   6.032
 3626SOL    HW211778   1.350   2.812   6.094
 3627SOL     OW11779   3.107   1.231   2.486
 3627SOL    HW111780   3.064   1.191   2.567
 3627SOL    HW211781   3.066   1.320   2.468
 3628SOL     OW11782   6.649   1.379   1.316
 3628SOL    HW111783   6.600   1.388   1.229
 3628SOL    HW211784   6.747   1.380   1.300
 3629SOL     OW11785   1.826   0.897   4.435
 3629SOL    HW111786   1.800   0.803   4.459
 3629SOL    HW211787   1.755   0.937   4.377
 3630SOL     OW11788   6.770   2.187   2.557
 3630SOL    HW111789   6.672   2.205   2.567
 3630SOL    HW211790   6.813   2.265   2.511
 3631SOL     OW11791   2.098   5.493   2.583
 3631SOL    HW111792   2.024   5.487   2.515
 3631SOL    HW211793   2.179   5.532   2.540
 3632SOL     OW11794   4.902   3.517   2.195
 3632SOL    HW111795   4.980   3.512   2.257
 3632SOL    HW211796   4.905   3.439   2.132
 3633SOL     OW11797   4.386   4.964   6.523
 3633SOL    HW111798   4.473   5.011   6.539
 3633SOL    HW211799   4.385   4.878   6.576
 3634SOL     OW11800   3.328   5.384   6.274
 3634SOL    HW111801   3.267   5.324   6.223
 3634SOL    HW211802   3.394   5.425   6.211
 3635SOL     OW11803   1.733   0.075   2.853
 3635SOL    HW111804   1.703   0.166   2.881
 3635SOL    HW211805   1.826   0.058   2.887
 3636SOL     OW11806   6.983   5.979   4.735
 3636SOL    HW111807   7.018   5.921   4.660
 3636SOL    HW211808   6.888   6.003   4.716
 3637SOL     OW11809   5.516   2.502   6.594
 3637SOL    HW111810   5.605   2.460   6.577
 3637SOL    HW211811   5.488   2.555   6.514
 3638SOL     OW11812   0.888   2.725   3.391
 3638SOL    HW111813   0.938   2.812   3.381
 3638SOL    HW211814   0.882   2.701   3.488
 3639SOL     OW11815   4.083   3.253   4.465
 3639SOL    HW111816   4.088   3.312   4.384
 3639SOL    HW211817   4.052   3.162   4.437
 3640SOL     OW11818   4.657   1.596   2.484
 3640SOL    HW111819   4.611   1.666   2.429
 3640SOL    HW211820   4.742   1.569   2.440
 3641SOL     OW11821   0.128   3.339   1.597
 3641SOL    HW111822   0.149   3.437   1.602
 3641SOL    HW211823   0.056   3.318   1.663
 3642SOL     OW11824   4.627   4.378   6.399
 3642SOL    HW111825   4.647   4.373   6.497
 3642SOL    HW211826   4.635   4.473   6.368
 3643SOL     OW11827   4.111   6.198   4.775
 3643SOL    HW111828   4.031   6.141   4.758
 3643SOL    HW211829   4.121   6.215   4.873
 3644SOL     OW11830   2.775   1.077   2.450
 3644SOL    HW111831   2.692   1.061   2.396
 3644SOL    HW211832   2.804   1.172   2.439
 3645SOL     OW11833   2.157   4.122   3.199
 3645SOL    HW111834   2.081   4.186   3.211
 3645SOL    HW211835   2.140   4.065   3.119
 3646SOL     OW11836   2.182   5.151   5.583
 3646SOL    HW111837   2.116   5.202   5.528
 3646SOL    HW211838   2.173   5.053   5.564
 3647SOL     OW11839   3.544   6.934   0.814
 3647SOL    HW111840   3.456   6.951   0.769
 3647SOL    HW211841   3.608   6.895   0.749
 3648SOL     OW11842   5.260   4.820   3.330
 3648SOL    HW111843   5.298   4.759   3.261
 3648SOL    HW211844   5.334   4.865   3.380
 3649SOL     OW11845   5.310   2.411   0.159
 3649SOL    HW111846   5.247   2.335   0.140
 3649SOL    HW211847   5.399   2.375   0.188
 3650SOL     OW11848   5.378   6.434   6.655
 3650SOL    HW111849   5.403   6.362   6.591
 3650SOL    HW211850   5.417   6.415   6.745
 3651SOL     OW11851   1.177   1.874   6.261
 3651SOL    HW111852   1.100   1.812   6.268
 3651SOL    HW211853   1.167   1.930   6.178
 3652SOL     OW11854   5.666   1.894   2.395
 3652SOL    HW111855   5.734   1.821   2.403
 3652SOL    HW211856   5.695   1.960   2.326
 3653SOL     OW11857   2.202   1.144   0.561
 3653SOL    HW111858   2.182   1.161   0.658
 3653SOL    HW211859   2.270   1.071   0.554
 3654SOL     OW11860   4.296   6.419   1.560
 3654SOL    HW111861   4.366   6.434   1.491
 3654SOL    HW211862   4.205   6.432   1.519
 3655SOL     OW11863   1.388   0.550   4.274
 3655SOL    HW111864   1.338   0.565   4.189
 3655SOL    HW211865   1.348   0.606   4.346
 3656SOL     OW11866   0.313   0.310   0.537
 3656SOL    HW111867   0.310   0.305   0.637
 3656SOL    HW211868   0.314   0.406   0.509
 3657SOL     OW11869   6.083   4.850   6.314
 3657SOL    HW111870   5.984   4.868   6.320
 3657SOL    HW211871   6.098   4.764   6.266
 3658SOL     OW11872   1.783   4.574   5.484
 3658SOL    HW111873   1.851   4.513   5.524
 3658SOL    HW211874   1.786   4.663   5.530
 3659SOL     OW11875   0.583   2.311   6.922
 3659SOL    HW111876   0.657   2.243   6.923
 3659SOL    HW211877   0.559   2.336   7.015
 3660SOL     OW11878   4.108   5.020   4.902
 3660SOL    HW111879   4.163   4.952   4.951
 3660SOL    HW211880   4.119   5.008   4.803
 3661SOL     OW11881   1.112   1.513   5.104
 3661SOL    HW111882   1.025   1.555   5.079
 3661SOL    HW211883   1.178   1.526   5.030
 3662SOL     OW11884   3.944   2.223   5.561
 3662SOL    HW111885   3.897   2.285   5.623
 3662SOL    HW211886   4.032   2.197   5.601
 3663SOL     OW11887   1.758   2.243   5.865
 3663SOL    HW111888   1.793   2.336   5.861
 3663SOL    HW211889   1.756   2.204   5.773
 3664SOL     OW11890   2.403   1.533   0.738
 3664SOL    HW111891   2.462   1.510   0.815
 3664SOL    HW211892   2.318   1.574   0.772
 3665SOL     OW11893   0.159   6.338   4.761
 3665SOL    HW111894   0.104   6.277   4.819
 3665SOL    HW211895   0.213   6.284   4.697
 3666SOL     OW11896   2.009   3.536   4.927
 3666SOL    HW111897   2.042   3.630   4.929
 3666SOL    HW211898   2.066   3.479   4.985
 3667SOL     OW11899   2.246   6.853   1.450
 3667SOL    HW111900   2.242   6.793   1.529
 3667SOL    HW211901   2.231   6.800   1.366
 3668SOL     OW11902   4.952   1.335   0.616
 3668SOL    HW111903   4.863   1.369   0.645
 3668SOL    HW211904   4.961   1.239   0.642
 3669SOL     OW11905   6.699   0.966   1.880
 3669SOL    HW111906   6.771   0.899   1.863
 3669SOL    HW211907   6.610   0.926   1.861
 3670SOL     OW11908   2.006   6.929   2.500
 3670SOL    HW111909   2.074   6.856   2.488
 3670SOL    HW211910   2.017   6.998   2.429
 3671SOL     OW11911   0.730   0.478   5.477
 3671SOL    HW111912   0.771   0.454   5.389
 3671SOL    HW211913   0.719   0.577   5.482
 3672SOL     OW11914   3.541   0.677   3.800
 3672SOL    HW111915   3.452   0.646   3.832
 3672SOL    HW211916   3.539   0.685   3.700
 3673SOL     OW11917   3.386   1.335   1.680
 3673SOL    HW111918   3.332   1.372   1.605
 3673SOL    HW211919   3.475   1.381   1.683
 3674SOL     OW11920   6.978   4.702   6.033
 3674SOL    HW111921   6.956   4.776   6.097
 3674SOL    HW211922   0.005   4.631   6.080
 3675SOL     OW11923   6.501   0.633   5.076
 3675SOL    HW111924   6.589   0.666   5.111
 3675SOL    HW211925   6.455   0.578   5.145
 3676SOL     OW11926   2.110   0.882   5.612
 3676SOL    HW111927   2.139   0.862   5.706
 3676SOL    HW211928   2.088   0.797   5.565
 3677SOL     OW11929   1.269   0.807   4.836
 3677SOL    HW111930   1.258   0.905   4.852
 3677SOL    HW211931   1.366   0.787   4.820
 3678SOL     OW11932   2.863   0.507   3.495
 3678SOL    HW111933   2.907   0.488   3.407
 3678SOL    HW211934   2.924   0.481   3.569
 3679SOL     OW11935   3.055   1.201   1.928
 3679SOL    HW111936   3.131   1.136   1.921
 3679SOL    HW211937   2.987   1.165   1.992
 3680SOL     OW11938   4.283   1.876   3.922
 3680SOL    HW111939   4.338   1.957   3.945
 3680SOL    HW211940   4.243   1.887   3.831
 3681SOL     OW11941   1.081   5.664   3.881
 3681SOL    HW111942   1.159   5.632   3.935
 3681SOL    HW211943   1.057   5.757   3.909
 3682SOL     OW11944   5.141   1.221   1.963
 3682SOL    HW111945   5.179   1.306   2.001
 3682SOL    HW211946   5.214   1.156   1.948
 3683SOL     OW11947   6.396   2.013   1.100
 3683SOL    HW111948   6.471   2.029   1.164
 3683SOL    HW211949   6.434   1.981   1.013
 3684SOL     OW11950   2.749   6.025   5.500
 3684SOL    HW111951   2.763   5.927   5.487
 3684SOL    HW211952   2.699   6.040   5.585
 3685SOL     OW11953   2.129   0.222   3.112
 3685SOL    HW111954   2.184   0.303   3.092
 3685SOL    HW211955   2.069   0.241   3.189
 3686SOL     OW11956   0.761   4.661   0.550
 3686SOL    HW111957   0.850   4.615   0.556
 3686SOL    HW211958   0.722   4.670   0.642
 3687SOL     OW11959   6.858   4.458   4.596
 3687SOL    HW111960   6.830   4.499   4.682
 3687SOL    HW211961   6.911   4.375   4.614
 3688SOL     OW11962   6.827   2.971   1.677
 3688SOL    HW111963   6.909   3.011   1.717
 3688SOL    HW211964   6.773   3.043   1.633
 3689SOL     OW11965   1.876   1.755   5.083
 3689SOL    HW111966   1.875   1.824   5.156
 3689SOL    HW211967   1.790   1.758   5.033
 3690SOL     OW11968   6.802   5.322   2.000
 3690SOL    HW111969   6.741   5.271   1.939
 3690SOL    HW211970   6.893   5.328   1.959
 3691SOL     OW11971   2.069   2.034   0.448
 3691SOL    HW111972   2.161   2.048   0.410
 3691SOL    HW211973   2.047   2.109   0.510
 3692SOL     OW11974   0.806   3.117   5.700
 3692SOL    HW111975   0.884   3.115   5.638
 3692SOL    HW211976   0.733   3.174   5.661
 3693SOL     OW11977   0.322   1.870   2.747
 3693SOL    HW111978   0.329   1.799   2.817
 3693SOL    HW211979   0.381   1.947   2.772
 3694SOL     OW11980   0.074   6.650   2.104
 3694SOL    HW111981   0.091   6.553   2.119
 3694SOL    HW211982   0.160   6.698   2.087
 3695SOL     OW11983   6.049   3.428   3.916
 3695SOL    HW111984   6.032   3.403   4.011
 3695SOL    HW211985   5.962   3.441   3.869
 3696SOL     OW11986   4.562   6.918   4.099
 3696SOL    HW111987   4.466   6.937   4.121
 3696SOL    HW211988   4.619   6.936   4.179
 3697SOL     OW11989   6.060   4.926   3.253
 3697SOL    HW111990   6.148   4.882   3.233
 3697SOL    HW211991   6.040   4.916   3.351
 3698SOL     OW11992   1.148   0.199   4.033
 3698SOL    HW111993   1.137   0.210   4.132
 3698SOL    HW211994   1.235   0.154   4.013
 3699SOL     OW11995   2.917   1.803   3.264
 3699SOL    HW111996   2.961   1.846   3.344
 3699SOL    HW211997   2.920   1.866   3.187
 3700SOL     OW11998   0.402   5.168   4.200
 3700SOL    HW111999   0.447   5.222   4.270
 3700SOL    HW212000   0.303   5.165   4.218
 3701SOL     OW12001   6.497   0.346   2.034
 3701SOL    HW112002   6.487   0.445   2.022
 3701SOL    HW212003   6.594   0.322   2.030
 3702SOL     OW12004   6.527   4.744   3.721
 3702SOL    HW112005   6.520   4.835   3.681
 3702SOL    HW212006   6.547   4.751   3.819
 3703SOL     OW12007   0.527   2.471   3.625
 3703SOL    HW112008   0.577   2.419   3.694
 3703SOL    HW212009   0.429   2.448   3.630
 3704SOL     OW12010   6.480   6.675   1.150
 3704SOL    HW112011   6.478   6.670   1.050
 3704SOL    HW212012   6.571   6.704   1.180
 3705SOL     OW12013   6.491   4.022   3.676
 3705SOL    HW112014   6.431   4.046   3.752
 3705SOL    HW212015   6.580   4.068   3.688
 3706SOL     OW12016   0.717   5.861   6.380
 3706SOL    HW112017   0.797   5.836   6.434
 3706SOL    HW212018   0.644   5.893   6.441
 3707SOL     OW12019   0.188   4.417   3.184
 3707SOL    HW112020   0.101   4.458   3.212
 3707SOL    HW212021   0.264   4.477   3.212
 3708SOL     OW12022   1.649   5.822   0.523
 3708SOL    HW112023   1.659   5.819   0.424
 3708SOL    HW212024   1.691   5.741   0.564
 3709SOL     OW12025   0.904   1.737   1.579
 3709SOL    HW112026   0.870   1.643   1.580
 3709SOL    HW212027   0.978   1.745   1.513
 3710SOL     OW12028   1.950   3.898   5.464
 3710SOL    HW112029   1.986   3.977   5.512
 3710SOL    HW212030   2.019   3.865   5.398
 3711SOL     OW12031   1.764   4.842   5.184
 3711SOL    HW112032   1.671   4.816   5.155
 3711SOL    HW212033   1.830   4.777   5.146
 3712SOL     OW12034   2.844   4.775   3.967
 3712SOL    HW112035   2.883   4.762   4.059
 3712SOL    HW212036   2.918   4.796   3.903
 3713SOL     OW12037   5.944   0.347   5.882
 3713SOL    HW112038   6.031   0.301   5.867
 3713SOL    HW212039   5.869   0.287   5.853
 3714SOL     OW12040   0.316   5.149   0.630
 3714SOL    HW112041   0.373   5.105   0.699
 3714SOL    HW212042   0.289   5.083   0.560
 3715SOL     OW12043   6.065   4.701   2.655
 3715SOL    HW112044   6.000   4.626   2.666
 3715SOL    HW212045   6.109   4.694   2.566
 3716SOL     OW12046   5.318   5.628   5.361
 3716SOL    HW112047   5.405   5.656   5.320
 3716SOL    HW212048   5.322   5.642   5.459
 3717SOL     OW12049   4.653   0.193   1.331
 3717SOL    HW112050   4.641   0.186   1.430
 3717SOL    HW212051   4.649   0.290   1.304
 3718SOL     OW12052   5.597   6.633   6.280
 3718SOL    HW112053   5.628   6.539   6.268
 3718SOL    HW212054   5.503   6.643   6.247
 3719SOL     OW12055   2.718   4.573   0.098
 3719SOL    HW112056   2.731   4.638   0.173
 3719SOL    HW212057   2.717   4.621   0.011
 3720SOL     OW12058   0.547   2.106   0.693
 3720SOL    HW112059   0.555   2.077   0.788
 3720SOL    HW212060   0.556   2.206   0.688
 3721SOL     OW12061   6.218   0.047   6.074
 3721SOL    HW112062   6.223   6.991   6.016
 3721SOL    HW212063   6.168   0.025   6.158
 3722SOL     OW12064   5.683   6.370   1.174
 3722SOL    HW112065   5.765   6.358   1.118
 3722SOL    HW212066   5.709   6.396   1.267
 3723SOL     OW12067   4.607   4.107   6.100
 3723SOL    HW112068   4.602   4.011   6.073
 3723SOL    HW212069   4.526   4.131   6.152
 3724SOL     OW12070   6.242   4.627   4.894
 3724SOL    HW112071   6.240   4.536   4.853
 3724SOL    HW212072   6.335   4.649   4.923
 3725SOL     OW12073   0.304   6.469   0.775
 3725SOL    HW112074   0.338   6.500   0.863
 3725SOL    HW212075   0.280   6.372   0.781
 3726SOL     OW12076   5.998   3.393   5.181
 3726SOL    HW112077   5.953   3.481   5.169
 3726SOL    HW212078   5.929   3.323   5.202
 3727SOL     OW12079   6.744   1.772   4.378
 3727SOL    HW112080   6.790   1.687   4.404
 3727SOL    HW212081   6.719   1.823   4.460
 3728SOL     OW12082   1.647   4.603   0.382
 3728SOL    HW112083   1.710   4.676   0.357
 3728SOL    HW212084   1.696   4.516   0.383
 3729SOL     OW12085   6.920   0.191   6.202
 3729SOL    HW112086   7.004   0.235   6.232
 3729SOL    HW212087   6.851   0.199   6.275
 3730SOL     OW12088   5.257   4.369   4.964
 3730SOL    HW112089   5.244   4.434   5.038
 3730SOL    HW212090   5.175   4.312   4.955
 3731SOL     OW12091   6.719   1.836   1.431
 3731SOL    HW112092   6.621   1.819   1.434
 3731SOL    HW212093   6.754   1.844   1.525
 3732SOL     OW12094   3.647   2.599   0.283
 3732SOL    HW112095   3.662   2.554   0.371
 3732SOL    HW212096   3.703   2.556   0.213
 3733SOL     OW12097   1.608   1.344   3.282
 3733SOL    HW112098   1.570   1.437   3.289
 3733SOL    HW212099   1.576   1.289   3.359
 3734SOL     OW12100   3.717   1.065   1.401
 3734SOL    HW112101   3.773   0.992   1.360
 3734SOL    HW212102   3.692   1.040   1.494
 3735SOL     OW12103   4.241   1.234   2.876
 3735SOL    HW112104   4.167   1.298   2.896
 3735SOL    HW212105   4.247   1.166   2.948
 3736SOL     OW12106   1.100   1.796   0.571
 3736SOL    HW112107   1.091   1.712   0.625
 3736SOL    HW212108   1.038   1.866   0.606
 3737SOL     OW12109   5.330   1.995   4.056
 3737SOL    HW112110   5.268   1.917   4.056
 3737SOL    HW212111   5.411   1.973   4.002
 3738SOL     OW12112   0.486   0.893   0.659
 3738SOL    HW112113   0.419   0.949   0.609
 3738SOL    HW212114   0.569   0.885   0.604
 3739SOL     OW12115   3.178   4.503   6.647
 3739SOL    HW112116   3.146   4.521   6.740
 3739SOL    HW212117   3.205   4.590   6.605
 3740SOL     OW12118   6.104   6.440   6.990
 3740SOL    HW112119   6.181   6.396   6.944
 3740SOL    HW212120   6.116   6.539   6.990
 3741SOL     OW12121   6.499   4.455   6.815
 3741SOL    HW112122   6.597   4.472   6.812
 3741SOL    HW212123   6.452   4.519   6.754
 3742SOL     OW12124   5.016   5.177   1.645
 3742SOL    HW112125   4.947   5.128   1.698
 3742SOL    HW212126   5.025   5.136   1.555
 3743SOL     OW12127   2.374   3.960   1.002
 3743SOL    HW112128   2.409   3.868   1.019
 3743SOL    HW212129   2.404   4.021   1.076
 3744SOL     OW12130   6.720   5.856   2.831
 3744SOL    HW112131   6.772   5.896   2.907
 3744SOL    HW212132   6.697   5.927   2.765
 3745SOL     OW12133   5.806   1.640   2.607
 3745SOL    HW112134   5.896   1.683   2.616
 3745SOL    HW212135   5.735   1.703   2.639
 3746SOL     OW12136   5.049   6.770   5.175
 3746SOL    HW112137   5.027   6.810   5.264
 3746SOL    HW212138   5.009   6.826   5.103
 3747SOL     OW12139   2.005   5.874   5.625
 3747SOL    HW112140   2.057   5.884   5.711
 3747SOL    HW212141   2.053   5.923   5.552
 3748SOL     OW12142   5.045   2.210   3.249
 3748SOL    HW112143   5.112   2.179   3.316
 3748SOL    HW212144   4.974   2.140   3.238
 3749SOL     OW12145   5.935   6.210   1.567
 3749SOL    HW112146   5.975   6.295   1.603
 3749SOL    HW212147   5.995   6.133   1.591
 3750SOL     OW12148   5.753   3.955   1.642
 3750SOL    HW112149   5.732   4.029   1.706
 3750SOL    HW212150   5.846   3.922   1.659
 3751SOL     OW12151   1.629   4.785   0.626
 3751SOL    HW112152   1.616   4.728   0.708
 3751SOL    HW212153   1.563   4.757   0.556
 3752SOL     OW12154   1.057   0.023   5.908
 3752SOL    HW112155   0.991   0.091   5.941
 3752SOL    HW212156   1.018   6.957   5.916
 3753SOL     OW12157   1.071   1.156   5.977
 3753SOL    HW112158   1.060   1.254   5.990
 3753SOL    HW212159   1.106   1.138   5.885
 3754SOL     OW12160   6.583   6.251   1.662
 3754SOL    HW112161   6.497   6.205   1.684
 3754SOL    HW212162   6.566   6.348   1.646
 3755SOL     OW12163   4.673   2.647   2.766
 3755SOL    HW112164   4.731   2.569   2.788
 3755SOL    HW212165   4.588   2.641   2.818
 3756SOL     OW12166   3.334   0.215   0.728
 3756SOL    HW112167   3.389   0.259   0.657
 3756SOL    HW212168   3.366   0.246   0.818
 3757SOL     OW12169   3.096   4.445   5.903
 3757SOL    HW112170   3.144   4.414   5.821
 3757SOL    HW212171   3.085   4.544   5.900
 3758SOL     OW12172   6.931   0.846   1.713
 3758SOL    HW112173   6.966   0.931   1.754
 3758SOL    HW212174   6.968   0.836   1.621
 3759SOL     OW12175   4.779   4.391   0.536
 3759SOL    HW112176   4.786   4.422   0.631
 3759SOL    HW212177   4.782   4.291   0.534
 3760SOL     OW12178   1.988   1.476   5.938
 3760SOL    HW112179   1.955   1.416   6.010
 3760SOL    HW212180   2.014   1.564   5.977
 3761SOL     OW12181   6.449   6.103   4.185
 3761SOL    HW112182   6.467   6.201   4.171
 3761SOL    HW212183   6.360   6.091   4.228
 3762SOL     OW12184   0.420   3.368   0.435
 3762SOL    HW112185   0.475   3.343   0.514
 3762SOL    HW212186   0.323   3.359   0.457
 3763SOL     OW12187   6.939   3.079   4.580
 3763SOL    HW112188   6.859   3.059   4.636
 3763SOL    HW212189   6.913   3.078   4.484
 3764SOL     OW12190   1.875   0.132   3.926
 3764SOL    HW112191   1.905   0.197   3.995
 3764SOL    HW212192   1.850   0.181   3.842
 3765SOL     OW12193   6.333   0.814   3.629
 3765SOL    HW112194   6.295   0.815   3.537
 3765SOL    HW212195   6.348   0.909   3.659
 3766SOL     OW12196   2.378   1.128   5.041
 3766SOL    HW112197   2.302   1.184   5.074
 3766SOL    HW212198   2.360   1.032   5.061
 3767SOL     OW12199   0.371   4.655   0.689
 3767SOL    HW112200   0.455   4.708   0.698
 3767SOL    HW212201   0.366   4.587   0.761
 3768SOL     OW12202   4.480   6.646   1.131
 3768SOL    HW112203   4.477   6.546   1.134
 3768SOL    HW212204   4.547   6.679   1.197
 3769SOL     OW12205   4.164   6.557   4.848
 3769SOL    HW112206   4.138   6.515   4.935
 3769SOL    HW212207   4.206   6.488   4.789
 3770SOL     OW12208   1.692   2.345   0.481
 3770SOL    HW112209   1.787   2.319   0.501
 3770SOL    HW212210   1.687   2.386   0.390
 3771SOL     OW12211   4.495   1.444   5.827
 3771SOL    HW112212   4.482   1.543   5.835
 3771SOL    HW212213   4.406   1.399   5.822
 3772SOL     OW12214   5.236   0.880   2.681
 3772SOL    HW112215   5.259   0.935   2.601
 3772SOL    HW212216   5.178   0.804   2.654
 3773SOL     OW12217   6.484   2.806   0.896
 3773SOL    HW112218   6.457   2.721   0.850
 3773SOL    HW212219   6.526   2.784   0.984
 3774SOL     OW12220   1.281   1.731   1.719
 3774SOL    HW112221   1.316   1.824   1.712
 3774SOL    HW212222   1.309   1.678   1.639
 3775SOL     OW12223   5.183   2.635   3.260
 3775SOL    HW112224   5.125   2.631   3.178
 3775SOL    HW212225   5.271   2.592   3.240
 3776SOL     OW12226   3.244   2.084   6.426
 3776SOL    HW112227   3.160   2.130   6.396
 3776SOL    HW212228   3.219   2.001   6.476
 3777SOL     OW12229   1.338   4.371   3.111
 3777SOL    HW112230   1.358   4.301   3.043
 3777SOL    HW212231   1.407   4.369   3.184
 3778SOL     OW12232   2.005   0.683   1.914
 3778SOL    HW112233   1.983   0.588   1.935
 3778SOL    HW212234   1.921   0.731   1.888
 3779SOL     OW12235   1.435   5.170   6.731
 3779SOL    HW112236   1.403   5.220   6.812
 3779SOL    HW212237   1.423   5.228   6.650
 3780SOL     OW12238   1.955   7.020   4.204
 3780SOL    HW112239   1.925   6.971   4.287
 3780SOL    HW212240   1.877   0.009   4.144
 3781SOL     OW12241   2.788   5.260   4.824
 3781SOL    HW112242   2.776   5.174   4.774
 3781SOL    HW212243   2.885   5.274   4.843
 3782SOL     OW12244   2.532   1.467   2.354
 3782SOL    HW112245   2.483   1.405   2.293
 3782SOL    HW212246   2.617   1.496   2.311
 3783SOL     OW12247   5.051   4.621   4.600
 3783SOL    HW112248   5.043   4.524   4.578
 3783SOL    HW212249   5.046   4.634   4.699
 3784SOL     OW12250   4.966   2.195   4.503
 3784SOL    HW112251   5.046   2.190   4.562
 3784SOL    HW212252   4.939   2.290   4.490
 3785SOL     OW12253   0.790   0.212   2.062
 3785SOL    HW112254   0.765   0.309   2.064
 3785SOL    HW212255   0.713   0.158   2.028
 3786SOL     OW12256   2.743   6.129   1.662
 3786SOL    HW112257   2.829   6.101   1.619
 3786SOL    HW212258   2.711   6.214   1.621
 3787SOL     OW12259   4.860   0.779   3.592
 3787SOL    HW112260   4.787   0.830   3.639
 3787SOL    HW212261   4.863   0.807   3.496
 3788SOL     OW12262   6.511   3.378   2.282
 3788SOL    HW112263   6.589   3.435   2.260
 3788SOL    HW212264   6.527   3.285   2.249
 3789SOL     OW12265   1.722   5.215   2.069
 3789SOL    HW112266   1.808   5.261   2.047
 3789SOL    HW212267   1.704   5.222   2.167
 3790SOL     OW12268   1.771   3.273   2.572
 3790SOL    HW112269   1.717   3.255   2.490
 3790SOL    HW212270   1.867   3.251   2.554
 3791SOL     OW12271   6.556   0.751   2.698
 3791SOL    HW112272   6.479   0.698   2.661
 3791SOL    HW212273   6.634   0.745   2.636
 3792SOL     OW12274   1.066   5.838   6.366
 3792SOL    HW112275   1.058   5.919   6.308
 3792SOL    HW212276   1.107   5.763   6.314
 3793SOL     OW12277   0.297   5.398   2.467
 3793SOL    HW112278   0.388   5.433   2.489
 3793SOL    HW212279   0.279   5.315   2.520
 3794SOL     OW12280   4.596   0.234   3.786
 3794SOL    HW112281   4.597   0.134   3.777
 3794SOL    HW212282   4.673   0.272   3.735
 3795SOL     OW12283   5.651   0.494   0.696
 3795SOL    HW112284   5.736   0.443   0.713
 3795SOL    HW212285   5.606   0.513   0.783
 3796SOL     OW12286   6.748   2.687   1.207
 3796SOL    HW112287   6.731   2.769   1.261
 3796SOL    HW212288   6.846   2.676   1.192
 3797SOL     OW12289   0.315   5.355   2.805
 3797SOL    HW112290   0.266   5.277   2.845
 3797SOL    HW212291   0.287   5.439   2.852
 3798SOL     OW12292   1.205   4.549   0.160
 3798SOL    HW112293   1.288   4.595   0.192
 3798SOL    HW212294   1.209   4.452   0.183
 3799SOL     OW12295   1.541   0.725   5.392
 3799SOL    HW112296   1.617   0.745   5.330
 3799SOL    HW212297   1.460   0.776   5.362
 3800SOL     OW12298   5.200   2.520   4.906
 3800SOL    HW112299   5.112   2.495   4.867
 3800SOL    HW212300   5.272   2.507   4.837
 3801SOL     OW12301   6.737   0.395   5.764
 3801SOL    HW112302   6.668   0.328   5.792
 3801SOL    HW212303   6.807   0.402   5.835
 3802SOL     OW12304   1.704   2.463   5.250
 3802SOL    HW112305   1.721   2.469   5.152
 3802SOL    HW212306   1.720   2.552   5.293
 3803SOL     OW12307   3.999   1.488   1.237
 3803SOL    HW112308   3.909   1.477   1.195
 3803SOL    HW212309   3.999   1.448   1.328
 3804SOL     OW12310   5.087   3.708   4.981
 3804SOL    HW112311   5.124   3.620   5.011
 3804SOL    HW212312   4.991   3.696   4.957
 3805SOL     OW12313   1.704   3.821   1.212
 3805SOL    HW112314   1.747   3.747   1.264
 3805SOL    HW212315   1.768   3.855   1.143
 3806SOL     OW12316   3.599   0.972   0.271
 3806SOL    HW112317   3.537   1.001   0.343
 3806SOL    HW212318   3.659   0.899   0.306
 3807SOL     OW12319   1.673   6.833   2.799
 3807SOL    HW112320   1.689   6.928   2.827
 3807SOL    HW212321   1.678   6.826   2.699
 3808SOL     OW12322   3.885   1.036   0.415
 3808SOL    HW112323   3.830   1.120   0.406
 3808SOL    HW212324   3.824   0.957   0.423
 3809SOL     OW12325   4.287   1.036   0.250
 3809SOL    HW112326   4.331   0.978   0.318
 3809SOL    HW212327   4.351   1.105   0.218
 3810SOL     OW12328   1.792   3.866   6.720
 3810SOL    HW112329   1.735   3.869   6.637
 3810SOL    HW212330   1.746   3.916   6.794
 3811SOL     OW12331   0.094   0.822   6.213
 3811SOL    HW112332   0.006   0.852   6.248
 3811SOL    HW212333   0.143   0.771   6.284
 3812SOL     OW12334   4.441   0.558   5.648
 3812SOL    HW112335   4.414   0.649   5.681
 3812SOL    HW212336   4.419   0.550   5.551
 3813SOL     OW12337   3.571   4.938   2.203
 3813SOL    HW112338   3.609   5.023   2.167
 3813SOL    HW212339   3.572   4.868   2.131
 3814SOL     OW12340   2.122   0.794   1.442
 3814SOL    HW112341   2.073   0.852   1.506
 3814SOL    HW212342   2.081   0.803   1.351
 3815SOL     OW12343   5.448   2.187   2.154
 3815SOL    HW112344   5.369   2.214   2.099
 3815SOL    HW212345   5.470   2.259   2.219
 3816SOL     OW12346   7.016   6.522   0.282
 3816SOL    HW112347   0.081   6.482   0.296
 3816SOL    HW212348   0.000   6.615   0.247
 3817SOL     OW12349   5.497   2.103   5.247
 3817SOL    HW112350   5.572   2.097   5.181
 3817SOL    HW212351   5.470   2.199   5.258
 3818SOL     OW12352   3.810   5.729   2.714
 3818SOL    HW112353   3.771   5.643   2.683
 3818SOL    HW212354   3.773   5.752   2.803
 3819SOL     OW12355   5.475   3.718   6.323
 3819SOL    HW112356   5.419   3.763   6.255
 3819SOL    HW212357   5.572   3.726   6.298
 3820SOL     OW12358   4.267   6.245   3.350
 3820SOL    HW112359   4.239   6.152   3.375
 3820SOL    HW212360   4.199   6.285   3.288
 3821SOL     OW12361   0.218   4.485   1.486
 3821SOL    HW112362   0.242   4.555   1.419
 3821SOL    HW212363   0.152   4.523   1.551
 3822SOL     OW12364   1.150   3.677   1.094
 3822SOL    HW112365   1.241   3.639   1.078
 3822SOL    HW212366   1.158   3.756   1.155
 3823SOL     OW12367   2.749   3.604   5.549
 3823SOL    HW112368   2.847   3.588   5.561
 3823SOL    HW212369   2.709   3.532   5.492
 3824SOL     OW12370   0.617   2.080   6.106
 3824SOL    HW112371   0.670   2.008   6.152
 3824SOL    HW212372   0.580   2.044   6.020
 3825SOL     OW12373   0.450   6.554   6.033
 3825SOL    HW112374   0.434   6.586   6.126
 3825SOL    HW212375   0.434   6.455   6.029
 3826SOL     OW12376   6.445   2.134   1.527
 3826SOL    HW112377   6.366   2.076   1.505
 3826SOL    HW212378   6.528   2.088   1.498
 3827SOL     OW12379   5.122   1.861   2.220
 3827SOL    HW112380   5.054   1.788   2.212
 3827SOL    HW212381   5.212   1.826   2.193
 3828SOL     OW12382   3.493   1.083   1.653
 3828SOL    HW112383   3.453   1.174   1.648
 3828SOL    HW212384   3.557   1.079   1.730
 3829SOL     OW12385   0.799   4.852   3.426
 3829SOL    HW112386   0.781   4.766   3.473
 3829SOL    HW212387   0.780   4.929   3.487
 3830SOL     OW12388   2.599   0.476   5.236
 3830SOL    HW112389   2.599   0.533   5.154
 3830SOL    HW212390   2.551   0.390   5.216
 3831SOL     OW12391   4.554   1.761   2.284
 3831SOL    HW112392   4.470   1.720   2.249
 3831SOL    HW212393   4.611   1.792   2.207
 3832SOL     OW12394   6.057   6.905   2.280
 3832SOL    HW112395   6.062   6.925   2.378
 3832SOL    HW212396   6.053   6.990   2.229
 3833SOL     OW12397   1.878   6.588   2.563
 3833SOL    HW112398   1.834   6.676   2.550
 3833SOL    HW212399   1.976   6.602   2.577
 3834SOL     OW12400   2.991   3.313   0.367
 3834SOL    HW112401   2.940   3.285   0.448
 3834SOL    HW212402   3.042   3.235   0.330
 3835SOL     OW12403   3.084   4.847   2.923
 3835SOL    HW112404   3.132   4.873   3.006
 3835SOL    HW212405   2.996   4.806   2.946
 3836SOL     OW12406   1.219   3.049   5.741
 3836SOL    HW112407   1.220   2.971   5.678
 3836SOL    HW212408   1.305   3.053   5.791
 3837SOL     OW12409   3.014   4.229   6.573
 3837SOL    HW112410   3.045   4.295   6.505
 3837SOL    HW212411   3.092   4.174   6.605
 3838SOL     OW12412   6.311   3.523   4.574
 3838SOL    HW112413   6.327   3.430   4.606
 3838SOL    HW212414   6.256   3.522   4.491
 3839SOL     OW12415   0.596   6.012   6.827
 3839SOL    HW112416   0.617   5.941   6.895
 3839SOL    HW212417   0.613   6.102   6.867
 3840SOL     OW12418   2.669   2.357   3.254
 3840SOL    HW112419   2.764   2.347   3.282
 3840SOL    HW212420   2.662   2.346   3.155
 3841SOL     OW12421   0.966   2.958   3.665
 3841SOL    HW112422   0.980   2.926   3.759
 3841SOL    HW212423   0.868   2.970   3.649
 3842SOL     OW12424   1.272   4.920   6.589
 3842SOL    HW112425   1.326   5.004   6.588
 3842SOL    HW212426   1.298   4.863   6.511
 3843SOL     OW12427   6.816   4.591   6.746
 3843SOL    HW112428   6.828   4.581   6.647
 3843SOL    HW212429   6.859   4.514   6.793
 3844SOL     OW12430   2.680   4.471   5.821
 3844SOL    HW112431   2.754   4.533   5.795
 3844SOL    HW212432   2.661   4.408   5.745
 3845SOL     OW12433   3.119   3.055   4.608
 3845SOL    HW112434   3.080   3.128   4.665
 3845SOL    HW212435   3.045   2.995   4.577
 3846SOL     OW12436   0.083   4.433   5.119
 3846SOL    HW112437   0.041   4.345   5.096
 3846SOL    HW212438   0.164   4.447   5.062
 3847SOL     OW12439   1.363   6.849   0.670
 3847SOL    HW112440   1.282   6.841   0.728
 3847SOL    HW212441   1.350   6.922   0.604
 3848SOL     OW12442   3.070   6.489   1.624
 3848SOL    HW112443   3.112   6.413   1.574
 3848SOL    HW212444   3.141   6.545   1.665
 3849SOL     OW12445   2.849   1.626   5.626
 3849SOL    HW112446   2.786   1.557   5.591
 3849SOL    HW212447   2.850   1.623   5.726
 3850SOL     OW12448   1.203   3.249   1.283
 3850SOL    HW112449   1.298   3.258   1.253
 3850SOL    HW212450   1.166   3.339   1.306
 3851SOL     OW12451   2.464   2.815   0.893
 3851SOL    HW112452   2.416   2.762   0.963
 3851SOL    HW212453   2.481   2.908   0.928
 3852SOL     OW12454   4.601   1.149   5.268
 3852SOL    HW112455   4.603   1.197   5.180
 3852SOL    HW212456   4.655   1.065   5.261
 3853SOL     OW12457   0.353   3.746   2.247
 3853SOL    HW112458   0.253   3.739   2.244
 3853SOL    HW212459   0.392   3.713   2.161
 3854SOL     OW12460   1.599   3.284   4.353
 3854SOL    HW112461   1.629   3.376   4.376
 3854SOL    HW212462   1.660   3.244   4.285
 3855SOL     OW12463   0.133   1.581   5.208
 3855SOL    HW112464   0.108   1.542   5.120
 3855SOL    HW212465   0.222   1.625   5.201
 3856SOL     OW12466   1.114   6.307   6.182
 3856SOL    HW112467   1.053   6.331   6.106
 3856SOL    HW212468   1.093   6.365   6.260
 3857SOL     OW12469   0.315   0.594   6.614
 3857SOL    HW112470   0.259   0.518   6.581
 3857SOL    HW212471   0.273   0.634   6.696
 3858SOL     OW12472   3.860   4.861   6.980
 3858SOL    HW112473   3.770   4.820   6.970
 3858SOL    HW212474   3.904   4.868   6.891
 3859SOL     OW12475   6.387   2.814   2.313
 3859SOL    HW112476   6.414   2.850   2.224
 3859SOL    HW212477   6.467   2.804   2.372
 3860SOL     OW12478   2.510   5.745   4.968
 3860SOL    HW112479   2.560   5.831   4.957
 3860SOL    HW212480   2.465   5.720   4.882
 3861SOL     OW12481   2.909   4.377   6.774
 3861SOL    HW112482   2.825   4.421   6.743
 3861SOL    HW212483   2.974   4.369   6.698
 3862SOL     OW12484   0.930   5.888   5.822
 3862SOL    HW112485   1.025   5.877   5.851
 3862SOL    HW212486   0.921   5.970   5.766
 3863SOL     OW12487   2.220   2.854   0.282
 3863SOL    HW112488   2.243   2.950   0.298
 3863SOL    HW212489   2.222   2.804   0.369
 3864SOL     OW12490   3.593   1.976   1.205
 3864SOL    HW112491   3.550   1.996   1.293
 3864SOL    HW212492   3.659   1.901   1.216
 3865SOL     OW12493   3.727   0.928   2.308
 3865SOL    HW112494   3.697   1.000   2.370
 3865SOL    HW212495   3.706   0.954   2.214
 3866SOL     OW12496   4.258   6.581   0.180
 3866SOL    HW112497   4.327   6.611   0.114
 3866SOL    HW212498   4.278   6.620   0.270
 3867SOL     OW12499   1.682   5.022   3.160
 3867SOL    HW112500   1.659   5.061   3.070
 3867SOL    HW212501   1.780   5.009   3.166
 3868SOL     OW12502   1.662   5.326   3.162
 3868SOL    HW112503   1.625   5.300   3.073
 3868SOL    HW212504   1.720   5.253   3.198
 3869SOL     OW12505   0.910   1.634   4.033
 3869SOL    HW112506   0.988   1.588   4.075
 3869SOL    HW212507   0.851   1.565   3.990
 3870SOL     OW12508   3.692   3.917   0.263
 3870SOL    HW112509   3.761   3.855   0.301
 3870SOL    HW212510   3.641   3.960   0.337
 3871SOL     OW12511   3.475   0.597   4.125
 3871SOL    HW112512   3.431   0.593   4.214
 3871SOL    HW212513   3.573   0.617   4.137
 3872SOL     OW12514   4.538   4.270   0.921
 3872SOL    HW112515   4.566   4.176   0.902
 3872SOL    HW212516   4.452   4.289   0.874
 3873SOL     OW12517   6.622   4.817   2.057
 3873SOL    HW112518   6.612   4.859   1.967
 3873SOL    HW212519   6.663   4.727   2.048
 3874SOL     OW12520   5.572   6.428   5.840
 3874SOL    HW112521   5.647   6.410   5.904
 3874SOL    HW212522   5.593   6.509   5.786
 3875SOL     OW12523   2.846   3.448   0.187
 3875SOL    HW112524   2.894   3.416   0.269
 3875SOL    HW212525   2.859   3.547   0.178
 3876SOL     OW12526   6.003   4.006   2.466
 3876SOL    HW112527   5.976   4.101   2.480
 3876SOL    HW212528   5.942   3.964   2.398
 3877SOL     OW12529   4.463   2.115   1.839
 3877SOL    HW112530   4.457   2.045   1.910
 3877SOL    HW212531   4.464   2.206   1.880
 3878SOL     OW12532   4.938   5.762   4.465
 3878SOL    HW112533   5.025   5.807   4.485
 3878SOL    HW212534   4.870   5.790   4.531
 3879SOL     OW12535   2.502   5.732   0.695
 3879SOL    HW112536   2.522   5.817   0.745
 3879SOL    HW212537   2.446   5.753   0.615
 3880SOL     OW12538   6.181   0.964   4.545
 3880SOL    HW112539   6.250   0.924   4.484
 3880SOL    HW212540   6.131   1.036   4.497
 3881SOL     OW12541   6.964   5.823   5.909
 3881SOL    HW112542   0.032   5.841   5.938
 3881SOL    HW212543   6.939   5.886   5.836
 3882SOL     OW12544   0.146   6.458   6.945
 3882SOL    HW112545   0.184   6.545   6.914
 3882SOL    HW212546   0.192   6.383   6.897
 3883SOL     OW12547   4.175   2.151   0.368
 3883SOL    HW112548   4.238   2.126   0.295
 3883SOL    HW212549   4.228   2.180   0.449
 3884SOL     OW12550   3.086   5.639   5.807
 3884SOL    HW112551   3.124   5.732   5.809
 3884SOL    HW212552   3.155   5.574   5.837
 3885SOL     OW12553   0.049   0.626   3.809
 3885SOL    HW112554   0.110   0.700   3.837
 3885SOL    HW212555   0.084   0.539   3.844
 3886SOL     OW12556   6.948   6.179   4.404
 3886SOL    HW112557   6.870   6.196   4.344
 3886SOL    HW212558   6.937   6.230   4.489
 3887SOL     OW12559   6.532   2.892   4.848
 3887SOL    HW112560   6.559   2.845   4.933
 3887SOL    HW212561   6.454   2.951   4.867
 3888SOL     OW12562   5.291   1.337   3.218
 3888SOL    HW112563   5.311   1.385   3.132
 3888SOL    HW212564   5.275   1.240   3.199
 3889SOL     OW12565   6.696   5.855   7.024
 3889SOL    HW112566   6.720   5.833   0.094
 3889SOL    HW212567   6.780   5.874   6.973
 3890SOL     OW12568   6.126   3.368   3.140
 3890SOL    HW112569   6.200   3.396   3.079
 3890SOL    HW212570   6.039   3.376   3.091
 3891SOL     OW12571   3.928   4.236   5.703
 3891SOL    HW112572   3.958   4.297   5.776
 3891SOL    HW212573   3.977   4.149   5.709
 3892SOL     OW12574   5.660   6.026   3.841
 3892SOL    HW112575   5.691   6.029   3.746
 3892SOL    HW212576   5.628   6.116   3.869
 3893SOL     OW12577   2.354   6.150   4.575
 3893SOL    HW112578   2.323   6.236   4.533
 3893SOL    HW212579   2.364   6.164   4.673
 3894SOL     OW12580   5.766   5.563   6.198
 3894SOL    HW112581   5.810   5.514   6.274
 3894SOL    HW212582   5.673   5.588   6.225
 3895SOL     OW12583   1.471   2.061   6.058
 3895SOL    HW112584   1.502   2.028   5.969
 3895SOL    HW212585   1.413   2.142   6.045
 3896SOL     OW12586   6.502   2.789   0.441
 3896SOL    HW112587   6.597   2.818   0.438
 3896SOL    HW212588   6.482   2.748   0.530
 3897SOL     OW12589   2.933   6.977   3.459
 3897SOL    HW112590   2.840   7.015   3.460
 3897SOL    HW212591   2.999   0.027   3.457
 3898SOL     OW12592   2.965   3.841   3.477
 3898SOL    HW112593   2.925   3.926   3.512
 3898SOL    HW212594   2.952   3.835   3.378
 3899SOL     OW12595   4.716   1.965   6.312
 3899SOL    HW112596   4.673   1.875   6.299
 3899SOL    HW212597   4.701   1.995   6.406
 3900SOL     OW12598   1.168   2.609   3.853
 3900SOL    HW112599   1.185   2.603   3.951
 3900SOL    HW212600   1.198   2.524   3.809
 3901SOL     OW12601   3.650   6.476   4.727
 3901SOL    HW112602   3.700   6.490   4.813
 3901SOL    HW212603   3.715   6.458   4.653
 3902SOL     OW12604   2.979   5.091   2.942
 3902SOL    HW112605   3.032   5.006   2.949
 3902SOL    HW212606   2.972   5.134   3.032
 3903SOL     OW12607   3.059   3.564   6.788
 3903SOL    HW112608   3.001   3.605   6.858
 3903SOL    HW212609   3.004   3.504   6.730
 3904SOL     OW12610   2.900   5.933   0.925
 3904SOL    HW112611   2.899   5.923   1.025
 3904SOL    HW212612   2.994   5.927   0.892
 3905SOL     OW12613   4.199   0.213   5.549
 3905SOL    HW112614   4.177   0.166   5.464
 3905SOL    HW212615   4.290   0.254   5.543
 3906SOL     OW12616   6.521   5.858   4.080
 3906SOL    HW112617   6.569   5.862   3.992
 3906SOL    HW212618   6.463   5.939   4.090
 3907SOL     OW12619   1.110   1.781   4.693
 3907SOL    HW112620   1.021   1.736   4.685
 3907SOL    HW212621   1.176   1.717   4.733
 3908SOL     OW12622   2.331   1.929   4.843
 3908SOL    HW112623   2.329   1.835   4.875
 3908SOL    HW212624   2.389   1.936   4.762
 3909SOL     OW12625   6.332   3.546   2.391
 3909SOL    HW112626   6.382   3.479   2.336
 3909SOL    HW212627   6.349   3.638   2.355
 3910SOL     OW12628   2.407   2.423   0.369
 3910SOL    HW112629   2.497   2.430   0.411
 3910SOL    HW212630   2.402   2.341   0.313
 3911SOL     OW12631   5.847   1.427   1.515
 3911SOL    HW112632   5.810   1.375   1.592
 3911SOL    HW212633   5.915   1.492   1.548
 3912SOL     OW12634   5.066   4.515   0.444
 3912SOL    HW112635   4.981   4.566   0.432
 3912SOL    HW212636   5.111   4.504   0.355
 3913SOL     OW12637   4.040   4.342   1.367
 3913SOL    HW112638   4.094   4.262   1.340
 3913SOL    HW212639   3.965   4.354   1.303
 3914SOL     OW12640   0.393   0.802   0.289
 3914SOL    HW112641   0.477   0.841   0.328
 3914SOL    HW212642   0.413   0.712   0.251
 3915SOL     OW12643   5.022   0.216   4.701
 3915SOL    HW112644   5.030   0.287   4.771
 3915SOL    HW212645   5.022   0.259   4.611
 3916SOL     OW12646   2.023   2.676   1.928
 3916SOL    HW112647   2.099   2.740   1.942
 3916SOL    HW212648   2.017   2.614   2.007
 3917SOL     OW12649   4.317   5.361   2.380
 3917SOL    HW112650   4.229   5.405   2.397
 3917SOL    HW212651   4.381   5.428   2.342
 3918SOL     OW12652   3.795   6.825   1.053
 3918SOL    HW112653   3.869   6.882   1.087
 3918SOL    HW212654   3.755   6.867   0.971
 3919SOL     OW12655   4.912   5.024   3.062
 3919SOL    HW112656   4.873   4.935   3.038
 3919SOL    HW212657   4.904   5.038   3.161
 3920SOL     OW12658   4.477   1.005   6.053
 3920SOL    HW112659   4.495   0.910   6.027
 3920SOL    HW212660   4.458   1.059   5.972
 3921SOL     OW12661   1.129   3.041   6.013
 3921SOL    HW112662   1.154   3.048   5.917
 3921SOL    HW212663   1.066   3.115   6.037
 3922SOL     OW12664   5.518   1.970   3.735
 3922SOL    HW112665   5.448   1.899   3.741
 3922SOL    HW212666   5.585   1.957   3.808
 3923SOL     OW12667   5.533   1.064   1.156
 3923SOL    HW112668   5.516   1.080   1.059
 3923SOL    HW212669   5.577   0.975   1.169
 3924SOL     OW12670   5.409   4.938   3.623
 3924SOL    HW112671   5.402   5.026   3.575
 3924SOL    HW212672   5.327   4.923   3.678
 3925SOL     OW12673   3.548   4.385   1.693
 3925SOL    HW112674   3.537   4.477   1.730
 3925SOL    HW212675   3.645   4.369   1.674
 3926SOL     OW12676   1.211   5.646   5.156
 3926SOL    HW112677   1.252   5.735   5.176
 3926SOL    HW212678   1.280   5.584   5.119
 3927SOL     OW12679   6.020   6.521   5.126
 3927SOL    HW112680   6.021   6.454   5.200
 3927SOL    HW212681   6.005   6.474   5.038
 3928SOL     OW12682   4.719   5.395   2.687
 3928SOL    HW112683   4.643   5.330   2.682
 3928SOL    HW212684   4.769   5.395   2.600
 3929SOL     OW12685   2.357   0.870   5.120
 3929SOL    HW112686   2.419   0.793   5.134
 3929SOL    HW212687   2.276   0.860   5.179
 3930SOL     OW12688   2.192   5.413   4.332
 3930SOL    HW112689   2.134   5.392   4.253
 3930SOL    HW212690   2.230   5.505   4.321
 3931SOL     OW12691   0.660   2.197   0.279
 3931SOL    HW112692   0.740   2.248   0.310
 3931SOL    HW212693   0.688   2.129   0.211
 3932SOL     OW12694   2.107   4.483   2.553
 3932SOL    HW112695   2.047   4.495   2.632
 3932SOL    HW212696   2.073   4.408   2.497
 3933SOL     OW12697   1.305   6.740   1.179
 3933SOL    HW112698   1.306   6.683   1.261
 3933SOL    HW212699   1.272   6.686   1.102
 3934SOL     OW12700   1.884   6.885   1.966
 3934SOL    HW112701   1.930   6.816   1.910
 3934SOL    HW212702   1.864   6.965   1.909
 3935SOL     OW12703   0.130   1.153   5.038
 3935SOL    HW112704   0.226   1.125   5.042
 3935SOL    HW212705   0.124   1.253   5.035
 3936SOL     OW12706   6.548   4.719   3.990
 3936SOL    HW112707   6.573   4.807   4.030
 3936SOL    HW212708   6.595   4.645   4.039
 3937SOL     OW12709   1.380   6.184   0.345
 3937SOL    HW112710   1.426   6.152   0.262
 3937SOL    HW212711   1.405   6.125   0.422
 3938SOL     OW12712   0.542   4.871   6.439
 3938SOL    HW112713   0.531   4.970   6.426
 3938SOL    HW212714   0.623   4.853   6.494
 3939SOL     OW12715   2.094   6.127   4.190
 3939SOL    HW112716   2.125   6.084   4.105
 3939SOL    HW212717   2.098   6.062   4.265
 3940SOL     OW12718   2.797   6.118   0.054
 3940SOL    HW112719   2.850   6.159   7.005
 3940SOL    HW212720   2.859   6.077   0.121
 3941SOL     OW12721   5.813   5.625   2.421
 3941SOL    HW112722   5.762   5.619   2.335
 3941SOL    HW212723   5.884   5.554   2.422
 3942SOL     OW12724   0.607   6.291   6.961
 3942SOL    HW112725   0.555   6.223   7.012
 3942SOL    HW212726   0.565   6.305   6.871
 3943SOL     OW12727   0.662   5.401   0.496
 3943SOL    HW112728   0.652   5.368   0.590
 3943SOL    HW212729   0.677   5.500   0.496
 3944SOL     OW12730   4.806   2.742   0.692
 3944SOL    HW112731   4.803   2.771   0.788
 3944SOL    HW212732   4.898   2.755   0.656
 3945SOL     OW12733   6.941   0.769   2.330
 3945SOL    HW112734   6.953   0.828   2.409
 3945SOL    HW212735   6.874   0.811   2.268
 3946SOL     OW12736   5.216   1.452   1.374
 3946SOL    HW112737   5.286   1.511   1.414
 3946SOL    HW212738   5.131   1.504   1.364
 3947SOL     OW12739   5.036   0.294   1.793
 3947SOL    HW112740   5.127   0.315   1.757
 3947SOL    HW212741   5.037   0.303   1.892
 3948SOL     OW12742   1.765   1.825   4.485
 3948SOL    HW112743   1.794   1.879   4.565
 3948SOL    HW212744   1.729   1.886   4.415
 3949SOL     OW12745   6.121   0.114   2.761
 3949SOL    HW112746   6.106   0.187   2.828
 3949SOL    HW212747   6.105   0.150   2.669
 3950SOL     OW12748   2.602   4.866   1.647
 3950SOL    HW112749   2.535   4.834   1.580
 3950SOL    HW212750   2.679   4.802   1.652
 3951SOL     OW12751   6.701   2.718   3.583
 3951SOL    HW112752   6.795   2.748   3.566
 3951SOL    HW212753   6.653   2.710   3.496
 3952SOL     OW12754   5.813   5.213   6.990
 3952SOL    HW112755   5.892   5.172   6.946
 3952SOL    HW212756   5.795   5.166   0.052
 3953SOL     OW12757   3.354   2.855   5.079
 3953SOL    HW112758   3.345   2.762   5.117
 3953SOL    HW212759   3.292   2.917   5.127
 3954SOL     OW12760   0.923   4.549   5.558
 3954SOL    HW112761   0.949   4.503   5.474
 3954SOL    HW212762   0.846   4.501   5.601
 3955SOL     OW12763   5.649   3.450   7.010
 3955SOL    HW112764   5.561   3.408   6.994
 3955SOL    HW212765   5.669   3.517   6.938
 3956SOL     OW12766   6.659   2.820   5.090
 3956SOL    HW112767   6.689   2.890   5.155
 3956SOL    HW212768   6.728   2.747   5.084
 3957SOL     OW12769   2.039   2.862   1.570
 3957SOL    HW112770   2.131   2.900   1.573
 3957SOL    HW212771   2.023   2.818   1.482
 3958SOL     OW12772   5.509   5.641   1.408
 3958SOL    HW112773   5.528   5.659   1.504
 3958SOL    HW212774   5.477   5.724   1.364
 3959SOL     OW12775   3.367   4.954   1.035
 3959SOL    HW112776   3.372   5.011   1.117
 3959SOL    HW212777   3.457   4.949   0.992
 3960SOL     OW12778   5.956   3.188   1.015
 3960SOL    HW112779   5.916   3.278   0.995
 3960SOL    HW212780   6.055   3.192   1.002
 3961SOL     OW12781   6.787   1.345   0.939
 3961SOL    HW112782   6.836   1.264   0.907
 3961SOL    HW212783   6.853   1.411   0.975
 3962SOL     OW12784   0.091   6.518   6.520
 3962SOL    HW112785   0.130   6.573   6.446
 3962SOL    HW212786   0.154   6.444   6.543
 3963SOL     OW12787   5.303   3.633   4.584
 3963SOL    HW112788   5.226   3.568   4.586
 3963SOL    HW212789   5.386   3.586   4.613
 3964SOL     OW12790   5.956   4.688   6.800
 3964SOL    HW112791   6.019   4.711   6.875
 3964SOL    HW212792   5.991   4.725   6.714
 3965SOL     OW12793   2.402   4.485   1.606
 3965SOL    HW112794   2.449   4.440   1.531
 3965SOL    HW212795   2.411   4.584   1.597
 3966SOL     OW12796   0.201   3.270   5.679
 3966SOL    HW112797   0.109   3.248   5.710
 3966SOL    HW212798   0.251   3.315   5.754
 3967SOL     OW12799   1.894   0.348   0.510
 3967SOL    HW112800   1.844   0.334   0.595
 3967SOL    HW212801   1.860   0.284   0.441
 3968SOL     OW12802   4.546   2.796   0.655
 3968SOL    HW112803   4.517   2.772   0.562
 3968SOL    HW212804   4.644   2.781   0.663
 3969SOL     OW12805   6.308   6.142   1.197
 3969SOL    HW112806   6.302   6.058   1.143
 3969SOL    HW212807   6.388   6.195   1.167
 3970SOL     OW12808   5.585   4.074   3.972
 3970SOL    HW112809   5.628   4.128   3.899
 3970SOL    HW212810   5.502   4.120   4.003
 3971SOL     OW12811   0.192   5.875   4.080
 3971SOL    HW112812   0.233   5.784   4.088
 3971SOL    HW212813   0.092   5.866   4.080
 3972SOL     OW12814   0.777   0.735   6.605
 3972SOL    HW112815   0.835   0.659   6.634
 3972SOL    HW212816   0.688   0.700   6.576
 3973SOL     OW12817   3.950   3.072   1.938
 3973SOL    HW112818   3.883   3.140   1.908
 3973SOL    HW212819   3.974   3.013   1.861
 3974SOL     OW12820   5.273   1.266   6.639
 3974SOL    HW112821   5.314   1.179   6.663
 3974SOL    HW212822   5.230   1.306   6.720
 3975SOL     OW12823   6.754   5.960   3.772
 3975SOL    HW112824   6.721   5.964   3.678
 3975SOL    HW212825   6.708   5.885   3.820
 3976SOL     OW12826   0.519   2.980   5.438
 3976SOL    HW112827   0.568   3.032   5.367
 3976SOL    HW212828   0.526   2.883   5.417
 3977SOL     OW12829   2.298   4.770   5.567
 3977SOL    HW112830   2.374   4.786   5.504
 3977SOL    HW212831   2.325   4.699   5.633
 3978SOL     OW12832   4.807   2.601   5.930
 3978SOL    HW112833   4.729   2.594   5.992
 3978SOL    HW212834   4.800   2.687   5.879
 3979SOL     OW12835   0.566   5.424   2.730
 3979SOL    HW112836   0.496   5.370   2.776
 3979SOL    HW212837   0.542   5.521   2.736
 3980SOL     OW12838   5.014   4.174   3.938
 3980SOL    HW112839   5.036   4.238   4.012
 3980SOL    HW212840   5.043   4.212   3.851
 3981SOL     OW12841   0.020   0.915   6.543
 3981SOL    HW112842   7.006   0.829   6.573
 3981SOL    HW212843   0.107   0.898   6.496
 3982SOL     OW12844   2.113   3.095   4.483
 3982SOL    HW112845   2.059   3.180   4.484
 3982SOL    HW212846   2.168   3.090   4.566
 3983SOL     OW12847   2.562   0.792   3.560
 3983SOL    HW112848   2.595   0.717   3.503
 3983SOL    HW212849   2.482   0.833   3.517
 3984SOL     OW12850   1.350   5.941   2.114
 3984SOL    HW112851   1.325   5.981   2.025
 3984SOL    HW212852   1.295   5.982   2.186
 3985SOL     OW12853   1.651   2.586   1.339
 3985SOL    HW112854   1.645   2.546   1.430
 3985SOL    HW212855   1.633   2.685   1.345
 3986SOL     OW12856   0.753   1.489   3.139
 3986SOL    HW112857   0.704   1.423   3.082
 3986SOL    HW212858   0.727   1.474   3.235
 3987SOL     OW12859   1.155   4.390   5.599
 3987SOL    HW112860   1.220   4.385   5.675
 3987SOL    HW212861   1.075   4.444   5.627
 3988SOL     OW12862   5.247   6.249   1.796
 3988SOL    HW112863   5.326   6.189   1.784
 3988SOL    HW212864   5.163   6.195   1.799
 3989SOL     OW12865   4.331   0.526   5.953
 3989SOL    HW112866   4.354   0.481   5.867
 3989SOL    HW212867   4.368   0.474   6.030
 3990SOL     OW12868   6.391   0.084   3.783
 3990SOL    HW112869   6.474   0.098   3.729
 3990SOL    HW212870   6.311   0.114   3.731
 3991SOL     OW12871   6.275   2.338   3.657
 3991SOL    HW112872   6.309   2.244   3.654
 3991SOL    HW212873   6.193   2.346   3.600
 3992SOL     OW12874   5.967   3.581   5.982
 3992SOL    HW112875   5.889   3.569   5.921
 3992SOL    HW212876   6.021   3.497   5.985
 3993SOL     OW12877   1.617   0.985   4.306
 3993SOL    HW112878   1.580   1.057   4.247
 3993SOL    HW212879   1.571   0.988   4.395
 3994SOL     OW12880   3.231   2.195   3.605
 3994SOL    HW112881   3.201   2.133   3.533
 3994SOL    HW212882   3.217   2.290   3.575
 3995SOL     OW12883   1.465   3.099   1.814
 3995SOL    HW112884   1.528   3.162   1.768
 3995SOL    HW212885   1.399   3.152   1.867
 3996SOL     OW12886   0.539   6.253   5.192
 3996SOL    HW112887   0.540   6.268   5.291
 3996SOL    HW212888   0.596   6.174   5.169
 3997SOL     OW12889   5.651   3.318   4.957
 3997SOL    HW112890   5.713   3.324   4.879
 3997SOL    HW212891   5.703   3.300   5.040
 3998SOL     OW12892   3.827   2.064   3.545
 3998SOL    HW112893   3.872   2.074   3.634
 3998SOL    HW212894   3.728   2.068   3.556
 3999SOL     OW12895   4.848   3.668   0.811
 3999SOL    HW112896   4.914   3.734   0.846
 3999SOL    HW212897   4.793   3.711   0.739
 4000SOL     OW12898   2.252   4.851   2.978
 4000SOL    HW112899   2.192   4.825   2.902
 4000SOL    HW212900   2.322   4.915   2.945
 4001SOL     OW12901   0.784   5.877   4.848
 4001SOL    HW112902   0.789   5.862   4.750
 4001SOL    HW212903   0.710   5.942   4.868
 4002SOL     OW12904   3.911   3.875   5.064
 4002SOL    HW112905   3.894   3.968   5.031
 4002SOL    HW212906   3.973   3.828   5.001
 4003SOL     OW12907   2.781   1.260   4.445
 4003SOL    HW112908   2.719   1.198   4.493
 4003SOL    HW212909   2.728   1.324   4.390
 4004SOL     OW12910   1.516   3.611   5.037
 4004SOL    HW112911   1.541   3.699   5.078
 4004SOL    HW212912   1.588   3.583   4.973
 4005SOL     OW12913   5.473   2.920   1.003
 4005SOL    HW112914   5.556   2.919   0.947
 4005SOL    HW212915   5.402   2.973   0.956
 4006SOL     OW12916   0.197   5.977   1.853
 4006SOL    HW112917   0.211   5.974   1.754
 4006SOL    HW212918   0.215   5.887   1.892
 4007SOL     OW12919   0.678   1.342   1.267
 4007SOL    HW112920   0.598   1.383   1.312
 4007SOL    HW212921   0.724   1.412   1.212
 4008SOL     OW12922   4.049   1.038   1.343
 4008SOL    HW112923   4.137   1.080   1.320
 4008SOL    HW212924   4.065   0.954   1.396
 4009SOL     OW12925   3.536   2.485   1.259
 4009SOL    HW112926   3.591   2.418   1.309
 4009SOL    HW212927   3.510   2.560   1.320
 4010SOL     OW12928   1.607   4.811   1.123
 4010SOL    HW112929   1.632   4.902   1.089
 4010SOL    HW212930   1.538   4.771   1.063
 4011SOL     OW12931   5.762   6.801   6.426
 4011SOL    HW112932   5.682   6.771   6.374
 4011SOL    HW212933   5.779   6.898   6.407
 4012SOL     OW12934   5.330   5.229   1.663
 4012SOL    HW112935   5.292   5.292   1.596
 4012SOL    HW212936   5.326   5.136   1.626
 4013SOL     OW12937   0.021   1.932   6.722
 4013SOL    HW112938   6.968   1.889   6.677
 4013SOL    HW212939   0.086   1.964   6.653
 4014SOL     OW12940   3.022   6.256   2.464
 4014SOL    HW112941   2.930   6.291   2.480
 4014SOL    HW212942   3.016   6.170   2.412
 4015SOL     OW12943   3.859   6.598   4.946
 4015SOL    HW112944   3.956   6.601   4.921
 4015SOL    HW212945   3.838   6.510   4.988
 4016SOL     OW12946   4.803   5.264   4.486
 4016SOL    HW112947   4.844   5.212   4.561
 4016SOL    HW212948   4.853   5.245   4.401
 4017SOL     OW12949   1.988   6.177   5.935
 4017SOL    HW112950   1.947   6.108   5.994
 4017SOL    HW212951   1.998   6.263   5.986
 4018SOL     OW12952   5.228   5.158   0.302
 4018SOL    HW112953   5.273   5.108   0.377
 4018SOL    HW212954   5.247   5.112   0.215
 4019SOL     OW12955   0.583   2.297   3.344
 4019SOL    HW112956   0.516   2.327   3.413
 4019SOL    HW212957   0.582   2.197   3.339
 4020SOL     OW12958   6.894   5.743   3.888
 4020SOL    HW112959   6.967   5.780   3.831
 4020SOL    HW212960   6.924   5.657   3.930
 4021SOL     OW12961   4.839   5.304   5.736
 4021SOL    HW112962   4.843   5.215   5.780
 4021SOL    HW212963   4.928   5.348   5.740
 4022SOL     OW12964   3.652   0.030   1.499
 4022SOL    HW112965   3.660   0.126   1.525
 4022SOL    HW212966   3.556   0.007   1.485
 4023SOL     OW12967   0.830   1.769   4.598
 4023SOL    HW112968   0.850   1.823   4.516
 4023SOL    HW212969   0.824   1.672   4.574
 4024SOL     OW12970   1.077   6.734   6.282
 4024SOL    HW112971   1.133   6.803   6.329
 4024SOL    HW212972   1.045   6.772   6.195
 4025SOL     OW12973   0.369   3.893   4.704
 4025SOL    HW112974   0.383   3.985   4.669
 4025SOL    HW212975   0.322   3.838   4.635
 4026SOL     OW12976   0.551   6.597   4.550
 4026SOL    HW112977   0.535   6.499   4.565
 4026SOL    HW212978   0.470   6.637   4.507
 4027SOL     OW12979   2.749   5.255   5.383
 4027SOL    HW112980   2.711   5.194   5.452
 4027SOL    HW212981   2.776   5.202   5.302
 4028SOL     OW12982   5.041   1.564   4.666
 4028SOL    HW112983   4.971   1.494   4.681
 4028SOL    HW212984   5.128   1.519   4.644
 4029SOL     OW12985   1.794   6.511   0.525
 4029SOL    HW112986   1.741   6.435   0.562
 4029SOL    HW212987   1.787   6.590   0.587
 4030SOL     OW12988   1.130   1.204   1.773
 4030SOL    HW112989   1.113   1.296   1.807
 4030SOL    HW212990   1.053   1.174   1.717
 4031SOL     OW12991   5.815   5.793   0.670
 4031SOL    HW112992   5.771   5.816   0.583
 4031SOL    HW212993   5.753   5.812   0.745
 4032SOL     OW12994   4.849   1.991   1.846
 4032SOL    HW112995   4.917   1.918   1.839
 4032SOL    HW212996   4.807   2.005   1.756
 4033SOL     OW12997   1.744   3.233   2.843
 4033SOL    HW112998   1.686   3.156   2.865
 4033SOL    HW212999   1.732   3.259   2.747
 4034SOL     OW13000   2.257   2.393   4.852
 4034SOL    HW113001   2.355   2.383   4.836
 4034SOL    HW213002   2.224   2.317   4.907
 4035SOL     OW13003   3.819   2.345   1.643
 4035SOL    HW113004   3.764   2.313   1.720
 4035SOL    HW213005   3.824   2.445   1.645
 4036SOL     OW13006   3.974   6.251   3.605
 4036SOL    HW113007   3.971   6.207   3.515
 4036SOL    HW213008   3.993   6.182   3.675
 4037SOL     OW13009   1.839   1.237   6.091
 4037SOL    HW113010   1.830   1.251   6.190
 4037SOL    HW213011   1.762   1.279   6.044
 4038SOL     OW13012   3.939   4.675   5.669
 4038SOL    HW113013   3.915   4.718   5.755
 4038SOL    HW213014   3.856   4.638   5.626
 4039SOL     OW13015   6.191   4.500   1.449
 4039SOL    HW113016   6.266   4.470   1.390
 4039SOL    HW213017   6.204   4.462   1.540
 4040SOL     OW13018   2.672   0.299   5.000
 4040SOL    HW113019   2.764   0.268   4.973
 4040SOL    HW213020   2.621   0.324   4.918
 4041SOL     OW13021   1.478   6.246   1.684
 4041SOL    HW113022   1.424   6.187   1.623
 4041SOL    HW213023   1.508   6.194   1.763
 4042SOL     OW13024   0.321   1.463   4.016
 4042SOL    HW113025   0.251   1.434   4.082
 4042SOL    HW213026   0.363   1.382   3.975
 4043SOL     OW13027   4.096   2.165   6.158
 4043SOL    HW113028   4.013   2.219   6.142
 4043SOL    HW213029   4.149   2.207   6.231
 4044SOL     OW13030   4.588   4.341   2.996
 4044SOL    HW113031   4.546   4.429   2.975
 4044SOL    HW213032   4.517   4.270   2.995
 4045SOL     OW13033   4.163   1.056   4.987
 4045SOL    HW113034   4.249   1.031   5.031
 4045SOL    HW213035   4.181   1.111   4.906
 4046SOL     OW13036   4.992   1.241   4.089
 4046SOL    HW113037   4.964   1.337   4.090
 4046SOL    HW213038   4.921   1.186   4.046
 4047SOL     OW13039   3.068   2.295   6.358
 4047SOL    HW113040   3.084   2.333   6.267
 4047SOL    HW213041   3.065   2.369   6.425
 4048SOL     OW13042   4.782   2.360   3.391
 4048SOL    HW113043   4.799   2.447   3.436
 4048SOL    HW213044   4.816   2.364   3.297
 4049SOL     OW13045   4.241   3.996   1.510
 4049SOL    HW113046   4.254   3.902   1.542
 4049SOL    HW213047   4.304   4.056   1.559
 4050SOL     OW13048   6.877   4.867   3.294
 4050SOL    HW113049   6.964   4.880   3.247
 4050SOL    HW213050   6.888   4.797   3.364
 4051SOL     OW13051   6.088   1.133   4.342
 4051SOL    HW113052   5.994   1.127   4.375
 4051SOL    HW213053   6.131   1.216   4.376
 4052SOL     OW13054   4.613   1.953   4.229
 4052SOL    HW113055   4.651   1.877   4.280
 4052SOL    HW213056   4.675   2.032   4.234
 4053SOL     OW13057   0.541   4.909   3.795
 4053SOL    HW113058   0.552   4.967   3.714
 4053SOL    HW213059   0.485   4.958   3.863
 4054SOL     OW13060   4.860   4.030   1.068
 4054SOL    HW113061   4.955   4.059   1.058
 4054SOL    HW213062   4.813   4.091   1.133
 4055SOL     OW13063   0.106   4.502   0.124
 4055SOL    HW113064   0.088   4.413   0.080
 4055SOL    HW213065   0.059   4.505   0.212
 4056SOL     OW13066   4.940   3.688   0.102
 4056SOL    HW113067   4.843   3.713   0.109
 4056SOL    HW213068   4.961   3.664   0.007
 4057SOL     OW13069   0.005   4.261   6.200
 4057SOL    HW113070   6.983   4.253   6.112
 4057SOL    HW213071   0.090   4.312   6.188
 4058SOL     OW13072   3.913   1.060   4.254
 4058SOL    HW113073   3.894   1.109   4.168
 4058SOL    HW213074   3.835   1.001   4.277
 4059SOL     OW13075   1.273   1.472   4.037
 4059SOL    HW113076   1.195   1.410   4.050
 4059SOL    HW213077   1.316   1.452   3.949
 4060SOL     OW13078   6.997   6.526   4.191
 4060SOL    HW113079   6.901   6.550   4.177
 4060SOL    HW213080   7.020   6.449   4.133
 4061SOL     OW13081   1.186   4.341   1.996
 4061SOL    HW113082   1.190   4.249   1.956
 4061SOL    HW213083   1.161   4.334   2.093
 4062SOL     OW13084   2.457   4.616   0.350
 4062SOL    HW113085   2.444   4.631   0.448
 4062SOL    HW213086   2.473   4.519   0.333
 4063SOL     OW13087   3.755   0.803   0.853
 4063SOL    HW113088   3.778   0.713   0.891
 4063SOL    HW213089   3.656   0.815   0.854
 4064SOL     OW13090   2.454   0.706   4.818
 4064SOL    HW113091   2.397   0.653   4.881
 4064SOL    HW213092   2.434   0.678   4.724
 4065SOL     OW13093   2.214   1.525   1.420
 4065SOL    HW113094   2.175   1.545   1.330
 4065SOL    HW213095   2.306   1.564   1.426
 4066SOL     OW13096   0.557   3.584   4.390
 4066SOL    HW113097   0.496   3.643   4.443
 4066SOL    HW213098   0.511   3.497   4.371
 4067SOL     OW13099   6.283   4.638   0.884
 4067SOL    HW113100   6.203   4.692   0.857
 4067SOL    HW213101   6.328   4.602   0.802
 4068SOL     OW13102   1.809   2.803   5.773
 4068SOL    HW113103   1.877   2.732   5.757
 4068SOL    HW213104   1.797   2.857   5.690
 4069SOL     OW13105   4.748   6.893   5.726
 4069SOL    HW113106   4.791   6.812   5.766
 4069SOL    HW213107   4.817   6.964   5.710
 4070SOL     OW13108   1.686   3.531   4.441
 4070SOL    HW113109   1.766   3.587   4.422
 4070SOL    HW213110   1.652   3.552   4.533
 4071SOL     OW13111   1.779   0.578   5.007
 4071SOL    HW113112   1.853   0.645   5.004
 4071SOL    HW213113   1.770   0.534   4.918
 4072SOL     OW13114   2.934   6.743   2.563
 4072SOL    HW113115   2.869   6.674   2.596
 4072SOL    HW213116   2.993   6.772   2.639
 4073SOL     OW13117   4.184   5.319   6.537
 4073SOL    HW113118   4.135   5.348   6.620
 4073SOL    HW213119   4.215   5.399   6.487
 4074SOL     OW13120   1.530   6.031   2.418
 4074SOL    HW113121   1.539   5.932   2.409
 4074SOL    HW213122   1.441   6.053   2.457
 4075SOL     OW13123   5.970   0.807   0.289
 4075SOL    HW113124   6.065   0.796   0.319
 4075SOL    HW213125   5.967   0.861   0.205
 4076SOL     OW13126   1.776   5.976   4.044
 4076SOL    HW113127   1.720   5.936   3.971
 4076SOL    HW213128   1.867   5.933   4.044
 4077SOL     OW13129   2.544   2.152   1.602
 4077SOL    HW113130   2.609   2.203   1.546
 4077SOL    HW213131   2.561   2.170   1.698
 4078SOL     OW13132   4.215   5.128   2.282
 4078SOL    HW113133   4.122   5.150   2.310
 4078SOL    HW213134   4.273   5.209   2.290
 4079SOL     OW13135   0.306   1.813   4.156
 4079SOL    HW113136   0.363   1.751   4.103
 4079SOL    HW213137   0.361   1.852   4.231
 4080SOL     OW13138   6.164   2.282   4.423
 4080SOL    HW113139   6.228   2.309   4.351
 4080SOL    HW213140   6.108   2.361   4.449
 4081SOL     OW13141   6.758   3.718   2.890
 4081SOL    HW113142   6.848   3.741   2.928
 4081SOL    HW213143   6.701   3.800   2.888
 4082SOL     OW13144   0.388   3.081   0.226
 4082SOL    HW113145   0.430   3.049   0.311
 4082SOL    HW213146   0.446   3.151   0.185
 4083SOL     OW13147   6.428   3.369   4.979
 4083SOL    HW113148   6.351   3.330   4.930
 4083SOL    HW213149   6.514   3.337   4.939
 4084SOL     OW13150   5.589   0.954   4.463
 4084SOL    HW113151   5.592   0.897   4.545
 4084SOL    HW213152   5.543   0.903   4.390
 4085SOL     OW13153   3.403   5.531   6.687
 4085SOL    HW113154   3.439   5.624   6.692
 4085SOL    HW213155   3.463   5.475   6.632
 4086SOL     OW13156   0.735   2.910   1.487
 4086SOL    HW113157   0.816   2.877   1.535
 4086SOL    HW213158   0.757   2.928   1.392
 4087SOL     OW13159   2.288   1.109   3.226
 4087SOL    HW113160   2.329   1.199   3.206
 4087SOL    HW213161   2.195   1.106   3.190
 4088SOL     OW13162   6.884   2.199   6.958
 4088SOL    HW113163   6.889   2.242   6.868
 4088SOL    HW213164   6.814   2.128   6.957
 4089SOL     OW13165   0.487   1.010   5.817
 4089SOL    HW113166   0.399   0.986   5.776
 4089SOL    HW213167   0.560   0.959   5.772
 4090SOL     OW13168   3.607   5.200   6.556
 4090SOL    HW113169   3.688   5.144   6.540
 4090SOL    HW213170   3.599   5.220   6.653
 4091SOL     OW13171   4.797   6.669   1.641
 4091SOL    HW113172   4.739   6.735   1.592
 4091SOL    HW213173   4.886   6.710   1.661
 4092SOL     OW13174   0.954   1.299   4.303
 4092SOL    HW113175   1.020   1.355   4.352
 4092SOL    HW213176   0.864   1.343   4.306
 4093SOL     OW13177   5.248   6.905   4.203
 4093SOL    HW113178   5.310   6.827   4.193
 4093SOL    HW213179   5.157   6.879   4.171
 4094SOL     OW13180   3.412   3.674   6.127
 4094SOL    HW113181   3.385   3.578   6.116
 4094SOL    HW213182   3.349   3.719   6.189
 4095SOL     OW13183   1.578   3.571   6.017
 4095SOL    HW113184   1.641   3.493   6.014
 4095SOL    HW213185   1.602   3.636   5.945
 4096SOL     OW13186   4.534   4.917   1.685
 4096SOL    HW113187   4.574   4.858   1.756
 4096SOL    HW213188   4.515   4.862   1.603
 4097SOL     OW13189   3.452   4.091   3.400
 4097SOL    HW113190   3.458   4.114   3.303
 4097SOL    HW213191   3.543   4.063   3.433
 4098SOL     OW13192   1.094   3.375   2.072
 4098SOL    HW113193   1.158   3.352   1.999
 4098SOL    HW213194   1.114   3.320   2.153
 4099SOL     OW13195   2.841   6.081   1.913
 4099SOL    HW113196   2.781   6.097   1.991
 4099SOL    HW213197   2.793   6.106   1.828
 4100SOL     OW13198   3.738   0.379   2.980
 4100SOL    HW113199   3.747   0.391   2.881
 4100SOL    HW213200   3.641   0.369   3.003
 4101SOL     OW13201   4.291   1.815   6.466
 4101SOL    HW113202   4.388   1.813   6.492
 4101SOL    HW213203   4.242   1.876   6.527
 4102SOL     OW13204   4.363   1.604   6.296
 4102SOL    HW113205   4.349   1.676   6.363
 4102SOL    HW213206   4.274   1.577   6.258
 4103SOL     OW13207   0.064   0.613   1.768
 4103SOL    HW113208   0.008   0.681   1.721
 4103SOL    HW213209   0.100   0.653   1.853
 4104SOL     OW13210   2.224   4.715   2.494
 4104SOL    HW113211   2.167   4.645   2.535
 4104SOL    HW213212   2.267   4.678   2.411
 4105SOL     OW13213   5.881   5.623   0.270
 4105SOL    HW113214   5.955   5.616   0.336
 4105SOL    HW213215   5.885   5.546   0.206
 4106SOL     OW13216   6.577   3.616   4.521
 4106SOL    HW113217   6.593   3.708   4.555
 4106SOL    HW213218   6.479   3.595   4.528
 4107SOL     OW13219   0.128   0.563   0.707
 4107SOL    HW113220   0.041   0.588   0.749
 4107SOL    HW213221   0.199   0.560   0.777
 4108SOL     OW13222   6.090   2.279   5.100
 4108SOL    HW113223   6.084   2.237   5.009
 4108SOL    HW213224   6.039   2.223   5.165
 4109SOL     OW13225   2.578   6.311   3.677
 4109SOL    HW113226   2.549   6.230   3.727
 4109SOL    HW213227   2.524   6.390   3.708
 4110SOL     OW13228   4.777   3.304   5.267
 4110SOL    HW113229   4.773   3.366   5.189
 4110SOL    HW213230   4.861   3.320   5.318
 4111SOL     OW13231   3.748   2.905   6.466
 4111SOL    HW113232   3.651   2.926   6.478
 4111SOL    HW213233   3.759   2.812   6.433
 4112SOL     OW13234   4.112   0.266   5.928
 4112SOL    HW113235   4.202   0.304   5.906
 4112SOL    HW213236   4.041   0.331   5.899
 4113SOL     OW13237   3.676   5.012   4.889
 4113SOL    HW113238   3.711   4.949   4.820
 4113SOL    HW213239   3.709   4.984   4.979
 4114SOL     OW13240   3.939   1.825   2.844
 4114SOL    HW113241   3.894   1.914   2.857
 4114SOL    HW213242   3.896   1.757   2.903
 4115SOL     OW13243   4.837   3.928   2.835
 4115SOL    HW113244   4.929   3.941   2.797
 4115SOL    HW213245   4.817   3.831   2.840
 4116SOL     OW13246   2.869   0.894   2.263
 4116SOL    HW113247   2.951   0.836   2.269
 4116SOL    HW213248   2.866   0.955   2.342
 4117SOL     OW13249   0.958   6.082   1.334
 4117SOL    HW113250   0.989   6.017   1.404
 4117SOL    HW213251   0.993   6.054   1.244
 4118SOL     OW13252   1.836   0.059   6.693
 4118SOL    HW113253   1.819   0.027   6.786
 4118SOL    HW213254   1.777   0.010   6.629
 4119SOL     OW13255   5.123   1.633   3.641
 4119SOL    HW113256   5.186   1.584   3.581
 4119SOL    HW213257   5.046   1.574   3.664
 4120SOL     OW13258   5.414   1.254   2.370
 4120SOL    HW113259   5.345   1.323   2.348
 4120SOL    HW213260   5.389   1.209   2.455
 4121SOL     OW13261   6.095   2.408   4.126
 4121SOL    HW113262   6.187   2.438   4.149
 4121SOL    HW213263   6.029   2.456   4.185
 4122SOL     OW13264   2.031   5.439   0.150
 4122SOL    HW113265   2.115   5.492   0.136
 4122SOL    HW213266   2.006   5.394   0.064
 4123SOL     OW13267   4.009   3.567   5.378
 4123SOL    HW113268   4.055   3.585   5.290
 4123SOL    HW213269   4.013   3.650   5.434
 4124SOL     OW13270   4.317   6.145   3.654
 4124SOL    HW113271   4.220   6.165   3.662
 4124SOL    HW213272   4.346   6.087   3.731
 4125SOL     OW13273   4.558   1.092   1.947
 4125SOL    HW113274   4.614   1.165   1.987
 4125SOL    HW213275   4.611   1.045   1.876
 4126SOL     OW13276   1.868   4.270   4.706
 4126SOL    HW113277   1.913   4.281   4.795
 4126SOL    HW213278   1.936   4.267   4.634
 4127SOL     OW13279   5.456   4.659   4.388
 4127SOL    HW113280   5.525   4.677   4.458
 4127SOL    HW213281   5.496   4.673   4.298
 4128SOL     OW13282   0.190   1.936   1.798
 4128SOL    HW113283   0.209   1.898   1.708
 4128SOL    HW213284   0.125   2.011   1.790
 4129SOL     OW13285   6.846   3.012   6.372
 4129SOL    HW113286   6.935   2.968   6.357
 4129SOL    HW213287   6.823   3.068   6.293
 4130SOL     OW13288   6.530   2.495   1.312
 4130SOL    HW113289   6.594   2.565   1.280
 4130SOL    HW213290   6.534   2.415   1.252
 4131SOL     OW13291   6.573   3.558   3.059
 4131SOL    HW113292   6.622   3.558   3.146
 4131SOL    HW213293   6.637   3.578   2.985
 4132SOL     OW13294   4.709   1.784   4.408
 4132SOL    HW113295   4.718   1.686   4.424
 4132SOL    HW213296   4.688   1.830   4.495
 4133SOL     OW13297   2.427   2.578   1.089
 4133SOL    HW113298   2.433   2.551   1.185
 4133SOL    HW213299   2.511   2.551   1.042
 4134SOL     OW13300   1.911   0.943   0.081
 4134SOL    HW113301   2.002   0.908   0.101
 4134SOL    HW213302   1.912   1.043   0.082
 4135SOL     OW13303   2.008   0.427   1.023
 4135SOL    HW113304   2.071   0.442   0.947
 4135SOL    HW213305   1.937   0.362   0.996
 4136SOL     OW13306   0.903   1.827   3.816
 4136SOL    HW113307   0.912   1.778   3.729
 4136SOL    HW213308   0.925   1.764   3.891
 4137SOL     OW13309   3.898   3.111   5.576
 4137SOL    HW113310   3.962   3.064   5.636
 4137SOL    HW213311   3.935   3.113   5.483
 4138SOL     OW13312   4.710   5.442   1.654
 4138SOL    HW113313   4.638   5.470   1.590
 4138SOL    HW213314   4.729   5.345   1.642
 4139SOL     OW13315   2.921   2.020   0.607
 4139SOL    HW113316   2.842   1.961   0.625
 4139SOL    HW213317   2.967   1.990   0.523
 4140SOL     OW13318   4.622   1.994   5.273
 4140SOL    HW113319   4.611   2.091   5.253
 4140SOL    HW213320   4.557   1.940   5.219
 4141SOL     OW13321   5.641   5.763   0.885
 4141SOL    HW113322   5.700   5.702   0.937
 4141SOL    HW213323   5.585   5.817   0.948
 4142SOL     OW13324   6.245   3.611   1.370
 4142SOL    HW113325   6.283   3.560   1.447
 4142SOL    HW213326   6.251   3.709   1.390
 4143SOL     OW13327   0.334   3.004   1.773
 4143SOL    HW113328   0.317   2.913   1.811
 4143SOL    HW213329   0.420   3.003   1.722
 4144SOL     OW13330   3.656   1.030   2.038
 4144SOL    HW113331   3.685   1.092   1.966
 4144SOL    HW213332   3.602   0.955   1.999
 4145SOL     OW13333   3.153   6.815   3.332
 4145SOL    HW113334   3.135   6.913   3.347
 4145SOL    HW213335   3.182   6.801   3.238
 4146SOL     OW13336   4.522   4.624   0.581
 4146SOL    HW113337   4.459   4.625   0.504
 4146SOL    HW213338   4.548   4.530   0.601
 4147SOL     OW13339   2.603   1.802   5.856
 4147SOL    HW113340   2.535   1.831   5.789
 4147SOL    HW213341   2.592   1.705   5.876
 4148SOL     OW13342   0.180   0.001   2.201
 4148SOL    HW113343   0.166   0.095   2.232
 4148SOL    HW213344   0.164   6.964   2.278
 4149SOL     OW13345   4.779   4.200   2.187
 4149SOL    HW113346   4.740   4.223   2.098
 4149SOL    HW213347   4.707   4.198   2.256
 4150SOL     OW13348   4.319   0.368   5.175
 4150SOL    HW113349   4.233   0.377   5.225
 4150SOL    HW213350   4.384   0.437   5.206
 4151SOL     OW13351   0.274   5.418   0.528
 4151SOL    HW113352   0.365   5.459   0.537
 4151SOL    HW213353   0.268   5.339   0.589
 4152SOL     OW13354   3.267   3.954   1.343
 4152SOL    HW113355   3.216   3.868   1.345
 4152SOL    HW213356   3.267   3.990   1.250
 4153SOL     OW13357   6.325   5.556   5.941
 4153SOL    HW113358   6.330   5.655   5.959
 4153SOL    HW213359   6.230   5.532   5.919
 4154SOL     OW13360   4.732   2.663   4.905
 4154SOL    HW113361   4.777   2.729   4.964
 4154SOL    HW213362   4.639   2.648   4.936
 4155SOL     OW13363   1.513   2.791   0.560
 4155SOL    HW113364   1.450   2.722   0.524
 4155SOL    HW213365   1.494   2.879   0.518
 4156SOL     OW13366   6.098   0.614   5.179
 4156SOL    HW113367   6.057   0.695   5.221
 4156SOL    HW213368   6.197   0.627   5.172
 4157SOL     OW13369   3.293   0.999   3.212
 4157SOL    HW113370   3.291   0.973   3.308
 4157SOL    HW213371   3.268   1.096   3.203
 4158SOL     OW13372   1.368   0.433   3.645
 4158SOL    HW113373   1.388   0.342   3.681
 4158SOL    HW213374   1.269   0.443   3.633
 4159SOL     OW13375   7.023   4.407   5.390
 4159SOL    HW113376   0.096   4.425   5.392
 4159SOL    HW213377   6.980   4.465   5.321
 4160SOL     OW13378   0.260   0.611   0.462
 4160SOL    HW113379   0.259   0.697   0.412
 4160SOL    HW213380   0.208   0.621   0.547
 4161SOL     OW13381   6.016   2.114   1.341
 4161SOL    HW113382   6.048   2.208   1.349
 4161SOL    HW213383   5.967   2.102   1.255
 4162SOL     OW13384   1.139   0.086   5.403
 4162SOL    HW113385   1.116   0.047   5.492
 4162SOL    HW213386   1.192   0.169   5.415
 4163SOL     OW13387   6.643   1.530   5.220
 4163SOL    HW113388   6.623   1.479   5.304
 4163SOL    HW213389   6.738   1.560   5.221
 4164SOL     OW13390   2.849   6.863   5.910
 4164SOL    HW113391   2.785   6.906   5.973
 4164SOL    HW213392   2.869   6.770   5.941
 4165SOL     OW13393   2.173   6.162   1.702
 4165SOL    HW113394   2.272   6.169   1.717
 4165SOL    HW213395   2.142   6.070   1.724
 4166SOL     OW13396   5.939   2.085   2.008
 4166SOL    HW113397   5.873   2.060   1.937
 4166SOL    HW213398   6.012   2.140   1.967
 4167SOL     OW13399   1.738   2.485   1.096
 4167SOL    HW113400   1.830   2.446   1.089
 4167SOL    HW213401   1.729   2.537   1.180
 4168SOL     OW13402   2.437   5.411   1.137
 4168SOL    HW113403   2.378   5.361   1.074
 4168SOL    HW213404   2.532   5.407   1.106
 4169SOL     OW13405   6.410   3.650   6.468
 4169SOL    HW113406   6.338   3.611   6.410
 4169SOL    HW213407   6.377   3.657   6.562
 4170SOL     OW13408   3.366   0.975   5.571
 4170SOL    HW113409   3.319   0.996   5.485
 4170SOL    HW213410   3.310   0.912   5.625
 4171SOL     OW13411   5.986   3.878   1.374
 4171SOL    HW113412   6.013   3.926   1.458
 4171SOL    HW213413   5.922   3.805   1.397
 4172SOL     OW13414   2.904   0.920   0.983
 4172SOL    HW113415   2.964   0.999   0.997
 4172SOL    HW213416   2.842   0.911   1.061
 4173SOL     OW13417   4.352   3.479   5.504
 4173SOL    HW113418   4.429   3.494   5.441
 4173SOL    HW213419   4.387   3.461   5.596
 4174SOL     OW13420   5.360   0.708   2.835
 4174SOL    HW113421   5.289   0.638   2.844
 4174SOL    HW213422   5.323   0.787   2.786
 4175SOL     OW13423   2.125   1.475   2.564
 4175SOL    HW113424   2.098   1.416   2.487
 4175SOL    HW213425   2.192   1.541   2.533
 4176SOL     OW13426   5.929   4.455   2.645
 4176SOL    HW113427   5.949   4.423   2.553
 4176SOL    HW213428   5.830   4.463   2.657
 4177SOL     OW13429   6.845   5.588   3.029
 4177SOL    HW113430   6.774   5.555   3.091
 4177SOL    HW213431   6.846   5.532   2.946
 4178SOL     OW13432   4.539   2.277   5.263
 4178SOL    HW113433   4.622   2.326   5.238
 4178SOL    HW213434   4.541   2.257   5.361
 4179SOL     OW13435   6.626   2.087   0.365
 4179SOL    HW113436   6.598   2.179   0.340
 4179SOL    HW213437   6.625   2.078   0.465
 4180SOL     OW13438   5.062   3.849   1.523
 4180SOL    HW113439   5.129   3.796   1.576
 4180SOL    HW213440   4.988   3.879   1.583
 4181SOL     OW13441   6.115   0.980   1.054
 4181SOL    HW113442   6.207   1.010   1.028
 4181SOL    HW213443   6.074   0.930   0.978
 4182SOL     OW13444   5.797   0.663   3.614
 4182SOL    HW113445   5.872   0.636   3.674
 4182SOL    HW213446   5.817   0.752   3.573
 4183SOL     OW13447   1.165   0.942   1.933
 4183SOL    HW113448   1.193   0.849   1.913
 4183SOL    HW213449   1.203   1.004   1.864
 4184SOL     OW13450   4.287   4.906   6.274
 4184SOL    HW113451   4.320   4.958   6.354
 4184SOL    HW213452   4.206   4.853   6.300
 4185SOL     OW13453   0.398   0.530   3.804
 4185SOL    HW113454   0.443   0.466   3.866
 4185SOL    HW213455   0.387   0.487   3.714
 4186SOL     OW13456   3.565   4.170   1.894
 4186SOL    HW113457   3.556   4.258   1.847
 4186SOL    HW213458   3.531   4.179   1.988
 4187SOL     OW13459   4.108   5.059   6.083
 4187SOL    HW113460   4.175   5.071   6.155
 4187SOL    HW213461   4.040   5.133   6.088
 4188SOL     OW13462   4.948   6.151   3.183
 4188SOL    HW113463   5.017   6.091   3.225
 4188SOL    HW213464   4.945   6.237   3.234
 4189SOL     OW13465   1.595   3.233   3.151
 4189SOL    HW113466   1.625   3.165   3.083
 4189SOL    HW213467   1.513   3.198   3.198
 4190SOL     OW13468   2.299   0.100   1.470
 4190SOL    HW113469   2.220   0.140   1.516
 4190SOL    HW213470   2.295   0.000   1.477
 4191SOL     OW13471   0.638   2.325   3.868
 4191SOL    HW113472   0.638   2.294   3.963
 4191SOL    HW213473   0.595   2.256   3.810
 4192SOL     OW13474   5.933   6.717   3.873
 4192SOL    HW113475   5.867   6.751   3.807
 4192SOL    HW213476   6.022   6.761   3.858
 4193SOL     OW13477   1.741   6.773   4.102
 4193SOL    HW113478   1.783   6.772   4.193
 4193SOL    HW213479   1.679   6.695   4.093
 4194SOL     OW13480   5.789   0.041   3.181
 4194SOL    HW113481   5.716   6.998   3.176
 4194SOL    HW213482   5.809   0.075   3.089
 4195SOL     OW13483   4.648   0.460   3.532
 4195SOL    HW113484   4.702   0.522   3.477
 4195SOL    HW213485   4.578   0.512   3.581
 4196SOL     OW13486   4.643   2.724   3.260
 4196SOL    HW113487   4.671   2.819   3.252
 4196SOL    HW213488   4.607   2.706   3.351
 4197SOL     OW13489   5.078   4.109   4.399
 4197SOL    HW113490   5.006   4.061   4.349
 4197SOL    HW213491   5.160   4.113   4.342
 4198SOL     OW13492   6.177   3.139   6.271
 4198SOL    HW113493   6.194   3.043   6.248
 4198SOL    HW213494   6.263   3.184   6.294
 4199SOL     OW13495   2.750   3.998   6.236
 4199SOL    HW113496   2.848   4.019   6.236
 4199SOL    HW213497   2.704   4.054   6.167
 4200SOL     OW13498   3.086   0.446   0.079
 4200SOL    HW113499   3.178   0.472   0.109
 4200SOL    HW213500   3.042   0.392   0.152
 4201SOL     OW13501   6.706   0.064   4.980
 4201SOL    HW113502   6.802   0.039   4.966
 4201SOL    HW213503   6.661   7.020   5.035
 4202SOL     OW13504   5.767   3.258   5.209
 4202SOL    HW113505   5.693   3.282   5.272
 4202SOL    HW213506   5.757   3.162   5.181
 4203SOL     OW13507   3.649   5.221   4.680
 4203SOL    HW113508   3.653   5.130   4.722
 4203SOL    HW213509   3.587   5.279   4.732
 4204SOL     OW13510   1.975   3.927   0.143
 4204SOL    HW113511   2.019   4.000   0.195
 4204SOL    HW213512   1.899   3.965   0.090
 4205SOL     OW13513   2.470   5.706   3.452
 4205SOL    HW113514   2.388   5.653   3.471
 4205SOL    HW213515   2.470   5.790   3.507
 4206SOL     OW13516   4.893   6.460   3.892
 4206SOL    HW113517   4.854   6.378   3.852
 4206SOL    HW213518   4.993   6.451   3.895
 4207SOL     OW13519   1.447   6.133   0.058
 4207SOL    HW113520   1.479   6.048   0.017
 4207SOL    HW213521   1.365   6.165   0.011
 4208SOL     OW13522   0.468   2.281   1.731
 4208SOL    HW113523   0.506   2.225   1.657
 4208SOL    HW213524   0.472   2.378   1.706
 4209SOL     OW13525   3.161   0.056   5.327
 4209SOL    HW113526   3.121   0.039   5.237
 4209SOL    HW213527   3.118   0.137   5.368
 4210SOL     OW13528   3.352   2.812   0.564
 4210SOL    HW113529   3.319   2.906   0.577
 4210SOL    HW213530   3.389   2.802   0.471
 4211SOL     OW13531   5.171   3.718   4.276
 4211SOL    HW113532   5.226   3.652   4.224
 4211SOL    HW213533   5.228   3.761   4.346
 4212SOL     OW13534   6.292   6.886   2.103
 4212SOL    HW113535   6.229   6.906   2.177
 4212SOL    HW213536   6.386   6.884   2.138
 4213SOL     OW13537   1.042   0.034   0.915
 4213SOL    HW113538   1.042   7.021   1.007
 4213SOL    HW213539   0.984   0.115   0.912
 4214SOL     OW13540   2.845   5.719   3.534
 4214SOL    HW113541   2.940   5.694   3.551
 4214SOL    HW213542   2.839   5.768   3.447
 4215SOL     OW13543   1.649   5.733   6.994
 4215SOL    HW113544   1.558   5.761   6.963
 4215SOL    HW213545   1.702   5.813   7.020
 4216SOL     OW13546   2.686   2.802   5.344
 4216SOL    HW113547   2.744   2.871   5.386
 4216SOL    HW213548   2.592   2.836   5.339
 4217SOL     OW13549   6.383   0.823   4.397
 4217SOL    HW113550   6.411   0.852   4.305
 4217SOL    HW213551   6.449   0.755   4.431
 4218SOL     OW13552   3.318   5.701   2.456
 4218SOL    HW113553   3.410   5.664   2.445
 4218SOL    HW213554   3.318   5.797   2.427
 4219SOL     OW13555   5.299   0.442   2.670
 4219SOL    HW113556   5.255   0.352   2.673
 4219SOL    HW213557   5.382   0.441   2.725
 4220SOL     OW13558   6.995   4.526   2.752
 4220SOL    HW113559   0.005   4.600   2.809
 4220SOL    HW213560   6.912   4.489   2.795
 4221SOL     OW13561   5.324   6.348   6.063
 4221SOL    HW113562   5.257   6.361   5.989
 4221SOL    HW213563   5.374   6.263   6.047
 4222SOL     OW13564   2.900   2.666   0.000
 4222SOL    HW113565   2.960   2.697   6.952
 4222SOL    HW213566   2.949   2.671   0.087
 4223SOL     OW13567   3.703   3.932   3.195
 4223SOL    HW113568   3.722   3.835   3.181
 4223SOL    HW213569   3.692   3.950   3.293
 4224SOL     OW13570   3.740   2.072   5.468
 4224SOL    HW113571   3.776   1.979   5.465
 4224SOL    HW213572   3.816   2.137   5.474
 4225SOL     OW13573   5.109   0.278   4.431
 4225SOL    HW113574   5.103   0.179   4.442
 4225SOL    HW213575   5.173   0.300   4.357
 4226SOL     OW13576   2.013   1.901   2.024
 4226SOL    HW113577   1.939   1.851   2.069
 4226SOL    HW213578   2.022   1.869   1.929
 4227SOL     OW13579   5.624   4.022   6.973
 4227SOL    HW113580   5.698   4.085   6.997
 4227SOL    HW213581   5.642   3.932   7.014
 4228SOL     OW13582   4.441   5.412   2.842
 4228SOL    HW113583   4.456   5.356   2.760
 4228SOL    HW213584   4.410   5.503   2.814
 4229SOL     OW13585   3.765   4.975   5.146
 4229SOL    HW113586   3.851   4.928   5.166
 4229SOL    HW213587   3.772   5.071   5.172
 4230SOL     OW13588   2.454   1.126   6.281
 4230SOL    HW113589   2.548   1.147   6.251
 4230SOL    HW213590   2.392   1.140   6.204
 4231SOL     OW13591   3.859   6.475   6.611
 4231SOL    HW113592   3.782   6.518   6.565
 4231SOL    HW213593   3.833   6.449   6.704
 4232SOL     OW13594   1.123   3.905   1.253
 4232SOL    HW113595   1.067   3.969   1.306
 4232SOL    HW213596   1.159   3.953   1.172
 4233SOL     OW13597   5.294   5.776   1.201
 4233SOL    HW113598   5.267   5.687   1.236
 4233SOL    HW213599   5.217   5.840   1.210
 4234SOL     OW13600   3.741   3.549   5.614
 4234SOL    HW113601   3.673   3.537   5.542
 4234SOL    HW213602   3.807   3.474   5.610
 4235SOL     OW13603   0.314   4.146   4.947
 4235SOL    HW113604   0.365   4.183   5.024
 4235SOL    HW213605   0.276   4.057   4.973
 4236SOL     OW13606   0.848   3.724   4.600
 4236SOL    HW113607   0.847   3.800   4.534
 4236SOL    HW213608   0.877   3.758   4.689
 4237SOL     OW13609   6.037   3.896   5.858
 4237SOL    HW113610   5.953   3.908   5.911
 4237SOL    HW213611   6.071   3.803   5.870
 4238SOL     OW13612   4.650   4.807   4.913
 4238SOL    HW113613   4.558   4.778   4.885
 4238SOL    HW213614   4.644   4.894   4.961
 4239SOL     OW13615   5.096   5.456   5.458
 4239SOL    HW113616   5.031   5.523   5.494
 4239SOL    HW213617   5.179   5.503   5.429
 4240SOL     OW13618   2.620   5.106   6.112
 4240SOL    HW113619   2.717   5.084   6.100
 4240SOL    HW213620   2.574   5.106   6.023
 4241SOL     OW13621   3.496   2.158   0.983
 4241SOL    HW113622   3.436   2.223   1.029
 4241SOL    HW213623   3.540   2.100   1.052
 4242SOL     OW13624   2.408   0.291   1.743
 4242SOL    HW113625   2.438   0.382   1.770
 4242SOL    HW213626   2.367   0.294   1.652
 4243SOL     OW13627   1.943   2.499   2.438
 4243SOL    HW113628   1.854   2.515   2.395
 4243SOL    HW213629   1.936   2.514   2.537
 4244SOL     OW13630   2.905   0.117   0.993
 4244SOL    HW113631   2.891   0.018   0.999
 4244SOL    HW213632   2.956   0.148   1.073
 4245SOL     OW13633   0.201   1.267   0.829
 4245SOL    HW113634   0.119   1.209   0.827
 4245SOL    HW213635   0.176   1.360   0.803
 4246SOL     OW13636   4.681   2.370   3.737
 4246SOL    HW113637   4.734   2.289   3.710
 4246SOL    HW213638   4.583   2.352   3.722
 4247SOL     OW13639   2.593   5.711   6.662
 4247SOL    HW113640   2.628   5.741   6.751
 4247SOL    HW213641   2.599   5.612   6.655
 4248SOL     OW13642   2.829   6.997   2.828
 4248SOL    HW113643   2.889   0.002   2.754
 4248SOL    HW213644   2.849   0.024   2.911
 4249SOL     OW13645   6.048   1.112   5.301
 4249SOL    HW113646   6.069   1.205   5.269
 4249SOL    HW213647   6.053   1.049   5.224
 4250SOL     OW13648   0.803   5.602   4.595
 4250SOL    HW113649   0.780   5.698   4.613
 4250SOL    HW213650   0.720   5.553   4.567
 4251SOL     OW13651   4.622   2.169   4.959
 4251SOL    HW113652   4.533   2.125   4.976
 4251SOL    HW213653   4.694   2.100   4.963
 4252SOL     OW13654   0.938   0.027   6.261
 4252SOL    HW113655   0.937   0.087   6.181
 4252SOL    HW213656   0.988   0.072   6.335
 4253SOL     OW13657   4.379   6.765   2.922
 4253SOL    HW113658   4.289   6.801   2.900
 4253SOL    HW213659   4.428   6.745   2.837
 4254SOL     OW13660   1.148   1.421   5.376
 4254SOL    HW113661   1.068   1.363   5.380
 4254SOL    HW213662   1.155   1.464   5.286
 4255SOL     OW13663   1.129   3.207   4.029
 4255SOL    HW113664   1.131   3.109   4.007
 4255SOL    HW213665   1.101   3.218   4.125
 4256SOL     OW13666   6.060   6.102   0.923
 4256SOL    HW113667   6.077   6.159   0.842
 4256SOL    HW213668   6.063   6.006   0.897
 4257SOL     OW13669   0.086   1.215   2.092
 4257SOL    HW113670   0.039   1.299   2.119
 4257SOL    HW213671   0.039   1.174   2.013
 4258SOL     OW13672   2.876   5.855   1.166
 4258SOL    HW113673   2.869   5.756   1.159
 4258SOL    HW213674   2.923   5.879   1.251
 4259SOL     OW13675   0.754   6.395   0.302
 4259SOL    HW113676   0.683   6.446   0.253
 4259SOL    HW213677   0.786   6.449   0.380
 4260SOL     OW13678   0.390   0.412   5.171
 4260SOL    HW113679   0.453   0.489   5.165
 4260SOL    HW213680   0.380   0.384   5.267
 4261SOL     OW13681   2.432   6.545   3.719
 4261SOL    HW113682   2.383   6.595   3.647
 4261SOL    HW213683   2.505   6.602   3.756
 4262SOL     OW13684   1.529   3.914   4.825
 4262SOL    HW113685   1.481   3.955   4.747
 4262SOL    HW213686   1.491   3.824   4.844
 4263SOL     OW13687   3.600   0.470   2.709
 4263SOL    HW113688   3.688   0.511   2.730
 4263SOL    HW213689   3.549   0.530   2.647
 4264SOL     OW13690   4.548   1.774   6.513
 4264SOL    HW113691   4.639   1.734   6.522
 4264SOL    HW213692   4.537   1.848   6.579
 4265SOL     OW13693   3.378   6.754   0.004
 4265SOL    HW113694   3.443   6.785   6.961
 4265SOL    HW213695   3.291   6.730   6.985
 4266SOL     OW13696   1.423   4.505   2.373
 4266SOL    HW113697   1.349   4.564   2.341
 4266SOL    HW213698   1.389   4.412   2.385
 4267SOL     OW13699   2.032   3.498   3.939
 4267SOL    HW113700   2.058   3.577   3.885
 4267SOL    HW213701   1.997   3.426   3.879
 4268SOL     OW13702   1.432   4.056   6.160
 4268SOL    HW113703   1.526   4.028   6.183
 4268SOL    HW213704   1.368   3.992   6.202
 4269SOL     OW13705   1.935   1.458   4.222
 4269SOL    HW113706   1.973   1.464   4.129
 4269SOL    HW213707   1.870   1.532   4.235
 4270SOL     OW13708   4.202   4.136   1.273
 4270SOL    HW113709   4.205   4.087   1.186
 4270SOL    HW213710   4.197   4.071   1.348
 4271SOL     OW13711   6.809   0.345   0.894
 4271SOL    HW113712   6.869   0.324   0.971
 4271SOL    HW213713   6.823   0.440   0.865
 4272SOL     OW13714   6.202   1.622   5.270
 4272SOL    HW113715   6.188   1.684   5.347
 4272SOL    HW213716   6.201   1.674   5.184
 4273SOL     OW13717   3.931   5.345   3.492
 4273SOL    HW113718   3.997   5.342   3.418
 4273SOL    HW213719   3.977   5.364   3.578
 4274SOL     OW13720   6.850   0.606   1.342
 4274SOL    HW113721   6.872   0.542   1.269
 4274SOL    HW213722   6.756   0.593   1.373
 4275SOL     OW13723   6.239   1.346   4.434
 4275SOL    HW113724   6.243   1.384   4.342
 4275SOL    HW213725   6.327   1.360   4.480
 4276SOL     OW13726   1.385   0.698   2.736
 4276SOL    HW113727   1.419   0.790   2.717
 4276SOL    HW213728   1.447   0.630   2.696
 4277SOL     OW13729   6.095   5.544   2.658
 4277SOL    HW113730   6.165   5.615   2.660
 4277SOL    HW213731   6.136   5.457   2.687
 4278SOL     OW13732   0.499   7.010   1.567
 4278SOL    HW113733   0.452   6.963   1.642
 4278SOL    HW213734   0.561   6.946   1.521
 4279SOL     OW13735   0.981   3.559   2.986
 4279SOL    HW113736   0.971   3.609   3.073
 4279SOL    HW213737   0.978   3.624   2.910
 4280SOL     OW13738   3.174   6.320   6.618
 4280SOL    HW113739   3.139   6.227   6.613
 4280SOL    HW213740   3.182   6.348   6.714
 4281SOL     OW13741   7.004   6.758   2.588
 4281SOL    HW113742   6.935   6.718   2.527
 4281SOL    HW213743   0.013   6.687   2.649
 4282SOL     OW13744   5.156   4.664   1.824
 4282SOL    HW113745   5.152   4.755   1.865
 4282SOL    HW213746   5.207   4.669   1.738
 4283SOL     OW13747   6.197   1.573   4.843
 4283SOL    HW113748   6.151   1.538   4.761
 4283SOL    HW213749   6.195   1.503   4.914
 4284SOL     OW13750   4.767   6.090   0.194
 4284SOL    HW113751   4.704   6.133   0.130
 4284SOL    HW213752   4.751   6.125   0.286
 4285SOL     OW13753   2.758   1.360   6.182
 4285SOL    HW113754   2.662   1.385   6.192
 4285SOL    HW213755   2.791   1.388   6.092
 4286SOL     OW13756   5.607   6.270   0.102
 4286SOL    HW113757   5.605   6.250   0.200
 4286SOL    HW213758   5.700   6.295   0.075
 4287SOL     OW13759   4.258   0.367   0.899
 4287SOL    HW113760   4.301   0.277   0.898
 4287SOL    HW213761   4.281   0.416   0.815
 4288SOL     OW13762   0.463   6.527   2.111
 4288SOL    HW113763   0.422   6.470   2.182
 4288SOL    HW213764   0.561   6.508   2.106
 4289SOL     OW13765   0.228   4.191   5.923
 4289SOL    HW113766   0.175   4.182   5.839
 4289SOL    HW213767   0.219   4.285   5.958
 4290SOL     OW13768   6.962   1.019   2.839
 4290SOL    HW113769   7.005   1.063   2.760
 4290SOL    HW213770   6.863   1.020   2.828
 4291SOL     OW13771   4.410   4.885   6.025
 4291SOL    HW113772   4.449   4.969   5.987
 4291SOL    HW213773   4.392   4.898   6.122
 4292SOL     OW13774   6.778   0.074   0.503
 4292SOL    HW113775   6.744   0.051   0.594
 4292SOL    HW213776   6.877   0.063   0.500
 4293SOL     OW13777   3.656   3.038   6.219
 4293SOL    HW113778   3.747   3.018   6.255
 4293SOL    HW213779   3.653   3.014   6.122
 4294SOL     OW13780   3.191   2.296   0.315
 4294SOL    HW113781   3.110   2.302   0.373
 4294SOL    HW213782   3.254   2.371   0.338
 4295SOL     OW13783   3.904   6.566   2.687
 4295SOL    HW113784   4.003   6.579   2.685
 4295SOL    HW213785   3.876   6.540   2.779
 4296SOL     OW13786   2.239   5.580   2.055
 4296SOL    HW113787   2.261   5.531   1.971
 4296SOL    HW213788   2.318   5.578   2.117
 4297SOL     OW13789   4.740   4.677   0.138
 4297SOL    HW113790   4.643   4.680   0.112
 4297SOL    HW213791   4.796   4.704   0.060
 4298SOL     OW13792   2.420   6.331   0.357
 4298SOL    HW113793   2.336   6.278   0.371
 4298SOL    HW213794   2.415   6.415   0.410
 4299SOL     OW13795   0.226   3.585   6.237
 4299SOL    HW113796   0.265   3.660   6.291
 4299SOL    HW213797   0.296   3.550   6.174
 4300SOL     OW13798   3.400   0.717   1.590
 4300SOL    HW113799   3.318   0.664   1.566
 4300SOL    HW213800   3.410   0.793   1.525
 4301SOL     OW13801   2.042   6.260   4.588
 4301SOL    HW113802   2.069   6.221   4.677
 4301SOL    HW213803   1.954   6.308   4.598
 4302SOL     OW13804   4.145   4.938   0.014
 4302SOL    HW113805   4.103   5.026   7.019
 4302SOL    HW213806   4.211   4.916   6.968
 4303SOL     OW13807   4.460   5.096   3.274
 4303SOL    HW113808   4.524   5.147   3.217
 4303SOL    HW213809   4.511   5.047   3.346
 4304SOL     OW13810   3.233   4.229   1.638
 4304SOL    HW113811   3.158   4.294   1.630
 4304SOL    HW213812   3.319   4.278   1.653
 4305SOL     OW13813   1.063   6.961   5.649
 4305SOL    HW113814   1.072   6.988   5.745
 4305SOL    HW213815   0.989   6.895   5.639
 4306SOL     OW13816   5.874   3.820   5.096
 4306SOL    HW113817   5.825   3.733   5.107
 4306SOL    HW213818   5.885   3.840   4.999
 4307SOL     OW13819   6.966   1.648   4.575
 4307SOL    HW113820   0.027   1.687   4.605
 4307SOL    HW213821   6.896   1.665   4.645
 4308SOL     OW13822   4.312   5.525   5.909
 4308SOL    HW113823   4.333   5.492   5.817
 4308SOL    HW213824   4.335   5.622   5.915
 4309SOL     OW13825   3.037   2.046   0.874
 4309SOL    HW113826   3.044   2.141   0.904
 4309SOL    HW213827   3.023   2.043   0.775
 4310SOL     OW13828   6.581   1.452   4.270
 4310SOL    HW113829   6.629   1.392   4.206
 4310SOL    HW213830   6.577   1.408   4.360
 4311SOL     OW13831   1.036   6.779   1.432
 4311SOL    HW113832   0.978   6.751   1.508
 4311SOL    HW213833   1.020   6.720   1.353
 4312SOL     OW13834   0.293   3.147   2.990
 4312SOL    HW113835   0.332   3.086   3.059
 4312SOL    HW213836   0.353   3.151   2.911
 4313SOL     OW13837   0.853   3.146   0.826
 4313SOL    HW113838   0.760   3.170   0.855
 4313SOL    HW213839   0.910   3.129   0.907
 4314SOL     OW13840   2.257   1.400   5.955
 4314SOL    HW113841   2.289   1.438   5.868
 4314SOL    HW213842   2.161   1.425   5.969
 4315SOL     OW13843   2.589   2.410   5.155
 4315SOL    HW113844   2.515   2.344   5.151
 4315SOL    HW213845   2.676   2.363   5.141
 4316SOL     OW13846   4.412   4.595   1.060
 4316SOL    HW113847   4.475   4.630   0.990
 4316SOL    HW213848   4.452   4.514   1.103
 4317SOL     OW13849   5.322   0.585   3.921
 4317SOL    HW113850   5.377   0.558   3.842
 4317SOL    HW213851   5.259   0.511   3.945
 4318SOL     OW13852   1.472   6.107   4.073
 4318SOL    HW113853   1.527   6.033   4.035
 4318SOL    HW213854   1.413   6.071   4.145
 4319SOL     OW13855   2.231   4.670   1.787
 4319SOL    HW113856   2.228   4.619   1.701
 4319SOL    HW213857   2.324   4.669   1.824
 4320SOL     OW13858   4.010   1.284   1.786
 4320SOL    HW113859   4.099   1.310   1.749
 4320SOL    HW213860   4.016   1.277   1.885
 4321SOL     OW13861   6.450   5.746   2.923
 4321SOL    HW113862   6.428   5.810   2.996
 4321SOL    HW213863   6.526   5.782   2.868
 4322SOL     OW13864   2.881   2.125   4.855
 4322SOL    HW113865   2.841   2.216   4.860
 4322SOL    HW213866   2.808   2.056   4.853
 4323SOL     OW13867   5.273   4.014   1.490
 4323SOL    HW113868   5.191   3.958   1.501
 4323SOL    HW213869   5.347   3.975   1.545
 4324SOL     OW13870   6.230   3.953   5.314
 4324SOL    HW113871   6.145   3.899   5.315
 4324SOL    HW213872   6.238   4.002   5.401
 4325SOL     OW13873   1.305   0.537   1.068
 4325SOL    HW113874   1.338   0.623   1.108
 4325SOL    HW213875   1.280   0.552   0.973
 4326SOL     OW13876   4.957   2.419   2.517
 4326SOL    HW113877   5.032   2.354   2.516
 4326SOL    HW213878   4.907   2.412   2.604
 4327SOL     OW13879   2.838   6.446   4.005
 4327SOL    HW113880   2.863   6.486   3.917
 4327SOL    HW213881   2.843   6.346   3.999
 4328SOL     OW13882   6.017   0.164   2.190
 4328SOL    HW113883   5.939   0.209   2.146
 4328SOL    HW213884   6.102   0.208   2.160
 4329SOL     OW13885   5.961   4.220   0.439
 4329SOL    HW113886   5.982   4.317   0.444
 4329SOL    HW213887   6.032   4.173   0.386
 4330SOL     OW13888   2.867   5.778   5.425
 4330SOL    HW113889   2.874   5.791   5.326
 4330SOL    HW213890   2.862   5.680   5.444
 4331SOL     OW13891   6.163   1.512   2.909
 4331SOL    HW113892   6.110   1.433   2.940
 4331SOL    HW213893   6.198   1.494   2.817
 4332SOL     OW13894   0.028   5.665   1.208
 4332SOL    HW113895   0.029   5.724   1.127
 4332SOL    HW213896   6.959   5.653   1.238
 4333SOL     OW13897   3.385   3.128   6.199
 4333SOL    HW113898   3.474   3.117   6.243
 4333SOL    HW213899   3.316   3.079   6.251
 4334SOL     OW13900   0.254   2.411   3.686
 4334SOL    HW113901   0.209   2.405   3.597
 4334SOL    HW213902   0.251   2.321   3.730
 4335SOL     OW13903   1.843   3.659   1.371
 4335SOL    HW113904   1.838   3.564   1.401
 4335SOL    HW213905   1.936   3.693   1.384
 4336SOL     OW13906   2.087   4.919   5.467
 4336SOL    HW113907   2.118   4.938   5.374
 4336SOL    HW213908   2.128   4.834   5.499
 4337SOL     OW13909   6.801   4.213   4.278
 4337SOL    HW113910   6.721   4.173   4.322
 4337SOL    HW213911   6.859   4.257   4.347
 4338SOL     OW13912   3.393   2.788   5.514
 4338SOL    HW113913   3.340   2.733   5.450
 4338SOL    HW213914   3.485   2.803   5.476
 4339SOL     OW13915   3.836   3.828   5.327
 4339SOL    HW113916   3.859   3.822   5.230
 4339SOL    HW213917   3.742   3.795   5.341
 4340SOL     OW13918   0.018   4.191   0.220
 4340SOL    HW113919   0.090   4.144   0.168
 4340SOL    HW213920   6.957   4.184   0.170
 4341SOL     OW13921   6.324   6.333   1.557
 4341SOL    HW113922   6.368   6.387   1.485
 4341SOL    HW213923   6.226   6.352   1.558
 4342SOL     OW13924   5.021   3.627   1.956
 4342SOL    HW113925   4.957   3.586   1.891
 4342SOL    HW213926   4.984   3.621   2.049
 4343SOL     OW13927   4.892   0.139   6.109
 4343SOL    HW113928   4.959   0.070   6.082
 4343SOL    HW213929   4.802   0.097   6.117
 4344SOL     OW13930   1.264   3.618   1.731
 4344SOL    HW113931   1.315   3.644   1.813
 4344SOL    HW213932   1.321   3.631   1.651
 4345SOL     OW13933   3.970   3.184   2.745
 4345SOL    HW113934   3.893   3.122   2.763
 4345SOL    HW213935   3.962   3.221   2.652
 4346SOL     OW13936   0.741   3.556   2.565
 4346SOL    HW113937   0.765   3.512   2.478
 4346SOL    HW213938   0.660   3.512   2.603
 4347SOL     OW13939   6.197   6.061   1.475
 4347SOL    HW113940   6.260   6.137   1.460
 4347SOL    HW213941   6.152   6.038   1.388
 4348SOL     OW13942   6.473   4.246   6.227
 4348SOL    HW113943   6.568   4.214   6.230
 4348SOL    HW213944   6.440   4.259   6.320
 4349SOL     OW13945   0.817   3.741   3.809
 4349SOL    HW113946   0.856   3.826   3.844
 4349SOL    HW213947   0.860   3.718   3.721
 4350SOL     OW13948   5.480   0.051   3.919
 4350SOL    HW113949   5.541   0.127   3.898
 4350SOL    HW213950   5.394   0.086   3.954
 4351SOL     OW13951   0.676   6.364   0.985
 4351SOL    HW113952   0.772   6.338   0.994
 4351SOL    HW213953   0.622   6.313   1.052
 4352SOL     OW13954   3.460   4.239   1.163
 4352SOL    HW113955   3.476   4.230   1.261
 4352SOL    HW213956   3.542   4.210   1.113
 4353SOL     OW13957   2.147   4.086   0.288
 4353SOL    HW113958   2.189   4.040   0.366
 4353SOL    HW213959   2.215   4.141   0.241
 4354SOL     OW13960   5.390   5.157   1.940
 4354SOL    HW113961   5.315   5.100   1.974
 4354SOL    HW213962   5.409   5.134   1.845
 4355SOL     OW13963   1.779   4.915   3.801
 4355SOL    HW113964   1.746   4.953   3.715
 4355SOL    HW213965   1.820   4.825   3.785
 4356SOL     OW13966   5.658   1.455   5.746
 4356SOL    HW113967   5.671   1.527   5.814
 4356SOL    HW213968   5.578   1.401   5.768
 4357SOL     OW13969   5.302   5.997   2.874
 4357SOL    HW113970   5.357   6.010   2.956
 4357SOL    HW213971   5.303   5.901   2.847
 4358SOL     OW13972   2.568   0.949   1.419
 4358SOL    HW113973   2.541   0.856   1.392
 4358SOL    HW213974   2.640   0.944   1.488
 4359SOL     OW13975   2.690   2.739   1.532
 4359SOL    HW113976   2.706   2.807   1.460
 4359SOL    HW213977   2.601   2.754   1.573
 4360SOL     OW13978   3.075   6.008   3.994
 4360SOL    HW113979   3.097   5.938   4.062
 4360SOL    HW213980   3.122   5.988   3.909
 4361SOL     OW13981   1.881   1.280   6.629
 4361SOL    HW113982   1.980   1.292   6.633
 4361SOL    HW213983   1.849   1.242   6.716
 4362SOL     OW13984   0.080   5.980   2.712
 4362SOL    HW113985   0.075   5.981   2.812
 4362SOL    HW213986   0.055   6.070   2.676
 4363SOL     OW13987   3.903   0.259   2.170
 4363SOL    HW113988   3.860   0.349   2.177
 4363SOL    HW213989   3.845   0.199   2.115
 4364SOL     OW13990   2.895   3.592   3.205
 4364SOL    HW113991   2.899   3.560   3.110
 4364SOL    HW213992   2.913   3.691   3.207
 4365SOL     OW13993   2.456   1.297   1.101
 4365SOL    HW113994   2.441   1.386   1.057
 4365SOL    HW213995   2.552   1.272   1.092
 4366SOL     OW13996   4.606   5.629   4.601
 4366SOL    HW113997   4.633   5.552   4.543
 4366SOL    HW213998   4.679   5.697   4.602
 4367SOL     OW13999   1.806   0.056   1.779
 4367SOL    HW114000   1.835   0.090   1.689
 4367SOL    HW214001   1.793   0.133   1.841
 4368SOL     OW14002   4.876   4.800   4.461
 4368SOL    HW114003   4.921   4.736   4.524
 4368SOL    HW214004   4.815   4.860   4.513
 4369SOL     OW14005   6.358   4.076   3.920
 4369SOL    HW114006   6.315   4.151   3.870
 4369SOL    HW214007   6.361   4.098   4.018
 4370SOL     OW14008   4.969   4.839   0.883
 4370SOL    HW114009   5.032   4.862   0.809
 4370SOL    HW214010   4.880   4.814   0.844
 4371SOL     OW14011   3.655   0.976   3.217
 4371SOL    HW114012   3.656   0.985   3.117
 4371SOL    HW214013   3.600   0.897   3.243
 4372SOL     OW14014   1.687   4.424   5.227
 4372SOL    HW114015   1.669   4.327   5.239
 4372SOL    HW214016   1.739   4.459   5.305
 4373SOL     OW14017   4.507   0.567   0.193
 4373SOL    HW114018   4.488   0.479   0.150
 4373SOL    HW214019   4.586   0.557   0.254
 4374SOL     OW14020   2.210   6.215   0.587
 4374SOL    HW114021   2.300   6.206   0.629
 4374SOL    HW214022   2.188   6.132   0.536
 4375SOL     OW14023   4.869   0.730   6.164
 4375SOL    HW114024   4.910   0.769   6.081
 4375SOL    HW214025   4.787   0.678   6.139
 4376SOL     OW14026   3.323   4.954   6.758
 4376SOL    HW114027   3.386   5.021   6.796
 4376SOL    HW214028   3.237   4.957   6.809
 4377SOL     OW14029   5.420   6.356   6.897
 4377SOL    HW114030   5.474   6.338   6.978
 4377SOL    HW214031   5.323   6.360   6.922
 4378SOL     OW14032   3.281   4.853   1.536
 4378SOL    HW114033   3.309   4.758   1.549
 4378SOL    HW214034   3.314   4.909   1.612
 4379SOL     OW14035   6.494   6.061   0.447
 4379SOL    HW114036   6.471   6.069   0.350
 4379SOL    HW214037   6.584   6.101   0.464
 4380SOL     OW14038   1.911   5.914   4.879
 4380SOL    HW114039   1.928   5.849   4.952
 4380SOL    HW214040   1.828   5.889   4.829
 4381SOL     OW14041   3.546   6.064   4.249
 4381SOL    HW114042   3.462   6.011   4.255
 4381SOL    HW214043   3.602   6.048   4.331
 4382SOL     OW14044   5.369   4.232   3.864
 4382SOL    HW114045   5.294   4.293   3.840
 4382SOL    HW214046   5.454   4.266   3.825
 4383SOL     OW14047   1.281   0.166   0.129
 4383SOL    HW114048   1.232   0.078   0.136
 4383SOL    HW214049   1.233   0.225   0.064
 4384SOL     OW14050   3.748   6.675   1.983
 4384SOL    HW114051   3.733   6.759   1.931
 4384SOL    HW214052   3.800   6.696   2.066
 4385SOL     OW14053   6.221   2.612   4.395
 4385SOL    HW114054   6.130   2.619   4.355
 4385SOL    HW214055   6.273   2.540   4.348
 4386SOL     OW14056   1.679   5.448   6.968
 4386SOL    HW114057   1.601   5.456   6.905
 4386SOL    HW214058   1.691   5.535   7.017
 4387SOL     OW14059   5.880   2.498   0.816
 4387SOL    HW114060   5.789   2.477   0.853
 4387SOL    HW214061   5.923   2.568   0.872
 4388SOL     OW14062   4.163   1.411   5.869
 4388SOL    HW114063   4.111   1.406   5.783
 4388SOL    HW214064   4.099   1.411   5.946
 4389SOL     OW14065   0.776   2.205   2.956
 4389SOL    HW114066   0.741   2.119   2.991
 4389SOL    HW214067   0.770   2.206   2.856
 4390SOL     OW14068   4.471   3.856   0.999
 4390SOL    HW114069   4.507   3.834   1.090
 4390SOL    HW214070   4.540   3.906   0.947
 4391SOL     OW14071   0.617   5.388   0.830
 4391SOL    HW114072   0.549   5.345   0.890
 4391SOL    HW214073   0.591   5.483   0.814
 4392SOL     OW14074   5.155   4.977   5.044
 4392SOL    HW114075   5.189   5.068   5.066
 4392SOL    HW214076   5.062   4.984   5.007
 4393SOL     OW14077   4.871   6.660   3.106
 4393SOL    HW114078   4.928   6.672   3.187
 4393SOL    HW214079   4.782   6.624   3.132
 4394SOL     OW14080   4.618   0.740   2.481
 4394SOL    HW114081   4.610   0.648   2.518
 4394SOL    HW214082   4.709   0.753   2.442
 4395SOL     OW14083   4.552   2.387   1.133
 4395SOL    HW114084   4.516   2.471   1.093
 4395SOL    HW214085   4.537   2.311   1.070
 4396SOL     OW14086   1.894   1.398   2.710
 4396SOL    HW114087   1.878   1.447   2.796
 4396SOL    HW214088   1.992   1.400   2.689
 4397SOL     OW14089   3.979   1.170   0.043
 4397SOL    HW114090   3.993   1.088   0.098
 4397SOL    HW214091   3.944   1.145   6.978
 4398SOL     OW14092   0.751   5.071   4.470
 4398SOL    HW114093   0.842   5.092   4.507
 4398SOL    HW214094   0.694   5.034   4.543
 4399SOL     OW14095   2.827   0.634   1.521
 4399SOL    HW114096   2.730   0.648   1.540
 4399SOL    HW214097   2.871   0.596   1.602
 4400SOL     OW14098   3.215   4.885   2.678
 4400SOL    HW114099   3.185   4.868   2.772
 4400SOL    HW214100   3.137   4.870   2.616
 4401SOL     OW14101   5.151   6.428   4.582
 4401SOL    HW114102   5.180   6.334   4.565
 4401SOL    HW214103   5.068   6.427   4.639
 4402SOL     OW14104   0.045   6.385   1.751
 4402SOL    HW114105   6.978   6.423   1.743
 4402SOL    HW214106   0.041   6.296   1.796
 4403SOL     OW14107   6.449   1.622   3.277
 4403SOL    HW114108   6.533   1.627   3.331
 4403SOL    HW214109   6.456   1.547   3.211
 4404SOL     OW14110   1.645   4.103   2.375
 4404SOL    HW114111   1.604   4.037   2.439
 4404SOL    HW214112   1.740   4.078   2.359
 4405SOL     OW14113   2.636   3.668   6.422
 4405SOL    HW114114   2.543   3.700   6.440
 4405SOL    HW214115   2.647   3.651   6.324
 4406SOL     OW14116   5.928   2.344   2.205
 4406SOL    HW114117   5.838   2.364   2.166
 4406SOL    HW214118   5.979   2.285   2.142
 4407SOL     OW14119   1.092   1.096   0.395
 4407SOL    HW114120   1.187   1.082   0.368
 4407SOL    HW214121   1.088   1.118   0.493
 4408SOL     OW14122   4.111   6.056   1.540
 4408SOL    HW114123   4.102   6.110   1.457
 4408SOL    HW214124   4.152   6.113   1.612
 4409SOL     OW14125   3.561   2.129   2.928
 4409SOL    HW114126   3.602   2.059   2.986
 4409SOL    HW214127   3.631   2.197   2.903
 4410SOL     OW14128   2.155   5.709   0.752
 4410SOL    HW114129   2.145   5.796   0.800
 4410SOL    HW214130   2.230   5.657   0.792
 4411SOL     OW14131   3.464   3.143   2.369
 4411SOL    HW114132   3.475   3.240   2.347
 4411SOL    HW214133   3.484   3.088   2.288
 4412SOL     OW14134   3.429   1.386   6.193
 4412SOL    HW114135   3.371   1.327   6.138
 4412SOL    HW214136   3.516   1.340   6.212
 4413SOL     OW14137   3.814   5.545   4.173
 4413SOL    HW114138   3.904   5.548   4.130
 4413SOL    HW214139   3.815   5.480   4.250
 4414SOL     OW14140   3.182   4.947   2.098
 4414SOL    HW114141   3.278   4.975   2.095
 4414SOL    HW214142   3.124   5.027   2.112
 4415SOL     OW14143   4.130   1.392   2.046
 4415SOL    HW114144   4.212   1.443   2.021
 4415SOL    HW214145   4.087   1.435   2.125
 4416SOL     OW14146   2.723   2.380   4.459
 4416SOL    HW114147   2.707   2.451   4.390
 4416SOL    HW214148   2.692   2.413   4.548
 4417SOL     OW14149   5.947   6.862   1.435
 4417SOL    HW114150   5.867   6.879   1.377
 4417SOL    HW214151   5.916   6.826   1.524
 4418SOL     OW14152   4.677   0.418   3.051
 4418SOL    HW114153   4.653   0.512   3.025
 4418SOL    HW214154   4.655   0.404   3.148
 4419SOL     OW14155   6.074   5.445   6.184
 4419SOL    HW114156   6.119   5.365   6.223
 4419SOL    HW214157   6.009   5.416   6.113
 4420SOL     OW14158   5.478   0.718   1.111
 4420SOL    HW114159   5.437   0.780   1.044
 4420SOL    HW214160   5.508   0.634   1.065
 4421SOL     OW14161   0.230   1.573   3.230
 4421SOL    HW114162   0.221   1.638   3.305
 4421SOL    HW214163   0.165   1.598   3.157
 4422SOL     OW14164   1.429   4.069   5.684
 4422SOL    HW114165   1.498   4.051   5.753
 4422SOL    HW214166   1.474   4.101   5.600
 4423SOL     OW14167   6.964   1.662   5.819
 4423SOL    HW114168   7.005   1.588   5.766
 4423SOL    HW214169   6.877   1.689   5.779
 4424SOL     OW14170   1.304   5.221   3.305
 4424SOL    HW114171   1.288   5.250   3.399
 4424SOL    HW214172   1.383   5.161   3.301
 4425SOL     OW14173   4.934   3.975   1.720
 4425SOL    HW114174   4.956   3.959   1.817
 4425SOL    HW214175   4.914   4.072   1.706
 4426SOL     OW14176   0.306   6.928   6.601
 4426SOL    HW114177   0.272   6.869   6.528
 4426SOL    HW214178   0.228   6.966   6.652
 4427SOL     OW14179   0.829   5.741   3.441
 4427SOL    HW114180   0.900   5.769   3.505
 4427SOL    HW214181   0.847   5.781   3.351
 4428SOL     OW14182   1.351   6.786   2.804
 4428SOL    HW114183   1.319   6.803   2.711
 4428SOL    HW214184   1.450   6.795   2.807
 4429SOL     OW14185   2.897   0.394   2.615
 4429SOL    HW114186   2.797   0.397   2.618
 4429SOL    HW214187   2.931   0.469   2.559
 4430SOL     OW14188   1.889   0.402   2.029
 4430SOL    HW114189   1.891   0.308   2.065
 4430SOL    HW214190   1.807   0.449   2.062
 4431SOL     OW14191   1.975   2.146   2.919
 4431SOL    HW114192   1.967   2.066   2.979
 4431SOL    HW214193   2.070   2.156   2.890
 4432SOL     OW14194   3.391   4.161   4.673
 4432SOL    HW114195   3.323   4.113   4.617
 4432SOL    HW214196   3.473   4.177   4.619
 4433SOL     OW14197   6.591   6.988   1.736
 4433SOL    HW114198   6.496   6.990   1.706
 4433SOL    HW214199   6.650   7.019   1.661
 4434SOL     OW14200   5.753   1.901   5.545
 4434SOL    HW114201   5.666   1.881   5.590
 4434SOL    HW214202   5.828   1.889   5.611
 4435SOL     OW14203   3.617   3.051   1.892
 4435SOL    HW114204   3.623   2.999   1.978
 4435SOL    HW214205   3.629   3.148   1.911
 4436SOL     OW14206   6.037   0.392   0.224
 4436SOL    HW114207   6.026   0.354   0.132
 4436SOL    HW214208   5.948   0.422   0.258
 4437SOL     OW14209   3.392   6.821   5.923
 4437SOL    HW114210   3.311   6.802   5.978
 4437SOL    HW214211   3.402   6.919   5.910
 4438SOL     OW14212   3.716   2.358   6.905
 4438SOL    HW114213   3.654   2.420   6.856
 4438SOL    HW214214   3.676   2.267   6.910
 4439SOL     OW14215   1.642   4.403   2.834
 4439SOL    HW114216   1.562   4.432   2.782
 4439SOL    HW214217   1.649   4.458   2.917
 4440SOL     OW14218   6.396   1.113   0.843
 4440SOL    HW114219   6.316   1.172   0.832
 4440SOL    HW214220   6.452   1.147   0.919
 4441SOL     OW14221   0.043   0.222   4.037
 4441SOL    HW114222   7.009   0.146   4.013
 4441SOL    HW214223   0.046   0.232   4.137
 4442SOL     OW14224   1.683   5.501   2.188
 4442SOL    HW114225   1.621   5.441   2.239
 4442SOL    HW214226   1.653   5.596   2.197
 4443SOL     OW14227   2.183   1.161   0.829
 4443SOL    HW114228   2.170   1.192   0.923
 4443SOL    HW214229   2.199   1.062   0.828
 4444SOL     OW14230   4.832   1.634   3.302
 4444SOL    HW114231   4.820   1.611   3.206
 4444SOL    HW214232   4.929   1.650   3.320
 4445SOL     OW14233   0.656   1.989   6.499
 4445SOL    HW114234   0.621   1.908   6.452
 4445SOL    HW214235   0.649   2.068   6.439
 4446SOL     OW14236   6.570   4.997   4.533
 4446SOL    HW114237   6.560   5.063   4.607
 4446SOL    HW214238   6.529   4.909   4.560
 4447SOL     OW14239   4.872   3.849   5.183
 4447SOL    HW114240   4.853   3.773   5.120
 4447SOL    HW214241   4.829   3.830   5.271
 4448SOL     OW14242   2.485   3.521   6.836
 4448SOL    HW114243   2.507   3.568   6.750
 4448SOL    HW214244   2.416   3.451   6.819
 4449SOL     OW14245   0.022   1.020   5.558
 4449SOL    HW114246   0.012   0.998   5.461
 4449SOL    HW214247   6.974   1.081   5.587
 4450SOL     OW14248   3.838   3.447   3.321
 4450SOL    HW114249   3.922   3.394   3.332
 4450SOL    HW214250   3.785   3.443   3.406
 4451SOL     OW14251   0.487   4.785   1.024
 4451SOL    HW114252   0.525   4.788   1.116
 4451SOL    HW214253   0.390   4.760   1.029
 4452SOL     OW14254   0.237   3.459   6.750
 4452SOL    HW114255   0.153   3.468   6.696
 4452SOL    HW214256   0.230   3.378   6.808
 4453SOL     OW14257   5.747   0.305   1.315
 4453SOL    HW114258   5.814   0.281   1.385
 4453SOL    HW214259   5.718   0.400   1.326
 4454SOL     OW14260   5.843   3.143   1.628
 4454SOL    HW114261   5.860   3.114   1.534
 4454SOL    HW214262   5.775   3.216   1.629
 4455SOL     OW14263   4.469   2.510   2.890
 4455SOL    HW114264   4.384   2.457   2.898
 4455SOL    HW214265   4.534   2.479   2.959
 4456SOL     OW14266   0.356   5.744   2.459
 4456SOL    HW114267   0.297   5.750   2.540
 4456SOL    HW214268   0.414   5.663   2.466
 4457SOL     OW14269   4.448   2.204   6.414
 4457SOL    HW114270   4.538   2.210   6.457
 4457SOL    HW214271   4.455   2.232   6.318
 4458SOL     OW14272   4.533   1.451   1.310
 4458SOL    HW114273   4.442   1.475   1.342
 4458SOL    HW214274   4.528   1.421   1.214
 4459SOL     OW14275   6.082   5.941   5.739
 4459SOL    HW114276   5.987   5.914   5.754
 4459SOL    HW214277   6.131   5.867   5.694
 4460SOL     OW14278   1.538   1.410   0.505
 4460SOL    HW114279   1.486   1.329   0.532
 4460SOL    HW214280   1.614   1.383   0.446
 4461SOL     OW14281   1.913   0.540   3.096
 4461SOL    HW114282   1.931   0.638   3.098
 4461SOL    HW214283   1.995   0.492   3.066
 4462SOL     OW14284   6.672   3.854   0.554
 4462SOL    HW114285   6.682   3.888   0.648
 4462SOL    HW214286   6.584   3.808   0.544
 4463SOL     OW14287   0.456   4.922   6.923
 4463SOL    HW114288   0.480   4.922   7.020
 4463SOL    HW214289   0.358   4.905   6.912
 4464SOL     OW14290   6.899   2.911   7.004
 4464SOL    HW114291   6.914   2.812   7.008
 4464SOL    HW214292   6.824   2.936   0.040
 4465SOL     OW14293   6.047   5.455   1.025
 4465SOL    HW114294   6.108   5.377   1.008
 4465SOL    HW214295   6.098   5.530   1.065
 4466SOL     OW14296   6.925   2.634   3.822
 4466SOL    HW114297   6.859   2.651   3.895
 4466SOL    HW214298   6.918   2.539   3.791
 4467SOL     OW14299   1.155   0.708   4.612
 4467SOL    HW114300   1.158   0.611   4.634
 4467SOL    HW214301   1.199   0.760   4.687
 4468SOL     OW14302   1.347   1.359   0.891
 4468SOL    HW114303   1.247   1.359   0.895
 4468SOL    HW214304   1.381   1.267   0.913
 4469SOL     OW14305   5.109   0.061   0.566
 4469SOL    HW114306   5.015   0.052   0.534
 4469SOL    HW214307   5.137   7.002   0.611
 4470SOL     OW14308   4.805   4.665   1.561
 4470SOL    HW114309   4.841   4.593   1.622
 4470SOL    HW214310   4.726   4.708   1.604
 4471SOL     OW14311   5.833   2.394   1.711
 4471SOL    HW114312   5.820   2.301   1.745
 4471SOL    HW214313   5.930   2.415   1.706
 4472SOL     OW14314   2.456   5.280   1.542
 4472SOL    HW114315   2.471   5.368   1.498
 4472SOL    HW214316   2.502   5.277   1.630
 4473SOL     OW14317   5.999   0.632   0.531
 4473SOL    HW114318   6.034   0.549   0.575
 4473SOL    HW214319   6.072   0.674   0.476
 4474SOL     OW14320   6.188   0.850   4.799
 4474SOL    HW114321   6.188   0.913   4.722
 4474SOL    HW214322   6.226   0.762   4.769
 4475SOL     OW14323   1.552   3.347   0.143
 4475SOL    HW114324   1.559   3.395   0.231
 4475SOL    HW214325   1.484   3.393   0.086
 4476SOL     OW14326   3.897   6.227   2.768
 4476SOL    HW114327   3.893   6.169   2.850
 4476SOL    HW214328   3.815   6.284   2.763
 4477SOL     OW14329   1.879   2.229   0.824
 4477SOL    HW114330   1.859   2.236   0.922
 4477SOL    HW214331   1.842   2.143   0.789
 4478SOL     OW14332   1.068   4.405   1.023
 4478SOL    HW114333   1.144   4.434   0.964
 4478SOL    HW214334   1.101   4.338   1.089
 4479SOL     OW14335   1.623   6.816   6.003
 4479SOL    HW114336   1.682   6.766   5.940
 4479SOL    HW214337   1.631   6.914   5.986
 4480SOL     OW14338   6.741   3.720   3.495
 4480SOL    HW114339   6.787   3.642   3.454
 4480SOL    HW214340   6.785   3.805   3.464
 4481SOL     OW14341   1.007   1.062   4.428
 4481SOL    HW114342   0.973   1.138   4.372
 4481SOL    HW214343   1.089   1.092   4.477
 4482SOL     OW14344   0.734   3.938   2.838
 4482SOL    HW114345   0.698   3.929   2.931
 4482SOL    HW214346   0.674   3.889   2.774
 4483SOL     OW14347   5.741   3.924   0.834
 4483SOL    HW114348   5.665   3.920   0.769
 4483SOL    HW214349   5.827   3.916   0.785
 4484SOL     OW14350   3.190   3.818   6.801
 4484SOL    HW114351   3.131   3.866   6.866
 4484SOL    HW214352   3.178   3.720   6.811
 4485SOL     OW14353   4.489   6.881   5.847
 4485SOL    HW114354   4.411   6.907   5.791
 4485SOL    HW214355   4.570   6.873   5.789
 4486SOL     OW14356   6.041   3.113   4.095
 4486SOL    HW114357   6.095   3.090   4.014
 4486SOL    HW214358   6.088   3.183   4.148
 4487SOL     OW14359   3.116   3.361   5.948
 4487SOL    HW114360   3.092   3.291   5.882
 4487SOL    HW214361   3.086   3.451   5.915
 4488SOL     OW14362   6.841   2.310   6.700
 4488SOL    HW114363   6.768   2.242   6.691
 4488SOL    HW214364   6.926   2.274   6.661
 4489SOL     OW14365   0.607   0.920   3.006
 4489SOL    HW114366   0.600   0.874   2.917
 4489SOL    HW214367   0.647   0.856   3.073
 4490SOL     OW14368   6.637   2.019   4.257
 4490SOL    HW114369   6.663   1.929   4.293
 4490SOL    HW214370   6.689   2.037   4.174
 4491SOL     OW14371   1.561   4.188   1.972
 4491SOL    HW114372   1.500   4.238   2.034
 4491SOL    HW214373   1.506   4.128   1.914
 4492SOL     OW14374   5.339   3.708   6.072
 4492SOL    HW114375   5.393   3.761   6.006
 4492SOL    HW214376   5.244   3.703   6.042
 4493SOL     OW14377   6.279   4.493   3.046
 4493SOL    HW114378   6.311   4.546   3.125
 4493SOL    HW214379   6.219   4.549   2.990
 4494SOL     OW14380   5.203   2.064   1.909
 4494SOL    HW114381   5.181   2.082   1.814
 4494SOL    HW214382   5.213   1.966   1.924
 4495SOL     OW14383   5.598   5.198   1.606
 4495SOL    HW114384   5.642   5.155   1.685
 4495SOL    HW214385   5.507   5.232   1.632
 4496SOL     OW14386   6.105   3.318   5.974
 4496SOL    HW114387   6.151   3.302   6.061
 4496SOL    HW214388   6.025   3.260   5.967
 4497SOL     OW14389   6.937   6.087   1.135
 4497SOL    HW114390   6.867   6.145   1.093
 4497SOL    HW214391   6.899   5.995   1.149
 4498SOL     OW14392   1.233   3.920   6.286
 4498SOL    HW114393   1.155   3.857   6.284
 4498SOL    HW214394   1.242   3.959   6.378
 4499SOL     OW14395   5.513   3.918   0.669
 4499SOL    HW114396   5.415   3.900   0.666
 4499SOL    HW214397   5.539   3.978   0.593
 4500SOL     OW14398   3.785   4.045   2.193
 4500SOL    HW114399   3.873   4.011   2.227
 4500SOL    HW214400   3.794   4.066   2.095
 4501SOL     OW14401   1.272   5.205   4.942
 4501SOL    HW114402   1.250   5.293   4.984
 4501SOL    HW214403   1.281   5.135   5.012
 4502SOL     OW14404   5.403   2.687   0.301
 4502SOL    HW114405   5.391   2.782   0.330
 4502SOL    HW214406   5.364   2.674   0.210
 4503SOL     OW14407   0.993   3.114   2.546
 4503SOL    HW114408   1.026   3.108   2.640
 4503SOL    HW214409   0.915   3.052   2.533
 4504SOL     OW14410   4.308   2.348   4.284
 4504SOL    HW114411   4.273   2.341   4.191
 4504SOL    HW214412   4.234   2.334   4.349
 4505SOL     OW14413   2.410   5.178   0.527
 4505SOL    HW114414   2.344   5.205   0.457
 4505SOL    HW214415   2.501   5.173   0.486
 4506SOL     OW14416   3.457   0.038   5.836
 4506SOL    HW114417   3.456   0.052   5.737
 4506SOL    HW214418   3.548   0.009   5.865
 4507SOL     OW14419   6.407   3.790   2.316
 4507SOL    HW114420   6.449   3.867   2.269
 4507SOL    HW214421   6.446   3.781   2.408
 4508SOL     OW14422   1.940   4.128   0.500
 4508SOL    HW114423   2.012   4.111   0.433
 4508SOL    HW214424   1.980   4.169   0.582
 4509SOL     OW14425   0.950   2.586   3.198
 4509SOL    HW114426   0.897   2.504   3.177
 4509SOL    HW214427   0.918   2.626   3.284
 4510SOL     OW14428   2.663   6.605   6.598
 4510SOL    HW114429   2.583   6.560   6.638
 4510SOL    HW214430   2.660   6.595   6.499
 4511SOL     OW14431   0.413   2.391   0.119
 4511SOL    HW114432   0.378   2.364   0.209
 4511SOL    HW214433   0.479   2.466   0.131
 4512SOL     OW14434   2.551   4.362   0.157
 4512SOL    HW114435   2.484   4.349   0.083
 4512SOL    HW214436   2.594   4.451   0.148
 4513SOL     OW14437   6.635   1.642   3.028
 4513SOL    HW114438   6.556   1.701   3.043
 4513SOL    HW214439   6.716   1.699   3.015
 4514SOL     OW14440   2.517   0.383   4.782
 4514SOL    HW114441   2.577   0.414   4.708
 4514SOL    HW214442   2.441   0.331   4.742
 4515SOL     OW14443   0.060   5.043   0.304
 4515SOL    HW114444   7.011   5.002   0.358
 4515SOL    HW214445   0.052   5.014   0.209
 4516SOL     OW14446   0.534   0.098   3.795
 4516SOL    HW114447   0.593   0.086   3.715
 4516SOL    HW214448   0.551   0.024   3.860
 4517SOL     OW14449   2.801   1.182   6.524
 4517SOL    HW114450   2.878   1.203   6.463
 4517SOL    HW214451   2.724   1.242   6.501
 4518SOL     OW14452   1.535   0.502   3.434
 4518SOL    HW114453   1.593   0.436   3.386
 4518SOL    HW214454   1.509   0.465   3.523
 4519SOL     OW14455   6.956   2.171   4.892
 4519SOL    HW114456   7.003   2.207   4.812
 4519SOL    HW214457   6.946   2.244   4.960
 4520SOL     OW14458   6.795   3.350   2.967
 4520SOL    HW114459   6.808   3.413   3.043
 4520SOL    HW214460   6.827   3.392   2.882
 4521SOL     OW14461   5.132   1.706   6.340
 4521SOL    HW114462   5.224   1.676   6.317
 4521SOL    HW214463   5.136   1.768   6.419
 4522SOL     OW14464   5.535   6.978   3.484
 4522SOL    HW114465   5.574   6.937   3.402
 4522SOL    HW214466   5.435   6.982   3.475
 4523SOL     OW14467   4.765   1.861   5.847
 4523SOL    HW114468   4.782   1.936   5.911
 4523SOL    HW214469   4.671   1.865   5.814
 4524SOL     OW14470   5.877   0.473   5.612
 4524SOL    HW114471   5.913   0.463   5.705
 4524SOL    HW214472   5.945   0.443   5.546
 4525SOL     OW14473   6.701   1.225   4.090
 4525SOL    HW114474   6.771   1.210   4.159
 4525SOL    HW214475   6.614   1.188   4.123
 4526SOL     OW14476   2.772   1.808   1.378
 4526SOL    HW114477   2.747   1.725   1.429
 4526SOL    HW214478   2.834   1.863   1.434
 4527SOL     OW14479   4.464   6.355   3.805
 4527SOL    HW114480   4.443   6.351   3.708
 4527SOL    HW214481   4.386   6.323   3.858
 4528SOL     OW14482   4.423   0.365   6.184
 4528SOL    HW114483   4.397   0.417   6.265
 4528SOL    HW214484   4.350   0.302   6.159
 4529SOL     OW14485   3.230   6.992   3.953
 4529SOL    HW114486   3.313   6.950   3.989
 4529SOL    HW214487   3.212   0.051   4.003
 4530SOL     OW14488   6.322   2.630   4.082
 4530SOL    HW114489   6.384   2.551   4.078
 4530SOL    HW214490   6.363   2.701   4.141
 4531SOL     OW14491   0.560   3.967   3.844
 4531SOL    HW114492   0.475   3.951   3.794
 4531SOL    HW214493   0.539   3.984   3.940
 4532SOL     OW14494   0.722   2.590   0.369
 4532SOL    HW114495   0.641   2.532   0.369
 4532SOL    HW214496   0.717   2.655   0.293
 4533SOL     OW14497   3.516   6.518   2.009
 4533SOL    HW114498   3.554   6.610   2.014
 4533SOL    HW214499   3.536   6.469   2.093
 4534SOL     OW14500   6.609   3.908   5.884
 4534SOL    HW114501   6.603   3.910   5.984
 4534SOL    HW214502   6.523   3.873   5.846
 4535SOL     OW14503   5.256   2.165   2.725
 4535SOL    HW114504   5.349   2.136   2.747
 4535SOL    HW214505   5.206   2.184   2.809
 4536SOL     OW14506   6.936   6.968   3.512
 4536SOL    HW114507   6.907   0.033   3.482
 4536SOL    HW214508   0.006   6.972   3.541
 4537SOL     OW14509   4.704   3.304   5.600
 4537SOL    HW114510   4.674   3.280   5.507
 4537SOL    HW214511   4.757   3.228   5.638
 4538SOL     OW14512   3.342   2.249   1.809
 4538SOL    HW114513   3.308   2.336   1.772
 4538SOL    HW214514   3.436   2.262   1.841
 4539SOL     OW14515   2.271   3.009   1.565
 4539SOL    HW114516   2.238   3.038   1.656
 4539SOL    HW214517   2.259   3.084   1.500
 4540SOL     OW14518   3.193   2.957   4.851
 4540SOL    HW114519   3.194   2.857   4.857
 4540SOL    HW214520   3.161   2.984   4.760
 4541SOL     OW14521   6.067   1.575   1.596
 4541SOL    HW114522   6.147   1.531   1.637
 4541SOL    HW214523   6.076   1.674   1.604
 4542SOL     OW14524   5.204   6.618   3.273
 4542SOL    HW114525   5.256   6.665   3.202
 4542SOL    HW214526   5.131   6.678   3.306
 4543SOL     OW14527   5.768   2.576   2.368
 4543SOL    HW114528   5.860   2.536   2.361
 4543SOL    HW214529   5.765   2.662   2.317
 4544SOL     OW14530   5.650   4.871   6.521
 4544SOL    HW114531   5.729   4.855   6.582
 4544SOL    HW214532   5.589   4.791   6.525
 4545SOL     OW14533   3.613   3.869   6.516
 4545SOL    HW114534   3.713   3.860   6.513
 4545SOL    HW214535   3.581   3.916   6.434
 4546SOL     OW14536   0.489   6.086   0.074
 4546SOL    HW114537   0.390   6.087   0.065
 4546SOL    HW214538   0.523   5.993   0.064
 4547SOL     OW14539   4.407   1.441   2.916
 4547SOL    HW114540   4.380   1.345   2.913
 4547SOL    HW214541   4.475   1.460   2.845
 4548SOL     OW14542   0.714   3.241   4.165
 4548SOL    HW114543   0.733   3.339   4.171
 4548SOL    HW214544   0.794   3.189   4.192
 4549SOL     OW14545   5.777   1.639   2.315
 4549SOL    HW114546   5.842   1.642   2.390
 4549SOL    HW214547   5.815   1.585   2.240
 4550SOL     OW14548   2.032   5.031   4.897
 4550SOL    HW114549   2.072   5.104   4.953
 4550SOL    HW214550   1.932   5.044   4.892
 4551SOL     OW14551   6.418   3.720   0.622
 4551SOL    HW114552   6.351   3.694   0.553
 4551SOL    HW214553   6.458   3.637   0.662
 4552SOL     OW14554   6.746   3.054   4.778
 4552SOL    HW114555   6.659   3.012   4.799
 4552SOL    HW214556   6.795   3.076   4.862
 4553SOL     OW14557   5.336   4.739   6.719
 4553SOL    HW114558   5.319   4.645   6.748
 4553SOL    HW214559   5.415   4.776   6.768
 4554SOL     OW14560   6.163   6.461   3.744
 4554SOL    HW114561   6.132   6.505   3.659
 4554SOL    HW214562   6.210   6.529   3.801
 4555SOL     OW14563   3.967   3.259   0.270
 4555SOL    HW114564   3.877   3.272   0.313
 4555SOL    HW214565   3.994   3.163   0.278
 4556SOL     OW14566   4.517   0.494   5.318
 4556SOL    HW114567   4.535   0.592   5.322
 4556SOL    HW214568   4.599   0.446   5.287
 4557SOL     OW14569   5.489   1.423   4.448
 4557SOL    HW114570   5.514   1.373   4.364
 4557SOL    HW214571   5.391   1.413   4.464
 4558SOL     OW14572   0.156   2.996   6.395
 4558SOL    HW114573   0.168   3.089   6.429
 4558SOL    HW214574   0.217   2.934   6.445
 4559SOL     OW14575   1.304   6.345   1.224
 4559SOL    HW114576   1.241   6.410   1.269
 4559SOL    HW214577   1.370   6.311   1.291
 4560SOL     OW14578   5.635   2.933   2.450
 4560SOL    HW114579   5.649   2.905   2.355
 4560SOL    HW214580   5.676   2.865   2.511
 4561SOL     OW14581   3.421   6.379   6.477
 4561SOL    HW114582   3.389   6.371   6.382
 4561SOL    HW214583   3.343   6.370   6.539
 4562SOL     OW14584   2.664   4.336   6.046
 4562SOL    HW114585   2.652   4.393   5.965
 4562SOL    HW214586   2.588   4.271   6.053
 4563SOL     OW14587   5.879   2.753   0.003
 4563SOL    HW114588   5.909   2.770   0.097
 4563SOL    HW214589   5.916   2.824   6.968
 4564SOL     OW14590   0.130   5.356   0.262
 4564SOL    HW114591   0.142   5.258   0.247
 4564SOL    HW214592   0.211   5.393   0.307
 4565SOL     OW14593   3.072   1.206   3.807
 4565SOL    HW114594   3.131   1.186   3.886
 4565SOL    HW214595   3.000   1.138   3.802
 4566SOL     OW14596   1.767   0.798   0.727
 4566SOL    HW114597   1.823   0.872   0.764
 4566SOL    HW214598   1.701   0.768   0.796
 4567SOL     OW14599   5.775   1.919   0.532
 4567SOL    HW114600   5.832   1.997   0.506
 4567SOL    HW214601   5.710   1.899   0.459
 4568SOL     OW14602   4.581   4.999   4.020
 4568SOL    HW114603   4.561   5.074   4.082
 4568SOL    HW214604   4.500   4.941   4.010
 4569SOL     OW14605   1.215   2.007   4.022
 4569SOL    HW114606   1.132   2.059   4.007
 4569SOL    HW214607   1.202   1.943   4.099
 4570SOL     OW14608   5.332   5.715   4.767
 4570SOL    HW114609   5.315   5.624   4.805
 4570SOL    HW214610   5.296   5.784   4.829
 4571SOL     OW14611   4.007   3.126   3.956
 4571SOL    HW114612   3.973   3.054   4.017
 4571SOL    HW214613   4.003   3.093   3.861
 4572SOL     OW14614   2.722   5.275   1.241
 4572SOL    HW114615   2.698   5.186   1.202
 4572SOL    HW214616   2.657   5.297   1.315
 4573SOL     OW14617   5.153   0.260   1.354
 4573SOL    HW114618   5.126   0.329   1.421
 4573SOL    HW214619   5.096   0.270   1.272
 4574SOL     OW14620   0.309   4.364   1.872
 4574SOL    HW114621   0.273   4.438   1.815
 4574SOL    HW214622   0.239   4.293   1.882
 4575SOL     OW14623   6.815   6.163   1.968
 4575SOL    HW114624   6.779   6.236   2.025
 4575SOL    HW214625   6.740   6.106   1.934
 4576SOL     OW14626   3.216   6.420   4.017
 4576SOL    HW114627   3.295   6.468   4.054
 4576SOL    HW214628   3.209   6.439   3.919
 4577SOL     OW14629   2.083   3.683   3.746
 4577SOL    HW114630   2.132   3.756   3.794
 4577SOL    HW214631   2.124   3.670   3.656
 4578SOL     OW14632   6.611   5.960   3.507
 4578SOL    HW114633   6.640   6.033   3.445
 4578SOL    HW214634   6.511   5.955   3.509
 4579SOL     OW14635   4.855   1.555   3.691
 4579SOL    HW114636   4.771   1.575   3.641
 4579SOL    HW214637   4.851   1.461   3.725
 4580SOL     OW14638   0.560   5.466   6.525
 4580SOL    HW114639   0.508   5.414   6.457
 4580SOL    HW214640   0.640   5.506   6.481
 4581SOL     OW14641   3.362   5.798   4.834
 4581SOL    HW114642   3.421   5.742   4.892
 4581SOL    HW214643   3.289   5.839   4.889
 4582SOL     OW14644   5.004   6.776   3.309
 4582SOL    HW114645   4.967   6.797   3.399
 4582SOL    HW214646   5.050   6.857   3.272
 4583SOL     OW14647   3.414   0.058   5.553
 4583SOL    HW114648   3.467   7.015   5.502
 4583SOL    HW214649   3.402   0.140   5.497
 4584SOL     OW14650   6.961   5.179   5.302
 4584SOL    HW114651   6.882   5.156   5.359
 4584SOL    HW214652   6.952   5.273   5.268
 4585SOL     OW14653   3.125   6.351   2.213
 4585SOL    HW114654   3.170   6.274   2.167
 4585SOL    HW214655   3.105   6.326   2.308
 4586SOL     OW14656   2.502   6.142   1.474
 4586SOL    HW114657   2.549   6.053   1.477
 4586SOL    HW214658   2.569   6.215   1.482
 4587SOL     OW14659   2.799   4.989   0.760
 4587SOL    HW114660   2.841   5.075   0.730
 4587SOL    HW214661   2.715   4.974   0.709
 4588SOL     OW14662   3.629   4.210   5.056
 4588SOL    HW114663   3.576   4.256   5.127
 4588SOL    HW214664   3.725   4.239   5.062
 4589SOL     OW14665   1.719   2.084   3.694
 4589SOL    HW114666   1.801   2.106   3.746
 4589SOL    HW214667   1.715   2.142   3.613
 4590SOL     OW14668   3.909   6.517   2.961
 4590SOL    HW114669   3.989   6.464   2.933
 4590SOL    HW214670   3.937   6.592   3.020
 4591SOL     OW14671   5.055   5.838   4.786
 4591SOL    HW114672   5.100   5.820   4.698
 4591SOL    HW214673   5.084   5.927   4.821
 4592SOL     OW14674   3.477   1.752   5.783
 4592SOL    HW114675   3.539   1.691   5.734
 4592SOL    HW214676   3.419   1.698   5.844
 4593SOL     OW14677   4.664   6.480   1.838
 4593SOL    HW114678   4.591   6.492   1.906
 4593SOL    HW214679   4.685   6.569   1.795
 4594SOL     OW14680   4.087   2.171   2.526
 4594SOL    HW114681   4.113   2.089   2.577
 4594SOL    HW214682   4.008   2.214   2.569
 4595SOL     OW14683   4.281   3.547   5.886
 4595SOL    HW114684   4.292   3.535   5.984
 4595SOL    HW214685   4.371   3.563   5.844
 4596SOL     OW14686   4.828   0.464   2.678
 4596SOL    HW114687   4.818   0.453   2.579
 4596SOL    HW214688   4.796   0.381   2.724
 4597SOL     OW14689   6.579   3.569   5.639
 4597SOL    HW114690   6.674   3.576   5.668
 4597SOL    HW214691   6.521   3.617   5.705
 4598SOL     OW14692   2.520   4.305   6.632
 4598SOL    HW114693   2.560   4.270   6.548
 4598SOL    HW214694   2.559   4.257   6.711
 4599SOL     OW14695   3.178   5.381   0.249
 4599SOL    HW114696   3.126   5.315   0.305
 4599SOL    HW214697   3.240   5.331   0.189
 4600SOL     OW14698   2.712   3.789   0.766
 4600SOL    HW114699   2.630   3.732   0.759
 4600SOL    HW214700   2.764   3.764   0.847
 4601SOL     OW14701   2.158   5.137   3.892
 4601SOL    HW114702   2.211   5.201   3.948
 4601SOL    HW214703   2.061   5.153   3.905
 4602SOL     OW14704   1.572   6.741   1.494
 4602SOL    HW114705   1.569   6.804   1.572
 4602SOL    HW214706   1.657   6.754   1.444
 4603SOL     OW14707   2.880   1.421   1.890
 4603SOL    HW114708   2.797   1.375   1.860
 4603SOL    HW214709   2.947   1.354   1.921
 4604SOL     OW14710   1.367   0.355   3.138
 4604SOL    HW114711   1.446   0.355   3.200
 4604SOL    HW214712   1.383   0.420   3.064
 4605SOL     OW14713   5.441   6.308   5.625
 4605SOL    HW114714   5.472   6.350   5.711
 4605SOL    HW214715   5.520   6.275   5.574
 4606SOL     OW14716   6.451   6.631   4.286
 4606SOL    HW114717   6.462   6.675   4.375
 4606SOL    HW214718   6.371   6.669   4.240
 4607SOL     OW14719   3.061   3.132   0.899
 4607SOL    HW114720   3.027   3.049   0.854
 4607SOL    HW214721   3.041   3.128   0.997
 4608SOL     OW14722   1.205   3.345   5.680
 4608SOL    HW114723   1.280   3.407   5.703
 4608SOL    HW214724   1.236   3.250   5.688
 4609SOL     OW14725   3.020   0.226   0.537
 4609SOL    HW114726   3.071   0.244   0.622
 4609SOL    HW214727   3.053   0.142   0.495
 4610SOL     OW14728   6.733   3.682   0.034
 4610SOL    HW114729   6.652   3.713   0.084
 4610SOL    HW214730   6.741   3.735   6.974
 4611SOL     OW14731   1.664   4.931   6.567
 4611SOL    HW114732   1.635   4.912   6.660
 4611SOL    HW214733   1.708   4.849   6.528
 4612SOL     OW14734   1.816   0.549   6.394
 4612SOL    HW114735   1.908   0.510   6.390
 4612SOL    HW214736   1.822   0.646   6.418
 4613SOL     OW14737   3.664   5.157   1.415
 4613SOL    HW114738   3.742   5.128   1.469
 4613SOL    HW214739   3.641   5.087   1.348
 4614SOL     OW14740   2.105   4.805   6.741
 4614SOL    HW114741   2.151   4.746   6.675
 4614SOL    HW214742   2.167   4.878   6.770
 4615SOL     OW14743   6.126   3.040   6.526
 4615SOL    HW114744   6.157   3.102   6.455
 4615SOL    HW214745   6.075   3.091   6.596
 4616SOL     OW14746   5.580   1.363   6.691
 4616SOL    HW114747   5.640   1.285   6.706
 4616SOL    HW214748   5.543   1.358   6.598
 4617SOL     OW14749   7.024   3.907   1.611
 4617SOL    HW114750   0.051   3.895   1.527
 4617SOL    HW214751   0.056   3.950   1.681
 4618SOL     OW14752   0.986   3.310   6.596
 4618SOL    HW114753   0.933   3.392   6.618
 4618SOL    HW214754   1.022   3.318   6.503
 4619SOL     OW14755   4.048   0.691   3.764
 4619SOL    HW114756   4.083   0.632   3.837
 4619SOL    HW214757   4.120   0.754   3.735
 4620SOL     OW14758   2.097   6.051   0.380
 4620SOL    HW114759   2.149   5.992   0.318
 4620SOL    HW214760   2.045   5.995   0.444
 4621SOL     OW14761   6.659   0.564   6.618
 4621SOL    HW114762   6.653   0.555   6.518
 4621SOL    HW214763   6.576   0.608   6.652
 4622SOL     OW14764   1.744   4.020   0.363
 4622SOL    HW114765   1.817   4.054   0.422
 4622SOL    HW214766   1.675   3.973   0.419
 4623SOL     OW14767   5.469   3.756   3.227
 4623SOL    HW114768   5.370   3.754   3.236
 4623SOL    HW214769   5.502   3.849   3.243
 4624SOL     OW14770   4.433   6.638   5.938
 4624SOL    HW114771   4.454   6.728   5.900
 4624SOL    HW214772   4.338   6.636   5.969
 4625SOL     OW14773   1.414   3.754   6.439
 4625SOL    HW114774   1.428   3.757   6.340
 4625SOL    HW214775   1.348   3.682   6.461
 4626SOL     OW14776   5.576   4.338   2.188
 4626SOL    HW114777   5.652   4.280   2.162
 4626SOL    HW214778   5.550   4.318   2.283
 4627SOL     OW14779   2.111   0.012   4.832
 4627SOL    HW114780   2.075   6.967   4.771
 4627SOL    HW214781   2.198   7.006   4.872
 4628SOL     OW14782   6.521   3.011   1.805
 4628SOL    HW114783   6.578   2.961   1.869
 4628SOL    HW214784   6.572   3.088   1.768
 4629SOL     OW14785   4.351   5.526   4.449
 4629SOL    HW114786   4.420   5.466   4.489
 4629SOL    HW214787   4.360   5.618   4.488
 4630SOL     OW14788   2.490   6.180   2.555
 4630SOL    HW114789   2.469   6.231   2.472
 4630SOL    HW214790   2.436   6.216   2.631
 4631SOL     OW14791   2.015   1.136   3.127
 4631SOL    HW114792   1.942   1.193   3.163
 4631SOL    HW214793   2.039   1.166   3.035
 4632SOL     OW14794   5.375   6.301   4.222
 4632SOL    HW114795   5.426   6.304   4.308
 4632SOL    HW214796   5.379   6.209   4.185
 4633SOL     OW14797   5.218   2.816   5.674
 4633SOL    HW114798   5.316   2.819   5.654
 4633SOL    HW214799   5.177   2.904   5.651
 4634SOL     OW14800   2.928   4.394   0.044
 4634SOL    HW114801   2.903   4.384   6.973
 4634SOL    HW214802   2.859   4.449   0.090
 4635SOL     OW14803   5.001   3.470   1.553
 4635SOL    HW114804   4.950   3.502   1.633
 4635SOL    HW214805   4.956   3.504   1.470
 4636SOL     OW14806   0.487   5.092   1.856
 4636SOL    HW114807   0.549   5.132   1.789
 4636SOL    HW214808   0.398   5.075   1.813
 4637SOL     OW14809   1.216   0.701   5.461
 4637SOL    HW114810   1.222   0.752   5.375
 4637SOL    HW214811   1.232   0.764   5.537
 4638SOL     OW14812   4.196   4.795   5.777
 4638SOL    HW114813   4.147   4.765   5.695
 4638SOL    HW214814   4.229   4.715   5.827
 4639SOL     OW14815   6.755   1.989   5.234
 4639SOL    HW114816   6.821   1.950   5.299
 4639SOL    HW214817   6.716   2.073   5.272
 4640SOL     OW14818   6.216   5.081   3.068
 4640SOL    HW114819   6.230   5.128   3.155
 4640SOL    HW214820   6.303   5.042   3.036
 4641SOL     OW14821   2.450   3.574   5.490
 4641SOL    HW114822   2.384   3.565   5.415
 4641SOL    HW214823   2.520   3.641   5.464
 4642SOL     OW14824   5.811   5.769   3.966
 4642SOL    HW114825   5.816   5.669   3.968
 4642SOL    HW214826   5.717   5.797   3.953
 4643SOL     OW14827   4.537   3.532   1.226
 4643SOL    HW114828   4.463   3.534   1.158
 4643SOL    HW214829   4.560   3.438   1.249
 4644SOL     OW14830   3.683   4.656   5.592
 4644SOL    HW114831   3.621   4.594   5.545
 4644SOL    HW214832   3.662   4.658   5.689
 4645SOL     OW14833   1.657   6.133   4.827
 4645SOL    HW114834   1.661   6.054   4.766
 4645SOL    HW214835   1.647   6.102   4.922
 4646SOL     OW14836   3.372   0.570   0.649
 4646SOL    HW114837   3.407   0.651   0.602
 4646SOL    HW214838   3.326   0.598   0.733
 4647SOL     OW14839   6.648   0.347   5.276
 4647SOL    HW114840   6.622   0.406   5.353
 4647SOL    HW214841   6.747   0.343   5.269
 4648SOL     OW14842   2.077   6.143   3.424
 4648SOL    HW114843   2.059   6.093   3.509
 4648SOL    HW214844   2.093   6.240   3.444
 4649SOL     OW14845   5.900   6.438   5.682
 4649SOL    HW114846   5.879   6.519   5.737
 4649SOL    HW214847   5.952   6.373   5.737
 4650SOL     OW14848   6.506   4.581   1.379
 4650SOL    HW114849   6.472   4.610   1.290
 4650SOL    HW214850   6.600   4.548   1.370
 4651SOL     OW14851   6.160   2.243   1.936
 4651SOL    HW114852   6.176   2.341   1.944
 4651SOL    HW214853   6.223   2.205   1.868
 4652SOL     OW14854   0.213   6.385   5.271
 4652SOL    HW114855   0.237   6.475   5.235
 4652SOL    HW214856   0.238   6.314   5.206
 4653SOL     OW14857   0.865   4.820   0.077
 4653SOL    HW114858   0.854   4.842   0.173
 4653SOL    HW214859   0.804   4.877   0.022
 4654SOL     OW14860   1.350   1.845   0.343
 4654SOL    HW114861   1.266   1.798   0.370
 4654SOL    HW214862   1.429   1.785   0.359
 4655SOL     OW14863   0.283   4.813   4.097
 4655SOL    HW114864   0.274   4.736   4.033
 4655SOL    HW214865   0.378   4.819   4.127
 4656SOL     OW14866   2.691   0.188   3.107
 4656SOL    HW114867   2.772   0.133   3.127
 4656SOL    HW214868   2.719   0.277   3.072
 4657SOL     OW14869   6.141   1.098   6.188
 4657SOL    HW114870   6.121   1.073   6.093
 4657SOL    HW214871   6.140   1.016   6.244
 4658SOL     OW14872   5.294   0.364   3.581
 4658SOL    HW114873   5.228   0.353   3.507
 4658SOL    HW214874   5.345   0.449   3.568
 4659SOL     OW14875   1.832   3.232   4.717
 4659SOL    HW114876   1.795   3.301   4.780
 4659SOL    HW214877   1.882   3.278   4.643
 4660SOL     OW14878   6.505   1.355   5.424
 4660SOL    HW114879   6.429   1.330   5.363
 4660SOL    HW214880   6.569   1.279   5.431
 4661SOL     OW14881   3.888   2.990   3.744
 4661SOL    HW114882   3.885   3.036   3.655
 4661SOL    HW214883   3.833   2.907   3.741
 4662SOL     OW14884   6.214   6.269   4.040
 4662SOL    HW114885   6.208   6.227   4.130
 4662SOL    HW214886   6.193   6.201   3.970
 4663SOL     OW14887   0.703   2.403   2.396
 4663SOL    HW114888   0.677   2.423   2.301
 4663SOL    HW214889   0.721   2.306   2.406
 4664SOL     OW14890   3.573   4.382   6.983
 4664SOL    HW114891   3.520   4.311   6.936
 4664SOL    HW214892   3.645   4.415   6.921
 4665SOL     OW14893   5.730   0.174   5.778
 4665SOL    HW114894   5.658   0.235   5.809
 4665SOL    HW214895   5.726   0.089   5.830
 4666SOL     OW14896   1.745   1.303   0.354
 4666SOL    HW114897   1.790   1.250   0.426
 4666SOL    HW214898   1.813   1.361   0.309
 4667SOL     OW14899   0.823   6.335   4.234
 4667SOL    HW114900   0.880   6.299   4.308
 4667SOL    HW214901   0.850   6.294   4.147
 4668SOL     OW14902   5.191   0.602   5.054
 4668SOL    HW114903   5.237   0.682   5.015
 4668SOL    HW214904   5.112   0.632   5.107
 4669SOL     OW14905   2.261   1.898   2.151
 4669SOL    HW114906   2.337   1.952   2.115
 4669SOL    HW214907   2.178   1.918   2.099
 4670SOL     OW14908   1.965   1.633   4.474
 4670SOL    HW114909   1.902   1.711   4.476
 4670SOL    HW214910   1.997   1.618   4.380
 4671SOL     OW14911   6.039   2.043   2.666
 4671SOL    HW114912   6.061   2.132   2.707
 4671SOL    HW214913   5.978   2.058   2.588
 4672SOL     OW14914   2.839   2.279   5.179
 4672SOL    HW114915   2.843   2.180   5.191
 4672SOL    HW214916   2.914   2.308   5.119
 4673SOL     OW14917   5.285   0.357   2.248
 4673SOL    HW114918   5.360   0.364   2.314
 4673SOL    HW214919   5.212   0.420   2.274
 4674SOL     OW14920   4.693   6.382   5.028
 4674SOL    HW114921   4.602   6.383   5.069
 4674SOL    HW214922   4.703   6.301   4.971
 4675SOL     OW14923   0.856   4.714   6.817
 4675SOL    HW114924   0.909   4.682   6.896
 4675SOL    HW214925   0.759   4.693   6.831
 4676SOL     OW14926   1.144   4.322   4.057
 4676SOL    HW114927   1.141   4.377   3.974
 4676SOL    HW214928   1.114   4.229   4.036
 4677SOL     OW14929   1.254   3.491   0.678
 4677SOL    HW114930   1.216   3.432   0.606
 4677SOL    HW214931   1.274   3.581   0.639
 4678SOL     OW14932   1.054   2.822   1.398
 4678SOL    HW114933   1.090   2.854   1.486
 4678SOL    HW214934   1.067   2.893   1.329
 4679SOL     OW14935   4.473   0.446   2.585
 4679SOL    HW114936   4.464   0.473   2.681
 4679SOL    HW214937   4.429   0.514   2.526
 4680SOL     OW14938   2.160   0.994   6.474
 4680SOL    HW114939   2.157   1.030   6.381
 4680SOL    HW214940   2.171   1.070   6.539
 4681SOL     OW14941   4.626   5.651   2.627
 4681SOL    HW114942   4.636   5.567   2.681
 4681SOL    HW214943   4.580   5.721   2.683
 4682SOL     OW14944   3.302   3.383   6.154
 4682SOL    HW114945   3.326   3.294   6.194
 4682SOL    HW214946   3.252   3.368   6.068
 4683SOL     OW14947   6.721   4.384   3.819
 4683SOL    HW114948   6.726   4.287   3.794
 4683SOL    HW214949   6.732   4.393   3.918
 4684SOL     OW14950   5.780   0.186   5.507
 4684SOL    HW114951   5.744   0.170   5.599
 4684SOL    HW214952   5.756   0.278   5.477
 4685SOL     OW14953   3.059   3.967   4.704
 4685SOL    HW114954   3.142   3.986   4.652
 4685SOL    HW214955   3.062   4.015   4.791
 4686SOL     OW14956   1.746   6.971   6.922
 4686SOL    HW114957   1.682   6.896   6.907
 4686SOL    HW214958   1.782   6.965   7.016
 4687SOL     OW14959   1.718   0.755   2.750
 4687SOL    HW114960   1.654   0.831   2.768
 4687SOL    HW214961   1.812   0.787   2.764
 4688SOL     OW14962   4.871   2.885   5.019
 4688SOL    HW114963   4.849   2.912   4.925
 4688SOL    HW214964   4.954   2.932   5.048
 4689SOL     OW14965   6.735   1.055   1.155
 4689SOL    HW114966   6.775   1.132   1.205
 4689SOL    HW214967   6.786   0.972   1.176
 4690SOL     OW14968   3.581   2.431   0.802
 4690SOL    HW114969   3.511   2.478   0.748
 4690SOL    HW214970   3.539   2.362   0.860
 4691SOL     OW14971   6.559   3.891   1.911
 4691SOL    HW114972   6.566   3.990   1.924
 4691SOL    HW214973   6.501   3.853   1.983
 4692SOL     OW14974   5.128   3.080   2.328
 4692SOL    HW114975   5.144   2.981   2.331
 4692SOL    HW214976   5.201   3.128   2.376
 4693SOL     OW14977   0.384   0.147   3.352
 4693SOL    HW114978   0.455   0.136   3.282
 4693SOL    HW214979   0.294   0.154   3.308
 4694SOL     OW14980   2.236   6.745   5.924
 4694SOL    HW114981   2.197   6.654   5.909
 4694SOL    HW214982   2.175   6.814   5.886
 4695SOL     OW14983   1.945   5.066   2.337
 4695SOL    HW114984   1.953   4.988   2.275
 4695SOL    HW214985   1.893   5.038   2.418
 4696SOL     OW14986   1.645   6.359   5.884
 4696SOL    HW114987   1.596   6.305   5.953
 4696SOL    HW214988   1.690   6.298   5.819
 4697SOL     OW14989   4.442   5.569   0.775
 4697SOL    HW114990   4.478   5.475   0.774
 4697SOL    HW214991   4.491   5.624   0.709
 4698SOL     OW14992   5.565   1.166   4.620
 4698SOL    HW114993   5.554   1.097   4.549
 4698SOL    HW214994   5.529   1.253   4.588
 4699SOL     OW14995   0.945   1.262   2.778
 4699SOL    HW114996   1.041   1.276   2.802
 4699SOL    HW214997   0.939   1.193   2.705
 4700SOL     OW14998   6.523   1.936   3.448
 4700SOL    HW114999   6.590   2.008   3.432
 4700SOL    HW215000   6.471   1.919   3.363
 4701SOL     OW15001   3.166   2.733   1.746
 4701SOL    HW115002   3.067   2.741   1.754
 4701SOL    HW215003   3.200   2.795   1.676
 4702SOL     OW15004   6.358   5.096   0.903
 4702SOL    HW115005   6.277   5.152   0.886
 4702SOL    HW215006   6.377   5.094   1.001
 4703SOL     OW15007   0.371   5.124   3.910
 4703SOL    HW115008   0.378   5.065   3.991
 4703SOL    HW215009   0.408   5.214   3.931
 4704SOL     OW15010   1.778   4.717   4.475
 4704SOL    HW115011   1.817   4.657   4.545
 4704SOL    HW215012   1.778   4.670   4.387
 4705SOL     OW15013   3.181   2.079   1.922
 4705SOL    HW115014   3.249   2.147   1.895
 4705SOL    HW215015   3.109   2.076   1.853
 4706SOL     OW15016   1.986   1.995   1.042
 4706SOL    HW115017   1.948   1.904   1.026
 4706SOL    HW215018   1.912   2.063   1.039
 4707SOL     OW15019   1.988   5.321   2.003
 4707SOL    HW115020   1.957   5.416   1.997
 4707SOL    HW215021   2.041   5.298   1.922
 4708SOL     OW15022   2.086   2.968   6.078
 4708SOL    HW115023   2.113   2.893   6.139
 4708SOL    HW215024   2.109   3.056   6.121
 4709SOL     OW15025   5.717   4.301   5.364
 4709SOL    HW115026   5.631   4.278   5.410
 4709SOL    HW215027   5.704   4.292   5.265
 4710SOL     OW15028   5.746   5.276   5.415
 4710SOL    HW115029   5.756   5.359   5.359
 4710SOL    HW215030   5.836   5.235   5.431
 4711SOL     OW15031   5.010   4.351   2.783
 4711SOL    HW115032   4.952   4.362   2.702
 4711SOL    HW215033   4.958   4.305   2.855
 4712SOL     OW15034   3.951   4.454   5.887
 4712SOL    HW115035   3.949   4.502   5.799
 4712SOL    HW215036   3.860   4.458   5.929
 4713SOL     OW15037   5.499   4.561   0.869
 4713SOL    HW115038   5.533   4.515   0.951
 4713SOL    HW215039   5.566   4.552   0.796
 4714SOL     OW15040   4.400   1.737   5.871
 4714SOL    HW115041   4.304   1.759   5.888
 4714SOL    HW215042   4.452   1.747   5.955
 4715SOL     OW15043   6.664   1.937   2.385
 4715SOL    HW115044   6.651   2.032   2.357
 4715SOL    HW215045   6.748   1.929   2.438
 4716SOL     OW15046   3.364   4.384   5.650
 4716SOL    HW115047   3.281   4.440   5.648
 4716SOL    HW215048   3.343   4.291   5.621
 4717SOL     OW15049   2.099   5.081   5.915
 4717SOL    HW115050   2.094   5.004   5.851
 4717SOL    HW215051   2.007   5.106   5.945
 4718SOL     OW15052   4.890   3.963   2.212
 4718SOL    HW115053   4.919   3.921   2.126
 4718SOL    HW215054   4.852   4.054   2.194
 4719SOL     OW15055   5.905   4.336   3.961
 4719SOL    HW115056   5.916   4.248   4.006
 4719SOL    HW215057   5.922   4.325   3.863
 4720SOL     OW15058   1.469   2.160   6.592
 4720SOL    HW115059   1.484   2.084   6.655
 4720SOL    HW215060   1.407   2.131   6.518
 4721SOL     OW15061   0.657   2.683   2.375
 4721SOL    HW115062   0.665   2.584   2.385
 4721SOL    HW215063   0.736   2.718   2.325
 4722SOL     OW15064   1.297   5.403   5.913
 4722SOL    HW115065   1.238   5.478   5.944
 4722SOL    HW215066   1.291   5.327   5.977
 4723SOL     OW15067   2.687   4.956   6.564
 4723SOL    HW115068   2.616   4.953   6.634
 4723SOL    HW215069   2.697   5.050   6.531
 4724SOL     OW15070   6.936   6.895   4.133
 4724SOL    HW115071   7.023   6.942   4.119
 4724SOL    HW215072   6.939   6.842   4.218
 4725SOL     OW15073   6.280   4.938   1.169
 4725SOL    HW115074   6.190   4.911   1.203
 4725SOL    HW215075   6.339   4.857   1.163
 4726SOL     OW15076   1.559   2.781   5.844
 4726SOL    HW115077   1.552   2.715   5.920
 4726SOL    HW215078   1.649   2.772   5.801
 4727SOL     OW15079   6.515   5.495   1.357
 4727SOL    HW115080   6.429   5.446   1.365
 4727SOL    HW215081   6.501   5.579   1.306
 4728SOL     OW15082   5.229   0.638   3.203
 4728SOL    HW115083   5.138   0.607   3.178
 4728SOL    HW215084   5.221   0.714   3.268
 4729SOL     OW15085   6.903   1.212   2.598
 4729SOL    HW115086   6.970   1.264   2.545
 4729SOL    HW215087   6.853   1.274   2.658
 4730SOL     OW15088   3.481   0.722   3.509
 4730SOL    HW115089   3.406   0.788   3.520
 4730SOL    HW215090   3.443   0.630   3.500
 4731SOL     OW15091   3.519   6.936   1.766
 4731SOL    HW115092   3.439   6.974   1.719
 4731SOL    HW215093   3.511   6.836   1.767
 4732SOL     OW15094   0.247   5.106   4.853
 4732SOL    HW115095   0.305   5.062   4.922
 4732SOL    HW215096   0.166   5.049   4.836
 4733SOL     OW15097   1.498   4.207   2.986
 4733SOL    HW115098   1.529   4.239   2.897
 4733SOL    HW215099   1.543   4.120   3.008
 4734SOL     OW15100   4.701   4.137   6.630
 4734SOL    HW115101   4.650   4.219   6.657
 4734SOL    HW215102   4.661   4.056   6.674
 4735SOL     OW15103   6.886   0.591   5.434
 4735SOL    HW115104   6.922   0.629   5.519
 4735SOL    HW215105   6.960   0.551   5.380
 4736SOL     OW15106   6.579   0.625   4.442
 4736SOL    HW115107   6.515   0.558   4.479
 4736SOL    HW215108   6.601   0.602   4.347
 4737SOL     OW15109   2.386   5.224   0.074
 4737SOL    HW115110   2.323   5.153   0.103
 4737SOL    HW215111   2.365   5.309   0.122
 4738SOL     OW15112   0.481   5.478   3.657
 4738SOL    HW115113   0.547   5.434   3.717
 4738SOL    HW215114   0.389   5.441   3.675
 4739SOL     OW15115   5.798   3.573   3.364
 4739SOL    HW115116   5.784   3.506   3.437
 4739SOL    HW215117   5.896   3.582   3.345
 4740SOL     OW15118   1.973   6.545   0.955
 4740SOL    HW115119   1.921   6.463   0.929
 4740SOL    HW215120   2.043   6.563   0.886
 4741SOL     OW15121   5.527   4.679   1.654
 4741SOL    HW115122   5.434   4.662   1.621
 4741SOL    HW215123   5.591   4.673   1.577
 4742SOL     OW15124   1.989   5.603   1.998
 4742SOL    HW115125   1.953   5.673   2.061
 4742SOL    HW215126   2.085   5.586   2.019
 4743SOL     OW15127   2.577   3.860   0.394
 4743SOL    HW115128   2.562   3.920   0.316
 4743SOL    HW215129   2.676   3.851   0.410
 4744SOL     OW15130   2.765   1.872   5.512
 4744SOL    HW115131   2.804   1.826   5.592
 4744SOL    HW215132   2.715   1.806   5.456
 4745SOL     OW15133   4.501   5.525   4.178
 4745SOL    HW115134   4.491   5.623   4.199
 4745SOL    HW215135   4.431   5.498   4.112
 4746SOL     OW15136   5.588   1.450   0.880
 4746SOL    HW115137   5.576   1.424   0.975
 4746SOL    HW215138   5.654   1.525   0.874
 4747SOL     OW15139   0.909   2.640   2.211
 4747SOL    HW115140   0.917   2.728   2.257
 4747SOL    HW215141   0.933   2.567   2.275
 4748SOL     OW15142   2.464   6.860   0.453
 4748SOL    HW115143   2.390   6.910   0.408
 4748SOL    HW215144   2.426   6.803   0.526
 4749SOL     OW15145   3.547   0.742   0.100
 4749SOL    HW115146   3.526   0.823   0.154
 4749SOL    HW215147   3.463   0.705   0.061
 4750SOL     OW15148   0.835   2.169   5.365
 4750SOL    HW115149   0.755   2.217   5.330
 4750SOL    HW215150   0.909   2.172   5.298
 4751SOL     OW15151   1.334   4.397   6.601
 4751SOL    HW115152   1.241   4.427   6.619
 4751SOL    HW215153   1.354   4.405   6.504
 4752SOL     OW15154   2.154   5.658   1.042
 4752SOL    HW115155   2.242   5.681   1.084
 4752SOL    HW215156   2.086   5.727   1.066
 4753SOL     OW15157   0.456   0.829   6.224
 4753SOL    HW115158   0.536   0.808   6.168
 4753SOL    HW215159   0.417   0.917   6.196
 4754SOL     OW15160   1.464   1.346   6.362
 4754SOL    HW115161   1.390   1.284   6.387
 4754SOL    HW215162   1.436   1.403   6.285
 4755SOL     OW15163   3.107   6.831   2.757
 4755SOL    HW115164   3.154   6.879   2.683
 4755SOL    HW215165   3.121   6.882   2.843
 4756SOL     OW15166   5.685   2.087   1.443
 4756SOL    HW115167   5.697   2.176   1.400
 4756SOL    HW215168   5.589   2.061   1.438
 4757SOL     OW15169   2.450   2.430   0.691
 4757SOL    HW115170   2.526   2.394   0.636
 4757SOL    HW215171   2.407   2.355   0.742
 4758SOL     OW15172   6.068   4.101   6.314
 4758SOL    HW115173   6.068   4.199   6.335
 4758SOL    HW215174   6.107   4.087   6.223
 4759SOL     OW15175   0.182   4.324   6.603
 4759SOL    HW115176   0.226   4.234   6.598
 4759SOL    HW215177   0.188   4.359   6.696
 4760SOL     OW15178   1.490   2.427   0.168
 4760SOL    HW115179   1.479   2.343   0.114
 4760SOL    HW215180   1.423   2.495   0.137
 4761SOL     OW15181   2.795   6.210   6.454
 4761SOL    HW115182   2.865   6.268   6.497
 4761SOL    HW215183   2.718   6.199   6.516
 4762SOL     OW15184   3.696   0.081   2.397
 4762SOL    HW115185   3.730   0.153   2.458
 4762SOL    HW215186   3.598   0.071   2.409
 4763SOL     OW15187   4.949   5.257   5.336
 4763SOL    HW115188   4.999   5.318   5.398
 4763SOL    HW215189   5.013   5.217   5.271
 4764SOL     OW15190   4.001   3.699   3.888
 4764SOL    HW115191   4.048   3.718   3.802
 4764SOL    HW215192   4.018   3.774   3.952
 4765SOL     OW15193   5.758   5.320   6.639
 4765SOL    HW115194   5.773   5.403   6.585
 4765SOL    HW215195   5.811   5.326   6.724
 4766SOL     OW15196   2.772   1.304   3.329
 4766SOL    HW115197   2.747   1.321   3.425
 4766SOL    HW215198   2.846   1.237   3.326
 4767SOL     OW15199   4.578   0.638   6.758
 4767SOL    HW115200   4.567   0.541   6.736
 4767SOL    HW215201   4.583   0.691   6.673
 4768SOL     OW15202   1.745   0.820   5.235
 4768SOL    HW115203   1.789   0.832   5.146
 4768SOL    HW215204   1.767   0.897   5.294
 4769SOL     OW15205   4.902   0.777   1.881
 4769SOL    HW115206   4.981   0.780   1.943
 4769SOL    HW215207   4.884   0.868   1.844
 4770SOL     OW15208   2.113   0.867   4.168
 4770SOL    HW115209   2.095   0.935   4.239
 4770SOL    HW215210   2.191   0.896   4.113
 4771SOL     OW15211   3.665   4.150   5.761
 4771SOL    HW115212   3.756   4.181   5.731
 4771SOL    HW215213   3.642   4.065   5.714
 4772SOL     OW15214   3.234   2.638   0.212
 4772SOL    HW115215   3.260   2.720   0.161
 4772SOL    HW215216   3.241   2.558   0.152
 4773SOL     OW15217   6.815   4.539   4.940
 4773SOL    HW115218   6.818   4.465   5.007
 4773SOL    HW215219   6.739   4.601   4.962
 4774SOL     OW15220   1.733   4.384   6.828
 4774SOL    HW115221   1.807   4.329   6.867
 4774SOL    HW215222   1.645   4.349   6.862
 4775SOL     OW15223   2.058   2.586   2.197
 4775SOL    HW115224   2.053   2.551   2.290
 4775SOL    HW215225   2.140   2.641   2.186
 4776SOL     OW15226   4.382   5.037   1.936
 4776SOL    HW115227   4.376   4.998   1.844
 4776SOL    HW215228   4.430   5.125   1.931
 4777SOL     OW15229   2.401   3.952   1.691
 4777SOL    HW115230   2.440   4.037   1.726
 4777SOL    HW215231   2.468   3.879   1.695
 4778SOL     OW15232   5.239   3.435   2.639
 4778SOL    HW115233   5.145   3.448   2.672
 4778SOL    HW215234   5.298   3.504   2.680
 4779SOL     OW15235   5.256   1.136   2.574
 4779SOL    HW115236   5.232   1.161   2.668
 4779SOL    HW215237   5.208   1.197   2.510
 4780SOL     OW15238   2.056   1.475   5.634
 4780SOL    HW115239   2.078   1.393   5.582
 4780SOL    HW215240   2.031   1.449   5.728
 4781SOL     OW15241   1.832   5.540   3.079
 4781SOL    HW115242   1.901   5.492   3.026
 4781SOL    HW215243   1.791   5.478   3.145
 4782SOL     OW15244   6.171   6.246   0.173
 4782SOL    HW115245   6.084   6.200   0.192
 4782SOL    HW215246   6.158   6.312   0.099
 4783SOL     OW15247   6.097   3.761   2.509
 4783SOL    HW115248   6.064   3.855   2.518
 4783SOL    HW215249   6.061   3.706   2.584
 4784SOL     OW15250   5.193   4.741   4.841
 4784SOL    HW115251   5.249   4.663   4.813
 4784SOL    HW215252   5.248   4.805   4.894
 4785SOL     OW15253   5.753   6.563   0.890
 4785SOL    HW115254   5.701   6.502   0.830
 4785SOL    HW215255   5.828   6.605   0.838
 4786SOL     OW15256   1.154   4.100   2.239
 4786SOL    HW115257   1.252   4.104   2.222
 4786SOL    HW215258   1.131   4.154   2.320
 4787SOL     OW15259   3.898   2.154   3.193
 4787SOL    HW115260   3.865   2.060   3.200
 4787SOL    HW215261   3.981   2.164   3.249
 4788SOL     OW15262   2.300   0.206   4.671
 4788SOL    HW115263   2.226   0.209   4.738
 4788SOL    HW215264   2.270   0.250   4.586
 4789SOL     OW15265   5.061   6.360   0.313
 4789SOL    HW115266   5.159   6.356   0.296
 4789SOL    HW215267   5.012   6.379   0.228
 4790SOL     OW15268   5.247   0.202   6.706
 4790SOL    HW115269   5.213   0.117   6.667
 4790SOL    HW215270   5.325   0.182   6.766
 4791SOL     OW15271   4.108   2.086   3.469
 4791SOL    HW115272   4.136   2.087   3.373
 4791SOL    HW215273   4.009   2.075   3.474
 4792SOL     OW15274   2.877   2.900   0.951
 4792SOL    HW115275   2.843   2.918   1.043
 4792SOL    HW215276   2.918   2.808   0.947
 4793SOL     OW15277   0.245   0.706   6.862
 4793SOL    HW115278   0.283   0.797   6.876
 4793SOL    HW215279   0.213   0.669   6.949
 4794SOL     OW15280   5.339   1.423   2.037
 4794SOL    HW115281   5.382   1.346   2.083
 4794SOL    HW215282   5.329   1.499   2.102
 4795SOL     OW15283   5.945   2.854   4.156
 4795SOL    HW115284   5.994   2.941   4.156
 4795SOL    HW215285   5.913   2.833   4.063
 4796SOL     OW15286   5.269   3.694   0.271
 4796SOL    HW115287   5.323   3.690   0.355
 4796SOL    HW215288   5.185   3.747   0.288
 4797SOL     OW15289   1.046   5.846   5.003
 4797SOL    HW115290   0.971   5.860   4.938
 4797SOL    HW215291   1.111   5.780   4.965
 4798SOL     OW15292   6.738   4.965   5.884
 4798SOL    HW115293   6.753   4.870   5.860
 4798SOL    HW215294   6.691   4.970   5.972
 4799SOL     OW15295   4.900   1.492   4.148
 4799SOL    HW115296   4.946   1.506   4.236
 4799SOL    HW215297   4.802   1.508   4.160
 4800SOL     OW15298   1.925   3.000   4.024
 4800SOL    HW115299   1.874   3.041   3.949
 4800SOL    HW215300   2.022   2.999   4.002
 4801SOL     OW15301   6.967   2.227   0.658
 4801SOL    HW115302   6.869   2.207   0.665
 4801SOL    HW215303   6.984   2.278   0.574
 4802SOL     OW15304   1.422   0.728   1.921
 4802SOL    HW115305   1.479   0.670   1.864
 4802SOL    HW215306   1.480   0.796   1.968
 4803SOL     OW15307   1.383   6.985   0.419
 4803SOL    HW115308   1.325   0.039   0.439
 4803SOL    HW215309   1.462   7.015   0.366
 4804SOL     OW15310   4.796   5.806   0.324
 4804SOL    HW115311   4.703   5.842   0.335
 4804SOL    HW215312   4.839   5.850   0.246
 4805SOL     OW15313   0.093   6.799   1.626
 4805SOL    HW115314   0.118   6.896   1.634
 4805SOL    HW215315   0.019   6.778   1.690
 4806SOL     OW15316   6.962   2.247   3.978
 4806SOL    HW115317   7.014   2.162   3.983
 4806SOL    HW215318   7.002   2.314   4.040
 4807SOL     OW15319   1.131   0.235   2.616
 4807SOL    HW115320   1.121   0.140   2.584
 4807SOL    HW215321   1.056   0.290   2.580
 4808SOL     OW15322   6.572   2.422   0.382
 4808SOL    HW115323   6.540   2.462   0.468
 4808SOL    HW215324   6.500   2.428   0.313
 4809SOL     OW15325   4.791   0.036   0.901
 4809SOL    HW115326   4.783   0.116   0.841
 4809SOL    HW215327   4.791   6.979   0.845
 4810SOL     OW15328   1.948   6.167   0.177
 4810SOL    HW115329   2.019   6.141   0.242
 4810SOL    HW215330   1.858   6.146   0.216
 4811SOL     OW15331   5.233   3.727   3.610
 4811SOL    HW115332   5.280   3.755   3.693
 4811SOL    HW215333   5.191   3.637   3.624
 4812SOL     OW15334   6.296   5.149   4.102
 4812SOL    HW115335   6.239   5.092   4.043
 4812SOL    HW215336   6.276   5.127   4.198
 4813SOL     OW15337   5.457   3.239   2.736
 4813SOL    HW115338   5.457   3.193   2.647
 4813SOL    HW215339   5.414   3.180   2.804
 4814SOL     OW15340   6.684   2.927   1.348
 4814SOL    HW115341   6.761   2.989   1.362
 4814SOL    HW215342   6.637   2.912   1.435
 4815SOL     OW15343   5.068   0.385   3.419
 4815SOL    HW115344   5.028   0.306   3.373
 4815SOL    HW215345   5.066   0.464   3.358
 4816SOL     OW15346   5.322   4.484   3.507
 4816SOL    HW115347   5.360   4.575   3.518
 4816SOL    HW215348   5.266   4.461   3.587
 4817SOL     OW15349   6.162   1.891   0.138
 4817SOL    HW115350   6.125   1.801   0.160
 4817SOL    HW215351   6.259   1.893   0.162
 4818SOL     OW15352   0.079   5.888   3.786
 4818SOL    HW115353   0.064   5.983   3.760
 4818SOL    HW215354   0.115   5.837   3.707
 4819SOL     OW15355   1.811   3.170   0.727
 4819SOL    HW115356   1.796   3.117   0.644
 4819SOL    HW215357   1.895   3.141   0.772
 4820SOL     OW15358   6.715   3.636   1.956
 4820SOL    HW115359   6.634   3.693   1.942
 4820SOL    HW215360   6.709   3.590   2.044
 4821SOL     OW15361   0.690   5.658   3.916
 4821SOL    HW115362   0.646   5.701   3.996
 4821SOL    HW215363   0.719   5.729   3.852
 4822SOL     OW15364   2.441   4.377   4.550
 4822SOL    HW115365   2.454   4.454   4.487
 4822SOL    HW215366   2.522   4.319   4.551
 4823SOL     OW15367   1.457   2.052   0.900
 4823SOL    HW115368   1.375   1.997   0.913
 4823SOL    HW215369   1.485   2.050   0.804
 4824SOL     OW15370   6.693   2.002   6.984
 4824SOL    HW115371   6.606   2.043   7.010
 4824SOL    HW215372   6.732   1.954   0.036
 4825SOL     OW15373   1.181   6.581   3.792
 4825SOL    HW115374   1.084   6.580   3.817
 4825SOL    HW215375   1.191   6.613   3.698
 4826SOL     OW15376   4.324   6.377   0.721
 4826SOL    HW115377   4.398   6.426   0.766
 4826SOL    HW215378   4.256   6.350   0.790
 4827SOL     OW15379   5.860   1.184   1.357
 4827SOL    HW115380   5.876   1.105   1.417
 4827SOL    HW215381   5.816   1.256   1.410
 4828SOL     OW15382   4.859   1.136   6.644
 4828SOL    HW115383   4.939   1.117   6.700
 4828SOL    HW215384   4.856   1.071   6.568
 4829SOL     OW15385   4.151   6.095   5.363
 4829SOL    HW115386   4.221   6.043   5.315
 4829SOL    HW215387   4.184   6.119   5.454
 4830SOL     OW15388   1.706   6.830   3.502
 4830SOL    HW115389   1.732   6.817   3.407
 4830SOL    HW215390   1.786   6.858   3.555
 4831SOL     OW15391   3.391   4.859   5.639
 4831SOL    HW115392   3.355   4.943   5.599
 4831SOL    HW215393   3.328   4.784   5.622
 4832SOL     OW15394   3.980   3.182   4.732
 4832SOL    HW115395   3.913   3.257   4.732
 4832SOL    HW215396   3.977   3.135   4.644
 4833SOL     OW15397   5.892   2.308   5.309
 4833SOL    HW115398   5.945   2.276   5.387
 4833SOL    HW215399   5.910   2.405   5.294
 4834SOL     OW15400   0.900   4.930   0.876
 4834SOL    HW115401   0.861   4.896   0.962
 4834SOL    HW215402   0.827   4.970   0.820
 4835SOL     OW15403   0.053   3.333   6.009
 4835SOL    HW115404   0.052   3.359   6.106
 4835SOL    HW215405   0.113   3.395   5.959
 4836SOL     OW15406   4.752   1.024   5.753
 4836SOL    HW115407   4.836   1.038   5.701
 4836SOL    HW215408   4.761   1.066   5.843
 4837SOL     OW15409   1.268   3.385   4.833
 4837SOL    HW115410   1.349   3.399   4.775
 4837SOL    HW215411   1.191   3.356   4.777
 4838SOL     OW15412   2.068   4.009   5.864
 4838SOL    HW115413   2.104   4.034   5.954
 4838SOL    HW215414   2.143   3.975   5.807
 4839SOL     OW15415   2.816   1.134   2.091
 4839SOL    HW115416   2.837   1.072   2.167
 4839SOL    HW215417   2.717   1.147   2.085
 4840SOL     OW15418   4.395   2.430   3.486
 4840SOL    HW115419   4.402   2.387   3.396
 4840SOL    HW215420   4.424   2.525   3.479
 4841SOL     OW15421   3.161   5.525   3.081
 4841SOL    HW115422   3.090   5.595   3.090
 4841SOL    HW215423   3.127   5.437   3.114
 4842SOL     OW15424   4.698   5.871   3.220
 4842SOL    HW115425   4.790   5.885   3.184
 4842SOL    HW215426   4.633   5.928   3.169
 4843SOL     OW15427   5.444   1.926   0.504
 4843SOL    HW115428   5.457   1.848   0.565
 4843SOL    HW215429   5.455   2.011   0.555
 4844SOL     OW15430   1.202   5.080   6.304
 4844SOL    HW115431   1.183   5.054   6.210
 4844SOL    HW215432   1.250   5.006   6.351
 4845SOL     OW15433   5.249   3.939   4.893
 4845SOL    HW115434   5.214   3.989   4.814
 4845SOL    HW215435   5.236   3.841   4.880
 4846SOL     OW15436   6.277   4.006   4.619
 4846SOL    HW115437   6.283   4.101   4.588
 4846SOL    HW215438   6.220   3.953   4.556
 4847SOL     OW15439   3.154   6.733   0.446
 4847SOL    HW115440   3.195   6.655   0.400
 4847SOL    HW215441   3.121   6.706   0.537
 4848SOL     OW15442   4.533   1.242   4.038
 4848SOL    HW115443   4.623   1.202   4.019
 4848SOL    HW215444   4.467   1.169   4.054
 4849SOL     OW15445   1.532   5.742   2.163
 4849SOL    HW115446   1.516   5.741   2.261
 4849SOL    HW215447   1.463   5.799   2.119
 4850SOL     OW15448   3.260   6.755   2.196
 4850SOL    HW115449   3.255   6.842   2.147
 4850SOL    HW215450   3.200   6.689   2.151
 4851SOL     OW15451   4.621   4.663   6.817
 4851SOL    HW115452   4.568   4.618   6.889
 4851SOL    HW215453   4.646   4.596   6.747
 4852SOL     OW15454   4.954   4.077   5.584
 4852SOL    HW115455   4.981   4.134   5.507
 4852SOL    HW215456   4.984   3.982   5.568
 4853SOL     OW15457   3.863   0.489   2.745
 4853SOL    HW115458   3.911   0.536   2.671
 4853SOL    HW215459   3.915   0.408   2.773
 4854SOL     OW15460   4.140   6.726   2.463
 4854SOL    HW115461   4.157   6.683   2.552
 4854SOL    HW215462   4.149   6.657   2.391
 4855SOL     OW15463   4.156   4.592   5.491
 4855SOL    HW115464   4.121   4.658   5.424
 4855SOL    HW215465   4.080   4.558   5.547
 4856SOL     OW15466   0.992   2.448   2.386
 4856SOL    HW115467   0.894   2.438   2.405
 4856SOL    HW215468   1.045   2.409   2.461
 4857SOL     OW15469   2.637   2.088   5.861
 4857SOL    HW115470   2.609   2.000   5.901
 4857SOL    HW215471   2.710   2.072   5.795
 4858SOL     OW15472   1.816   4.980   4.552
 4858SOL    HW115473   1.809   4.892   4.504
 4858SOL    HW215474   1.901   5.025   4.524
 4859SOL     OW15475   6.579   5.479   3.415
 4859SOL    HW115476   6.633   5.416   3.471
 4859SOL    HW215477   6.514   5.528   3.472
 4860SOL     OW15478   4.073   5.271   1.225
 4860SOL    HW115479   4.010   5.323   1.283
 4860SOL    HW215480   4.069   5.307   1.131
 4861SOL     OW15481   5.852   4.845   4.707
 4861SOL    HW115482   5.914   4.878   4.636
 4861SOL    HW215483   5.879   4.752   4.735
 4862SOL     OW15484   2.053   5.497   4.588
 4862SOL    HW115485   2.104   5.425   4.540
 4862SOL    HW215486   1.970   5.458   4.628
 4863SOL     OW15487   5.566   1.634   2.097
 4863SOL    HW115488   5.632   1.612   2.025
 4863SOL    HW215489   5.613   1.674   2.175
 4864SOL     OW15490   2.162   3.306   1.470
 4864SOL    HW115491   2.262   3.304   1.469
 4864SOL    HW215492   2.127   3.230   1.416
 4865SOL     OW15493   3.647   6.660   5.128
 4865SOL    HW115494   3.550   6.646   5.109
 4865SOL    HW215495   3.701   6.629   5.050
 4866SOL     OW15496   0.758   5.130   1.599
 4866SOL    HW115497   0.672   5.167   1.562
 4866SOL    HW215498   0.795   5.193   1.667
 4867SOL     OW15499   5.669   4.775   6.095
 4867SOL    HW115500   5.729   4.696   6.080
 4867SOL    HW215501   5.586   4.764   6.041
 4868SOL     OW15502   2.070   5.923   1.768
 4868SOL    HW115503   2.164   5.895   1.788
 4868SOL    HW215504   2.010   5.844   1.774
 4869SOL     OW15505   0.585   1.640   1.977
 4869SOL    HW115506   0.566   1.731   2.014
 4869SOL    HW215507   0.502   1.586   1.978
 4870SOL     OW15508   5.924   1.165   0.688
 4870SOL    HW115509   5.850   1.220   0.649
 4870SOL    HW215510   5.891   1.071   0.704
 4871SOL     OW15511   1.995   2.622   5.710
 4871SOL    HW115512   2.013   2.614   5.612
 4871SOL    HW215513   2.081   2.635   5.759
 4872SOL     OW15514   1.891   2.321   2.737
 4872SOL    HW115515   1.863   2.241   2.684
 4872SOL    HW215516   1.911   2.294   2.831
 4873SOL     OW15517   0.881   6.761   5.601
 4873SOL    HW115518   0.807   6.721   5.656
 4873SOL    HW215519   0.887   6.713   5.514
 4874SOL     OW15520   5.779   1.939   4.199
 4874SOL    HW115521   5.866   1.985   4.215
 4874SOL    HW215522   5.709   1.980   4.257
 4875SOL     OW15523   0.111   3.102   0.283
 4875SOL    HW115524   0.098   3.071   0.377
 4875SOL    HW215525   0.208   3.101   0.260
 4876SOL     OW15526   6.705   1.298   0.072
 4876SOL    HW115527   6.691   1.318   7.001
 4876SOL    HW215528   6.763   1.217   0.081
 4877SOL     OW15529   4.687   1.987   1.294
 4877SOL    HW115530   4.621   2.062   1.292
 4877SOL    HW215531   4.673   1.932   1.376
 4878SOL     OW15532   1.315   2.763   2.107
 4878SOL    HW115533   1.307   2.814   2.021
 4878SOL    HW215534   1.380   2.687   2.095
 4879SOL     OW15535   3.861   5.891   3.745
 4879SOL    HW115536   3.766   5.917   3.766
 4879SOL    HW215537   3.862   5.799   3.706
 4880SOL     OW15538   6.452   1.837   6.229
 4880SOL    HW115539   6.368   1.787   6.206
 4880SOL    HW215540   6.529   1.774   6.228
 4881SOL     OW15541   3.014   6.328   6.047
 4881SOL    HW115542   3.091   6.382   6.013
 4881SOL    HW215543   3.047   6.259   6.111
 4882SOL     OW15544   5.652   5.591   6.526
 4882SOL    HW115545   5.745   5.575   6.493
 4882SOL    HW215546   5.639   5.688   6.546
 4883SOL     OW15547   5.983   5.690   6.964
 4883SOL    HW115548   6.030   5.698   6.876
 4883SOL    HW215549   6.048   5.708   0.013
 4884SOL     OW15550   3.416   6.271   1.543
 4884SOL    HW115551   3.338   6.313   1.496
 4884SOL    HW215552   3.417   6.300   1.638
 4885SOL     OW15553   1.484   0.601   2.286
 4885SOL    HW115554   1.467   0.694   2.319
 4885SOL    HW215555   1.397   0.553   2.276
 4886SOL     OW15556   5.981   0.906   5.534
 4886SOL    HW115557   5.900   0.904   5.592
 4886SOL    HW215558   6.062   0.925   5.590
 4887SOL     OW15559   0.153   1.777   5.456
 4887SOL    HW115560   0.175   1.754   5.551
 4887SOL    HW215561   0.157   1.694   5.400
 4888SOL     OW15562   4.199   5.973   1.066
 4888SOL    HW115563   4.161   5.883   1.044
 4888SOL    HW215564   4.299   5.967   1.071
 4889SOL     OW15565   1.856   3.538   6.620
 4889SOL    HW115566   1.883   3.451   6.579
 4889SOL    HW215567   1.759   3.535   6.643
 4890SOL     OW15568   0.204   0.305   4.431
 4890SOL    HW115569   0.181   0.355   4.515
 4890SOL    HW215570   0.263   0.228   4.453
 4891SOL     OW15571   1.059   5.114   0.808
 4891SOL    HW115572   1.006   5.029   0.799
 4891SOL    HW215573   1.157   5.093   0.806
 4892SOL     OW15574   1.792   5.816   2.109
 4892SOL    HW115575   1.806   5.806   2.208
 4892SOL    HW215576   1.699   5.787   2.086
 4893SOL     OW15577   0.342   4.383   6.413
 4893SOL    HW115578   0.423   4.424   6.454
 4893SOL    HW215579   0.274   4.366   6.485
 4894SOL     OW15580   0.617   6.598   3.286
 4894SOL    HW115581   0.612   6.677   3.347
 4894SOL    HW215582   0.643   6.518   3.339
 4895SOL     OW15583   6.335   4.269   6.920
 4895SOL    HW115584   6.284   4.224   6.847
 4895SOL    HW215585   6.399   4.335   6.881
 4896SOL     OW15586   4.079   0.306   4.215
 4896SOL    HW115587   4.172   0.295   4.250
 4896SOL    HW215588   4.069   0.397   4.174
 4897SOL     OW15589   2.594   5.224   6.549
 4897SOL    HW115590   2.587   5.248   6.453
 4897SOL    HW215591   2.503   5.218   6.589
 4898SOL     OW15592   5.049   2.781   4.320
 4898SOL    HW115593   4.963   2.808   4.278
 4898SOL    HW215594   5.098   2.718   4.259
 4899SOL     OW15595   5.904   3.767   4.475
 4899SOL    HW115596   5.974   3.836   4.454
 4899SOL    HW215597   5.941   3.676   4.456
 4900SOL     OW15598   0.728   6.452   5.617
 4900SOL    HW115599   0.706   6.455   5.519
 4900SOL    HW215600   0.655   6.403   5.665
 4901SOL     OW15601   6.217   6.120   3.144
 4901SOL    HW115602   6.227   6.209   3.189
 4901SOL    HW215603   6.127   6.114   3.102
 4902SOL     OW15604   3.513   5.149   0.641
 4902SOL    HW115605   3.563   5.186   0.718
 4902SOL    HW215606   3.525   5.050   0.637
 4903SOL     OW15607   5.816   4.886   6.311
 4903SOL    HW115608   5.751   4.888   6.386
 4903SOL    HW215609   5.771   4.851   6.229
 4904SOL     OW15610   2.971   0.876   3.382
 4904SOL    HW115611   2.873   0.897   3.390
 4904SOL    HW215612   2.984   0.777   3.378
 4905SOL     OW15613   6.199   3.964   2.765
 4905SOL    HW115614   6.204   3.960   2.665
 4905SOL    HW215615   6.265   3.900   2.805
 4906SOL     OW15616   4.534   0.108   1.895
 4906SOL    HW115617   4.506   0.066   1.982
 4906SOL    HW215618   4.632   0.095   1.881
 4907SOL     OW15619   2.883   2.947   1.654
 4907SOL    HW115620   2.799   2.988   1.619
 4907SOL    HW215621   2.863   2.858   1.694
 4908SOL     OW15622   5.278   5.228   6.628
 4908SOL    HW115623   5.375   5.205   6.618
 4908SOL    HW215624   5.263   5.322   6.599
 4909SOL     OW15625   5.762   6.544   5.483
 4909SOL    HW115626   5.801   6.488   5.555
 4909SOL    HW215627   5.809   6.632   5.480
 4910SOL     OW15628   5.136   6.511   5.292
 4910SOL    HW115629   5.197   6.465   5.227
 4910SOL    HW215630   5.129   6.607   5.268
 4911SOL     OW15631   0.413   4.210   6.214
 4911SOL    HW115632   0.355   4.129   6.226
 4911SOL    HW215633   0.388   4.279   6.283
 4912SOL     OW15634   2.132   3.103   1.307
 4912SOL    HW115635   2.199   3.041   1.266
 4912SOL    HW215636   2.045   3.096   1.258
 4913SOL     OW15637   2.938   3.244   1.992
 4913SOL    HW115638   2.864   3.211   1.934
 4913SOL    HW215639   2.931   3.202   2.082
 4914SOL     OW15640   1.233   6.792   2.544
 4914SOL    HW115641   1.199   6.698   2.546
 4914SOL    HW215642   1.302   6.801   2.472
 4915SOL     OW15643   3.569   6.309   4.100
 4915SOL    HW115644   3.564   6.215   4.132
 4915SOL    HW215645   3.652   6.322   4.046
 4916SOL     OW15646   1.410   1.815   2.233
 4916SOL    HW115647   1.432   1.718   2.244
 4916SOL    HW215648   1.484   1.870   2.271
 4917SOL     OW15649   1.040   4.550   6.448
 4917SOL    HW115650   1.072   4.616   6.381
 4917SOL    HW215651   1.079   4.570   6.537
 4918SOL     OW15652   2.455   6.645   4.115
 4918SOL    HW115653   2.408   6.637   4.203
 4918SOL    HW215654   2.389   6.669   4.044
 4919SOL     OW15655   2.158   3.003   0.916
 4919SOL    HW115656   2.154   2.920   0.860
 4919SOL    HW215657   2.179   2.979   1.010
 4920SOL     OW15658   3.632   1.826   6.865
 4920SOL    HW115659   3.533   1.836   6.870
 4920SOL    HW215660   3.660   1.742   6.912
 4921SOL     OW15661   6.829   4.922   2.484
 4921SOL    HW115662   6.838   4.913   2.385
 4921SOL    HW215663   6.740   4.888   2.512
 4922SOL     OW15664   0.957   2.908   6.194
 4922SOL    HW115665   0.997   2.937   6.107
 4922SOL    HW215666   0.991   2.967   6.267
 4923SOL     OW15667   3.434   2.122   6.654
 4923SOL    HW115668   3.383   2.208   6.658
 4923SOL    HW215669   3.394   2.063   6.584
 4924SOL     OW15670   0.229   3.119   4.287
 4924SOL    HW115671   0.179   3.201   4.259
 4924SOL    HW215672   0.310   3.109   4.229
 4925SOL     OW15673   4.402   5.210   5.134
 4925SOL    HW115674   4.330   5.168   5.189
 4925SOL    HW215675   4.361   5.275   5.070
 4926SOL     OW15676   4.341   3.426   0.573
 4926SOL    HW115677   4.302   3.511   0.538
 4926SOL    HW215678   4.267   3.360   0.589
 4927SOL     OW15679   2.979   3.636   2.176
 4927SOL    HW115680   2.978   3.736   2.182
 4927SOL    HW215681   3.070   3.606   2.148
 4928SOL     OW15682   6.925   1.470   6.880
 4928SOL    HW115683   6.936   1.540   6.950
 4928SOL    HW215684   7.014   1.433   6.855
 4929SOL     OW15685   0.392   4.160   4.666
 4929SOL    HW115686   0.356   4.175   4.758
 4929SOL    HW215687   0.492   4.166   4.667
 4930SOL     OW15688   0.104   3.644   7.001
 4930SOL    HW115689   0.029   3.646   6.936
 4930SOL    HW215690   0.124   3.550   0.001
 4931SOL     OW15691   5.387   6.852   0.921
 4931SOL    HW115692   5.479   6.877   0.950
 4931SOL    HW215693   5.342   6.931   0.878
 4932SOL     OW15694   3.366   1.356   0.851
 4932SOL    HW115695   3.304   1.427   0.817
 4932SOL    HW215696   3.414   1.390   0.931
 4933SOL     OW15697   3.122   0.023   5.048
 4933SOL    HW115698   3.074   6.991   4.981
 4933SOL    HW215699   3.220   0.007   5.042
 4934SOL     OW15700   2.048   6.009   5.251
 4934SOL    HW115701   2.091   5.921   5.270
 4934SOL    HW215702   1.949   6.002   5.264
 4935SOL     OW15703   2.146   2.474   0.438
 4935SOL    HW115704   2.151   2.573   0.445
 4935SOL    HW215705   2.234   2.438   0.405
 4936SOL     OW15706   6.433   4.230   1.386
 4936SOL    HW115707   6.520   4.185   1.406
 4936SOL    HW215708   6.388   4.254   1.472
 4937SOL     OW15709   0.774   3.407   5.120
 4937SOL    HW115710   0.830   3.357   5.054
 4937SOL    HW215711   0.678   3.382   5.109
 4938SOL     OW15712   3.682   4.183   0.993
 4938SOL    HW115713   3.731   4.174   1.080
 4938SOL    HW215714   3.690   4.277   0.960
 4939SOL     OW15715   0.948   1.293   1.534
 4939SOL    HW115716   0.899   1.378   1.555
 4939SOL    HW215717   0.913   1.220   1.592
 4940SOL     OW15718   1.517   1.640   5.309
 4940SOL    HW115719   1.598   1.597   5.349
 4940SOL    HW215720   1.460   1.680   5.381
 4941SOL     OW15721   4.138   2.060   5.736
 4941SOL    HW115722   4.218   2.062   5.796
 4941SOL    HW215723   4.059   2.097   5.784
 4942SOL     OW15724   0.417   0.956   2.131
 4942SOL    HW115725   0.483   0.894   2.174
 4942SOL    HW215726   0.351   0.902   2.078
 4943SOL     OW15727   4.977   2.439   6.240
 4943SOL    HW115728   4.975   2.519   6.179
 4943SOL    HW215729   5.029   2.462   6.323
 4944SOL     OW15730   0.929   5.154   0.506
 4944SOL    HW115731   0.957   5.163   0.602
 4944SOL    HW215732   0.831   5.135   0.501
 4945SOL     OW15733   2.387   6.876   6.385
 4945SOL    HW115734   2.318   6.920   6.328
 4945SOL    HW215735   2.358   6.879   6.481
 4946SOL     OW15736   2.899   5.728   0.144
 4946SOL    HW115737   2.923   5.634   0.168
 4946SOL    HW215738   2.964   5.761   0.075
 4947SOL     OW15739   1.236   0.193   1.314
 4947SOL    HW115740   1.179   0.195   1.396
 4947SOL    HW215741   1.200   0.259   1.247
 4948SOL     OW15742   1.525   2.929   2.282
 4948SOL    HW115743   1.505   2.891   2.192
 4948SOL    HW215744   1.473   2.878   2.351
 4949SOL     OW15745   6.547   5.118   6.374
 4949SOL    HW115746   6.450   5.100   6.390
 4949SOL    HW215747   6.602   5.066   6.439
 4950SOL     OW15748   4.078   4.036   5.764
 4950SOL    HW115749   4.059   3.945   5.802
 4950SOL    HW215750   4.173   4.061   5.785
 4951SOL     OW15751   5.400   5.319   3.260
 4951SOL    HW115752   5.321   5.372   3.290
 4951SOL    HW215753   5.377   5.268   3.177
 4952SOL     OW15754   0.739   0.991   6.713
 4952SOL    HW115755   0.785   0.903   6.705
 4952SOL    HW215756   0.724   1.012   6.810
 4953SOL     OW15757   1.614   1.258   5.983
 4953SOL    HW115758   1.518   1.280   5.966
 4953SOL    HW215759   1.626   1.159   5.985
 4954SOL     OW15760   3.344   3.482   5.240
 4954SOL    HW115761   3.409   3.459   5.167
 4954SOL    HW215762   3.273   3.412   5.245
 4955SOL     OW15763   4.121   6.340   0.135
 4955SOL    HW115764   4.168   6.257   0.165
 4955SOL    HW215765   4.162   6.420   0.178
 4956SOL     OW15766   2.615   0.465   4.262
 4956SOL    HW115767   2.633   0.543   4.322
 4956SOL    HW215768   2.638   0.380   4.310
 4957SOL     OW15769   5.966   5.467   6.824
 4957SOL    HW115770   5.991   5.517   6.741
 4957SOL    HW215771   5.944   5.533   6.897
 4958SOL     OW15772   3.356   5.229   0.152
 4958SOL    HW115773   3.348   5.136   0.116
 4958SOL    HW215774   3.453   5.254   0.159
 4959SOL     OW15775   0.629   1.830   3.473
 4959SOL    HW115776   0.623   1.915   3.421
 4959SOL    HW215777   0.674   1.760   3.418
 4960SOL     OW15778   4.980   4.531   4.256
 4960SOL    HW115779   4.883   4.553   4.260
 4960SOL    HW215780   5.034   4.612   4.280
 4961SOL     OW15781   3.635   2.915   2.123
 4961SOL    HW115782   3.597   2.910   2.215
 4961SOL    HW215783   3.735   2.905   2.128
 4962SOL     OW15784   1.443   2.358   0.633
 4962SOL    HW115785   1.529   2.388   0.593
 4962SOL    HW215786   1.446   2.259   0.646
 4963SOL     OW15787   0.546   3.855   6.823
 4963SOL    HW115788   0.454   3.831   6.793
 4963SOL    HW215789   0.553   3.845   6.923
 4964SOL     OW15790   1.311   5.020   4.078
 4964SOL    HW115791   1.293   5.011   3.980
 4964SOL    HW215792   1.225   5.038   4.126
 4965SOL     OW15793   2.612   0.590   3.404
 4965SOL    HW115794   2.706   0.555   3.406
 4965SOL    HW215795   2.548   0.514   3.404
 4966SOL     OW15796   4.493   6.912   5.425
 4966SOL    HW115797   4.407   6.936   5.380
 4966SOL    HW215798   4.554   6.868   5.360
 4967SOL     OW15799   4.514   4.404   3.475
 4967SOL    HW115800   4.543   4.419   3.569
 4967SOL    HW215801   4.420   4.435   3.464
 4968SOL     OW15802   6.644   3.049   3.712
 4968SOL    HW115803   6.589   3.057   3.630
 4968SOL    HW215804   6.738   3.024   3.687
 4969SOL     OW15805   0.919   5.957   4.431
 4969SOL    HW115806   0.938   5.957   4.332
 4969SOL    HW215807   0.983   5.896   4.477
 4970SOL     OW15808   1.991   1.257   1.060
 4970SOL    HW115809   1.999   1.245   1.159
 4970SOL    HW215810   1.905   1.216   1.028
 4971SOL     OW15811   0.459   6.018   1.973
 4971SOL    HW115812   0.510   6.060   1.897
 4971SOL    HW215813   0.387   5.959   1.937
 4972SOL     OW15814   0.256   3.802   0.135
 4972SOL    HW115815   0.199   3.751   0.072
 4972SOL    HW215816   0.272   3.748   0.218
 4973SOL     OW15817   4.992   2.626   6.709
 4973SOL    HW115818   5.076   2.670   6.677
 4973SOL    HW215819   5.015   2.554   6.775
 4974SOL     OW15820   3.067   6.998   5.602
 4974SOL    HW115821   3.111   0.032   5.535
 4974SOL    HW215822   3.038   0.027   5.681
 4975SOL     OW15823   5.659   4.317   1.345
 4975SOL    HW115824   5.714   4.257   1.286
 4975SOL    HW215825   5.568   4.278   1.356
 4976SOL     OW15826   1.079   0.458   3.648
 4976SOL    HW115827   1.067   0.502   3.737
 4976SOL    HW215828   1.070   0.359   3.660
 4977SOL     OW15829   1.248   3.528   5.049
 4977SOL    HW115830   1.215   3.467   5.121
 4977SOL    HW215831   1.264   3.476   4.965
 4978SOL     OW15832   5.960   5.362   4.508
 4978SOL    HW115833   5.987   5.458   4.517
 4978SOL    HW215834   5.862   5.353   4.528
 4979SOL     OW15835   3.759   6.729   6.282
 4979SOL    HW115836   3.697   6.684   6.346
 4979SOL    HW215837   3.757   6.681   6.194
 4980SOL     OW15838   5.806   2.659   3.967
 4980SOL    HW115839   5.876   2.591   3.944
 4980SOL    HW215840   5.753   2.682   3.885
 4981SOL     OW15841   3.603   6.068   3.251
 4981SOL    HW115842   3.618   5.989   3.311
 4981SOL    HW215843   3.523   6.119   3.283
 4982SOL     OW15844   4.243   2.044   4.777
 4982SOL    HW115845   4.195   1.961   4.752
 4982SOL    HW215846   4.331   2.048   4.729
 4983SOL     OW15847   5.947   3.449   2.900
 4983SOL    HW115848   5.923   3.361   2.860
 4983SOL    HW215849   5.870   3.485   2.952
 4984SOL     OW15850   5.077   3.575   5.229
 4984SOL    HW115851   5.023   3.628   5.164
 4984SOL    HW215852   5.016   3.527   5.291
 4985SOL     OW15853   5.656   0.524   2.287
 4985SOL    HW115854   5.579   0.498   2.345
 4985SOL    HW215855   5.741   0.516   2.338
 4986SOL     OW15856   1.607   5.468   1.185
 4986SOL    HW115857   1.524   5.414   1.170
 4986SOL    HW215858   1.604   5.510   1.276
 4987SOL     OW15859   2.043   4.005   2.194
 4987SOL    HW115860   2.089   3.917   2.183
 4987SOL    HW215861   2.110   4.073   2.223
 4988SOL     OW15862   6.291   5.591   3.988
 4988SOL    HW115863   6.324   5.534   3.913
 4988SOL    HW215864   6.348   5.673   3.995
 4989SOL     OW15865   6.881   6.704   3.602
 4989SOL    HW115866   6.930   6.759   3.534
 4989SOL    HW215867   6.913   6.727   3.693
 4990SOL     OW15868   5.057   1.831   5.660
 4990SOL    HW115869   5.062   1.910   5.722
 4990SOL    HW215870   5.119   1.845   5.584
 4991SOL     OW15871   2.332   5.811   5.506
 4991SOL    HW115872   2.346   5.712   5.497
 4991SOL    HW215873   2.363   5.856   5.423
 4992SOL     OW15874   2.568   3.110   5.603
 4992SOL    HW115875   2.518   3.053   5.668
 4992SOL    HW215876   2.602   3.191   5.650
 4993SOL     OW15877   2.313   5.256   4.100
 4993SOL    HW115878   2.304   5.187   4.172
 4993SOL    HW215879   2.386   5.320   4.125
 4994SOL     OW15880   2.916   4.973   5.705
 4994SOL    HW115881   2.851   4.986   5.630
 4994SOL    HW215882   2.886   5.028   5.783
 4995SOL     OW15883   0.500   1.622   5.562
 4995SOL    HW115884   0.569   1.569   5.612
 4995SOL    HW215885   0.458   1.563   5.492
 4996SOL     OW15886   6.754   0.602   4.686
 4996SOL    HW115887   6.687   0.651   4.742
 4996SOL    HW215888   6.715   0.585   4.595
 4997SOL     OW15889   4.130   1.227   0.402
 4997SOL    HW115890   4.047   1.182   0.437
 4997SOL    HW215891   4.184   1.162   0.349
 4998SOL     OW15892   0.953   3.660   3.317
 4998SOL    HW115893   1.002   3.733   3.269
 4998SOL    HW215894   0.951   3.680   3.415
 4999SOL     OW15895   0.231   2.949   3.554
 4999SOL    HW115896   0.150   2.894   3.536
 4999SOL    HW215897   0.220   2.998   3.641
 5000SOL     OW15898   3.288   6.265   2.955
 5000SOL    HW115899   3.229   6.336   2.917
 5000SOL    HW215900   3.282   6.183   2.898
 5001SOL     OW15901   0.353   5.752   3.433
 5001SOL    HW115902   0.388   5.772   3.525
 5001SOL    HW215903   0.342   5.838   3.382
 5002SOL     OW15904   1.138   4.448   3.767
 5002SOL    HW115905   1.129   4.547   3.778
 5002SOL    HW215906   1.232   4.426   3.742
 5003SOL     OW15907   3.196   1.056   1.454
 5003SOL    HW115908   3.280   1.007   1.431
 5003SOL    HW215909   3.214   1.154   1.458
 5004SOL     OW15910   4.586   6.215   0.441
 5004SOL    HW115911   4.586   6.126   0.486
 5004SOL    HW215912   4.612   6.285   0.507
 5005SOL     OW15913   4.049   2.989   0.832
 5005SOL    HW115914   4.114   3.056   0.866
 5005SOL    HW215915   3.968   2.988   0.890
 5006SOL     OW15916   5.060   0.635   2.681
 5006SOL    HW115917   5.137   0.575   2.659
 5006SOL    HW215918   4.975   0.584   2.675
 5007SOL     OW15919   6.263   5.192   2.192
 5007SOL    HW115920   6.356   5.158   2.203
 5007SOL    HW215921   6.248   5.270   2.253
 5008SOL     OW15922   4.926   6.896   3.555
 5008SOL    HW115923   4.971   6.984   3.539
 5008SOL    HW215924   4.988   6.837   3.606
 5009SOL     OW15925   0.603   1.656   6.834
 5009SOL    HW115926   0.607   1.627   6.929
 5009SOL    HW215927   0.648   1.745   6.825
 5010SOL     OW15928   5.104   4.115   0.762
 5010SOL    HW115929   5.115   4.202   0.712
 5010SOL    HW215930   5.134   4.127   0.856
 5011SOL     OW15931   1.867   2.476   6.201
 5011SOL    HW115932   1.816   2.504   6.282
 5011SOL    HW215933   1.850   2.542   6.128
 5012SOL     OW15934   6.497   2.342   6.341
 5012SOL    HW115935   6.489   2.405   6.419
 5012SOL    HW215936   6.416   2.284   6.336
 5013SOL     OW15937   5.812   6.657   4.948
 5013SOL    HW115938   5.846   6.609   5.029
 5013SOL    HW215939   5.768   6.592   4.886
 5014SOL     OW15940   6.265   4.208   0.841
 5014SOL    HW115941   6.283   4.110   0.838
 5014SOL    HW215942   6.340   4.256   0.886
 5015SOL     OW15943   6.340   5.366   4.564
 5015SOL    HW115944   6.311   5.383   4.470
 5015SOL    HW215945   6.439   5.375   4.571
 5016SOL     OW15946   1.658   2.363   6.650
 5016SOL    HW115947   1.662   2.372   6.749
 5016SOL    HW215948   1.592   2.292   6.625
 5017SOL     OW15949   1.164   2.535   2.099
 5017SOL    HW115950   1.190   2.630   2.117
 5017SOL    HW215951   1.088   2.509   2.159
 5018SOL     OW15952   0.874   1.216   0.266
 5018SOL    HW115953   0.819   1.138   0.238
 5018SOL    HW215954   0.963   1.185   0.299
 5019SOL     OW15955   1.540   3.887   3.839
 5019SOL    HW115956   1.477   3.857   3.910
 5019SOL    HW215957   1.589   3.968   3.871
 5020SOL     OW15958   1.674   6.975   3.942
 5020SOL    HW115959   1.755   7.022   3.906
 5020SOL    HW215960   1.703   6.903   4.005
 5021SOL     OW15961   2.222   0.592   1.579
 5021SOL    HW115962   2.181   0.658   1.516
 5021SOL    HW215963   2.222   0.629   1.671
 5022SOL     OW15964   6.976   2.777   0.796
 5022SOL    HW115965   6.965   2.684   0.831
 5022SOL    HW215966   7.023   2.833   0.864
 5023SOL     OW15967   0.596   2.795   2.758
 5023SOL    HW115968   0.668   2.773   2.823
 5023SOL    HW215969   0.567   2.711   2.710
 5024SOL     OW15970   4.834   4.446   6.781
 5024SOL    HW115971   4.904   4.414   6.717
 5024SOL    HW215972   4.858   4.537   6.814
 5025SOL     OW15973   5.055   1.789   4.825
 5025SOL    HW115974   5.091   1.757   4.912
 5025SOL    HW215975   5.055   1.713   4.759
 5026SOL     OW15976   5.144   6.046   4.909
 5026SOL    HW115977   5.241   6.022   4.906
 5026SOL    HW215978   5.126   6.097   4.993
 5027SOL     OW15979   5.037   6.778   0.843
 5027SOL    HW115980   5.062   6.739   0.931
 5027SOL    HW215981   4.938   6.783   0.835
 5028SOL     OW15982   6.557   1.482   2.697
 5028SOL    HW115983   6.592   1.414   2.761
 5028SOL    HW215984   6.495   1.544   2.746
 5029SOL     OW15985   5.320   2.790   2.329
 5029SOL    HW115986   5.340   2.722   2.259
 5029SOL    HW215987   5.405   2.820   2.371
 5030SOL     OW15988   0.320   3.220   0.855
 5030SOL    HW115989   0.305   3.160   0.777
 5030SOL    HW215990   0.234   3.262   0.882
 5031SOL     OW15991   6.534   0.361   5.973
 5031SOL    HW115992   6.447   0.390   6.013
 5031SOL    HW215993   6.543   0.262   5.979
 5032SOL     OW15994   2.797   4.424   6.284
 5032SOL    HW115995   2.793   4.351   6.352
 5032SOL    HW215996   2.748   4.395   6.201
 5033SOL     OW15997   1.796   6.429   5.138
 5033SOL    HW115998   1.713   6.378   5.114
 5033SOL    HW215999   1.847   6.451   5.055
 5034SOL     OW16000   4.166   5.563   3.716
 5034SOL    HW116001   4.190   5.630   3.646
 5034SOL    HW216002   4.074   5.528   3.700
 5035SOL     OW16003   2.009   3.432   3.290
 5035SOL    HW116004   1.958   3.472   3.214
 5035SOL    HW216005   2.069   3.501   3.330
 5036SOL     OW16006   1.163   3.334   4.535
 5036SOL    HW116007   1.206   3.296   4.453
 5036SOL    HW216008   1.161   3.434   4.528
 5037SOL     OW16009   5.289   5.065   1.135
 5037SOL    HW116010   5.206   5.112   1.106
 5037SOL    HW216011   5.295   4.976   1.089
 5038SOL     OW16012   2.972   3.877   4.434
 5038SOL    HW116013   2.991   3.945   4.362
 5038SOL    HW216014   3.007   3.910   4.521
 5039SOL     OW16015   0.745   3.465   6.876
 5039SOL    HW116016   0.780   3.371   6.884
 5039SOL    HW216017   0.763   3.499   6.784
 5040SOL     OW16018   0.567   1.866   5.438
 5040SOL    HW116019   0.559   1.777   5.483
 5040SOL    HW216020   0.476   1.904   5.424
 5041SOL     OW16021   6.845   2.276   1.807
 5041SOL    HW116022   6.861   2.369   1.773
 5041SOL    HW216023   6.766   2.276   1.869
 5042SOL     OW16024   1.090   1.977   5.995
 5042SOL    HW116025   1.101   2.062   5.944
 5042SOL    HW216026   0.998   1.940   5.979
 5043SOL     OW16027   2.821   6.594   1.635
 5043SOL    HW116028   2.847   6.690   1.632
 5043SOL    HW216029   2.902   6.537   1.640
 5044SOL     OW16030   0.184   6.146   0.297
 5044SOL    HW116031   0.187   6.242   0.325
 5044SOL    HW216032   0.257   6.128   0.232
 5045SOL     OW16033   5.622   2.798   1.251
 5045SOL    HW116034   5.579   2.844   1.174
 5045SOL    HW216035   5.708   2.843   1.273
 5046SOL     OW16036   3.920   2.981   2.173
 5046SOL    HW116037   4.012   2.963   2.208
 5046SOL    HW216038   3.927   3.021   2.081
 5047SOL     OW16039   1.913   4.194   3.696
 5047SOL    HW116040   1.905   4.105   3.651
 5047SOL    HW216041   1.974   4.186   3.774
 5048SOL     OW16042   2.731   0.378   5.732
 5048SOL    HW116043   2.676   0.442   5.787
 5048SOL    HW216044   2.673   0.338   5.661
 5049SOL     OW16045   3.783   1.433   6.486
 5049SOL    HW116046   3.709   1.472   6.432
 5049SOL    HW216047   3.849   1.504   6.508
 5050SOL     OW16048   1.412   0.600   0.584
 5050SOL    HW116049   1.413   0.538   0.663
 5050SOL    HW216050   1.386   0.692   0.614
 5051SOL     OW16051   4.697   4.736   0.777
 5051SOL    HW116052   4.624   4.693   0.725
 5051SOL    HW216053   4.659   4.781   0.858
 5052SOL     OW16054   1.955   3.317   4.462
 5052SOL    HW116055   2.007   3.397   4.494
 5052SOL    HW216056   1.882   3.347   4.402
 5053SOL     OW16057   6.435   0.244   0.872
 5053SOL    HW116058   6.480   0.187   0.940
 5053SOL    HW216059   6.382   0.186   0.809
 5054SOL     OW16060   4.484   5.413   3.609
 5054SOL    HW116061   4.419   5.353   3.656
 5054SOL    HW216062   4.577   5.386   3.632
 5055SOL     OW16063   0.144   4.224   5.669
 5055SOL    HW116064   0.167   4.321   5.660
 5055SOL    HW216065   0.107   4.190   5.583
 5056SOL     OW16066   6.507   4.540   3.231
 5056SOL    HW116067   6.492   4.479   3.154
 5056SOL    HW216068   6.519   4.487   3.315
 5057SOL     OW16069   0.251   6.109   2.387
 5057SOL    HW116070   0.199   6.152   2.461
 5057SOL    HW216071   0.193   6.041   2.341
 5058SOL     OW16072   2.597   5.966   5.728
 5058SOL    HW116073   2.511   5.995   5.686
 5058SOL    HW216074   2.581   5.882   5.780
 5059SOL     OW16075   6.789   0.611   1.794
 5059SOL    HW116076   6.837   0.531   1.759
 5059SOL    HW216077   6.831   0.694   1.757
 5060SOL     OW16078   0.223   2.525   6.466
 5060SOL    HW116079   0.208   2.454   6.397
 5060SOL    HW216080   0.145   2.527   6.529
 5061SOL     OW16081   5.735   3.192   0.750
 5061SOL    HW116082   5.699   3.195   0.843
 5061SOL    HW216083   5.667   3.151   0.689
 5062SOL     OW16084   6.513   0.188   0.058
 5062SOL    HW116085   6.517   0.141   0.146
 5062SOL    HW216086   6.519   0.287   0.073
 5063SOL     OW16087   1.191   6.519   2.585
 5063SOL    HW116088   1.276   6.489   2.629
 5063SOL    HW216089   1.117   6.518   2.652
 5064SOL     OW16090   5.152   3.953   6.982
 5064SOL    HW116091   5.114   3.872   6.939
 5064SOL    HW216092   5.080   4.002   0.006
 5065SOL     OW16093   3.170   6.619   6.320
 5065SOL    HW116094   3.172   6.687   6.246
 5065SOL    HW216095   3.076   6.604   6.349
 5066SOL     OW16096   4.762   4.940   0.570
 5066SOL    HW116097   4.737   4.933   0.474
 5066SOL    HW216098   4.727   4.861   0.620
 5067SOL     OW16099   5.474   1.365   6.459
 5067SOL    HW116100   5.398   1.332   6.515
 5067SOL    HW216101   5.479   1.312   6.375
 5068SOL     OW16102   3.721   4.755   1.106
 5068SOL    HW116103   3.769   4.716   1.028
 5068SOL    HW216104   3.684   4.681   1.163
 5069SOL     OW16105   6.559   5.268   3.039
 5069SOL    HW116106   6.509   5.346   3.003
 5069SOL    HW216107   6.522   5.183   2.999
 5070SOL     OW16108   5.160   2.431   3.440
 5070SOL    HW116109   5.255   2.401   3.431
 5070SOL    HW216110   5.139   2.498   3.369
 5071SOL     OW16111   5.108   1.140   1.300
 5071SOL    HW116112   5.079   1.218   1.245
 5071SOL    HW216113   5.063   1.057   1.267
 5072SOL     OW16114   0.815   3.532   1.527
 5072SOL    HW116115   0.795   3.595   1.452
 5072SOL    HW216116   0.827   3.584   1.612
 5073SOL     OW16117   3.631   2.140   3.313
 5073SOL    HW116118   3.616   2.230   3.272
 5073SOL    HW216119   3.723   2.136   3.352
 5074SOL     OW16120   4.314   4.348   5.342
 5074SOL    HW116121   4.300   4.251   5.321
 5074SOL    HW216122   4.300   4.403   5.259
 5075SOL     OW16123   0.177   6.998   3.541
 5075SOL    HW116124   0.230   0.031   3.602
 5075SOL    HW216125   0.222   6.909   3.532
 5076SOL     OW16126   4.774   0.551   1.006
 5076SOL    HW116127   4.733   0.638   0.978
 5076SOL    HW216128   4.807   0.502   0.926
 5077SOL     OW16129   6.561   2.688   2.769
 5077SOL    HW116130   6.510   2.723   2.690
 5077SOL    HW216131   6.657   2.675   2.744
 5078SOL     OW16132   7.014   1.152   4.699
 5078SOL    HW116133   7.014   1.083   4.771
 5078SOL    HW216134   7.001   1.242   4.739
 5079SOL     OW16135   4.669   4.933   4.678
 5079SOL    HW116136   4.656   4.837   4.701
 5079SOL    HW216137   4.622   4.990   4.746
 5080SOL     OW16138   5.890   1.113   6.385
 5080SOL    HW116139   5.984   1.082   6.374
 5080SOL    HW216140   5.876   1.198   6.334
 5081SOL     OW16141   3.095   3.034   3.040
 5081SOL    HW116142   3.051   2.945   3.052
 5081SOL    HW216143   3.111   3.076   3.129
 5082SOL     OW16144   0.893   1.353   5.352
 5082SOL    HW116145   0.870   1.409   5.273
 5082SOL    HW216146   0.813   1.299   5.379
 5083SOL     OW16147   0.904   4.039   2.120
 5083SOL    HW116148   0.932   3.979   2.045
 5083SOL    HW216149   0.978   4.045   2.188
 5084SOL     OW16150   1.256   5.600   2.181
 5084SOL    HW116151   1.223   5.617   2.088
 5084SOL    HW216152   1.355   5.614   2.184
 5085SOL     OW16153   6.564   3.995   0.161
 5085SOL    HW116154   6.639   4.027   0.102
 5085SOL    HW216155   6.567   4.045   0.248
 5086SOL     OW16156   6.274   5.561   4.895
 5086SOL    HW116157   6.350   5.513   4.850
 5086SOL    HW216158   6.201   5.575   4.828
 5087SOL     OW16159   5.204   5.227   5.217
 5087SOL    HW116160   5.236   5.308   5.168
 5087SOL    HW216161   5.274   5.198   5.282
 5088SOL     OW16162   6.453   1.042   6.905
 5088SOL    HW116163   6.488   0.949   6.913
 5088SOL    HW216164   6.409   1.068   6.991
 5089SOL     OW16165   5.344   2.423   4.136
 5089SOL    HW116166   5.355   2.351   4.067
 5089SOL    HW216167   5.432   2.439   4.181
 5090SOL     OW16168   1.367   5.159   0.389
 5090SOL    HW116169   1.345   5.254   0.368
 5090SOL    HW216170   1.355   5.103   0.307
 5091SOL     OW16171   0.840   6.143   3.571
 5091SOL    HW116172   0.806   6.222   3.621
 5091SOL    HW216173   0.940   6.142   3.574
 5092SOL     OW16174   3.503   2.692   1.464
 5092SOL    HW116175   3.565   2.675   1.540
 5092SOL    HW216176   3.430   2.754   1.494
 5093SOL     OW16177   0.873   1.127   1.743
 5093SOL    HW116178   0.875   1.030   1.720
 5093SOL    HW216179   0.794   1.146   1.802
 5094SOL     OW16180   0.205   0.272   6.503
 5094SOL    HW116181   0.271   0.197   6.498
 5094SOL    HW216182   0.229   0.341   6.435
 5095SOL     OW16183   3.323   0.540   5.152
 5095SOL    HW116184   3.391   0.609   5.180
 5095SOL    HW216185   3.231   0.579   5.160
 5096SOL     OW16186   3.445   6.230   2.444
 5096SOL    HW116187   3.535   6.218   2.486
 5096SOL    HW216188   3.432   6.326   2.419
 5097SOL     OW16189   1.253   1.848   6.772
 5097SOL    HW116190   1.266   1.774   6.838
 5097SOL    HW216191   1.341   1.874   6.733
 5098SOL     OW16192   0.418   2.516   3.093
 5098SOL    HW116193   0.493   2.537   3.029
 5098SOL    HW216194   0.456   2.501   3.184
 5099SOL     OW16195   0.440   1.071   4.473
 5099SOL    HW116196   0.513   1.017   4.431
 5099SOL    HW216197   0.377   1.104   4.402
 5100SOL     OW16198   4.488   4.828   5.666
 5100SOL    HW116199   4.405   4.826   5.723
 5100SOL    HW216200   4.557   4.885   5.711
 5101SOL     OW16201   5.561   6.399   0.676
 5101SOL    HW116202   5.625   6.351   0.616
 5101SOL    HW216203   5.484   6.339   0.698
 5102SOL     OW16204   3.074   5.632   3.626
 5102SOL    HW116205   3.072   5.578   3.710
 5102SOL    HW216206   3.108   5.576   3.551
 5103SOL     OW16207   1.354   1.473   3.756
 5103SOL    HW116208   1.437   1.502   3.707
 5103SOL    HW216209   1.280   1.536   3.735
 5104SOL     OW16210   0.909   0.829   0.624
 5104SOL    HW116211   0.907   0.732   0.603
 5104SOL    HW216212   1.004   0.860   0.631
 5105SOL     OW16213   1.308   2.813   6.573
 5105SOL    HW116214   1.357   2.726   6.572
 5105SOL    HW216215   1.374   2.889   6.576
 5106SOL     OW16216   2.202   6.916   2.221
 5106SOL    HW116217   2.226   6.872   2.308
 5106SOL    HW216218   2.156   7.002   2.240
 5107SOL     OW16219   2.160   6.717   6.560
 5107SOL    HW116220   2.067   6.682   6.557
 5107SOL    HW216221   2.211   6.669   6.631
 5108SOL     OW16222   3.854   3.879   4.697
 5108SOL    HW116223   3.806   3.959   4.734
 5108SOL    HW216224   3.788   3.818   4.655
 5109SOL     OW16225   0.189   2.073   2.950
 5109SOL    HW116226   0.181   2.148   3.015
 5109SOL    HW216227   0.133   2.092   2.869
 5110SOL     OW16228   2.475   6.534   5.364
 5110SOL    HW116229   2.556   6.576   5.403
 5110SOL    HW216230   2.398   6.544   5.426
 5111SOL     OW16231   1.370   0.408   6.744
 5111SOL    HW116232   1.386   0.482   6.809
 5111SOL    HW216233   1.457   0.365   6.721
 5112SOL     OW16234   0.460   0.270   2.962
 5112SOL    HW116235   0.515   0.203   3.013
 5112SOL    HW216236   0.389   0.222   2.910
 5113SOL     OW16237   0.633   1.264   6.636
 5113SOL    HW116238   0.629   1.237   6.540
 5113SOL    HW216239   0.680   1.193   6.689
 5114SOL     OW16240   4.700   5.875   6.341
 5114SOL    HW116241   4.718   5.857   6.437
 5114SOL    HW216242   4.693   5.974   6.326
 5115SOL     OW16243   2.550   3.793   5.357
 5115SOL    HW116244   2.640   3.774   5.317
 5115SOL    HW216245   2.498   3.851   5.295
 5116SOL     OW16246   6.875   3.906   1.183
 5116SOL    HW116247   6.878   4.003   1.163
 5116SOL    HW216248   6.927   3.855   1.114
 5117SOL     OW16249   2.409   5.272   3.072
 5117SOL    HW116250   2.340   5.290   3.143
 5117SOL    HW216251   2.490   5.233   3.115
 5118SOL     OW16252   4.074   0.180   1.552
 5118SOL    HW116253   4.126   0.153   1.471
 5118SOL    HW216254   4.051   0.278   1.545
 5119SOL     OW16255   6.364   0.703   2.107
 5119SOL    HW116256   6.444   0.675   2.056
 5119SOL    HW216257   6.300   0.751   2.046
 5120SOL     OW16258   3.262   1.641   1.882
 5120SOL    HW116259   3.182   1.641   1.822
 5120SOL    HW216260   3.284   1.547   1.908
 5121SOL     OW16261   0.541   4.034   4.105
 5121SOL    HW116262   0.589   3.969   4.163
 5121SOL    HW216263   0.444   4.037   4.129
 5122SOL     OW16264   2.221   5.582   3.175
 5122SOL    HW116265   2.242   5.620   3.084
 5122SOL    HW216266   2.187   5.655   3.234
 5123SOL     OW16267   6.067   3.067   2.565
 5123SOL    HW116268   6.088   3.165   2.561
 5123SOL    HW216269   5.973   3.056   2.598
 5124SOL     OW16270   3.141   5.936   0.637
 5124SOL    HW116271   3.216   5.975   0.584
 5124SOL    HW216272   3.172   5.920   0.731
 5125SOL     OW16273   0.800   1.796   6.145
 5125SOL    HW116274   0.725   1.781   6.209
 5125SOL    HW216275   0.874   1.845   6.190
 5126SOL     OW16276   4.236   1.714   0.403
 5126SOL    HW116277   4.157   1.728   0.463
 5126SOL    HW216278   4.205   1.704   0.309
 5127SOL     OW16279   4.774   3.585   6.616
 5127SOL    HW116280   4.691   3.626   6.578
 5127SOL    HW216281   4.769   3.485   6.607
 5128SOL     OW16282   0.262   0.779   6.419
 5128SOL    HW116283   0.263   0.710   6.492
 5128SOL    HW216284   0.349   0.777   6.371
 5129SOL     OW16285   4.824   2.853   3.868
 5129SOL    HW116286   4.743   2.829   3.921
 5129SOL    HW216287   4.874   2.926   3.914
 5130SOL     OW16288   2.488   6.588   4.774
 5130SOL    HW116289   2.412   6.541   4.820
 5130SOL    HW216290   2.571   6.533   4.782
 5131SOL     OW16291   3.267   4.985   3.108
 5131SOL    HW116292   3.277   4.963   3.205
 5131SOL    HW216293   3.357   4.990   3.065
 5132SOL     OW16294   3.649   2.009   6.195
 5132SOL    HW116295   3.587   1.962   6.133
 5132SOL    HW216296   3.620   2.104   6.206
 5133SOL     OW16297   4.092   4.416   6.129
 5133SOL    HW116298   4.046   4.446   6.046
 5133SOL    HW216299   4.157   4.343   6.107
 5134SOL     OW16300   5.967   6.061   0.526
 5134SOL    HW116301   6.009   6.027   0.442
 5134SOL    HW216302   5.998   6.007   0.604
 5135SOL     OW16303   0.443   2.997   2.162
 5135SOL    HW116304   0.486   3.006   2.252
 5135SOL    HW216305   0.397   2.908   2.155
 5136SOL     OW16306   0.182   6.981   4.136
 5136SOL    HW116307   0.219   6.944   4.221
 5136SOL    HW216308   0.218   0.048   4.123
 5137SOL     OW16309   5.843   0.706   2.748
 5137SOL    HW116310   5.841   0.805   2.735
 5137SOL    HW216311   5.781   0.681   2.822
 5138SOL     OW16312   3.264   3.700   2.858
 5138SOL    HW116313   3.282   3.615   2.807
 5138SOL    HW216314   3.340   3.719   2.920
 5139SOL     OW16315   5.027   0.444   4.874
 5139SOL    HW116316   4.998   0.519   4.814
 5139SOL    HW216317   5.126   0.449   4.886
 5140SOL     OW16318   2.770   3.730   6.003
 5140SOL    HW116319   2.857   3.767   6.037
 5140SOL    HW216320   2.761   3.752   5.906
 5141SOL     OW16321   0.943   3.059   1.084
 5141SOL    HW116322   1.037   3.058   1.116
 5141SOL    HW216323   0.887   3.001   1.143
 5142SOL     OW16324   0.446   6.855   2.499
 5142SOL    HW116325   0.505   6.844   2.419
 5142SOL    HW216326   0.464   6.943   2.542
 5143SOL     OW16327   6.298   6.731   2.725
 5143SOL    HW116328   6.374   6.759   2.666
 5143SOL    HW216329   6.213   6.732   2.672
 5144SOL     OW16330   2.025   2.898   5.459
 5144SOL    HW116331   2.066   2.807   5.453
 5144SOL    HW216332   2.097   2.967   5.465
 5145SOL     OW16333   1.436   5.308   5.635
 5145SOL    HW116334   1.424   5.330   5.732
 5145SOL    HW216335   1.414   5.212   5.619
 5146SOL     OW16336   5.572   6.074   6.802
 5146SOL    HW116337   5.668   6.063   6.776
 5146SOL    HW216338   5.559   6.165   6.841
 5147SOL     OW16339   4.926   1.289   3.279
 5147SOL    HW116340   4.985   1.358   3.236
 5147SOL    HW216341   4.850   1.335   3.324
 5148SOL     OW16342   5.915   1.747   0.720
 5148SOL    HW116343   5.847   1.809   0.683
 5148SOL    HW216344   5.995   1.745   0.660
 5149SOL     OW16345   3.236   6.140   3.686
 5149SOL    HW116346   3.332   6.114   3.695
 5149SOL    HW216347   3.228   6.239   3.693
 5150SOL     OW16348   6.822   0.688   3.727
 5150SOL    HW116349   6.920   0.676   3.740
 5150SOL    HW216350   6.786   0.747   3.800
 5151SOL     OW16351   5.435   4.598   2.092
 5151SOL    HW116352   5.339   4.596   2.119
 5151SOL    HW216353   5.482   4.517   2.126
 5152SOL     OW16354   2.306   1.712   0.222
 5152SOL    HW116355   2.317   1.767   0.304
 5152SOL    HW216356   2.243   1.759   0.159
 5153SOL     OW16357   2.611   2.424   0.126
 5153SOL    HW116358   2.576   2.447   0.035
 5153SOL    HW216359   2.707   2.399   0.120
 5154SOL     OW16360   0.432   2.777   0.376
 5154SOL    HW116361   0.386   2.834   0.444
 5154SOL    HW216362   0.389   2.789   0.287
 5155SOL     OW16363   1.523   0.873   0.210
 5155SOL    HW116364   1.532   0.874   0.110
 5155SOL    HW216365   1.604   0.832   0.251
 5156SOL     OW16366   5.410   5.025   6.264
 5156SOL    HW116367   5.404   4.997   6.359
 5156SOL    HW216368   5.369   4.954   6.206
 5157SOL     OW16369   3.283   1.372   1.943
 5157SOL    HW116370   3.187   1.348   1.936
 5157SOL    HW216371   3.332   1.340   1.863
 5158SOL     OW16372   1.611   2.666   2.630
 5158SOL    HW116373   1.525   2.714   2.610
 5158SOL    HW216374   1.618   2.652   2.729
 5159SOL     OW16375   6.731   2.997   5.326
 5159SOL    HW116376   6.646   2.999   5.379
 5159SOL    HW216377   6.786   3.077   5.350
 5160SOL     OW16378   6.807   0.179   3.047
 5160SOL    HW116379   6.724   0.222   3.010
 5160SOL    HW216380   6.815   0.202   3.144
 5161SOL     OW16381   0.978   1.939   6.778
 5161SOL    HW116382   1.008   1.852   6.817
 5161SOL    HW216383   1.057   1.998   6.762
 5162SOL     OW16384   0.271   6.993   5.591
 5162SOL    HW116385   0.278   0.004   5.684
 5162SOL    HW216386   0.363   6.980   5.553
 5163SOL     OW16387   3.051   0.848   1.553
 5163SOL    HW116388   3.101   0.916   1.500
 5163SOL    HW216389   2.987   0.895   1.615
 5164SOL     OW16390   2.501   3.234   0.385
 5164SOL    HW116391   2.417   3.187   0.360
 5164SOL    HW216392   2.580   3.176   0.362
 5165SOL     OW16393   1.005   5.006   5.256
 5165SOL    HW116394   0.919   5.056   5.248
 5165SOL    HW216395   1.077   5.068   5.289
 5166SOL     OW16396   6.702   6.145   5.720
 5166SOL    HW116397   6.762   6.211   5.674
 5166SOL    HW216398   6.610   6.154   5.683
 5167SOL     OW16399   6.380   3.551   6.090
 5167SOL    HW116400   6.326   3.598   6.160
 5167SOL    HW216401   6.396   3.456   6.118
 5168SOL     OW16402   5.024   1.809   3.437
 5168SOL    HW116403   5.038   1.767   3.527
 5168SOL    HW216404   5.101   1.870   3.417
 5169SOL     OW16405   4.713   5.491   4.396
 5169SOL    HW116406   4.646   5.510   4.324
 5169SOL    HW216407   4.735   5.393   4.396
 5170SOL     OW16408   2.366   3.850   6.190
 5170SOL    HW116409   2.359   3.790   6.269
 5170SOL    HW216410   2.386   3.796   6.108
 5171SOL     OW16411   2.463   6.582   5.985
 5171SOL    HW116412   2.369   6.611   6.003
 5171SOL    HW216413   2.485   6.501   6.040
 5172SOL     OW16414   5.646   5.634   5.902
 5172SOL    HW116415   5.663   5.668   5.994
 5172SOL    HW216416   5.637   5.534   5.904
 5173SOL     OW16417   3.881   6.081   4.027
 5173SOL    HW116418   3.942   6.061   3.950
 5173SOL    HW216419   3.793   6.037   4.012
 5174SOL     OW16420   0.872   5.856   3.192
 5174SOL    HW116421   0.882   5.802   3.109
 5174SOL    HW216422   0.879   5.953   3.170
 5175SOL     OW16423   3.119   1.582   6.550
 5175SOL    HW116424   3.107   1.562   6.647
 5175SOL    HW216425   3.045   1.538   6.498
 5176SOL     OW16426   5.859   6.386   6.302
 5176SOL    HW116427   5.953   6.391   6.336
 5176SOL    HW216428   5.802   6.336   6.368
 5177SOL     OW16429   5.529   5.982   0.649
 5177SOL    HW116430   5.495   5.893   0.619
 5177SOL    HW216431   5.532   5.985   0.749
 5178SOL     OW16432   0.756   3.926   1.142
 5178SOL    HW116433   0.692   3.889   1.075
 5178SOL    HW216434   0.766   3.862   1.218
 5179SOL     OW16435   4.075   5.207   2.839
 5179SOL    HW116436   4.028   5.253   2.914
 5179SOL    HW216437   4.091   5.273   2.765
 5180SOL     OW16438   2.634   5.051   2.010
 5180SOL    HW116439   2.548   5.100   1.997
 5180SOL    HW216440   2.618   4.953   2.001
 5181SOL     OW16441   6.705   1.708   5.726
 5181SOL    HW116442   6.638   1.759   5.779
 5181SOL    HW216443   6.676   1.613   5.717
 5182SOL     OW16444   2.119   6.209   1.994
 5182SOL    HW116445   2.056   6.287   1.997
 5182SOL    HW216446   2.101   6.154   1.912
 5183SOL     OW16447   5.506   2.042   3.485
 5183SOL    HW116448   5.594   2.040   3.439
 5183SOL    HW216449   5.517   2.009   3.579
 5184SOL     OW16450   2.977   1.483   2.498
 5184SOL    HW116451   2.929   1.518   2.417
 5184SOL    HW216452   3.036   1.554   2.535
 5185SOL     OW16453   6.314   0.029   1.684
 5185SOL    HW116454   6.338   0.124   1.707
 5185SOL    HW216455   6.248   0.029   1.610
 5186SOL     OW16456   6.095   2.510   6.729
 5186SOL    HW116457   6.175   2.514   6.790
 5186SOL    HW216458   6.011   2.511   6.784
 5187SOL     OW16459   1.280   4.325   4.744
 5187SOL    HW116460   1.284   4.413   4.791
 5187SOL    HW216461   1.331   4.330   4.658
 5188SOL     OW16462   0.188   0.041   1.695
 5188SOL    HW116463   0.107   0.093   1.722
 5188SOL    HW216464   0.222   0.076   1.608
 5189SOL     OW16465   5.344   5.934   6.723
 5189SOL    HW116466   5.427   5.982   6.752
 5189SOL    HW216467   5.273   5.946   6.792
 5190SOL     OW16468   1.397   4.842   0.926
 5190SOL    HW116469   1.381   4.785   0.846
 5190SOL    HW216470   1.383   4.938   0.903
 5191SOL     OW16471   2.843   4.083   1.652
 5191SOL    HW116472   2.771   4.048   1.592
 5191SOL    HW216473   2.871   4.011   1.716
 5192SOL     OW16474   0.670   4.463   2.918
 5192SOL    HW116475   0.707   4.385   2.969
 5192SOL    HW216476   0.634   4.431   2.830
 5193SOL     OW16477   4.096   0.366   4.927
 5193SOL    HW116478   4.113   0.371   5.025
 5193SOL    HW216479   4.116   0.274   4.894
 5194SOL     OW16480   4.803   1.556   5.175
 5194SOL    HW116481   4.820   1.493   5.099
 5194SOL    HW216482   4.847   1.644   5.155
 5195SOL     OW16483   1.763   1.243   5.656
 5195SOL    HW116484   1.726   1.323   5.704
 5195SOL    HW216485   1.862   1.238   5.671
 5196SOL     OW16486   5.867   6.377   3.090
 5196SOL    HW116487   5.914   6.290   3.083
 5196SOL    HW216488   5.857   6.417   2.999
 5197SOL     OW16489   1.894   3.954   5.127
 5197SOL    HW116490   1.875   3.863   5.090
 5197SOL    HW216491   1.989   3.959   5.156
 5198SOL     OW16492   6.524   5.728   3.816
 5198SOL    HW116493   6.574   5.679   3.745
 5198SOL    HW216494   6.439   5.764   3.778
 5199SOL     OW16495   0.981   5.224   1.255
 5199SOL    HW116496   0.944   5.199   1.166
 5199SOL    HW216497   0.965   5.150   1.320
 5200SOL     OW16498   6.432   3.872   5.148
 5200SOL    HW116499   6.363   3.913   5.207
 5200SOL    HW216500   6.522   3.877   5.192
 5201SOL     OW16501   0.861   6.207   5.046
 5201SOL    HW116502   0.821   6.129   5.092
 5201SOL    HW216503   0.899   6.271   5.113
 5202SOL     OW16504   0.190   4.227   1.571
 5202SOL    HW116505   0.188   4.167   1.491
 5202SOL    HW216506   0.224   4.317   1.545
 5203SOL     OW16507   6.538   3.315   6.628
 5203SOL    HW116508   6.616   3.254   6.613
 5203SOL    HW216509   6.566   3.392   6.685
 5204SOL     OW16510   5.245   5.514   6.628
 5204SOL    HW116511   5.162   5.558   6.592
 5204SOL    HW216512   5.289   5.574   6.694
 5205SOL     OW16513   2.760   5.831   0.407
 5205SOL    HW116514   2.801   5.752   0.361
 5205SOL    HW216515   2.811   5.850   0.491
 5206SOL     OW16516   0.379   4.451   5.083
 5206SOL    HW116517   0.360   4.544   5.117
 5206SOL    HW216518   0.366   4.386   5.158
 5207SOL     OW16519   1.517   5.393   1.988
 5207SOL    HW116520   1.490   5.459   2.058
 5207SOL    HW216521   1.581   5.326   2.027
 5208SOL     OW16522   4.632   1.566   0.027
 5208SOL    HW116523   4.642   1.561   0.126
 5208SOL    HW216524   4.653   1.477   7.012
 5209SOL     OW16525   5.949   4.906   3.002
 5209SOL    HW116526   5.965   4.906   3.101
 5209SOL    HW216527   6.027   4.950   2.957
 5210SOL     OW16528   5.164   3.921   3.421
 5210SOL    HW116529   5.186   3.846   3.484
 5210SOL    HW216530   5.186   3.892   3.328
 5211SOL     OW16531   3.212   3.966   2.614
 5211SOL    HW116532   3.260   4.041   2.660
 5211SOL    HW216533   3.222   3.975   2.515
 5212SOL     OW16534   0.703   0.227   6.454
 5212SOL    HW116535   0.634   0.262   6.518
 5212SOL    HW216536   0.730   0.135   6.481
 5213SOL     OW16537   4.857   2.021   6.071
 5213SOL    HW116538   4.810   1.997   6.155
 5213SOL    HW216539   4.931   1.955   6.054
 5214SOL     OW16540   4.279   2.022   0.136
 5214SOL    HW116541   4.358   1.990   0.188
 5214SOL    HW216542   4.308   2.050   0.045
 5215SOL     OW16543   5.768   5.496   3.995
 5215SOL    HW116544   5.701   5.461   4.060
 5215SOL    HW216545   5.844   5.433   3.988
 5216SOL     OW16546   4.070   6.111   1.258
 5216SOL    HW116547   4.026   6.192   1.219
 5216SOL    HW216548   4.083   6.043   1.185
 5217SOL     OW16549   3.001   4.965   3.646
 5217SOL    HW116550   3.054   4.920   3.717
 5217SOL    HW216551   3.018   5.064   3.649
 5218SOL     OW16552   1.661   0.272   3.295
 5218SOL    HW116553   1.701   0.196   3.345
 5218SOL    HW216554   1.698   0.273   3.202
 5219SOL     OW16555   3.119   0.174   1.191
 5219SOL    HW116556   3.090   0.110   1.262
 5219SOL    HW216557   3.126   0.266   1.229
 5220SOL     OW16558   1.073   6.621   2.282
 5220SOL    HW116559   1.028   6.636   2.370
 5220SOL    HW216560   1.124   6.703   2.257
 5221SOL     OW16561   4.448   0.808   0.304
 5221SOL    HW116562   4.469   0.730   0.246
 5221SOL    HW216563   4.533   0.846   0.341
 5222SOL     OW16564   0.742   6.460   2.551
 5222SOL    HW116565   0.789   6.542   2.518
 5222SOL    HW216566   0.659   6.445   2.498
 5223SOL     OW16567   4.041   6.748   1.377
 5223SOL    HW116568   4.114   6.742   1.445
 5223SOL    HW216569   3.984   6.828   1.396
 5224SOL     OW16570   5.494   0.856   3.739
 5224SOL    HW116571   5.548   0.938   3.716
 5224SOL    HW216572   5.535   0.776   3.696
 5225SOL     OW16573   0.498   6.913   5.449
 5225SOL    HW116574   0.477   6.820   5.420
 5225SOL    HW216575   0.478   6.977   5.375
 5226SOL     OW16576   2.397   0.511   3.841
 5226SOL    HW116577   2.439   0.478   3.926
 5226SOL    HW216578   2.377   0.433   3.781
 5227SOL     OW16579   5.111   3.445   4.595
 5227SOL    HW116580   5.062   3.445   4.683
 5227SOL    HW216581   5.096   3.358   4.549
 5228SOL     OW16582   4.973   0.055   1.444
 5228SOL    HW116583   4.901   0.108   1.400
 5228SOL    HW216584   5.062   0.094   1.419
 5229SOL     OW16585   0.528   4.318   3.412
 5229SOL    HW116586   0.558   4.259   3.487
 5229SOL    HW216587   0.437   4.356   3.433
 5230SOL     OW16588   0.675   1.673   6.582
 5230SOL    HW116589   0.774   1.688   6.577
 5230SOL    HW216590   0.647   1.661   6.678
 5231SOL     OW16591   2.937   3.427   3.754
 5231SOL    HW116592   2.888   3.438   3.841
 5231SOL    HW216593   2.941   3.330   3.731
 5232SOL     OW16594   5.037   2.848   4.741
 5232SOL    HW116595   4.987   2.934   4.729
 5232SOL    HW216596   5.119   2.864   4.795
 5233SOL     OW16597   0.827   6.882   2.999
 5233SOL    HW116598   0.804   6.798   3.048
 5233SOL    HW216599   0.919   6.912   3.025
 5234SOL     OW16600   4.082   4.926   1.468
 5234SOL    HW116601   4.118   4.963   1.382
 5234SOL    HW216602   4.102   4.828   1.473
 5235SOL     OW16603   1.107   2.665   1.825
 5235SOL    HW116604   1.133   2.589   1.884
 5235SOL    HW216605   1.185   2.728   1.815
 5236SOL     OW16606   6.295   3.589   0.260
 5236SOL    HW116607   6.374   3.638   0.224
 5236SOL    HW216608   6.222   3.590   0.193
 5237SOL     OW16609   1.981   1.892   2.996
 5237SOL    HW116610   1.897   1.866   3.043
 5237SOL    HW216611   2.002   1.826   2.924
 5238SOL     OW16612   2.229   3.198   0.615
 5238SOL    HW116613   2.244   3.212   0.517
 5238SOL    HW216614   2.311   3.159   0.656
 5239SOL     OW16615   2.753   3.461   5.294
 5239SOL    HW116616   2.847   3.447   5.264
 5239SOL    HW216617   2.702   3.376   5.286
 5240SOL     OW16618   3.757   2.052   4.794
 5240SOL    HW116619   3.788   2.141   4.826
 5240SOL    HW216620   3.683   2.019   4.853
 5241SOL     OW16621   3.722   5.614   5.346
 5241SOL    HW116622   3.816   5.581   5.356
 5241SOL    HW216623   3.715   5.708   5.379
 5242SOL     OW16624   3.923   0.053   5.654
 5242SOL    HW116625   3.965   6.989   5.638
 5242SOL    HW216626   3.994   0.117   5.685
 5243SOL     OW16627   1.268   3.690   0.484
 5243SOL    HW116628   1.264   3.773   0.429
 5243SOL    HW216629   1.205   3.622   0.446
 5244SOL     OW16630   5.645   3.748   6.974
 5244SOL    HW116631   5.619   3.775   6.881
 5244SOL    HW216632   5.564   3.720   7.024
 5245SOL     OW16633   4.554   3.836   5.965
 5245SOL    HW116634   4.596   3.792   5.886
 5245SOL    HW216635   4.570   3.780   6.047
 5246SOL     OW16636   1.473   3.508   3.371
 5246SOL    HW116637   1.547   3.441   3.373
 5246SOL    HW216638   1.502   3.590   3.420
 5247SOL     OW16639   0.824   4.840   0.352
 5247SOL    HW116640   0.789   4.753   0.384
 5247SOL    HW216641   0.781   4.915   0.403
 5248SOL     OW16642   4.972   1.147   0.123
 5248SOL    HW116643   5.044   1.178   0.061
 5248SOL    HW216644   4.912   1.082   0.076
 5249SOL     OW16645   1.260   5.562   0.094
 5249SOL    HW116646   1.193   5.627   0.129
 5249SOL    HW216647   1.283   5.585   7.025
 5250SOL     OW16648   1.174   1.565   5.745
 5250SOL    HW116649   1.241   1.497   5.715
 5250SOL    HW216650   1.126   1.601   5.665
 5251SOL     OW16651   0.453   2.752   1.182
 5251SOL    HW116652   0.542   2.751   1.135
 5251SOL    HW216653   0.450   2.831   1.244
 5252SOL     OW16654   5.009   6.294   1.072
 5252SOL    HW116655   4.976   6.369   1.129
 5252SOL    HW216656   4.932   6.235   1.047
 5253SOL     OW16657   5.607   3.016   3.695
 5253SOL    HW116658   5.606   3.084   3.769
 5253SOL    HW216659   5.573   2.929   3.731
 5254SOL     OW16660   5.473   0.553   4.292
 5254SOL    HW116661   5.524   0.525   4.373
 5254SOL    HW216662   5.503   0.499   4.213
 5255SOL     OW16663   2.419   5.382   3.354
 5255SOL    HW116664   2.462   5.442   3.287
 5255SOL    HW216665   2.325   5.412   3.370
 5256SOL     OW16666   5.046   6.098   2.146
 5256SOL    HW116667   5.022   6.187   2.185
 5256SOL    HW216668   4.997   6.026   2.194
 5257SOL     OW16669   2.869   1.451   2.891
 5257SOL    HW116670   2.814   1.377   2.854
 5257SOL    HW216671   2.817   1.536   2.888
 5258SOL     OW16672   5.707   1.708   1.593
 5258SOL    HW116673   5.788   1.754   1.559
 5258SOL    HW216674   5.678   1.638   1.527
 5259SOL     OW16675   6.007   4.698   1.852
 5259SOL    HW116676   6.019   4.600   1.838
 5259SOL    HW216677   5.940   4.733   1.786
 5260SOL     OW16678   4.727   2.900   1.675
 5260SOL    HW116679   4.706   2.969   1.744
 5260SOL    HW216680   4.696   2.811   1.706
 5261SOL     OW16681   2.308   2.709   5.301
 5261SOL    HW116682   2.335   2.709   5.205
 5261SOL    HW216683   2.318   2.802   5.338
 5262SOL     OW16684   1.299   0.211   1.836
 5262SOL    HW116685   1.199   0.213   1.835
 5262SOL    HW216686   1.334   0.282   1.774
 5263SOL     OW16687   1.348   6.707   6.756
 5263SOL    HW116688   1.351   6.644   6.678
 5263SOL    HW216689   1.253   6.722   6.783
 5264SOL     OW16690   1.246   0.978   0.959
 5264SOL    HW116691   1.297   0.948   1.039
 5264SOL    HW216692   1.209   1.070   0.974
 5265SOL     OW16693   5.080   4.820   4.121
 5265SOL    HW116694   5.127   4.848   4.205
 5265SOL    HW216695   5.107   4.727   4.097
 5266SOL     OW16696   1.559   0.187   0.955
 5266SOL    HW116697   1.629   0.117   0.940
 5266SOL    HW216698   1.504   0.164   1.035
 5267SOL     OW16699   4.227   3.956   5.259
 5267SOL    HW116700   4.193   3.882   5.317
 5267SOL    HW216701   4.150   4.011   5.227
 5268SOL     OW16702   5.708   5.008   5.747
 5268SOL    HW116703   5.749   4.969   5.664
 5268SOL    HW216704   5.779   5.053   5.801
 5269SOL     OW16705   2.250   5.375   5.733
 5269SOL    HW116706   2.191   5.397   5.810
 5269SOL    HW216707   2.218   5.291   5.689
 5270SOL     OW16708   6.627   2.378   3.538
 5270SOL    HW116709   6.691   2.366   3.614
 5270SOL    HW216710   6.555   2.442   3.564
 5271SOL     OW16711   5.749   3.496   5.575
 5271SOL    HW116712   5.844   3.465   5.570
 5271SOL    HW216713   5.747   3.594   5.595
 5272SOL     OW16714   2.163   2.185   3.914
 5272SOL    HW116715   2.201   2.097   3.886
 5272SOL    HW216716   2.194   2.207   4.006
 5273SOL     OW16717   6.567   0.680   5.832
 5273SOL    HW116718   6.567   0.580   5.841
 5273SOL    HW216719   6.541   0.721   5.919
 5274SOL     OW16720   0.220   5.322   4.336
 5274SOL    HW116721   0.186   5.306   4.428
 5274SOL    HW216722   0.201   5.417   4.309
 5275SOL     OW16723   2.189   6.364   7.012
 5275SOL    HW116724   2.190   6.347   0.085
 5275SOL    HW216725   2.188   6.277   6.963
 5276SOL     OW16726   0.792   0.026   0.201
 5276SOL    HW116727   0.882   0.007   0.239
 5276SOL    HW216728   0.765   6.979   0.138
 5277SOL     OW16729   0.493   1.263   1.669
 5277SOL    HW116730   0.420   1.198   1.693
 5277SOL    HW216731   0.571   1.249   1.729
 5278SOL     OW16732   0.651   4.845   6.059
 5278SOL    HW116733   0.662   4.752   6.094
 5278SOL    HW216734   0.605   4.841   5.970
 5279SOL     OW16735   2.305   6.611   6.994
 5279SOL    HW116736   2.258   6.685   0.017
 5279SOL    HW216737   2.248   6.529   6.994
 5280SOL     OW16738   4.508   6.469   5.744
 5280SOL    HW116739   4.606   6.448   5.750
 5280SOL    HW216740   4.486   6.545   5.805
 5281SOL     OW16741   2.634   6.925   5.058
 5281SOL    HW116742   2.602   6.955   4.968
 5281SOL    HW216743   2.625   7.001   5.123
 5282SOL     OW16744   6.987   6.307   0.773
 5282SOL    HW116745   0.047   6.258   0.795
 5282SOL    HW216746   6.995   6.347   0.682
 5283SOL     OW16747   1.632   0.700   4.261
 5283SOL    HW116748   1.605   0.796   4.271
 5283SOL    HW216749   1.551   0.642   4.269
 5284SOL     OW16750   4.815   2.970   2.225
 5284SOL    HW116751   4.908   2.999   2.247
 5284SOL    HW216752   4.786   3.013   2.139
 5285SOL     OW16753   1.592   2.192   4.554
 5285SOL    HW116754   1.541   2.270   4.520
 5285SOL    HW216755   1.542   2.107   4.533
 5286SOL     OW16756   6.886   3.096   1.353
 5286SOL    HW116757   6.967   3.072   1.299
 5286SOL    HW216758   6.874   3.195   1.353
 5287SOL     OW16759   0.628   5.486   1.813
 5287SOL    HW116760   0.612   5.467   1.716
 5287SOL    HW216761   0.676   5.573   1.823
 5288SOL     OW16762   4.333   0.818   1.593
 5288SOL    HW116763   4.367   0.748   1.655
 5288SOL    HW216764   4.244   0.789   1.556
 5289SOL     OW16765   2.182   4.994   6.165
 5289SOL    HW116766   2.173   5.059   6.090
 5289SOL    HW216767   2.227   4.911   6.132
 5290SOL     OW16768   1.552   2.902   5.030
 5290SOL    HW116769   1.509   2.982   4.988
 5290SOL    HW216770   1.599   2.849   4.959
 5291SOL     OW16771   2.717   5.222   4.463
 5291SOL    HW116772   2.793   5.273   4.504
 5291SOL    HW216773   2.673   5.166   4.533
 5292SOL     OW16774   0.283   3.888   4.968
 5292SOL    HW116775   0.315   3.869   4.875
 5292SOL    HW216776   0.354   3.864   5.034
 5293SOL     OW16777   2.039   0.094   3.583
 5293SOL    HW116778   2.134   0.084   3.550
 5293SOL    HW216779   2.030   0.181   3.631
 5294SOL     OW16780   4.848   0.120   4.125
 5294SOL    HW116781   4.846   0.083   4.032
 5294SOL    HW216782   4.799   0.207   4.127
 5295SOL     OW16783   2.017   0.819   1.197
 5295SOL    HW116784   2.068   0.858   1.121
 5295SOL    HW216785   1.949   0.754   1.162
 5296SOL     OW16786   4.841   5.012   1.801
 5296SOL    HW116787   4.833   5.041   1.897
 5296SOL    HW216788   4.854   4.913   1.797
 5297SOL     OW16789   3.542   5.136   6.284
 5297SOL    HW116790   3.549   5.163   6.380
 5297SOL    HW216791   3.473   5.193   6.238
 5298SOL     OW16792   3.194   1.496   0.010
 5298SOL    HW116793   3.167   1.415   0.063
 5298SOL    HW216794   3.294   1.506   0.015
 5299SOL     OW16795   2.403   0.719   1.358
 5299SOL    HW116796   2.313   0.746   1.393
 5299SOL    HW216797   2.392   0.666   1.274
 5300SOL     OW16798   3.005   5.283   6.506
 5300SOL    HW116799   3.094   5.239   6.498
 5300SOL    HW216800   3.015   5.373   6.549
 5301SOL     OW16801   6.202   6.971   5.641
 5301SOL    HW116802   6.186   6.934   5.549
 5301SOL    HW216803   6.297   7.001   5.649
 5302SOL     OW16804   5.117   5.297   2.783
 5302SOL    HW116805   5.046   5.241   2.826
 5302SOL    HW216806   5.193   5.310   2.846
 5303SOL     OW16807   1.349   6.147   5.348
 5303SOL    HW116808   1.409   6.091   5.405
 5303SOL    HW216809   1.358   6.243   5.374
 5304SOL     OW16810   0.479   0.796   3.373
 5304SOL    HW116811   0.403   0.857   3.348
 5304SOL    HW216812   0.564   0.832   3.336
 5305SOL     OW16813   6.878   5.545   4.735
 5305SOL    HW116814   6.842   5.459   4.768
 5305SOL    HW216815   6.898   5.538   4.637
 5306SOL     OW16816   0.832   2.261   6.128
 5306SOL    HW116817   0.774   2.183   6.103
 5306SOL    HW216818   0.843   2.320   6.048
 5307SOL     OW16819   0.487   1.430   1.446
 5307SOL    HW116820   0.391   1.404   1.436
 5307SOL    HW216821   0.525   1.385   1.527
 5308SOL     OW16822   1.846   4.646   2.751
 5308SOL    HW116823   1.866   4.560   2.799
 5308SOL    HW216824   1.756   4.641   2.708
 5309SOL     OW16825   5.925   6.117   3.373
 5309SOL    HW116826   5.915   6.211   3.406
 5309SOL    HW216827   5.911   6.053   3.448
 5310SOL     OW16828   6.317   2.316   3.308
 5310SOL    HW116829   6.277   2.242   3.253
 5310SOL    HW216830   6.413   2.296   3.325
 5311SOL     OW16831   6.087   0.146   0.324
 5311SOL    HW116832   6.014   0.127   0.389
 5311SOL    HW216833   6.087   0.244   0.301
 5312SOL     OW16834   5.947   6.648   0.683
 5312SOL    HW116835   6.017   6.600   0.630
 5312SOL    HW216836   5.906   6.720   0.627
 5313SOL     OW16837   1.528   0.054   5.788
 5313SOL    HW116838   1.453   7.016   5.809
 5313SOL    HW216839   1.599   0.046   5.858
 5314SOL     OW16840   5.896   1.928   1.530
 5314SOL    HW116841   5.810   1.963   1.493
 5314SOL    HW216842   5.971   1.952   1.468
 5315SOL     OW16843   4.194   2.104   3.714
 5315SOL    HW116844   4.172   2.091   3.617
 5315SOL    HW216845   4.111   2.092   3.769
 5316SOL     OW16846   0.501   2.916   4.986
 5316SOL    HW116847   0.475   2.862   5.066
 5316SOL    HW216848   0.469   2.870   4.903
 5317SOL     OW16849   5.396   3.346   6.910
 5317SOL    HW116850   5.344   3.404   6.972
 5317SOL    HW216851   5.370   3.366   6.816
 5318SOL     OW16852   0.435   3.950   5.518
 5318SOL    HW116853   0.433   4.050   5.531
 5318SOL    HW216854   0.429   3.905   5.607
 5319SOL     OW16855   3.626   6.382   2.229
 5319SOL    HW116856   3.698   6.344   2.288
 5319SOL    HW216857   3.546   6.406   2.284
 5320SOL     OW16858   4.654   5.916   1.055
 5320SOL    HW116859   4.584   5.844   1.051
 5320SOL    HW216860   4.737   5.884   1.010
 5321SOL     OW16861   1.597   4.116   5.910
 5321SOL    HW116862   1.694   4.140   5.919
 5321SOL    HW216863   1.549   4.142   5.994
 5322SOL     OW16864   3.826   6.416   2.019
 5322SOL    HW116865   3.761   6.354   2.062
 5322SOL    HW216866   3.778   6.497   1.985
 5323SOL     OW16867   4.286   0.145   6.139
 5323SOL    HW116868   4.224   0.160   6.062
 5323SOL    HW216869   4.256   0.064   6.190
 5324SOL     OW16870   1.381   1.976   1.746
 5324SOL    HW116871   1.400   2.014   1.837
 5324SOL    HW216872   1.417   2.038   1.676
 5325SOL     OW16873   2.099   2.505   5.146
 5325SOL    HW116874   2.017   2.496   5.204
 5325SOL    HW216875   2.096   2.593   5.099
 5326SOL     OW16876   6.178   6.960   1.170
 5326SOL    HW116877   6.189   6.861   1.169
 5326SOL    HW216878   6.082   6.984   1.154
 5327SOL     OW16879   0.288   2.526   5.760
 5327SOL    HW116880   0.283   2.612   5.811
 5327SOL    HW216881   0.383   2.498   5.751
 5328SOL     OW16882   4.743   5.225   0.216
 5328SOL    HW116883   4.777   5.319   0.220
 5328SOL    HW216884   4.817   5.164   0.189
 5329SOL     OW16885   2.049   6.574   6.236
 5329SOL    HW116886   2.041   6.672   6.250
 5329SOL    HW216887   2.081   6.555   6.143
 5330SOL     OW16888   2.894   4.847   1.419
 5330SOL    HW116889   2.839   4.911   1.472
 5330SOL    HW216890   2.981   4.889   1.395
 5331SOL     OW16891   6.487   1.222   6.712
 5331SOL    HW116892   6.527   1.305   6.750
 5331SOL    HW216893   6.459   1.161   6.787
 5332SOL     OW16894   0.671   4.333   1.594
 5332SOL    HW116895   0.658   4.362   1.689
 5332SOL    HW216896   0.753   4.376   1.557
 5333SOL     OW16897   1.035   6.494   5.112
 5333SOL    HW116898   1.115   6.549   5.088
 5333SOL    HW216899   1.051   6.447   5.199
 5334SOL     OW16900   3.648   6.927   4.950
 5334SOL    HW116901   3.698   7.011   4.972
 5334SOL    HW216902   3.680   6.852   5.008
 5335SOL     OW16903   6.908   5.971   0.530
 5335SOL    HW116904   6.945   5.880   0.511
 5335SOL    HW216905   6.901   6.023   0.445
 5336SOL     OW16906   1.534   4.583   1.453
 5336SOL    HW116907   1.470   4.659   1.455
 5336SOL    HW216908   1.614   4.607   1.397
 5337SOL     OW16909   4.994   4.366   1.437
 5337SOL    HW116910   4.901   4.353   1.472
 5337SOL    HW216911   5.058   4.370   1.514
 5338SOL     OW16912   5.434   2.974   0.246
 5338SOL    HW116913   5.528   2.974   0.212
 5338SOL    HW216914   5.386   3.055   0.212
 5339SOL     OW16915   6.363   0.273   1.795
 5339SOL    HW116916   6.265   0.294   1.804
 5339SOL    HW216917   6.414   0.322   1.865
 5340SOL     OW16918   5.149   2.584   6.441
 5340SOL    HW116919   5.102   2.670   6.423
 5340SOL    HW216920   5.181   2.583   6.536
 5341SOL     OW16921   4.752   0.738   0.758
 5341SOL    HW116922   4.813   0.799   0.708
 5341SOL    HW216923   4.659   0.774   0.755
 5342SOL     OW16924   2.942   0.204   6.423
 5342SOL    HW116925   2.897   0.283   6.466
 5342SOL    HW216926   3.008   0.164   6.487
 5343SOL     OW16927   3.412   3.910   1.844
 5343SOL    HW116928   3.422   4.009   1.840
 5343SOL    HW216929   3.368   3.878   1.760
 5344SOL     OW16930   2.186   2.715   2.643
 5344SOL    HW116931   2.098   2.762   2.641
 5344SOL    HW216932   2.220   2.710   2.737
 5345SOL     OW16933   4.564   0.689   2.988
 5345SOL    HW116934   4.590   0.767   2.932
 5345SOL    HW216935   4.575   0.712   3.085
 5346SOL     OW16936   2.954   0.264   3.795
 5346SOL    HW116937   2.873   0.302   3.749
 5346SOL    HW216938   2.927   0.226   3.883
 5347SOL     OW16939   6.648   1.561   1.563
 5347SOL    HW116940   6.673   1.495   1.492
 5347SOL    HW216941   6.578   1.624   1.528
 5348SOL     OW16942   6.404   1.486   0.471
 5348SOL    HW116943   6.416   1.394   0.433
 5348SOL    HW216944   6.341   1.482   0.549
 5349SOL     OW16945   6.168   0.032   1.463
 5349SOL    HW116946   6.183   0.127   1.436
 5349SOL    HW216947   6.103   7.015   1.401
 5350SOL     OW16948   2.385   0.319   6.456
 5350SOL    HW116949   2.420   0.409   6.432
 5350SOL    HW216950   2.424   0.250   6.394
 5351SOL     OW16951   4.011   0.899   2.299
 5351SOL    HW116952   4.042   0.988   2.265
 5351SOL    HW216953   3.913   0.902   2.317
 5352SOL     OW16954   3.193   6.412   3.732
 5352SOL    HW116955   3.237   6.501   3.720
 5352SOL    HW216956   3.093   6.424   3.734
 5353SOL     OW16957   6.009   0.487   6.159
 5353SOL    HW116958   6.020   0.390   6.141
 5353SOL    HW216959   6.078   0.538   6.108
 5354SOL     OW16960   1.680   3.511   0.978
 5354SOL    HW116961   1.655   3.438   0.914
 5354SOL    HW216962   1.599   3.564   1.002
 5355SOL     OW16963   4.449   1.362   6.152
 5355SOL    HW116964   4.497   1.402   6.073
 5355SOL    HW216965   4.412   1.435   6.209
 5356SOL     OW16966   6.275   3.464   0.738
 5356SOL    HW116967   6.363   3.511   0.734
 5356SOL    HW216968   6.281   3.378   0.688
 5357SOL     OW16969   4.212   5.844   0.470
 5357SOL    HW116970   4.237   5.809   0.560
 5357SOL    HW216971   4.151   5.923   0.481
 5358SOL     OW16972   5.212   4.283   1.629
 5358SOL    HW116973   5.207   4.198   1.577
 5358SOL    HW216974   5.158   4.274   1.713
 5359SOL     OW16975   3.216   0.172   6.902
 5359SOL    HW116976   3.310   0.140   6.915
 5359SOL    HW216977   3.206   0.263   6.941
 5360SOL     OW16978   4.186   1.357   7.018
 5360SOL    HW116979   4.116   1.290   0.016
 5360SOL    HW216980   4.247   1.370   0.071
 5361SOL     OW16981   1.598   1.049   6.469
 5361SOL    HW116982   1.581   0.956   6.436
 5361SOL    HW216983   1.533   1.112   6.426
 5362SOL     OW16984   4.221   5.754   3.488
 5362SOL    HW116985   4.288   5.700   3.438
 5362SOL    HW216986   4.267   5.805   3.561
 5363SOL     OW16987   0.562   5.499   4.528
 5363SOL    HW116988   0.477   5.524   4.575
 5363SOL    HW216989   0.561   5.536   4.435
 5364SOL     OW16990   1.422   5.894   6.894
 5364SOL    HW116991   1.336   5.930   6.931
 5364SOL    HW216992   1.427   5.914   6.797
 5365SOL     OW16993   3.925   2.143   5.852
 5365SOL    HW116994   3.908   2.238   5.878
 5365SOL    HW216995   3.902   2.083   5.929
 5366SOL     OW16996   3.464   4.027   6.343
 5366SOL    HW116997   3.402   4.099   6.313
 5366SOL    HW216998   3.558   4.050   6.316
 5367SOL     OW16999   0.298   4.674   1.317
 5367SOL    HW117000   0.397   4.690   1.319
 5367SOL    HW217001   0.271   4.646   1.225
 5368SOL     OW17002   0.553   0.668   4.096
 5368SOL    HW117003   0.542   0.581   4.048
 5368SOL    HW217004   0.463   0.704   4.121
 5369SOL     OW17005   2.127   3.481   2.376
 5369SOL    HW117006   2.146   3.566   2.328
 5369SOL    HW217007   2.085   3.415   2.314
 5370SOL     OW17008   3.834   2.974   1.410
 5370SOL    HW117009   3.890   3.058   1.411
 5370SOL    HW217010   3.781   2.968   1.494
 5371SOL     OW17011   1.799   4.209   4.984
 5371SOL    HW117012   1.699   4.197   4.977
 5371SOL    HW217013   1.844   4.146   4.921
 5372SOL     OW17014   3.250   6.168   2.619
 5372SOL    HW117015   3.162   6.183   2.573
 5372SOL    HW217016   3.324   6.206   2.563
 5373SOL     OW17017   1.489   5.280   3.993
 5373SOL    HW117018   1.453   5.350   3.930
 5373SOL    HW217019   1.423   5.204   3.999
 5374SOL     OW17020   2.836   2.510   0.441
 5374SOL    HW117021   2.862   2.559   0.524
 5374SOL    HW217022   2.872   2.557   0.361
 5375SOL     OW17023   0.673   3.701   5.089
 5375SOL    HW117024   0.694   3.603   5.089
 5375SOL    HW217025   0.630   3.726   5.002
 5376SOL     OW17026   3.003   4.591   6.324
 5376SOL    HW117027   2.926   4.533   6.297
 5376SOL    HW217028   2.969   4.676   6.363
 5377SOL     OW17029   0.800   1.918   2.049
 5377SOL    HW117030   0.846   2.001   2.081
 5377SOL    HW217031   0.793   1.920   1.949
 5378SOL     OW17032   4.957   0.413   6.731
 5378SOL    HW117033   5.014   0.412   6.649
 5378SOL    HW217034   4.913   0.323   6.742
 5379SOL     OW17035   0.383   6.906   0.305
 5379SOL    HW117036   0.436   6.935   0.226
 5379SOL    HW217037   0.382   6.979   0.374
 5380SOL     OW17038   1.810   1.224   4.708
 5380SOL    HW117039   1.791   1.188   4.616
 5380SOL    HW217040   1.906   1.250   4.714
 5381SOL     OW17041   6.146   3.732   1.870
 5381SOL    HW117042   6.052   3.736   1.904
 5381SOL    HW217043   6.210   3.729   1.947
 5382SOL     OW17044   1.620   6.904   1.698
 5382SOL    HW117045   1.642   6.824   1.754
 5382SOL    HW217046   1.689   6.975   1.713
 5383SOL     OW17047   2.467   2.056   4.620
 5383SOL    HW117048   2.433   1.988   4.555
 5383SOL    HW217049   2.473   2.145   4.575
 5384SOL     OW17050   5.442   6.955   4.410
 5384SOL    HW117051   5.365   6.934   4.350
 5384SOL    HW217052   5.409   6.966   4.504
 5385SOL     OW17053   3.504   4.132   3.156
 5385SOL    HW117054   3.528   4.178   3.071
 5385SOL    HW217055   3.577   4.068   3.181
 5386SOL     OW17056   5.939   6.773   5.503
 5386SOL    HW117057   6.023   6.793   5.452
 5386SOL    HW217058   5.875   6.849   5.493
 5387SOL     OW17059   3.589   4.923   1.302
 5387SOL    HW117060   3.558   4.857   1.370
 5387SOL    HW217061   3.644   4.877   1.232
 5388SOL     OW17062   6.016   5.784   2.953
 5388SOL    HW117063   5.932   5.789   3.006
 5388SOL    HW217064   6.095   5.798   3.014
 5389SOL     OW17065   6.106   3.312   1.345
 5389SOL    HW117066   6.104   3.365   1.430
 5389SOL    HW217067   6.167   3.356   1.279
 5390SOL     OW17068   6.285   5.267   6.202
 5390SOL    HW117069   6.303   5.210   6.282
 5390SOL    HW217070   6.370   5.279   6.149
 5391SOL     OW17071   3.459   3.911   6.761
 5391SOL    HW117072   3.483   3.890   6.667
 5391SOL    HW217073   3.363   3.887   6.777
 5392SOL     OW17074   0.248   2.658   2.598
 5392SOL    HW117075   0.317   2.624   2.662
 5392SOL    HW217076   0.207   2.742   2.636
 5393SOL     OW17077   6.694   6.946   6.352
 5393SOL    HW117078   6.603   6.909   6.336
 5393SOL    HW217079   6.729   6.986   6.267
 5394SOL     OW17080   2.009   3.594   5.851
 5394SOL    HW117081   1.956   3.530   5.907
 5394SOL    HW217082   2.102   3.602   5.888
 5395SOL     OW17083   4.356   0.777   1.309
 5395SOL    HW117084   4.282   0.803   1.247
 5395SOL    HW217085   4.338   0.814   1.400
 5396SOL     OW17086   4.678   2.546   1.523
 5396SOL    HW117087   4.653   2.462   1.571
 5396SOL    HW217088   4.596   2.588   1.483
 5397SOL     OW17089   1.486   2.484   1.806
 5397SOL    HW117090   1.527   2.394   1.794
 5397SOL    HW217091   1.391   2.473   1.836
 5398SOL     OW17092   3.341   2.945   2.541
 5398SOL    HW117093   3.426   2.956   2.490
 5398SOL    HW217094   3.264   2.940   2.477
 5399SOL     OW17095   0.605   5.413   0.005
 5399SOL    HW117096   0.625   5.336   6.969
 5399SOL    HW217097   0.621   5.385   0.100
 5400SOL     OW17098   2.249   3.406   6.960
 5400SOL    HW117099   2.155   3.391   6.927
 5400SOL    HW217100   2.273   3.336   0.001
 5401SOL     OW17101   6.435   1.855   0.766
 5401SOL    HW117102   6.360   1.789   0.775
 5401SOL    HW217103   6.511   1.827   0.825
 5402SOL     OW17104   1.228   6.093   2.286
 5402SOL    HW117105   1.128   6.092   2.291
 5402SOL    HW217106   1.266   6.122   2.373
 5403SOL     OW17107   6.009   2.955   6.884
 5403SOL    HW117108   5.986   3.051   6.868
 5403SOL    HW217109   5.999   2.904   6.799
 5404SOL     OW17110   1.084   2.948   3.340
 5404SOL    HW117111   1.051   3.032   3.298
 5404SOL    HW217112   1.180   2.934   3.316
 5405SOL     OW17113   6.778   4.167   5.350
 5405SOL    HW117114   6.856   4.164   5.287
 5405SOL    HW217115   6.751   4.262   5.366
 5406SOL     OW17116   1.416   0.025   3.952
 5406SOL    HW117117   1.511   7.021   3.962
 5406SOL    HW217118   1.361   6.974   3.917
 5407SOL     OW17119   4.355   3.480   6.761
 5407SOL    HW117120   4.352   3.380   6.762
 5407SOL    HW217121   4.392   3.513   6.847
 5408SOL     OW17122   3.518   1.039   6.424
 5408SOL    HW117123   3.562   1.093   6.496
 5408SOL    HW217124   3.561   0.948   6.419
 5409SOL     OW17125   4.794   0.483   2.016
 5409SOL    HW117126   4.755   0.574   2.029
 5409SOL    HW217127   4.723   0.421   1.982
 5410SOL     OW17128   1.401   2.873   3.384
 5410SOL    HW117129   1.384   2.802   3.315
 5410SOL    HW217130   1.361   2.845   3.471
 5411SOL     OW17131   2.054   4.620   4.864
 5411SOL    HW117132   2.106   4.539   4.894
 5411SOL    HW217133   2.115   4.698   4.857
 5412SOL     OW17134   6.291   2.111   2.384
 5412SOL    HW117135   6.297   2.206   2.355
 5412SOL    HW217136   6.295   2.105   2.484
 5413SOL     OW17137   1.655   6.784   2.521
 5413SOL    HW117138   1.637   6.686   2.524
 5413SOL    HW217139   1.600   6.827   2.449
 5414SOL     OW17140   4.038   6.864   5.957
 5414SOL    HW117141   3.955   6.822   5.919
 5414SOL    HW217142   4.015   6.954   5.995
 5415SOL     OW17143   6.374   3.807   2.947
 5415SOL    HW117144   6.449   3.871   2.964
 5415SOL    HW217145   6.356   3.755   3.031
 5416SOL     OW17146   4.207   5.098   4.131
 5416SOL    HW117147   4.231   5.001   4.132
 5416SOL    HW217148   4.182   5.126   4.224
 5417SOL     OW17149   3.038   0.025   5.881
 5417SOL    HW117150   3.128   7.017   5.911
 5417SOL    HW217151   2.971   6.977   5.891
 5418SOL     OW17152   3.723   1.267   3.206
 5418SOL    HW117153   3.673   1.181   3.193
 5418SOL    HW217154   3.815   1.258   3.168
 5419SOL     OW17155   3.031   4.170   6.909
 5419SOL    HW117156   2.991   4.240   6.850
 5419SOL    HW217157   3.034   4.204   7.003
 5420SOL     OW17158   1.165   2.346   3.226
 5420SOL    HW117159   1.248   2.310   3.267
 5420SOL    HW217160   1.164   2.446   3.233
 5421SOL     OW17161   1.953   2.310   0.528
 5421SOL    HW117162   1.928   2.300   0.624
 5421SOL    HW217163   2.026   2.378   0.520
 5422SOL     OW17164   0.826   3.599   0.307
 5422SOL    HW117165   0.768   3.575   0.228
 5422SOL    HW217166   0.776   3.580   0.391
 5423SOL     OW17167   4.852   3.052   5.649
 5423SOL    HW117168   4.862   2.998   5.564
 5423SOL    HW217169   4.943   3.074   5.684
 5424SOL     OW17170   5.293   3.223   5.789
 5424SOL    HW117171   5.389   3.250   5.782
 5424SOL    HW217172   5.236   3.305   5.788
 5425SOL     OW17173   5.078   1.038   5.076
 5425SOL    HW117174   5.165   1.007   5.114
 5425SOL    HW217175   5.076   1.021   4.978
 5426SOL     OW17176   0.662   6.989   4.898
 5426SOL    HW117177   0.697   7.024   4.985
 5426SOL    HW217178   0.633   0.039   4.840
 5427SOL     OW17179   4.290   0.147   6.959
 5427SOL    HW117180   4.246   0.069   7.003
 5427SOL    HW217181   4.232   0.182   6.886
 5428SOL     OW17182   1.802   0.936   6.740
 5428SOL    HW117183   1.895   0.919   6.772
 5428SOL    HW217184   1.781   1.034   6.748
 5429SOL     OW17185   0.680   2.545   6.044
 5429SOL    HW117186   0.700   2.502   5.956
 5429SOL    HW217187   0.765   2.577   6.086
 5430SOL     OW17188   2.191   2.960   5.678
 5430SOL    HW117189   2.115   2.929   5.621
 5430SOL    HW217190   2.159   3.030   5.742
 5431SOL     OW17191   3.674   5.761   4.478
 5431SOL    HW117192   3.642   5.851   4.507
 5431SOL    HW217193   3.773   5.756   4.488
 5432SOL     OW17194   5.555   5.392   1.293
 5432SOL    HW117195   5.535   5.479   1.337
 5432SOL    HW217196   5.591   5.327   1.360
 5433SOL     OW17197   0.714   1.709   4.207
 5433SOL    HW117198   0.632   1.693   4.151
 5433SOL    HW217199   0.796   1.696   4.151
 5434SOL     OW17200   2.347   6.816   4.842
 5434SOL    HW117201   2.317   6.816   4.937
 5434SOL    HW217202   2.418   6.747   4.829
 5435SOL     OW17203   4.880   1.198   2.214
 5435SOL    HW117204   4.926   1.113   2.189
 5435SOL    HW217205   4.796   1.208   2.161
 5436SOL     OW17206   5.587   3.908   2.744
 5436SOL    HW117207   5.553   3.974   2.811
 5436SOL    HW217208   5.512   3.848   2.716
 5437SOL     OW17209   3.795   4.693   6.133
 5437SOL    HW117210   3.844   4.697   6.220
 5437SOL    HW217211   3.712   4.638   6.144
 5438SOL     OW17212   6.699   0.689   0.952
 5438SOL    HW117213   6.688   0.694   1.052
 5438SOL    HW217214   6.611   0.666   0.911
 5439SOL     OW17215   1.332   3.125   0.741
 5439SOL    HW117216   1.366   3.031   0.744
 5439SOL    HW217217   1.292   3.144   0.652
 5440SOL     OW17218   1.806   1.316   1.415
 5440SOL    HW117219   1.865   1.246   1.375
 5440SOL    HW217220   1.836   1.335   1.509
 5441SOL     OW17221   3.649   1.827   4.394
 5441SOL    HW117222   3.589   1.775   4.455
 5441SOL    HW217223   3.612   1.919   4.381
 5442SOL     OW17224   3.265   1.039   1.930
 5442SOL    HW117225   3.325   0.962   1.909
 5442SOL    HW217226   3.312   1.102   1.991
 5443SOL     OW17227   2.066   6.462   5.980
 5443SOL    HW117228   2.143   6.423   5.929
 5443SOL    HW217229   1.989   6.478   5.918
 5444SOL     OW17230   0.412   1.254   3.351
 5444SOL    HW117231   0.345   1.293   3.414
 5444SOL    HW217232   0.447   1.326   3.290
 5445SOL     OW17233   6.333   3.708   2.069
 5445SOL    HW117234   6.313   3.611   2.059
 5445SOL    HW217235   6.321   3.735   2.165
 5446SOL     OW17236   6.434   6.064   6.019
 5446SOL    HW117237   6.533   6.072   6.011
 5446SOL    HW217238   6.391   6.151   5.997
 5447SOL     OW17239   2.975   2.558   1.206
 5447SOL    HW117240   2.990   2.459   1.202
 5447SOL    HW217241   3.062   2.605   1.219
 5448SOL     OW17242   5.612   1.602   6.464
 5448SOL    HW117243   5.711   1.596   6.454
 5448SOL    HW217244   5.575   1.511   6.479
 5449SOL     OW17245   0.437   2.756   6.878
 5449SOL    HW117246   0.357   2.748   6.937
 5449SOL    HW217247   0.410   2.791   6.788
 5450SOL     OW17248   2.565   5.893   0.902
 5450SOL    HW117249   2.591   5.978   0.948
 5450SOL    HW217250   2.552   5.821   0.970
 5451SOL     OW17251   2.631   0.608   2.906
 5451SOL    HW117252   2.682   0.682   2.862
 5451SOL    HW217253   2.535   0.613   2.879
 5452SOL     OW17254   2.264   3.863   5.700
 5452SOL    HW117255   2.216   3.795   5.645
 5452SOL    HW217256   2.338   3.904   5.646
 5453SOL     OW17257   0.517   5.311   5.849
 5453SOL    HW117258   0.516   5.279   5.943
 5453SOL    HW217259   0.431   5.358   5.828
 5454SOL     OW17260   0.734   3.874   5.302
 5454SOL    HW117261   0.657   3.854   5.363
 5454SOL    HW217262   0.744   3.800   5.237
 5455SOL     OW17263   6.594   2.073   0.659
 5455SOL    HW117264   6.534   2.017   0.715
 5455SOL    HW217265   6.558   2.167   0.656
 5456SOL     OW17266   3.631   6.767   1.364
 5456SOL    HW117267   3.689   6.844   1.339
 5456SOL    HW217268   3.686   6.698   1.413
 5457SOL     OW17269   6.591   3.753   0.964
 5457SOL    HW117270   6.561   3.771   1.058
 5457SOL    HW217271   6.579   3.835   0.909
 5458SOL     OW17272   1.856   4.376   5.738
 5458SOL    HW117273   1.758   4.385   5.719
 5458SOL    HW217274   1.869   4.311   5.813
 5459SOL     OW17275   2.487   4.110   6.099
 5459SOL    HW117276   2.454   4.128   6.006
 5459SOL    HW217277   2.450   4.023   6.131
 5460SOL     OW17278   3.794   6.985   4.136
 5460SOL    HW117279   3.712   0.010   4.109
 5460SOL    HW217280   3.818   7.008   4.230
 5461SOL     OW17281   4.521   6.728   5.055
 5461SOL    HW117282   4.582   6.750   5.131
 5461SOL    HW217283   4.542   6.787   4.977
 5462SOL     OW17284   0.160   0.512   1.055
 5462SOL    HW117285   0.233   0.508   1.123
 5462SOL    HW217286   0.143   0.607   1.030
 5463SOL     OW17287   6.887   3.161   0.727
 5463SOL    HW117288   6.847   3.070   0.734
 5463SOL    HW217289   6.889   3.189   0.631
 5464SOL     OW17290   1.774   6.332   4.692
 5464SOL    HW117291   1.731   6.251   4.733
 5464SOL    HW217292   1.716   6.368   4.620
 5465SOL     OW17293   2.941   5.701   6.770
 5465SOL    HW117294   2.914   5.770   6.703
 5465SOL    HW217295   2.862   5.677   6.827
 5466SOL     OW17296   5.727   5.829   4.399
 5466SOL    HW117297   5.630   5.826   4.375
 5466SOL    HW217298   5.758   5.924   4.399
 5467SOL     OW17299   5.791   1.616   1.853
 5467SOL    HW117300   5.746   1.654   1.771
 5467SOL    HW217301   5.836   1.530   1.828
 5468SOL     OW17302   4.211   1.148   6.201
 5468SOL    HW117303   4.236   1.054   6.225
 5468SOL    HW217304   4.292   1.207   6.211
 5469SOL     OW17305   4.966   4.479   1.714
 5469SOL    HW117306   4.928   4.425   1.789
 5469SOL    HW217307   5.023   4.552   1.751
 5470SOL     OW17308   0.292   4.970   3.505
 5470SOL    HW117309   0.299   5.067   3.483
 5470SOL    HW217310   0.352   4.917   3.446
 5471SOL     OW17311   6.358   4.333   2.092
 5471SOL    HW117312   6.364   4.374   2.184
 5471SOL    HW217313   6.339   4.405   2.025
 5472SOL     OW17314   3.580   5.389   5.251
 5472SOL    HW117315   3.636   5.450   5.307
 5472SOL    HW217316   3.637   5.349   5.179
 5473SOL     OW17317   1.466   4.486   3.731
 5473SOL    HW117318   1.507   4.442   3.651
 5473SOL    HW217319   1.510   4.575   3.747
 5474SOL     OW17320   1.551   6.122   3.081
 5474SOL    HW117321   1.559   6.043   3.020
 5474SOL    HW217322   1.642   6.145   3.117
 5475SOL     OW17323   3.397   2.917   1.611
 5475SOL    HW117324   3.323   2.985   1.610
 5475SOL    HW217325   3.420   2.895   1.706
 5476SOL     OW17326   1.994   3.210   6.581
 5476SOL    HW117327   2.052   3.142   6.627
 5476SOL    HW217328   1.898   3.194   6.605
 5477SOL     OW17329   2.293   2.252   2.302
 5477SOL    HW117330   2.302   2.351   2.290
 5477SOL    HW217331   2.377   2.207   2.273
 5478SOL     OW17332   6.823   5.413   5.662
 5478SOL    HW117333   6.829   5.334   5.723
 5478SOL    HW217334   6.733   5.454   5.670
 5479SOL     OW17335   4.398   6.404   5.322
 5479SOL    HW117336   4.487   6.384   5.362
 5479SOL    HW217337   4.333   6.429   5.394
 5480SOL     OW17338   0.408   2.213   5.869
 5480SOL    HW117339   0.322   2.185   5.913
 5480SOL    HW217340   0.388   2.279   5.796
 5481SOL     OW17341   4.047   6.327   3.162
 5481SOL    HW117342   4.042   6.397   3.234
 5481SOL    HW217343   3.960   6.280   3.154
 5482SOL     OW17344   1.594   6.142   1.920
 5482SOL    HW117345   1.668   6.076   1.901
 5482SOL    HW217346   1.604   6.176   2.014
 5483SOL     OW17347   0.988   2.423   6.300
 5483SOL    HW117348   0.921   2.372   6.246
 5483SOL    HW217349   0.999   2.380   6.390
 5484SOL     OW17350   5.336   0.126   4.791
 5484SOL    HW117351   5.308   0.221   4.775
 5484SOL    HW217352   5.287   0.091   4.871
 5485SOL     OW17353   3.467   0.686   4.581
 5485SOL    HW117354   3.565   0.692   4.597
 5485SOL    HW217355   3.419   0.740   4.651
 5486SOL     OW17356   3.705   4.893   3.989
 5486SOL    HW117357   3.653   4.978   3.983
 5486SOL    HW217358   3.666   4.835   4.061
 5487SOL     OW17359   3.181   5.831   5.034
 5487SOL    HW117360   3.253   5.884   5.080
 5487SOL    HW217361   3.131   5.777   5.102
 5488SOL     OW17362   5.086   2.246   6.109
 5488SOL    HW117363   5.054   2.323   6.164
 5488SOL    HW217364   5.012   2.178   6.102
 5489SOL     OW17365   6.898   2.605   4.218
 5489SOL    HW117366   6.934   2.643   4.303
 5489SOL    HW217367   6.973   2.565   4.165
 5490SOL     OW17368   0.726   5.357   2.045
 5490SOL    HW117369   0.823   5.334   2.054
 5490SOL    HW217370   0.706   5.376   1.949
 5491SOL     OW17371   6.040   4.334   0.699
 5491SOL    HW117372   6.111   4.286   0.752
 5491SOL    HW217373   5.994   4.269   0.639
 5492SOL     OW17374   0.806   2.124   6.899
 5492SOL    HW117375   0.834   2.136   6.804
 5492SOL    HW217376   0.799   2.027   6.920
 5493SOL     OW17377   4.195   4.425   6.802
 5493SOL    HW117378   4.138   4.441   6.721
 5493SOL    HW217379   4.192   4.505   6.862
 5494SOL     OW17380   6.035   2.389   5.908
 5494SOL    HW117381   6.026   2.393   5.809
 5494SOL    HW217382   5.946   2.369   5.949
 5495SOL     OW17383   5.741   0.721   0.574
 5495SOL    HW117384   5.698   0.636   0.603
 5495SOL    HW217385   5.839   0.706   0.559
 5496SOL     OW17386   4.208   6.247   5.991
 5496SOL    HW117387   4.179   6.337   5.959
 5496SOL    HW217388   4.283   6.214   5.933
 5497SOL     OW17389   0.839   0.371   5.841
 5497SOL    HW117390   0.760   0.367   5.780
 5497SOL    HW217391   0.899   0.447   5.814
 5498SOL     OW17392   0.937   5.676   1.405
 5498SOL    HW117393   0.855   5.724   1.437
 5498SOL    HW217394   0.922   5.577   1.413
 5499SOL     OW17395   2.069   0.351   3.707
 5499SOL    HW117396   2.024   0.368   3.794
 5499SOL    HW217397   2.006   0.374   3.632
 5500SOL     OW17398   1.820   6.371   1.549
 5500SOL    HW117399   1.734   6.417   1.567
 5500SOL    HW217400   1.809   6.272   1.562
 5501SOL     OW17401   5.350   3.612   0.569
 5501SOL    HW117402   5.449   3.619   0.571
 5501SOL    HW217403   5.310   3.701   0.594
 5502SOL     OW17404   4.640   3.318   6.954
 5502SOL    HW117405   4.733   3.351   6.934
 5502SOL    HW217406   4.574   3.389   6.929
 5503SOL     OW17407   6.230   3.684   1.080
 5503SOL    HW117408   6.199   3.669   1.174
 5503SOL    HW217409   6.158   3.730   1.028
 5504SOL     OW17410   3.237   2.083   6.920
 5504SOL    HW117411   3.288   2.167   6.901
 5504SOL    HW217412   3.171   2.068   6.846
 5505SOL     OW17413   2.784   4.983   2.237
 5505SOL    HW117414   2.732   5.000   2.153
 5505SOL    HW217415   2.872   4.942   2.213
 5506SOL     OW17416   6.238   2.603   6.134
 5506SOL    HW117417   6.263   2.586   6.039
 5506SOL    HW217418   6.172   2.534   6.164
 5507SOL     OW17419   3.977   6.585   0.498
 5507SOL    HW117420   3.893   6.591   0.552
 5507SOL    HW217421   4.056   6.588   0.560
 5508SOL     OW17422   6.585   1.779   6.501
 5508SOL    HW117423   6.678   1.808   6.521
 5508SOL    HW217424   6.549   1.832   6.424
 5509SOL     OW17425   6.144   4.143   0.212
 5509SOL    HW117426   6.171   4.233   0.176
 5509SOL    HW217427   6.203   4.073   0.172
 5510SOL     OW17428   5.549   5.556   0.102
 5510SOL    HW117429   5.565   5.629   0.036
 5510SOL    HW217430   5.574   5.468   0.062
 5511SOL     OW17431   1.093   2.673   6.252
 5511SOL    HW117432   1.027   2.599   6.265
 5511SOL    HW217433   1.045   2.760   6.244
 5512SOL     OW17434   2.864   6.930   2.202
 5512SOL    HW117435   2.880   6.938   2.104
 5512SOL    HW217436   2.948   6.951   2.252
 5513SOL     OW17437   3.955   4.414   6.576
 5513SOL    HW117438   4.033   4.471   6.549
 5513SOL    HW217439   3.958   4.328   6.526
 5514SOL     OW17440   3.583   1.250   0.657
 5514SOL    HW117441   3.544   1.261   0.748
 5514SOL    HW217442   3.538   1.173   0.610
 5515SOL     OW17443   3.362   4.945   2.399
 5515SOL    HW117444   3.426   4.910   2.330
 5515SOL    HW217445   3.327   4.870   2.454
 5516SOL     OW17446   0.975   2.492   6.027
 5516SOL    HW117447   1.049   2.541   5.980
 5516SOL    HW217448   1.012   2.441   6.104
 5517SOL     OW17449   0.521   1.992   4.019
 5517SOL    HW117450   0.562   1.910   4.061
 5517SOL    HW217451   0.464   1.964   3.942
 5518SOL     OW17452   4.596   4.243   5.845
 5518SOL    HW117453   4.587   4.184   5.924
 5518SOL    HW217454   4.608   4.187   5.763
 5519SOL     OW17455   5.292   2.483   5.774
 5519SOL    HW117456   5.216   2.440   5.824
 5519SOL    HW217457   5.260   2.512   5.684
 5520SOL     OW17458   5.053   5.947   1.199
 5520SOL    HW117459   5.091   5.945   1.291
 5520SOL    HW217460   5.039   6.042   1.171
 5521SOL     OW17461   4.403   0.417   2.151
 5521SOL    HW117462   4.307   0.410   2.126
 5521SOL    HW217463   4.413   0.482   2.227
 5522SOL     OW17464   5.067   6.629   6.725
 5522SOL    HW117465   5.085   6.595   6.817
 5522SOL    HW217466   5.019   6.560   6.672
 5523SOL     OW17467   5.157   1.948   0.627
 5523SOL    HW117468   5.235   1.960   0.688
 5523SOL    HW217469   5.183   1.890   0.549
 5524SOL     OW17470   2.656   1.538   3.219
 5524SOL    HW117471   2.653   1.592   3.303
 5524SOL    HW217472   2.696   1.448   3.239
 5525SOL     OW17473   0.031   1.379   1.068
 5525SOL    HW117474   0.042   1.280   1.060
 5525SOL    HW217475   0.117   1.424   1.046
 5526SOL     OW17476   5.115   4.372   4.085
 5526SOL    HW117477   5.059   4.439   4.134
 5526SOL    HW217478   5.191   4.344   4.144
 5527SOL     OW17479   6.660   0.387   2.526
 5527SOL    HW117480   6.590   0.356   2.590
 5527SOL    HW217481   6.639   0.479   2.494
 5528SOL     OW17482   1.188   1.321   0.043
 5528SOL    HW117483   1.279   1.288   0.071
 5528SOL    HW217484   1.198   1.398   7.006
 5529SOL     OW17485   3.502   0.069   1.978
 5529SOL    HW117486   3.517   0.018   1.893
 5529SOL    HW217487   3.574   0.046   2.043
 5530SOL     OW17488   1.142   1.702   1.406
 5530SOL    HW117489   1.079   1.642   1.359
 5530SOL    HW217490   1.228   1.654   1.424
 5531SOL     OW17491   1.410   4.764   0.193
 5531SOL    HW117492   1.475   4.701   0.235
 5531SOL    HW217493   1.445   4.796   0.105
 5532SOL     OW17494   0.156   4.473   6.105
 5532SOL    HW117495   0.254   4.475   6.084
 5532SOL    HW217496   0.138   4.531   6.185
 5533SOL     OW17497   2.995   0.861   2.996
 5533SOL    HW117498   2.969   0.938   3.054
 5533SOL    HW217499   2.962   0.877   2.903
 5534SOL     OW17500   1.584   0.545   4.654
 5534SOL    HW117501   1.645   0.474   4.619
 5534SOL    HW217502   1.509   0.503   4.705
 5535SOL     OW17503   0.490   1.770   2.530
 5535SOL    HW117504   0.446   1.824   2.602
 5535SOL    HW217505   0.539   1.693   2.571
 5536SOL     OW17506   4.649   0.127   4.551
 5536SOL    HW117507   4.679   0.142   4.645
 5536SOL    HW217508   4.711   0.173   4.488
 5537SOL     OW17509   2.411   2.465   2.792
 5537SOL    HW117510   2.331   2.439   2.739
 5537SOL    HW217511   2.394   2.553   2.838
 5538SOL     OW17512   4.328   5.571   3.952
 5538SOL    HW117513   4.293   5.556   3.860
 5538SOL    HW217514   4.416   5.619   3.948
 5539SOL     OW17515   2.366   4.137   0.022
 5539SOL    HW117516   2.376   4.091   6.959
 5539SOL    HW217517   2.426   4.093   0.089
 5540SOL     OW17518   3.600   5.530   1.085
 5540SOL    HW117519   3.662   5.494   1.016
 5540SOL    HW217520   3.614   5.629   1.094
 5541SOL     OW17521   4.726   0.528   6.494
 5541SOL    HW117522   4.819   0.497   6.512
 5541SOL    HW217523   4.726   0.627   6.483
 5542SOL     OW17524   5.702   4.204   6.166
 5542SOL    HW117525   5.620   4.251   6.201
 5542SOL    HW217526   5.717   4.120   6.219
 5543SOL     OW17527   0.481   2.047   5.139
 5543SOL    HW117528   0.530   2.115   5.194
 5543SOL    HW217529   0.387   2.041   5.172
 5544SOL     OW17530   5.342   0.531   6.654
 5544SOL    HW117531   5.299   0.589   6.723
 5544SOL    HW217532   5.299   0.440   6.656
 5545SOL     OW17533   2.402   2.562   1.882
 5545SOL    HW117534   2.372   2.471   1.909
 5545SOL    HW217535   2.334   2.630   1.913
 5546SOL     OW17536   3.280   5.471   4.968
 5546SOL    HW117537   3.182   5.451   4.971
 5546SOL    HW217538   3.310   5.500   5.059
 5547SOL     OW17539   2.991   5.231   3.708
 5547SOL    HW117540   3.037   5.286   3.777
 5547SOL    HW217541   2.901   5.270   3.689
 5548SOL     OW17542   0.126   1.867   5.060
 5548SOL    HW117543   0.129   1.923   5.143
 5548SOL    HW217544   0.032   1.863   5.025
 5549SOL     OW17545   3.798   5.077   6.411
 5549SOL    HW117546   3.749   5.082   6.323
 5549SOL    HW217547   3.889   5.117   6.400
 5550SOL     OW17548   2.638   6.333   2.841
 5550SOL    HW117549   2.602   6.330   2.934
 5550SOL    HW217550   2.563   6.326   2.776
 5551SOL     OW17551   0.699   1.103   2.458
 5551SOL    HW117552   0.672   1.173   2.392
 5551SOL    HW217553   0.622   1.084   2.520
 5552SOL     OW17554   2.200   2.437   2.653
 5552SOL    HW117555   2.125   2.402   2.709
 5552SOL    HW217556   2.184   2.534   2.632
 5553SOL     OW17557   5.123   6.369   6.526
 5553SOL    HW117558   5.148   6.335   6.435
 5553SOL    HW217559   5.205   6.405   6.572
 5554SOL     OW17560   3.600   0.664   4.907
 5554SOL    HW117561   3.509   0.699   4.885
 5554SOL    HW217562   3.591   0.578   4.957
 5555SOL     OW17563   1.045   6.199   1.611
 5555SOL    HW117564   0.997   6.112   1.612
 5555SOL    HW217565   1.069   6.225   1.705
 5556SOL     OW17566   6.937   1.296   5.267
 5556SOL    HW117567   6.989   1.382   5.265
 5556SOL    HW217568   6.998   1.220   5.244
 5557SOL     OW17569   3.485   0.863   1.869
 5557SOL    HW117570   3.489   0.913   1.782
 5557SOL    HW217571   3.407   0.800   1.868
 5558SOL     OW17572   5.006   2.677   6.114
 5558SOL    HW117573   4.946   2.644   6.041
 5558SOL    HW217574   5.083   2.726   6.074
 5559SOL     OW17575   2.810   0.664   0.883
 5559SOL    HW117576   2.846   0.744   0.931
 5559SOL    HW217577   2.773   0.599   0.949
 5560SOL     OW17578   0.340   1.731   4.972
 5560SOL    HW117579   0.386   1.682   5.046
 5560SOL    HW217580   0.265   1.786   5.010
 5561SOL     OW17581   2.052   4.547   2.098
 5561SOL    HW117582   2.051   4.483   2.021
 5561SOL    HW217583   2.043   4.641   2.063
 5562SOL     OW17584   3.443   2.161   0.365
 5562SOL    HW117585   3.363   2.172   0.424
 5562SOL    HW217586   3.429   2.085   0.302
 5563SOL     OW17587   3.924   4.405   1.048
 5563SOL    HW117588   3.881   4.345   1.115
 5563SOL    HW217589   3.861   4.420   0.971
 5564SOL     OW17590   6.353   1.440   2.274
 5564SOL    HW117591   6.434   1.458   2.329
 5564SOL    HW217592   6.354   1.498   2.193
 5565SOL     OW17593   1.481   3.069   5.827
 5565SOL    HW117594   1.456   3.133   5.900
 5565SOL    HW217595   1.531   2.992   5.866
 5566SOL     OW17596   2.516   4.325   0.444
 5566SOL    HW117597   2.536   4.310   0.347
 5566SOL    HW217598   2.599   4.357   0.491
 5567SOL     OW17599   1.252   5.384   3.066
 5567SOL    HW117600   1.319   5.339   3.007
 5567SOL    HW217601   1.262   5.351   3.160
 5568SOL     OW17602   3.511   2.838   0.306
 5568SOL    HW117603   3.593   2.890   0.281
 5568SOL    HW217604   3.529   2.741   0.296
 5569SOL     OW17605   4.817   1.709   6.608
 5569SOL    HW117606   4.824   1.758   6.695
 5569SOL    HW217607   4.835   1.612   6.624
 5570SOL     OW17608   1.783   2.505   5.788
 5570SOL    HW117609   1.870   2.544   5.757
 5570SOL    HW217610   1.746   2.561   5.861
 5571SOL     OW17611   0.667   4.565   6.094
 5571SOL    HW117612   0.708   4.556   6.184
 5571SOL    HW217613   0.709   4.500   6.031
 5572SOL     OW17614   0.889   3.138   5.937
 5572SOL    HW117615   0.871   3.109   5.843
 5572SOL    HW217616   0.831   3.087   5.999
 5573SOL     OW17617   6.687   3.642   6.556
 5573SOL    HW117618   6.682   3.611   6.651
 5573SOL    HW217619   6.595   3.639   6.516
 5574SOL     OW17620   1.970   6.027   4.438
 5574SOL    HW117621   2.018   5.946   4.473
 5574SOL    HW217622   1.991   6.105   4.497
 5575SOL     OW17623   1.027   1.462   3.008
 5575SOL    HW117624   0.953   1.505   2.957
 5575SOL    HW217625   1.075   1.531   3.062
 5576SOL     OW17626   5.133   6.626   5.894
 5576SOL    HW117627   5.119   6.527   5.890
 5576SOL    HW217628   5.230   6.647   5.888
 5577SOL     OW17629   1.284   4.588   4.871
 5577SOL    HW117630   1.338   4.581   4.955
 5577SOL    HW217631   1.203   4.644   4.889
 5578SOL     OW17632   4.065   1.756   6.004
 5578SOL    HW117633   3.977   1.801   6.019
 5578SOL    HW217634   4.086   1.696   6.081
 5579SOL     OW17635   4.858   4.578   2.882
 5579SOL    HW117636   4.922   4.506   2.856
 5579SOL    HW217637   4.862   4.591   2.981
 5580SOL     OW17638   6.416   1.295   1.766
 5580SOL    HW117639   6.446   1.200   1.752
 5580SOL    HW217640   6.376   1.304   1.857
 5581SOL     OW17641   3.182   3.329   0.690
 5581SOL    HW117642   3.139   3.270   0.757
 5581SOL    HW217643   3.281   3.330   0.705
 5582SOL     OW17644   2.904   3.723   4.732
 5582SOL    HW117645   2.949   3.811   4.715
 5582SOL    HW217646   2.819   3.718   4.680
 5583SOL     OW17647   3.780   0.483   6.732
 5583SOL    HW117648   3.866   0.446   6.767
 5583SOL    HW217649   3.734   0.536   6.803
 5584SOL     OW17650   4.897   3.061   4.206
 5584SOL    HW117651   4.847   2.979   4.235
 5584SOL    HW217652   4.941   3.043   4.118
 5585SOL     OW17653   0.446   0.745   3.640
 5585SOL    HW117654   0.464   0.657   3.685
 5585SOL    HW217655   0.484   0.743   3.547
 5586SOL     OW17656   1.536   0.599   0.092
 5586SOL    HW117657   1.597   0.659   0.041
 5586SOL    HW217658   1.540   0.507   0.052
 5587SOL     OW17659   3.715   5.795   2.956
 5587SOL    HW117660   3.631   5.850   2.964
 5587SOL    HW217661   3.710   5.718   3.019
 5588SOL     OW17662   4.852   5.960   6.987
 5588SOL    HW117663   4.838   5.861   6.985
 5588SOL    HW217664   4.828   5.995   0.052
 5589SOL     OW17665   1.908   2.848   6.895
 5589SOL    HW117666   1.833   2.876   6.955
 5589SOL    HW217667   1.946   2.761   6.926
 5590SOL     OW17668   6.838   0.659   3.296
 5590SOL    HW117669   6.922   0.668   3.351
 5590SOL    HW217670   6.760   0.693   3.349
 5591SOL     OW17671   5.143   1.170   6.382
 5591SOL    HW117672   5.171   1.235   6.454
 5591SOL    HW217673   5.144   1.077   6.419
 5592SOL     OW17674   1.583   3.512   3.041
 5592SOL    HW117675   1.618   3.430   3.086
 5592SOL    HW217676   1.571   3.585   3.108
 5593SOL     OW17677   2.113   3.572   5.246
 5593SOL    HW117678   2.161   3.550   5.332
 5593SOL    HW217679   2.098   3.488   5.194
 5594SOL     OW17680   2.955   0.946   5.903
 5594SOL    HW117681   2.918   0.853   5.903
 5594SOL    HW217682   3.033   0.951   5.965
 5595SOL     OW17683   6.802   3.440   0.156
 5595SOL    HW117684   6.795   3.535   0.125
 5595SOL    HW217685   6.769   3.379   0.084
 5596SOL     OW17686   4.841   3.953   4.382
 5596SOL    HW117687   4.843   3.880   4.449
 5596SOL    HW217688   4.787   4.029   4.417
 5597SOL     OW17689   0.407   1.890   6.735
 5597SOL    HW117690   0.367   1.890   6.827
 5597SOL    HW217691   0.505   1.873   6.741
 5598SOL     OW17692   6.754   6.679   3.357
 5598SOL    HW117693   6.760   6.769   3.315
 5598SOL    HW217694   6.815   6.674   3.436
 5599SOL     OW17695   5.120   3.396   2.929
 5599SOL    HW117696   5.054   3.409   3.003
 5599SOL    HW217697   5.101   3.309   2.883
 5600SOL     OW17698   1.917   3.181   1.787
 5600SOL    HW117699   1.828   3.206   1.750
 5600SOL    HW217700   1.988   3.238   1.745
 5601SOL     OW17701   5.437   2.586   6.335
 5601SOL    HW117702   5.475   2.665   6.287
 5601SOL    HW217703   5.337   2.584   6.323
 5602SOL     OW17704   5.868   1.335   2.825
 5602SOL    HW117705   5.888   1.340   2.923
 5602SOL    HW217706   5.774   1.365   2.808
 5603SOL     OW17707   3.662   1.350   5.831
 5603SOL    HW117708   3.601   1.278   5.797
 5603SOL    HW217709   3.646   1.434   5.779
 5604SOL     OW17710   1.211   4.646   3.529
 5604SOL    HW117711   1.307   4.639   3.501
 5604SOL    HW217712   1.160   4.567   3.497
 5605SOL     OW17713   3.243   6.528   4.593
 5605SOL    HW117714   3.326   6.574   4.624
 5605SOL    HW217715   3.166   6.556   4.651
 5606SOL     OW17716   4.593   3.919   1.431
 5606SOL    HW117717   4.534   3.840   1.420
 5606SOL    HW217718   4.613   3.932   1.528
 5607SOL     OW17719   1.469   2.112   2.634
 5607SOL    HW117720   1.480   2.175   2.712
 5607SOL    HW217721   1.506   2.155   2.552
 5608SOL     OW17722   6.576   6.420   3.636
 5608SOL    HW117723   6.513   6.368   3.693
 5608SOL    HW217724   6.664   6.427   3.683
 5609SOL     OW17725   6.562   1.189   0.569
 5609SOL    HW117726   6.518   1.192   0.658
 5609SOL    HW217727   6.656   1.223   0.576
 5610SOL     OW17728   5.416   6.678   6.494
 5610SOL    HW117729   5.500   6.663   6.442
 5610SOL    HW217730   5.399   6.600   6.554
 5611SOL     OW17731   6.814   3.683   1.637
 5611SOL    HW117732   6.751   3.755   1.608
 5611SOL    HW217733   6.883   3.721   1.698
 5612SOL     OW17734   5.074   2.339   1.582
 5612SOL    HW117735   5.009   2.277   1.625
 5612SOL    HW217736   5.030   2.427   1.565
 5613SOL     OW17737   6.646   5.196   5.236
 5613SOL    HW117738   6.697   5.156   5.312
 5613SOL    HW217739   6.698   5.186   5.151
 5614SOL     OW17740   5.695   2.546   4.368
 5614SOL    HW117741   5.660   2.630   4.410
 5614SOL    HW217742   5.678   2.468   4.430
 5615SOL     OW17743   0.318   3.230   2.697
 5615SOL    HW117744   0.389   3.177   2.650
 5615SOL    HW217745   0.240   3.243   2.635
 5616SOL     OW17746   1.660   2.889   1.455
 5616SOL    HW117747   1.616   2.860   1.540
 5616SOL    HW217748   1.708   2.975   1.469
 5617SOL     OW17749   0.386   5.093   5.090
 5617SOL    HW117750   0.452   5.044   5.148
 5617SOL    HW217751   0.296   5.088   5.132
 5618SOL     OW17752   4.927   0.914   3.019
 5618SOL    HW117753   4.851   0.978   3.026
 5618SOL    HW217754   5.011   0.959   3.050
 5619SOL     OW17755   3.648   4.175   4.486
 5619SOL    HW117756   3.720   4.158   4.418
 5619SOL    HW217757   3.595   4.256   4.459
 5620SOL     OW17758   4.516   4.681   5.446
 5620SOL    HW117759   4.523   4.584   5.468
 5620SOL    HW217760   4.516   4.735   5.530
 5621SOL     OW17761   1.531   3.233   6.721
 5621SOL    HW117762   1.454   3.241   6.785
 5621SOL    HW217763   1.609   3.193   6.768
 5622SOL     OW17764   5.773   5.696   3.135
 5622SOL    HW117765   5.761   5.631   3.059
 5622SOL    HW217766   5.696   5.688   3.197
 5623SOL     OW17767   4.408   4.801   3.226
 5623SOL    HW117768   4.410   4.882   3.285
 5623SOL    HW217769   4.452   4.823   3.139
 5624SOL     OW17770   4.890   3.966   3.662
 5624SOL    HW117771   4.825   3.981   3.737
 5624SOL    HW217772   4.932   3.876   3.673
 5625SOL     OW17773   3.981   6.779   6.409
 5625SOL    HW117774   4.000   6.701   6.469
 5625SOL    HW217775   3.893   6.766   6.364
 5626SOL     OW17776   2.058   4.531   5.626
 5626SOL    HW117777   1.998   4.544   5.705
 5626SOL    HW217778   2.147   4.498   5.657
 5627SOL     OW17779   1.031   5.674   0.622
 5627SOL    HW117780   1.123   5.662   0.660
 5627SOL    HW217781   0.979   5.589   0.631
 5628SOL     OW17782   0.848   2.508   0.036
 5628SOL    HW117783   0.855   2.591   7.005
 5628SOL    HW217784   0.755   2.501   0.074
 5629SOL     OW17785   0.235   3.285   4.567
 5629SOL    HW117786   0.240   3.246   4.475
 5629SOL    HW217787   0.240   3.212   4.635
 5630SOL     OW17788   1.099   4.568   6.715
 5630SOL    HW117789   1.012   4.559   6.764
 5630SOL    HW217790   1.169   4.601   6.778
 5631SOL     OW17791   3.252   0.770   3.069
 5631SOL    HW117792   3.167   0.774   3.018
 5631SOL    HW217793   3.280   0.863   3.094
 5632SOL     OW17794   3.599   6.593   6.483
 5632SOL    HW117795   3.559   6.679   6.514
 5632SOL    HW217796   3.529   6.522   6.480
 5633SOL     OW17797   1.697   5.385   4.994
 5633SOL    HW117798   1.655   5.324   4.928
 5633SOL    HW217799   1.745   5.459   4.946
 5634SOL     OW17800   2.690   0.291   1.815
 5634SOL    HW117801   2.730   0.371   1.771
 5634SOL    HW217802   2.593   0.284   1.790
 5635SOL     OW17803   3.815   0.525   2.133
 5635SOL    HW117804   3.904   0.571   2.134
 5635SOL    HW217805   3.792   0.496   2.225
 5636SOL     OW17806   4.963   0.696   4.311
 5636SOL    HW117807   4.966   0.614   4.253
 5636SOL    HW217808   4.949   0.669   4.406
 5637SOL     OW17809   5.973   6.923   5.066
 5637SOL    HW117810   5.898   6.858   5.050
 5637SOL    HW217811   5.942   6.993   5.130
 5638SOL     OW17812   1.199   5.660   6.644
 5638SOL    HW117813   1.131   5.733   6.650
 5638SOL    HW217814   1.266   5.681   6.573
 5639SOL     OW17815   3.252   0.057   1.740
 5639SOL    HW117816   3.152   0.070   1.738
 5639SOL    HW217817   3.291   0.118   1.809
 5640SOL     OW17818   3.978   6.783   4.108
 5640SOL    HW117819   3.924   6.866   4.092
 5640SOL    HW217820   4.067   6.808   4.146
 5641SOL     OW17821   6.687   5.002   3.561
 5641SOL    HW117822   6.776   4.959   3.572
 5641SOL    HW217823   6.643   5.013   3.650
 5642SOL     OW17824   2.369   1.797   6.450
 5642SOL    HW117825   2.422   1.824   6.530
 5642SOL    HW217826   2.300   1.867   6.430
 5643SOL     OW17827   4.786   2.970   3.317
 5643SOL    HW117828   4.811   3.014   3.231
 5643SOL    HW217829   4.863   2.916   3.350
 5644SOL     OW17830   3.255   0.490   6.067
 5644SOL    HW117831   3.266   0.410   6.008
 5644SOL    HW217832   3.324   0.558   6.044
 5645SOL     OW17833   6.415   6.261   3.787
 5645SOL    HW117834   6.359   6.208   3.723
 5645SOL    HW217835   6.361   6.337   3.823
 5646SOL     OW17836   6.840   0.951   2.544
 5646SOL    HW117837   6.877   1.027   2.598
 5646SOL    HW217838   6.750   0.977   2.508
 5647SOL     OW17839   6.017   3.537   6.242
 5647SOL    HW117840   5.946   3.481   6.284
 5647SOL    HW217841   5.984   3.573   6.155
 5648SOL     OW17842   1.613   1.656   3.922
 5648SOL    HW117843   1.570   1.737   3.963
 5648SOL    HW217844   1.576   1.641   3.831
 5649SOL     OW17845   6.917   0.609   4.382
 5649SOL    HW117846   6.852   0.682   4.403
 5649SOL    HW217847   6.986   0.603   4.455
 5650SOL     OW17848   6.097   4.834   5.332
 5650SOL    HW117849   6.011   4.800   5.294
 5650SOL    HW217850   6.116   4.925   5.294
 5651SOL     OW17851   6.323   0.591   2.697
 5651SOL    HW117852   6.299   0.519   2.761
 5651SOL    HW217853   6.273   0.674   2.719
 5652SOL     OW17854   4.462   4.263   6.935
 5652SOL    HW117855   4.492   4.168   6.929
 5652SOL    HW217856   4.365   4.266   6.957
 5653SOL     OW17857   2.292   6.143   6.870
 5653SOL    HW117858   2.392   6.152   6.877
 5653SOL    HW217859   2.268   6.120   6.775
 5654SOL     OW17860   2.532   6.504   0.541
 5654SOL    HW117861   2.616   6.540   0.501
 5654SOL    HW217862   2.551   6.473   0.634
 5655SOL     OW17863   6.768   5.771   2.475
 5655SOL    HW117864   6.828   5.806   2.546
 5655SOL    HW217865   6.805   5.794   2.385
 5656SOL     OW17866   3.497   4.763   6.389
 5656SOL    HW117867   3.428   4.834   6.403
 5656SOL    HW217868   3.471   4.708   6.309
 5657SOL     OW17869   4.729   5.555   2.209
 5657SOL    HW117870   4.729   5.487   2.136
 5657SOL    HW217871   4.750   5.511   2.296
 5658SOL     OW17872   4.945   6.399   6.160
 5658SOL    HW117873   4.853   6.437   6.156
 5658SOL    HW217874   4.978   6.382   6.067
 5659SOL     OW17875   3.265   3.905   2.122
 5659SOL    HW117876   3.305   3.971   2.185
 5659SOL    HW217877   3.292   3.928   2.028
 5660SOL     OW17878   6.899   5.564   1.483
 5660SOL    HW117879   6.871   5.659   1.500
 5660SOL    HW217880   6.961   5.562   1.404
 5661SOL     OW17881   6.244   6.171   4.592
 5661SOL    HW117882   6.194   6.110   4.654
 5661SOL    HW217883   6.324   6.123   4.557
 5662SOL     OW17884   1.425   3.749   4.562
 5662SOL    HW117885   1.502   3.717   4.617
 5662SOL    HW217886   1.356   3.788   4.623
 5663SOL     OW17887   2.441   3.681   0.537
 5663SOL    HW117888   2.514   3.739   0.499
 5663SOL    HW217889   2.478   3.627   0.612
 5664SOL     OW17890   6.320   6.654   1.641
 5664SOL    HW117891   6.268   6.569   1.640
 5664SOL    HW217892   6.287   6.712   1.716
 5665SOL     OW17893   1.780   0.830   5.826
 5665SOL    HW117894   1.765   0.771   5.906
 5665SOL    HW217895   1.841   0.905   5.851
 5666SOL     OW17896   5.398   6.219   6.495
 5666SOL    HW117897   5.360   6.157   6.564
 5666SOL    HW217898   5.370   6.189   6.404
 5667SOL     OW17899   5.346   4.592   2.575
 5667SOL    HW117900   5.441   4.621   2.579
 5667SOL    HW217901   5.289   4.653   2.631
 5668SOL     OW17902   6.291   2.473   6.911
 5668SOL    HW117903   6.316   2.541   6.981
 5668SOL    HW217904   6.375   2.434   6.873
 5669SOL     OW17905   0.239   2.300   5.157
 5669SOL    HW117906   0.153   2.251   5.169
 5669SOL    HW217907   0.269   2.291   5.062
 5670SOL     OW17908   1.597   2.894   1.935
 5670SOL    HW117909   1.540   2.967   1.897
 5670SOL    HW217910   1.591   2.813   1.877
 5671SOL     OW17911   1.448   0.663   5.949
 5671SOL    HW117912   1.527   0.640   6.006
 5671SOL    HW217913   1.425   0.759   5.962
 5672SOL     OW17914   4.341   4.380   5.833
 5672SOL    HW117915   4.428   4.334   5.850
 5672SOL    HW217916   4.329   4.393   5.735
 5673SOL     OW17917   1.866   6.674   1.604
 5673SOL    HW117918   1.854   6.676   1.703
 5673SOL    HW217919   1.852   6.580   1.571
 5674SOL     OW17920   0.770   2.562   0.807
 5674SOL    HW117921   0.718   2.646   0.788
 5674SOL    HW217922   0.863   2.571   0.771
 5675SOL     OW17923   4.439   0.840   5.694
 5675SOL    HW117924   4.496   0.916   5.663
 5675SOL    HW217925   4.346   0.873   5.711
 5676SOL     OW17926   2.151   6.284   2.587
 5676SOL    HW117927   2.102   6.215   2.533
 5676SOL    HW217928   2.150   6.371   2.538
 5677SOL     OW17929   6.558   0.085   2.891
 5677SOL    HW117930   6.520   7.018   2.882
 5677SOL    HW217931   6.657   0.079   2.902
 5678SOL     OW17932   1.287   5.339   2.751
 5678SOL    HW117933   1.219   5.377   2.689
 5678SOL    HW217934   1.334   5.262   2.707
 5679SOL     OW17935   3.802   5.870   5.419
 5679SOL    HW117936   3.784   5.935   5.345
 5679SOL    HW217937   3.892   5.888   5.458
 5680SOL     OW17938   1.899   6.659   6.509
 5680SOL    HW117939   1.895   6.577   6.451
 5680SOL    HW217940   1.829   6.654   6.580
 5681SOL     OW17941   2.853   3.711   0.219
 5681SOL    HW117942   2.916   3.776   0.177
 5681SOL    HW217943   2.855   3.721   0.318
 5682SOL     OW17944   2.092   3.533   4.553
 5682SOL    HW117945   2.138   3.547   4.641
 5682SOL    HW217946   2.082   3.622   4.507
 5683SOL     OW17947   4.039   3.109   5.347
 5683SOL    HW117948   4.061   3.013   5.362
 5683SOL    HW217949   4.122   3.164   5.349
 5684SOL     OW17950   2.976   3.857   3.187
 5684SOL    HW117951   3.061   3.910   3.187
 5684SOL    HW217952   2.937   3.857   3.095
 5685SOL     OW17953   6.863   6.649   1.319
 5685SOL    HW117954   6.826   6.679   1.407
 5685SOL    HW217955   6.900   6.728   1.270
 5686SOL     OW17956   3.164   4.356   6.353
 5686SOL    HW117957   3.116   4.440   6.326
 5686SOL    HW217958   3.254   4.379   6.388
 5687SOL     OW17959   4.634   6.363   6.509
 5687SOL    HW117960   4.712   6.409   6.465
 5687SOL    HW217961   4.552   6.378   6.455
 5688SOL     OW17962   5.265   1.790   2.477
 5688SOL    HW117963   5.233   1.812   2.385
 5688SOL    HW217964   5.339   1.853   2.502
 5689SOL     OW17965   3.785   2.859   5.270
 5689SOL    HW117966   3.734   2.799   5.331
 5689SOL    HW217967   3.883   2.841   5.278
 5690SOL     OW17968   3.666   0.676   2.999
 5690SOL    HW117969   3.719   0.596   3.024
 5690SOL    HW217970   3.606   0.702   3.075
 5691SOL     OW17971   3.740   0.650   4.173
 5691SOL    HW117972   3.736   0.729   4.235
 5691SOL    HW217973   3.772   0.680   4.083
 5692SOL     OW17974   5.663   2.981   0.085
 5692SOL    HW117975   5.628   2.933   0.006
 5692SOL    HW217976   5.759   3.005   0.070
 5693SOL     OW17977   5.526   2.976   1.762
 5693SOL    HW117978   5.516   3.034   1.680
 5693SOL    HW217979   5.608   2.920   1.752
 5694SOL     OW17980   1.437   2.065   4.956
 5694SOL    HW117981   1.432   2.003   4.877
 5694SOL    HW217982   1.492   2.022   5.027
 5695SOL     OW17983   1.921   3.965   3.490
 5695SOL    HW117984   1.898   3.879   3.535
 5695SOL    HW217985   2.012   3.958   3.449
 5696SOL     OW17986   3.429   1.360   6.753
 5696SOL    HW117987   3.471   1.336   6.841
 5696SOL    HW217988   3.464   1.300   6.682
 5697SOL     OW17989   6.924   3.860   0.413
 5697SOL    HW117990   6.839   3.883   0.461
 5697SOL    HW217991   6.963   3.943   0.373
 5698SOL     OW17992   1.405   4.283   3.894
 5698SOL    HW117993   1.435   4.361   3.839
 5698SOL    HW217994   1.467   4.271   3.971
 5699SOL     OW17995   0.737   2.438   5.095
 5699SOL    HW117996   0.734   2.527   5.141
 5699SOL    HW217997   0.832   2.411   5.081
 5700SOL     OW17998   1.041   5.052   4.490
 5700SOL    HW117999   0.995   4.964   4.500
 5700SOL    HW218000   1.098   5.069   4.571
 5701SOL     OW18001   4.758   2.891   2.660
 5701SOL    HW118002   4.741   2.809   2.715
 5701SOL    HW218003   4.750   2.869   2.563
 5702SOL     OW18004   3.726   0.364   0.152
 5702SOL    HW118005   3.721   0.463   0.158
 5702SOL    HW218006   3.817   0.333   0.177
 5703SOL     OW18007   4.950   4.246   2.391
 5703SOL    HW118008   4.884   4.226   2.318
 5703SOL    HW218009   4.932   4.186   2.469
 5704SOL     OW18010   5.515   4.287   3.162
 5704SOL    HW118011   5.602   4.288   3.213
 5704SOL    HW218012   5.452   4.352   3.204
 5705SOL     OW18013   6.833   1.009   3.943
 5705SOL    HW118014   6.761   1.074   3.970
 5705SOL    HW218015   6.797   0.916   3.948
 5706SOL     OW18016   2.513   1.500   6.661
 5706SOL    HW118017   2.522   1.438   6.738
 5706SOL    HW218018   2.604   1.525   6.628
 5707SOL     OW18019   3.878   1.502   0.814
 5707SOL    HW118020   3.789   1.480   0.774
 5707SOL    HW218021   3.872   1.588   0.864
 5708SOL     OW18022   0.892   0.009   0.666
 5708SOL    HW118023   0.870   6.938   0.654
 5708SOL    HW218024   0.970   0.018   0.728
 5709SOL     OW18025   0.733   2.070   0.953
 5709SOL    HW118026   0.770   2.154   0.991
 5709SOL    HW218027   0.798   2.031   0.888
 5710SOL     OW18028   3.576   4.761   6.942
 5710SOL    HW118029   3.513   4.692   6.977
 5710SOL    HW218030   3.587   4.750   6.843
 5711SOL     OW18031   5.384   1.668   4.761
 5711SOL    HW118032   5.388   1.743   4.827
 5711SOL    HW218033   5.366   1.706   4.670
 5712SOL     OW18034   5.641   7.020   6.266
 5712SOL    HW118035   5.669   0.074   6.211
 5712SOL    HW218036   5.542   7.013   6.266
 5713SOL     OW18037   0.282   3.568   2.680
 5713SOL    HW118038   0.334   3.607   2.604
 5713SOL    HW218039   0.184   3.573   2.660
 5714SOL     OW18040   2.095   0.523   0.479
 5714SOL    HW118041   2.172   0.464   0.455
 5714SOL    HW218042   2.013   0.466   0.492
 5715SOL     OW18043   0.481   6.357   3.728
 5715SOL    HW118044   0.424   6.414   3.669
 5715SOL    HW218045   0.467   6.384   3.823
 5716SOL     OW18046   1.851   2.326   5.485
 5716SOL    HW118047   1.776   2.365   5.432
 5716SOL    HW218048   1.820   2.243   5.532
 5717SOL     OW18049   1.010   3.418   5.979
 5717SOL    HW118050   0.974   3.328   5.953
 5717SOL    HW218051   1.109   3.412   5.990
 5718SOL     OW18052   3.348   5.851   6.061
 5718SOL    HW118053   3.376   5.770   6.010
 5718SOL    HW218054   3.261   5.884   6.025
 5719SOL     OW18055   2.422   0.917   6.922
 5719SOL    HW118056   2.415   0.849   6.995
 5719SOL    HW218057   2.518   0.945   6.913
 5720SOL     OW18058   2.226   6.187   3.727
 5720SOL    HW118059   2.127   6.198   3.733
 5720SOL    HW218060   2.251   6.164   3.633
 5721SOL     OW18061   6.425   4.948   6.654
 5721SOL    HW118062   6.400   4.888   6.730
 5721SOL    HW218063   6.524   4.957   6.649
 5722SOL     OW18064   5.141   1.037   4.793
 5722SOL    HW118065   5.235   1.032   4.827
 5722SOL    HW218066   5.136   1.105   4.720
 5723SOL     OW18067   6.798   4.575   1.338
 5723SOL    HW118068   6.786   4.582   1.239
 5723SOL    HW218069   6.816   4.666   1.376
 5724SOL     OW18070   4.994   3.005   5.961
 5724SOL    HW118071   5.039   2.966   6.041
 5724SOL    HW218072   4.934   2.936   5.921
 5725SOL     OW18073   5.689   6.404   5.243
 5725SOL    HW118074   5.634   6.464   5.185
 5725SOL    HW218075   5.706   6.449   5.331
 5726SOL     OW18076   3.776   5.433   5.933
 5726SOL    HW118077   3.688   5.420   5.887
 5726SOL    HW218078   3.842   5.366   5.900
 5727SOL     OW18079   6.019   2.099   3.656
 5727SOL    HW118080   6.064   2.182   3.623
 5727SOL    HW218081   5.980   2.116   3.747
 5728SOL     OW18082   3.871   0.938   4.725
 5728SOL    HW118083   3.955   0.898   4.761
 5728SOL    HW218084   3.801   0.940   4.796
 5729SOL     OW18085   2.320   2.243   4.145
 5729SOL    HW118086   2.394   2.178   4.162
 5729SOL    HW218087   2.256   2.241   4.222
 5730SOL     OW18088   4.135   4.656   6.942
 5730SOL    HW118089   4.082   4.724   6.992
 5730SOL    HW218090   4.203   4.702   6.885
 5731SOL     OW18091   4.555   0.843   4.854
 5731SOL    HW118092   4.488   0.868   4.924
 5731SOL    HW218093   4.507   0.822   4.768
 5732SOL     OW18094   6.231   4.274   3.799
 5732SOL    HW118095   6.281   4.358   3.780
 5732SOL    HW218096   6.137   4.282   3.767
 5733SOL     OW18097   2.225   6.615   1.615
 5733SOL    HW118098   2.164   6.539   1.639
 5733SOL    HW218099   2.302   6.616   1.679
 5734SOL     OW18100   2.192   0.411   5.631
 5734SOL    HW118101   2.128   0.354   5.579
 5734SOL    HW218102   2.151   0.433   5.720
 5735SOL     OW18103   5.240   1.363   0.581
 5735SOL    HW118104   5.263   1.455   0.613
 5735SOL    HW218105   5.143   1.345   0.598
 5736SOL     OW18106   5.299   3.759   6.808
 5736SOL    HW118107   5.340   3.842   6.771
 5736SOL    HW218108   5.276   3.697   6.734
 5737SOL     OW18109   4.894   6.188   2.548
 5737SOL    HW118110   4.971   6.141   2.590
 5737SOL    HW218111   4.928   6.259   2.485
 5738SOL     OW18112   3.196   1.393   1.190
 5738SOL    HW118113   3.117   1.428   1.139
 5738SOL    HW218114   3.277   1.447   1.167
 5739SOL     OW18115   2.213   1.052   5.414
 5739SOL    HW118116   2.284   1.109   5.456
 5739SOL    HW218117   2.183   0.983   5.480
 5740SOL     OW18118   4.917   3.124   2.591
 5740SOL    HW118119   4.860   3.046   2.619
 5740SOL    HW218120   4.893   3.152   2.499
 5741SOL     OW18121   1.621   3.561   3.818
 5741SOL    HW118122   1.681   3.641   3.824
 5741SOL    HW218123   1.643   3.508   3.737
 5742SOL     OW18124   5.786   5.133   2.066
 5742SOL    HW118125   5.883   5.147   2.045
 5742SOL    HW218126   5.758   5.195   2.139
 5743SOL     OW18127   4.269   6.684   6.812
 5743SOL    HW118128   4.221   6.633   6.740
 5743SOL    HW218129   4.344   6.736   6.772
 5744SOL     OW18130   5.573   5.651   3.291
 5744SOL    HW118131   5.567   5.632   3.389
 5744SOL    HW218132   5.481   5.665   3.255
 5745SOL     OW18133   1.093   3.748   2.279
 5745SOL    HW118134   1.093   3.832   2.226
 5745SOL    HW218135   1.038   3.679   2.233
 5746SOL     OW18136   5.571   0.786   3.297
 5746SOL    HW118137   5.572   0.694   3.336
 5746SOL    HW218138   5.517   0.847   3.354
 5747SOL     OW18139   2.169   6.890   1.805
 5747SOL    HW118140   2.191   6.843   1.891
 5747SOL    HW218141   2.138   6.823   1.738
 5748SOL     OW18142   6.357   6.842   0.067
 5748SOL    HW118143   6.316   6.754   0.042
 5748SOL    HW218144   6.311   6.880   0.147
 5749SOL     OW18145   2.157   6.457   6.716
 5749SOL    HW118146   2.089   6.490   6.782
 5749SOL    HW218147   2.224   6.400   6.764
 5750SOL     OW18148   6.131   2.753   3.940
 5750SOL    HW118149   6.065   2.680   3.924
 5750SOL    HW218150   6.206   2.719   3.996
 5751SOL     OW18151   0.061   3.595   3.713
 5751SOL    HW118152   0.024   3.687   3.727
 5751SOL    HW218153   0.045   3.567   3.619
 5752SOL     OW18154   5.824   1.416   6.890
 5752SOL    HW118155   5.826   1.319   6.868
 5752SOL    HW218156   5.730   1.447   6.900
 5753SOL     OW18157   3.467   3.397   4.289
 5753SOL    HW118158   3.452   3.471   4.224
 5753SOL    HW218159   3.379   3.360   4.318
 5754SOL     OW18160   6.051   6.562   0.922
 5754SOL    HW118161   6.060   6.607   0.833
 5754SOL    HW218162   5.996   6.620   0.983
 5755SOL     OW18163   0.580   3.574   6.467
 5755SOL    HW118164   0.550   3.515   6.542
 5755SOL    HW218165   0.664   3.536   6.427
 5756SOL     OW18166   6.325   6.414   2.006
 5756SOL    HW118167   6.370   6.482   2.063
 5756SOL    HW218168   6.227   6.413   2.027
 5757SOL     OW18169   0.957   1.931   4.399
 5757SOL    HW118170   1.033   1.876   4.364
 5757SOL    HW218171   0.934   2.003   4.333
 5758SOL     OW18172   6.483   6.886   3.191
 5758SOL    HW118173   6.504   6.851   3.100
 5758SOL    HW218174   6.384   6.880   3.207
 5759SOL     OW18175   2.120   6.436   3.451
 5759SOL    HW118176   2.085   6.457   3.543
 5759SOL    HW218177   2.191   6.502   3.427
 5760SOL     OW18178   0.316   2.134   0.484
 5760SOL    HW118179   0.361   2.143   0.573
 5760SOL    HW218180   0.324   2.040   0.452
 5761SOL     OW18181   6.615   6.866   5.138
 5761SOL    HW118182   6.614   6.812   5.054
 5761SOL    HW218183   6.686   6.832   5.200
 5762SOL     OW18184   1.173   5.649   5.432
 5762SOL    HW118185   1.184   5.674   5.336
 5762SOL    HW218186   1.076   5.650   5.456
 5763SOL     OW18187   4.896   0.564   0.115
 5763SOL    HW118188   4.980   0.536   0.068
 5763SOL    HW218189   4.917   0.638   0.179
 5764SOL     OW18190   3.507   6.455   4.338
 5764SOL    HW118191   3.526   6.371   4.390
 5764SOL    HW218192   3.481   6.431   4.244
 5765SOL     OW18193   0.013   6.221   2.538
 5765SOL    HW118194   6.981   6.193   2.461
 5765SOL    HW218195   6.993   6.294   2.589
 5766SOL     OW18196   0.804   0.719   4.825
 5766SOL    HW118197   0.861   0.693   4.903
 5766SOL    HW218198   0.832   0.669   4.744
 5767SOL     OW18199   6.046   6.686   0.314
 5767SOL    HW118200   6.129   6.629   0.310
 5767SOL    HW218201   5.966   6.629   0.293
 5768SOL     OW18202   1.051   0.663   4.979
 5768SOL    HW118203   1.135   0.709   4.949
 5768SOL    HW218204   1.074   0.591   5.045
 5769SOL     OW18205   1.209   2.644   5.863
 5769SOL    HW118206   1.247   2.711   5.928
 5769SOL    HW218207   1.283   2.606   5.808
 5770SOL     OW18208   1.364   4.452   2.680
 5770SOL    HW118209   1.303   4.530   2.672
 5770SOL    HW218210   1.331   4.377   2.623
 5771SOL     OW18211   2.826   5.905   3.061
 5771SOL    HW118212   2.845   5.984   3.002
 5771SOL    HW218213   2.729   5.883   3.055
 5772SOL     OW18214   2.581   0.731   3.157
 5772SOL    HW118215   2.558   0.668   3.082
 5772SOL    HW218216   2.585   0.681   3.243
 5773SOL     OW18217   5.843   0.603   4.140
 5773SOL    HW118218   5.811   0.588   4.233
 5773SOL    HW218219   5.919   0.541   4.120
 5774SOL     OW18220   1.098   5.948   3.883
 5774SOL    HW118221   1.168   6.020   3.873
 5774SOL    HW218222   1.012   5.990   3.912
 5775SOL     OW18223   5.209   4.990   2.540
 5775SOL    HW118224   5.224   5.034   2.629
 5775SOL    HW218225   5.295   4.987   2.489
 5776SOL     OW18226   3.823   1.001   3.851
 5776SOL    HW118227   3.823   0.902   3.863
 5776SOL    HW218228   3.730   1.036   3.861
 5777SOL     OW18229   0.844   0.401   1.602
 5777SOL    HW118230   0.859   0.446   1.689
 5777SOL    HW218231   0.929   0.358   1.571
 5778SOL     OW18232   0.303   1.199   0.150
 5778SOL    HW118233   0.382   1.178   0.207
 5778SOL    HW218234   0.276   1.117   0.099
 5779SOL     OW18235   5.569   1.677   0.618
 5779SOL    HW118236   5.597   1.733   0.696
 5779SOL    HW218237   5.488   1.624   0.642
 5780SOL     OW18238   5.270   5.029   4.224
 5780SOL    HW118239   5.208   5.061   4.295
 5780SOL    HW218240   5.358   5.004   4.265
 5781SOL     OW18241   1.226   6.096   5.657
 5781SOL    HW118242   1.288   6.087   5.579
 5781SOL    HW218243   1.166   6.175   5.642
 5782SOL     OW18244   5.987   0.835   0.876
 5782SOL    HW118245   5.901   0.848   0.827
 5782SOL    HW218246   5.988   0.743   0.917
 5783SOL     OW18247   2.524   2.400   6.510
 5783SOL    HW118248   2.494   2.404   6.415
 5783SOL    HW218249   2.613   2.444   6.519
 5784SOL     OW18250   6.627   6.646   0.477
 5784SOL    HW118251   6.603   6.713   0.407
 5784SOL    HW218252   6.696   6.685   0.538
 5785SOL     OW18253   1.445   2.001   2.006
 5785SOL    HW118254   1.410   1.936   2.074
 5785SOL    HW218255   1.389   2.083   2.005
 5786SOL     OW18256   6.594   5.675   1.931
 5786SOL    HW118257   6.529   5.696   2.004
 5786SOL    HW218258   6.554   5.700   1.843
 5787SOL     OW18259   1.787   3.105   6.383
 5787SOL    HW118260   1.749   3.068   6.298
 5787SOL    HW218261   1.881   3.074   6.394
 5788SOL     OW18262   3.554   0.284   3.673
 5788SOL    HW118263   3.622   0.356   3.689
 5788SOL    HW218264   3.530   0.241   3.760
 5789SOL     OW18265   3.211   4.762   6.174
 5789SOL    HW118266   3.185   4.747   6.079
 5789SOL    HW218267   3.142   4.722   6.234
 5790SOL     OW18268   1.485   3.776   4.261
 5790SOL    HW118269   1.520   3.689   4.294
 5790SOL    HW218270   1.460   3.834   4.338
 5791SOL     OW18271   1.380   0.958   3.330
 5791SOL    HW118272   1.417   0.992   3.244
 5791SOL    HW218273   1.452   0.914   3.383
 5792SOL     OW18274   0.178   2.253   3.146
 5792SOL    HW118275   0.157   2.257   3.244
 5792SOL    HW218276   0.245   2.324   3.123
 5793SOL     OW18277   6.369   0.899   5.051
 5793SOL    HW118278   6.410   0.823   5.103
 5793SOL    HW218279   6.412   0.905   4.962
 5794SOL     OW18280   6.948   4.101   6.811
 5794SOL    HW118281   7.009   4.025   6.787
 5794SOL    HW218282   7.001   4.184   6.824
 5795SOL     OW18283   6.703   4.841   6.785
 5795SOL    HW118284   6.769   4.767   6.778
 5795SOL    HW218285   6.746   4.920   6.829
 5796SOL     OW18286   2.723   2.264   0.738
 5796SOL    HW118287   2.821   2.249   0.752
 5796SOL    HW218288   2.704   2.273   0.640
 5797SOL     OW18289   3.014   2.767   5.327
 5797SOL    HW118290   2.970   2.680   5.305
 5797SOL    HW218291   2.981   2.801   5.415
 5798SOL     OW18292   6.353   5.138   4.380
 5798SOL    HW118293   6.421   5.113   4.448
 5798SOL    HW218294   6.337   5.237   4.384
 5799SOL     OW18295   5.619   0.431   4.070
 5799SOL    HW118296   5.703   0.485   4.081
 5799SOL    HW218297   5.633   0.362   3.999
 5800SOL     OW18298   5.618   5.843   6.587
 5800SOL    HW118299   5.527   5.883   6.603
 5800SOL    HW218300   5.683   5.916   6.565
 5801SOL     OW18301   1.631   1.685   2.472
 5801SOL    HW118302   1.628   1.586   2.459
 5801SOL    HW218303   1.568   1.729   2.408
 5802SOL     OW18304   0.179   2.646   4.806
 5802SOL    HW118305   0.240   2.714   4.766
 5802SOL    HW218306   0.090   2.688   4.826
 5803SOL     OW18307   1.699   5.063   1.028
 5803SOL    HW118308   1.692   5.158   1.056
 5803SOL    HW218309   1.774   5.052   0.963
 5804SOL     OW18310   0.522   2.528   6.377
 5804SOL    HW118311   0.542   2.451   6.315
 5804SOL    HW218312   0.445   2.504   6.436
 5805SOL     OW18313   5.112   3.220   6.688
 5805SOL    HW118314   5.086   3.216   6.592
 5805SOL    HW218315   5.175   3.297   6.702
 5806SOL     OW18316   6.447   7.021   6.489
 5806SOL    HW118317   6.408   7.002   6.579
 5806SOL    HW218318   6.395   6.972   6.419
 5807SOL     OW18319   2.860   4.118   1.164
 5807SOL    HW118320   2.939   4.129   1.225
 5807SOL    HW218321   2.888   4.137   1.070
 5808SOL     OW18322   6.170   1.643   3.331
 5808SOL    HW118323   6.251   1.697   3.307
 5808SOL    HW218324   6.143   1.663   3.425
 5809SOL     OW18325   0.662   2.725   3.701
 5809SOL    HW118326   0.753   2.685   3.712
 5809SOL    HW218327   0.594   2.653   3.690
 5810SOL     OW18328   2.836   2.268   2.811
 5810SOL    HW118329   2.907   2.201   2.790
 5810SOL    HW218330   2.778   2.282   2.730
 5811SOL     OW18331   2.696   0.266   2.073
 5811SOL    HW118332   2.642   0.192   2.113
 5811SOL    HW218333   2.703   0.252   1.974
 5812SOL     OW18334   4.281   0.532   4.812
 5812SOL    HW118335   4.216   0.465   4.849
 5812SOL    HW218336   4.364   0.485   4.782
 5813SOL     OW18337   1.839   1.898   5.310
 5813SOL    HW118338   1.853   1.977   5.369
 5813SOL    HW218339   1.821   1.817   5.367
 5814SOL     OW18340   0.521   5.264   1.586
 5814SOL    HW118341   0.474   5.315   1.514
 5814SOL    HW218342   0.457   5.200   1.628
 5815SOL     OW18343   4.214   6.794   4.295
 5815SOL    HW118344   4.142   6.802   4.364
 5815SOL    HW218345   4.295   6.751   4.335
 5816SOL     OW18346   5.476   6.577   0.341
 5816SOL    HW118347   5.440   6.490   0.375
 5816SOL    HW218348   5.420   6.608   0.264
 5817SOL     OW18349   6.370   2.911   6.553
 5817SOL    HW118350   6.274   2.938   6.541
 5817SOL    HW218351   6.397   2.853   6.476
 5818SOL     OW18352   6.524   6.566   5.053
 5818SOL    HW118353   6.533   6.636   4.982
 5818SOL    HW218354   6.594   6.580   5.122
 5819SOL     OW18355   6.224   0.299   1.078
 5819SOL    HW118356   6.294   0.284   1.008
 5819SOL    HW218357   6.261   0.274   1.167
 5820SOL     OW18358   5.589   4.763   1.912
 5820SOL    HW118359   5.529   4.716   1.976
 5820SOL    HW218360   5.580   4.722   1.821
 5821SOL     OW18361   2.909   0.121   2.606
 5821SOL    HW118362   2.893   0.219   2.611
 5821SOL    HW218363   3.008   0.103   2.612
 5822SOL     OW18364   0.382   0.804   2.563
 5822SOL    HW118365   0.377   0.749   2.646
 5822SOL    HW218366   0.341   0.754   2.486
 5823SOL     OW18367   1.975   2.784   4.200
 5823SOL    HW118368   1.953   2.865   4.145
 5823SOL    HW218369   1.891   2.734   4.222
 5824SOL     OW18370   5.142   0.381   3.976
 5824SOL    HW118371   5.199   0.301   3.996
 5824SOL    HW218372   5.096   0.368   3.888
 5825SOL     OW18373   3.482   1.625   1.716
 5825SOL    HW118374   3.496   1.719   1.684
 5825SOL    HW218375   3.391   1.618   1.758
 5826SOL     OW18376   0.379   6.791   3.550
 5826SOL    HW118377   0.365   6.818   3.455
 5826SOL    HW218378   0.371   6.692   3.558
 5827SOL     OW18379   1.811   4.777   5.732
 5827SOL    HW118380   1.798   4.699   5.794
 5827SOL    HW218381   1.745   4.849   5.754
 5828SOL     OW18382   6.092   2.394   1.346
 5828SOL    HW118383   6.083   2.490   1.320
 5828SOL    HW218384   6.189   2.371   1.357
 5829SOL     OW18385   2.064   1.661   1.211
 5829SOL    HW118386   2.139   1.621   1.158
 5829SOL    HW218387   2.090   1.752   1.243
 5830SOL     OW18388   1.819   0.851   5.559
 5830SOL    HW118389   1.803   0.845   5.657
 5830SOL    HW218390   1.893   0.788   5.533
 5831SOL     OW18391   5.597   5.637   2.758
 5831SOL    HW118392   5.583   5.702   2.684
 5831SOL    HW218393   5.685   5.656   2.803
 5832SOL     OW18394   3.591   3.371   4.752
 5832SOL    HW118395   3.505   3.329   4.723
 5832SOL    HW218396   3.572   3.439   4.823
 5833SOL     OW18397   3.015   3.527   5.189
 5833SOL    HW118398   3.023   3.625   5.175
 5833SOL    HW218399   3.100   3.492   5.229
 5834SOL     OW18400   5.907   1.013   0.109
 5834SOL    HW118401   5.911   1.112   0.122
 5834SOL    HW218402   5.817   0.979   0.135
 5835SOL     OW18403   5.287   3.089   4.628
 5835SOL    HW118404   5.203   3.135   4.602
 5835SOL    HW218405   5.306   3.015   4.563
 5836SOL     OW18406   3.397   6.926   3.373
 5836SOL    HW118407   3.497   6.924   3.377
 5836SOL    HW218408   3.362   6.833   3.359
 5837SOL     OW18409   4.218   4.148   6.088
 5837SOL    HW118410   4.270   4.167   6.172
 5837SOL    HW218411   4.128   4.112   6.112
 5838SOL     OW18412   0.687   0.858   5.706
 5838SOL    HW118413   0.675   0.792   5.632
 5838SOL    HW218414   0.781   0.854   5.739
 5839SOL     OW18415   0.263   2.260   2.457
 5839SOL    HW118416   0.307   2.313   2.385
 5839SOL    HW218417   0.210   2.185   2.416
 5840SOL     OW18418   3.396   5.498   0.339
 5840SOL    HW118419   3.419   5.471   0.432
 5840SOL    HW218420   3.323   5.439   0.304
 5841SOL     OW18421   5.917   2.020   3.166
 5841SOL    HW118422   5.877   1.969   3.241
 5841SOL    HW218423   5.943   1.956   3.093
 5842SOL     OW18424   3.898   2.102   0.957
 5842SOL    HW118425   3.849   2.181   0.921
 5842SOL    HW218426   3.893   2.102   1.057
 5843SOL     OW18427   0.606   2.579   1.416
 5843SOL    HW118428   0.694   2.618   1.387
 5843SOL    HW218429   0.578   2.509   1.350
 5844SOL     OW18430   1.642   6.391   6.441
 5844SOL    HW118431   1.733   6.386   6.401
 5844SOL    HW218432   1.578   6.335   6.388
 5845SOL     OW18433   1.917   2.785   4.782
 5845SOL    HW118434   1.924   2.879   4.815
 5845SOL    HW218435   1.997   2.733   4.813
 5846SOL     OW18436   0.336   3.710   6.680
 5846SOL    HW118437   0.359   3.688   6.586
 5846SOL    HW218438   0.296   3.630   6.725
 5847SOL     OW18439   1.519   2.383   4.199
 5847SOL    HW118440   1.609   2.421   4.222
 5847SOL    HW218441   1.465   2.375   4.283
 5848SOL     OW18442   0.855   4.610   3.585
 5848SOL    HW118443   0.760   4.615   3.618
 5848SOL    HW218444   0.888   4.516   3.594
 5849SOL     OW18445   2.968   6.946   6.207
 5849SOL    HW118446   2.921   6.881   6.266
 5849SOL    HW218447   2.905   7.021   6.184
 5850SOL     OW18448   0.748   4.535   3.211
 5850SOL    HW118449   0.775   4.448   3.252
 5850SOL    HW218450   0.812   4.606   3.239
 5851SOL     OW18451   6.293   3.442   2.059
 5851SOL    HW118452   6.235   3.379   2.111
 5851SOL    HW218453   6.283   3.423   1.961
 5852SOL     OW18454   3.689   6.512   3.133
 5852SOL    HW118455   3.598   6.531   3.095
 5852SOL    HW218456   3.757   6.513   3.059
 5853SOL     OW18457   5.063   4.183   5.355
 5853SOL    HW118458   5.013   4.179   5.268
 5853SOL    HW218459   5.156   4.216   5.338
 5854SOL     OW18460   0.886   1.477   6.625
 5854SOL    HW118461   0.818   1.475   6.698
 5854SOL    HW218462   0.904   1.572   6.599
 5855SOL     OW18463   1.419   1.915   4.739
 5855SOL    HW118464   1.462   1.917   4.649
 5855SOL    HW218465   1.450   1.834   4.788
 5856SOL     OW18466   1.059   5.563   3.638
 5856SOL    HW118467   1.077   5.588   3.734
 5856SOL    HW218468   0.975   5.607   3.608
 5857SOL     OW18469   0.394   2.421   5.357
 5857SOL    HW118470   0.355   2.504   5.396
 5857SOL    HW218471   0.340   2.392   5.278
 5858SOL     OW18472   2.961   6.580   3.774
 5858SOL    HW118473   3.016   6.649   3.727
 5858SOL    HW218474   2.881   6.558   3.719
 5859SOL     OW18475   5.873   5.523   1.928
 5859SOL    HW118476   5.846   5.600   1.870
 5859SOL    HW218477   5.794   5.492   1.981
 5860SOL     OW18478   6.981   3.991   0.863
 5860SOL    HW118479   0.022   4.059   0.896
 5860SOL    HW218480   6.998   3.904   0.909
 5861SOL     OW18481   6.078   1.347   3.808
 5861SOL    HW118482   5.995   1.371   3.858
 5861SOL    HW218483   6.127   1.431   3.783
 5862SOL     OW18484   5.134   4.916   3.764
 5862SOL    HW118485   5.190   4.951   3.839
 5862SOL    HW218486   5.037   4.928   3.786
 5863SOL     OW18487   2.170   1.493   0.273
 5863SOL    HW118488   2.197   1.397   0.273
 5863SOL    HW218489   2.250   1.550   0.256
 5864SOL     OW18490   4.590   5.086   0.705
 5864SOL    HW118491   4.544   5.004   0.739
 5864SOL    HW218492   4.672   5.060   0.656
 5865SOL     OW18493   4.187   0.848   2.871
 5865SOL    HW118494   4.215   0.758   2.904
 5865SOL    HW218495   4.179   0.846   2.771
 5866SOL     OW18496   3.514   1.465   0.097
 5866SOL    HW118497   3.531   1.374   0.059
 5866SOL    HW218498   3.591   1.525   0.074
 5867SOL     OW18499   6.667   3.220   1.678
 5867SOL    HW118500   6.587   3.199   1.621
 5867SOL    HW218501   6.675   3.319   1.689
 5868SOL     OW18502   0.660   6.517   5.321
 5868SOL    HW118503   0.591   6.583   5.352
 5868SOL    HW218504   0.632   6.479   5.233
 5869SOL     OW18505   2.523   4.620   3.858
 5869SOL    HW118506   2.592   4.637   3.787
 5869SOL    HW218507   2.566   4.628   3.948
 5870SOL     OW18508   5.274   5.858   3.983
 5870SOL    HW118509   5.211   5.929   3.951
 5870SOL    HW218510   5.228   5.800   4.050
 5871SOL     OW18511   3.128   3.972   0.738
 5871SOL    HW118512   3.076   4.042   0.789
 5871SOL    HW218513   3.176   3.913   0.802
 5872SOL     OW18514   4.142   5.385   4.073
 5872SOL    HW118515   4.233   5.415   4.047
 5872SOL    HW218516   4.135   5.286   4.063
 5873SOL     OW18517   1.982   2.773   0.207
 5873SOL    HW118518   1.994   2.710   0.131
 5873SOL    HW218519   2.069   2.819   0.226
 5874SOL     OW18520   0.781   4.610   6.330
 5874SOL    HW118521   0.780   4.710   6.331
 5874SOL    HW218522   0.860   4.576   6.381
 5875SOL     OW18523   3.880   1.836   0.981
 5875SOL    HW118524   3.821   1.788   0.916
 5875SOL    HW218525   3.877   1.934   0.963
 5876SOL     OW18526   4.584   3.628   6.170
 5876SOL    HW118527   4.636   3.639   6.255
 5876SOL    HW218528   4.488   3.609   6.192
 5877SOL     OW18529   5.238   0.126   2.656
 5877SOL    HW118530   5.141   0.150   2.658
 5877SOL    HW218531   5.257   0.074   2.572
 5878SOL     OW18532   4.882   3.653   2.804
 5878SOL    HW118533   4.933   3.728   2.762
 5878SOL    HW218534   4.874   3.578   2.738
 5879SOL     OW18535   3.040   4.810   5.141
 5879SOL    HW118536   2.970   4.757   5.093
 5879SOL    HW218537   3.100   4.855   5.075
 5880SOL     OW18538   6.007   2.747   0.291
 5880SOL    HW118539   6.061   2.791   0.219
 5880SOL    HW218540   5.996   2.811   0.368
 5881SOL     OW18541   1.329   6.135   2.566
 5881SOL    HW118542   1.297   6.065   2.629
 5881SOL    HW218543   1.356   6.217   2.617
 5882SOL     OW18544   1.704   5.276   5.329
 5882SOL    HW118545   1.690   5.199   5.391
 5882SOL    HW218546   1.665   5.359   5.369
 5883SOL     OW18547   0.013   5.660   0.148
 5883SOL    HW118548   0.040   5.590   0.214
 5883SOL    HW218549   0.093   5.712   0.119
 5884SOL     OW18550   0.048   1.358   2.455
 5884SOL    HW118551   0.146   1.359   2.437
 5884SOL    HW218552   0.002   1.418   2.389
 5885SOL     OW18553   0.099   5.883   1.353
 5885SOL    HW118554   0.025   5.879   1.419
 5885SOL    HW218555   0.112   5.793   1.311
 5886SOL     OW18556   1.722   4.926   3.519
 5886SOL    HW118557   1.813   4.956   3.492
 5886SOL    HW218558   1.653   4.984   3.474
 5887SOL     OW18559   2.733   4.323   0.630
 5887SOL    HW118560   2.812   4.348   0.686
 5887SOL    HW218561   2.714   4.225   0.642
 5888SOL     OW18562   3.022   5.841   1.419
 5888SOL    HW118563   3.021   5.760   1.478
 5888SOL    HW218564   3.103   5.839   1.361
 5889SOL     OW18565   4.926   1.661   2.143
 5889SOL    HW118566   4.950   1.658   2.046
 5889SOL    HW218567   4.850   1.725   2.156
 5890SOL     OW18568   2.385   4.466   3.415
 5890SOL    HW118569   2.374   4.415   3.330
 5890SOL    HW218570   2.435   4.551   3.397
 5891SOL     OW18571   2.448   2.985   6.590
 5891SOL    HW118572   2.486   2.904   6.547
 5891SOL    HW218573   2.356   3.002   6.554
 5892SOL     OW18574   0.593   2.376   0.672
 5892SOL    HW118575   0.659   2.430   0.723
 5892SOL    HW218576   0.555   2.431   0.598
 5893SOL     OW18577   0.505   6.164   1.515
 5893SOL    HW118578   0.563   6.110   1.453
 5893SOL    HW218579   0.532   6.260   1.510
 5894SOL     OW18580   2.280   5.074   6.621
 5894SOL    HW118581   2.231   5.109   6.541
 5894SOL    HW218582   2.271   5.138   6.697
 5895SOL     OW18583   5.917   3.094   3.731
 5895SOL    HW118584   5.878   3.167   3.788
 5895SOL    HW218585   5.843   3.049   3.680
 5896SOL     OW18586   5.575   2.559   1.373
 5896SOL    HW118587   5.497   2.515   1.328
 5896SOL    HW218588   5.599   2.643   1.326
 5897SOL     OW18589   3.463   3.302   0.447
 5897SOL    HW118590   3.381   3.349   0.413
 5897SOL    HW218591   3.477   3.325   0.544
 5898SOL     OW18592   3.274   0.790   6.901
 5898SOL    HW118593   3.307   0.822   6.812
 5898SOL    HW218594   3.209   0.715   6.888
 5899SOL     OW18595   0.612   0.097   6.875
 5899SOL    HW118596   0.704   0.133   6.890
 5899SOL    HW218597   0.615   0.027   6.803
 5900SOL     OW18598   5.704   6.715   2.824
 5900SOL    HW118599   5.644   6.786   2.788
 5900SOL    HW218600   5.774   6.756   2.882
 5901SOL     OW18601   1.883   0.854   5.022
 5901SOL    HW118602   1.842   0.921   4.960
 5901SOL    HW218603   1.962   0.811   4.978
 5902SOL     OW18604   4.078   3.767   5.896
 5902SOL    HW118605   4.103   3.688   5.840
 5902SOL    HW218606   4.057   3.738   5.989
 5903SOL     OW18607   5.815   1.962   5.276
 5903SOL    HW118608   5.783   1.953   5.371
 5903SOL    HW218609   5.831   1.871   5.238
 5904SOL     OW18610   6.727   4.975   1.724
 5904SOL    HW118611   6.783   4.932   1.794
 5904SOL    HW218612   6.643   4.922   1.710
 5905SOL     OW18613   6.625   2.284   4.900
 5905SOL    HW118614   6.586   2.198   4.933
 5905SOL    HW218615   6.653   2.340   4.977
 5906SOL     OW18616   4.216   0.702   5.043
 5906SOL    HW118617   4.166   0.656   5.116
 5906SOL    HW218618   4.231   0.637   4.968
 5907SOL     OW18619   0.763   3.406   5.800
 5907SOL    HW118620   0.815   3.435   5.719
 5907SOL    HW218621   0.818   3.342   5.854
 5908SOL     OW18622   4.373   3.548   0.019
 5908SOL    HW118623   4.289   3.535   0.072
 5908SOL    HW218624   4.449   3.501   0.065
 5909SOL     OW18625   6.025   4.871   3.539
 5909SOL    HW118626   6.014   4.854   3.636
 5909SOL    HW218627   6.107   4.825   3.506
 5910SOL     OW18628   2.610   4.389   1.448
 5910SOL    HW118629   2.650   4.323   1.384
 5910SOL    HW218630   2.653   4.379   1.538
 5911SOL     OW18631   6.014   0.719   5.828
 5911SOL    HW118632   6.078   0.795   5.843
 5911SOL    HW218633   6.058   0.633   5.854
 5912SOL     OW18634   0.455   3.411   6.134
 5912SOL    HW118635   0.430   3.353   6.057
 5912SOL    HW218636   0.434   3.363   6.220
 5913SOL     OW18637   2.275   2.742   4.559
 5913SOL    HW118638   2.228   2.654   4.544
 5913SOL    HW218639   2.259   2.802   4.481
 5914SOL     OW18640   1.010   5.983   0.253
 5914SOL    HW118641   1.099   5.984   0.297
 5914SOL    HW218642   0.952   6.053   0.295
 5915SOL     OW18643   5.688   3.960   4.209
 5915SOL    HW118644   5.668   4.006   4.122
 5915SOL    HW218645   5.615   3.894   4.230
 5916SOL     OW18646   3.064   0.985   6.619
 5916SOL    HW118647   3.073   1.078   6.584
 5916SOL    HW218648   3.106   0.979   6.709
 5917SOL     OW18649   3.513   4.146   2.175
 5917SOL    HW118650   3.597   4.099   2.149
 5917SOL    HW218651   3.527   4.195   2.261
 5918SOL     OW18652   2.959   2.095   3.872
 5918SOL    HW118653   2.959   2.183   3.823
 5918SOL    HW218654   2.981   2.111   3.968
 5919SOL     OW18655   1.383   1.949   0.040
 5919SOL    HW118656   1.469   1.925   7.020
 5919SOL    HW218657   1.385   1.913   0.134
 5920SOL     OW18658   2.624   5.441   6.710
 5920SOL    HW118659   2.640   5.375   6.637
 5920SOL    HW218660   2.667   5.410   6.794
 5921SOL     OW18661   3.931   5.941   4.996
 5921SOL    HW118662   3.838   5.941   5.035
 5921SOL    HW218663   3.926   5.961   4.899
 5922SOL     OW18664   0.218   5.384   2.182
 5922SOL    HW118665   0.301   5.392   2.126
 5922SOL    HW218666   0.239   5.409   2.276
 5923SOL     OW18667   0.587   1.075   3.468
 5923SOL    HW118668   0.671   1.078   3.415
 5923SOL    HW218669   0.520   1.138   3.429
 5924SOL     OW18670   5.734   2.067   4.581
 5924SOL    HW118671   5.680   2.104   4.657
 5924SOL    HW218672   5.823   2.037   4.616
 5925SOL     OW18673   6.503   5.818   0.628
 5925SOL    HW118674   6.501   5.909   0.588
 5925SOL    HW218675   6.460   5.753   0.565
 5926SOL     OW18676   3.122   6.745   1.829
 5926SOL    HW118677   3.222   6.747   1.826
 5926SOL    HW218678   3.091   6.692   1.908
 5927SOL     OW18679   2.196   4.960   1.519
 5927SOL    HW118680   2.187   5.043   1.465
 5927SOL    HW218681   2.106   4.920   1.534
 5928SOL     OW18682   0.203   6.063   1.053
 5928SOL    HW118683   0.261   6.038   1.131
 5928SOL    HW218684   0.108   6.066   1.082
 5929SOL     OW18685   0.043   6.845   5.673
 5929SOL    HW118686   0.132   6.879   5.644
 5929SOL    HW218687   0.004   6.788   5.601
 5930SOL     OW18688   6.282   1.327   5.238
 5930SOL    HW118689   6.232   1.302   5.155
 5930SOL    HW218690   6.263   1.423   5.261
 5931SOL     OW18691   5.517   5.089   0.918
 5931SOL    HW118692   5.432   5.077   0.969
 5931SOL    HW218693   5.573   5.159   0.963
 5932SOL     OW18694   2.280   6.972   0.278
 5932SOL    HW118695   2.360   6.976   0.218
 5932SOL    HW218696   2.216   0.019   0.252
 5933SOL     OW18697   5.951   2.524   2.674
 5933SOL    HW118698   5.965   2.491   2.581
 5933SOL    HW218699   5.919   2.449   2.732
 5934SOL     OW18700   4.147   3.249   2.002
 5934SOL    HW118701   4.221   3.263   1.937
 5934SOL    HW218702   4.095   3.167   1.977
 5935SOL     OW18703   3.735   2.971   3.085
 5935SOL    HW118704   3.750   2.899   3.017
 5935SOL    HW218705   3.809   3.038   3.080
 5936SOL     OW18706   6.785   6.281   6.712
 5936SOL    HW118707   6.718   6.310   6.644
 5936SOL    HW218708   6.815   6.188   6.693
 5937SOL     OW18709   0.865   4.316   0.103
 5937SOL    HW118710   0.878   4.405   0.059
 5937SOL    HW218711   0.799   4.325   0.178
 5938SOL     OW18712   2.511   4.901   0.653
 5938SOL    HW118713   2.475   4.979   0.602
 5938SOL    HW218714   2.489   4.911   0.750
 5939SOL     OW18715   1.251   0.772   2.317
 5939SOL    HW118716   1.218   0.685   2.280
 5939SOL    HW218717   1.207   0.789   2.405
 5940SOL     OW18718   4.082   4.768   3.458
 5940SOL    HW118719   4.073   4.742   3.361
 5940SOL    HW218720   4.069   4.866   3.468
 5941SOL     OW18721   6.129   2.501   3.289
 5941SOL    HW118722   6.164   2.592   3.310
 5941SOL    HW218723   6.204   2.435   3.295
 5942SOL     OW18724   6.956   1.013   4.919
 5942SOL    HW118725   6.861   1.027   4.947
 5942SOL    HW218726   7.017   1.049   4.990
 5943SOL     OW18727   1.766   5.330   1.012
 5943SOL    HW118728   1.865   5.337   1.024
 5943SOL    HW218729   1.721   5.400   1.067
 5944SOL     OW18730   5.229   2.558   2.700
 5944SOL    HW118731   5.154   2.608   2.657
 5944SOL    HW218732   5.278   2.505   2.631
 5945SOL     OW18733   6.697   5.647   6.547
 5945SOL    HW118734   6.668   5.578   6.613
 5945SOL    HW218735   6.668   5.620   6.455
 5946SOL     OW18736   3.974   2.571   5.534
 5946SOL    HW118737   3.990   2.509   5.457
 5946SOL    HW218738   4.015   2.660   5.514
 5947SOL     OW18739   4.860   4.003   2.482
 5947SOL    HW118740   4.872   3.988   2.384
 5947SOL    HW218741   4.864   3.915   2.530
 5948SOL     OW18742   3.000   5.303   3.160
 5948SOL    HW118743   2.921   5.347   3.118
 5948SOL    HW218744   2.971   5.219   3.206
 5949SOL     OW18745   4.943   4.350   3.265
 5949SOL    HW118746   4.880   4.293   3.317
 5949SOL    HW218747   4.995   4.408   3.328
 5950SOL     OW18748   6.346   2.363   4.221
 5950SOL    HW118749   6.357   2.282   4.163
 5950SOL    HW218750   6.436   2.403   4.239
 5951SOL     OW18751   1.968   0.821   3.931
 5951SOL    HW118752   1.916   0.738   3.951
 5951SOL    HW218753   2.040   0.831   3.999
 5952SOL     OW18754   0.288   6.241   4.525
 5952SOL    HW118755   0.377   6.268   4.490
 5952SOL    HW218756   0.229   6.214   4.449
 5953SOL     OW18757   0.590   3.082   6.000
 5953SOL    HW118758   0.514   3.132   6.041
 5953SOL    HW218759   0.579   3.079   5.901
 5954SOL     OW18760   1.443   4.979   6.148
 5954SOL    HW118761   1.415   4.907   6.213
 5954SOL    HW218762   1.361   5.020   6.108
 5955SOL     OW18763   4.175   4.953   2.905
 5955SOL    HW118764   4.134   4.912   2.987
 5955SOL    HW218765   4.135   5.043   2.889
 5956SOL     OW18766   0.243   2.447   6.952
 5956SOL    HW118767   0.254   2.380   6.878
 5956SOL    HW218768   0.315   2.436   7.019
 5957SOL     OW18769   4.229   6.886   5.743
 5957SOL    HW118770   4.193   6.845   5.658
 5957SOL    HW218771   4.172   6.856   5.820
 5958SOL     OW18772   1.080   5.388   2.573
 5958SOL    HW118773   1.038   5.299   2.592
 5958SOL    HW218774   1.101   5.394   2.475
 5959SOL     OW18775   2.079   1.067   6.196
 5959SOL    HW118776   2.001   1.128   6.199
 5959SOL    HW218777   2.048   0.972   6.207
 5960SOL     OW18778   3.696   6.083   5.230
 5960SOL    HW118779   3.776   6.140   5.250
 5960SOL    HW218780   3.684   6.075   5.131
 5961SOL     OW18781   2.453   0.986   5.929
 5961SOL    HW118782   2.406   1.058   5.980
 5961SOL    HW218783   2.534   1.024   5.884
 5962SOL     OW18784   5.361   4.060   2.419
 5962SOL    HW118785   5.373   3.991   2.347
 5962SOL    HW218786   5.445   4.113   2.429
 5963SOL     OW18787   4.250   4.470   1.748
 5963SOL    HW118788   4.261   4.462   1.649
 5963SOL    HW218789   4.312   4.405   1.793
 5964SOL     OW18790   1.435   3.694   5.511
 5964SOL    HW118791   1.396   3.708   5.420
 5964SOL    HW218792   1.520   3.746   5.519
 5965SOL     OW18793   1.918   1.746   4.178
 5965SOL    HW118794   1.898   1.772   4.083
 5965SOL    HW218795   1.844   1.779   4.237
 5966SOL     OW18796   1.725   6.027   4.340
 5966SOL    HW118797   1.729   6.027   4.240
 5966SOL    HW218798   1.819   6.026   4.376
 5967SOL     OW18799   4.554   5.701   1.462
 5967SOL    HW118800   4.537   5.781   1.404
 5967SOL    HW218801   4.468   5.652   1.477
 5968SOL     OW18802   1.214   1.837   4.259
 5968SOL    HW118803   1.203   1.739   4.275
 5968SOL    HW218804   1.306   1.865   4.284
 5969SOL     OW18805   0.066   1.901   3.129
 5969SOL    HW118806   0.101   1.942   3.045
 5969SOL    HW218807   0.027   1.811   3.108
 5970SOL     OW18808   2.276   4.154   3.730
 5970SOL    HW118809   2.269   4.153   3.630
 5970SOL    HW218810   2.234   4.237   3.765
 5971SOL     OW18811   3.023   5.534   3.366
 5971SOL    HW118812   2.985   5.619   3.330
 5971SOL    HW218813   2.950   5.465   3.372
 5972SOL     OW18814   5.578   0.217   1.645
 5972SOL    HW118815   5.599   0.120   1.630
 5972SOL    HW218816   5.545   0.257   1.559
 5973SOL     OW18817   2.187   4.675   3.392
 5973SOL    HW118818   2.239   4.760   3.385
 5973SOL    HW218819   2.235   4.612   3.454
 5974SOL     OW18820   0.628   4.292   6.724
 5974SOL    HW118821   0.718   4.268   6.761
 5974SOL    HW218822   0.579   4.208   6.698
 5975SOL     OW18823   2.182   2.468   6.134
 5975SOL    HW118824   2.139   2.542   6.081
 5975SOL    HW218825   2.229   2.406   6.071
 5976SOL     OW18826   3.342   3.280   4.718
 5976SOL    HW118827   3.265   3.343   4.730
 5976SOL    HW218828   3.316   3.205   4.657
 5977SOL     OW18829   0.374   3.640   2.938
 5977SOL    HW118830   0.321   3.606   2.860
 5977SOL    HW218831   0.412   3.563   2.989
 5978SOL     OW18832   5.044   5.510   2.336
 5978SOL    HW118833   5.039   5.588   2.273
 5978SOL    HW218834   5.020   5.426   2.287
 5979SOL     OW18835   0.904   0.858   1.649
 5979SOL    HW118836   1.004   0.862   1.640
 5979SOL    HW218837   0.880   0.812   1.735
 5980SOL     OW18838   6.068   2.636   5.693
 5980SOL    HW118839   6.099   2.620   5.600
 5980SOL    HW218840   6.146   2.667   5.749
 5981SOL     OW18841   3.484   1.914   0.630
 5981SOL    HW118842   3.455   1.831   0.583
 5981SOL    HW218843   3.405   1.962   0.667
 5982SOL     OW18844   6.453   2.890   0.200
 5982SOL    HW118845   6.454   2.844   0.289
 5982SOL    HW218846   6.526   2.958   0.197
 5983SOL     OW18847   1.016   0.268   4.857
 5983SOL    HW118848   0.934   0.255   4.914
 5983SOL    HW218849   1.039   0.182   4.812
 5984SOL     OW18850   0.930   0.216   6.043
 5984SOL    HW118851   0.893   0.272   5.969
 5984SOL    HW218852   0.980   0.275   6.107
 5985SOL     OW18853   5.328   3.173   3.718
 5985SOL    HW118854   5.389   3.099   3.689
 5985SOL    HW218855   5.254   3.183   3.651
 5986SOL     OW18856   3.171   3.478   2.715
 5986SOL    HW118857   3.098   3.464   2.649
 5986SOL    HW218858   3.134   3.477   2.807
 5987SOL     OW18859   4.452   0.282   5.523
 5987SOL    HW118860   4.485   0.355   5.464
 5987SOL    HW218861   4.510   0.201   5.512
 5988SOL     OW18862   3.811   6.630   5.844
 5988SOL    HW118863   3.731   6.625   5.903
 5988SOL    HW218864   3.782   6.648   5.750
 5989SOL     OW18865   3.361   1.804   6.939
 5989SOL    HW118866   3.333   1.757   7.023
 5989SOL    HW218867   3.328   1.899   6.941
 5990SOL     OW18868   3.552   5.256   3.187
 5990SOL    HW118869   3.554   5.166   3.230
 5990SOL    HW218870   3.621   5.315   3.230
 5991SOL     OW18871   3.330   5.254   3.636
 5991SOL    HW118872   3.305   5.235   3.541
 5991SOL    HW218873   3.263   5.316   3.676
 5992SOL     OW18874   4.250   2.047   4.255
 5992SOL    HW118875   4.328   2.060   4.193
 5992SOL    HW218876   4.202   1.963   4.229
 5993SOL     OW18877   2.482   4.949   4.017
 5993SOL    HW118878   2.443   4.944   3.925
 5993SOL    HW218879   2.414   4.982   4.081
 5994SOL     OW18880   6.235   2.924   0.479
 5994SOL    HW118881   6.328   2.887   0.488
 5994SOL    HW218882   6.183   2.902   0.562
 5995SOL     OW18883   0.398   3.674   1.972
 5995SOL    HW118884   0.336   3.619   1.917
 5995SOL    HW218885   0.492   3.640   1.960
 5996SOL     OW18886   1.248   5.894   5.839
 5996SOL    HW118887   1.224   5.955   5.764
 5996SOL    HW218888   1.304   5.944   5.906
 5997SOL     OW18889   0.583   0.715   1.359
 5997SOL    HW118890   0.656   0.783   1.365
 5997SOL    HW218891   0.620   0.625   1.380
 5998SOL     OW18892   5.091   2.882   3.096
 5998SOL    HW118893   5.020   2.953   3.091
 5998SOL    HW218894   5.157   2.907   3.167
 5999SOL     OW18895   2.307   2.716   2.885
 5999SOL    HW118896   2.317   2.815   2.892
 5999SOL    HW218897   2.250   2.683   2.960
 6000SOL     OW18898   4.846   0.918   3.354
 6000SOL    HW118899   4.781   0.993   3.355
 6000SOL    HW218900   4.939   0.955   3.344
 6001SOL     OW18901   6.203   1.416   0.669
 6001SOL    HW118902   6.181   1.341   0.732
 6001SOL    HW218903   6.133   1.420   0.598
 6002SOL     OW18904   1.999   0.131   2.288
 6002SOL    HW118905   2.081   0.186   2.271
 6002SOL    HW218906   1.928   0.189   2.329
 6003SOL     OW18907   4.760   4.061   3.911
 6003SOL    HW118908   4.764   3.970   3.951
 6003SOL    HW218909   4.844   4.111   3.932
 6004SOL     OW18910   0.176   3.053   1.549
 6004SOL    HW118911   0.227   3.014   1.625
 6004SOL    HW218912   0.174   3.152   1.556
 6005SOL     OW18913   1.580   6.171   2.201
 6005SOL    HW118914   1.542   6.115   2.274
 6005SOL    HW218915   1.657   6.224   2.235
 6006SOL     OW18916   2.420   5.581   6.960
 6006SOL    HW118917   2.520   5.570   6.965
 6006SOL    HW218918   2.379   5.548   0.020
 6007SOL     OW18919   5.345   3.860   4.439
 6007SOL    HW118920   5.316   3.951   4.469
 6007SOL    HW218921   5.327   3.794   4.512
 6008SOL     OW18922   4.711   4.186   1.572
 6008SOL    HW118923   4.720   4.149   1.479
 6008SOL    HW218924   4.663   4.119   1.629
 6009SOL     OW18925   4.805   1.742   4.878
 6009SOL    HW118926   4.899   1.760   4.847
 6009SOL    HW218927   4.741   1.796   4.823
 6010SOL     OW18928   1.971   4.357   3.217
 6010SOL    HW118929   1.889   4.331   3.165
 6010SOL    HW218930   1.986   4.456   3.208
 6011SOL     OW18931   6.390   2.163   1.797
 6011SOL    HW118932   6.408   2.079   1.848
 6011SOL    HW218933   6.397   2.145   1.699
 6012SOL     OW18934   0.555   3.095   1.203
 6012SOL    HW118935   0.463   3.104   1.241
 6012SOL    HW218936   0.610   3.174   1.229
 6013SOL     OW18937   5.489   0.412   2.449
 6013SOL    HW118938   5.407   0.442   2.498
 6013SOL    HW218939   5.549   0.363   2.512
 6014SOL     OW18940   6.340   0.624   1.091
 6014SOL    HW118941   6.254   0.572   1.093
 6014SOL    HW218942   6.380   0.618   1.000
 6015SOL     OW18943   5.821   0.207   4.272
 6015SOL    HW118944   5.860   0.160   4.193
 6015SOL    HW218945   5.890   0.267   4.312
 6016SOL     OW18946   1.715   0.515   5.441
 6016SOL    HW118947   1.790   0.581   5.440
 6016SOL    HW218948   1.627   0.564   5.437
 6017SOL     OW18949   0.020   3.581   2.457
 6017SOL    HW118950   6.998   3.505   2.412
 6017SOL    HW218951   6.991   3.612   2.535
 6018SOL     OW18952   3.152   4.861   1.305
 6018SOL    HW118953   3.168   4.781   1.247
 6018SOL    HW218954   3.203   4.852   1.390
 6019SOL     OW18955   6.246   6.370   3.233
 6019SOL    HW118956   6.270   6.444   3.170
 6019SOL    HW218957   6.241   6.406   3.326
 6020SOL     OW18958   1.841   6.608   2.856
 6020SOL    HW118959   1.860   6.580   2.762
 6020SOL    HW218960   1.813   6.704   2.858
 6021SOL     OW18961   3.737   0.726   3.424
 6021SOL    HW118962   3.773   0.635   3.401
 6021SOL    HW218963   3.638   0.721   3.436
 6022SOL     OW18964   4.101   1.023   5.493
 6022SOL    HW118965   4.135   1.010   5.586
 6022SOL    HW218966   4.115   1.118   5.465
 6023SOL     OW18967   0.299   1.880   2.260
 6023SOL    HW118968   0.376   1.860   2.200
 6023SOL    HW218969   0.274   1.798   2.312
 6024SOL     OW18970   6.326   5.722   2.668
 6024SOL    HW118971   6.385   5.705   2.746
 6024SOL    HW218972   6.377   5.772   2.598
 6025SOL     OW18973   4.295   2.372   2.587
 6025SOL    HW118974   4.345   2.286   2.582
 6025SOL    HW218975   4.202   2.359   2.553
 6026SOL     OW18976   0.757   4.394   5.708
 6026SOL    HW118977   0.766   4.305   5.662
 6026SOL    HW218978   0.661   4.417   5.717
 6027SOL     OW18979   4.305   3.865   0.399
 6027SOL    HW118980   4.288   3.958   0.432
 6027SOL    HW218981   4.301   3.863   0.299
 6028SOL     OW18982   0.582   4.675   6.849
 6028SOL    HW118983   0.534   4.763   6.855
 6028SOL    HW218984   0.515   4.601   6.846
 6029SOL     OW18985   1.157   5.436   1.331
 6029SOL    HW118986   1.118   5.525   1.311
 6029SOL    HW218987   1.096   5.364   1.297
 6030SOL     OW18988   2.002   6.641   1.901
 6030SOL    HW118989   2.085   6.675   1.945
 6030SOL    HW218990   2.025   6.563   1.844
 6031SOL     OW18991   4.911   0.884   4.122
 6031SOL    HW118992   4.932   0.840   4.209
 6031SOL    HW218993   4.973   0.849   4.051
 6032SOL     OW18994   1.254   2.544   2.470
 6032SOL    HW118995   1.239   2.458   2.520
 6032SOL    HW218996   1.234   2.530   2.373
 6033SOL     OW18997   0.424   6.764   4.835
 6033SOL    HW118998   0.462   6.673   4.851
 6033SOL    HW218999   0.494   6.833   4.853
 6034SOL     OW19000   2.239   4.469   5.012
 6034SOL    HW119001   2.313   4.492   5.076
 6034SOL    HW219002   2.178   4.402   5.055
 6035SOL     OW19003   4.829   0.160   3.633
 6035SOL    HW119004   4.830   0.097   3.710
 6035SOL    HW219005   4.756   0.135   3.570
 6036SOL     OW19006   6.296   0.629   4.687
 6036SOL    HW119007   6.301   0.623   4.588
 6036SOL    HW219008   6.280   0.539   4.726
 6037SOL     OW19009   0.348   5.761   4.470
 6037SOL    HW119010   0.424   5.736   4.410
 6037SOL    HW219011   0.330   5.685   4.533
 6038SOL     OW19012   6.907   4.411   6.940
 6038SOL    HW119013   6.994   4.366   6.954
 6038SOL    HW219014   6.871   4.444   0.002
 6039SOL     OW19015   3.687   3.235   4.206
 6039SOL    HW119016   3.626   3.274   4.276
 6039SOL    HW219017   3.777   3.276   4.213
 6040SOL     OW19018   1.356   1.124   1.188
 6040SOL    HW119019   1.315   1.206   1.228
 6040SOL    HW219020   1.437   1.098   1.241
 6041SOL     OW19021   0.860   3.159   6.977
 6041SOL    HW119022   0.857   3.193   0.046
 6041SOL    HW219023   0.802   3.078   6.969
 6042SOL     OW19024   4.960   5.439   4.845
 6042SOL    HW119025   4.881   5.452   4.905
 6042SOL    HW219026   4.939   5.475   4.754
 6043SOL     OW19027   0.247   4.312   3.950
 6043SOL    HW119028   0.165   4.343   3.903
 6043SOL    HW219029   0.252   4.353   4.041
 6044SOL     OW19030   1.697   0.472   1.540
 6044SOL    HW119031   1.611   0.467   1.489
 6044SOL    HW219032   1.774   0.452   1.479
 6045SOL     OW19033   6.392   4.401   0.266
 6045SOL    HW119034   6.322   4.455   0.221
 6045SOL    HW219035   6.361   4.376   0.358
 6046SOL     OW19036   1.472   3.703   6.736
 6046SOL    HW119037   1.496   3.616   6.692
 6046SOL    HW219038   1.504   3.779   6.679
 6047SOL     OW19039   0.655   5.599   4.892
 6047SOL    HW119040   0.679   5.540   4.815
 6047SOL    HW219041   0.686   5.692   4.874
 6048SOL     OW19042   4.386   6.268   4.306
 6048SOL    HW119043   4.445   6.192   4.279
 6048SOL    HW219044   4.432   6.354   4.287
 6049SOL     OW19045   6.648   5.465   0.121
 6049SOL    HW119046   6.615   5.399   0.189
 6049SOL    HW219047   6.703   5.534   0.167
 6050SOL     OW19048   5.784   4.530   5.496
 6050SOL    HW119049   5.773   4.449   5.439
 6050SOL    HW219050   5.874   4.528   5.540
 6051SOL     OW19051   3.334   2.109   3.834
 6051SOL    HW119052   3.300   2.141   3.745
 6051SOL    HW219053   3.292   2.163   3.907
 6052SOL     OW19054   0.189   1.883   6.917
 6052SOL    HW119055   0.183   1.963   6.976
 6052SOL    HW219056   0.116   1.887   6.848
 6053SOL     OW19057   1.529   0.257   6.427
 6053SOL    HW119058   1.484   0.324   6.368
 6053SOL    HW219059   1.511   0.165   6.392
 6054SOL     OW19060   0.862   4.194   6.053
 6054SOL    HW119061   0.872   4.097   6.076
 6054SOL    HW219062   0.882   4.250   6.134
 6055SOL     OW19063   5.537   0.255   2.865
 6055SOL    HW119064   5.524   0.169   2.915
 6055SOL    HW219065   5.495   0.330   2.915
 6056SOL     OW19066   5.558   3.291   6.220
 6056SOL    HW119067   5.463   3.265   6.204
 6056SOL    HW219068   5.618   3.218   6.187
 6057SOL     OW19069   3.862   0.975   6.326
 6057SOL    HW119070   3.907   1.015   6.246
 6057SOL    HW219071   3.916   0.996   6.408
 6058SOL     OW19072   5.409   1.841   5.249
 6058SOL    HW119073   5.371   1.827   5.157
 6058SOL    HW219074   5.446   1.933   5.256
 6059SOL     OW19075   6.887   6.550   6.673
 6059SOL    HW119076   6.879   6.454   6.697
 6059SOL    HW219077   6.968   6.563   6.616
 6060SOL     OW19078   3.279   5.822   6.493
 6060SOL    HW119079   3.323   5.798   6.579
 6060SOL    HW219080   3.201   5.762   6.477
 6061SOL     OW19081   1.831   1.528   6.982
 6061SOL    HW119082   1.793   1.589   6.913
 6061SOL    HW219083   1.927   1.510   6.961
 6062SOL     OW19084   1.376   0.117   4.223
 6062SOL    HW119085   1.421   0.206   4.215
 6062SOL    HW219086   1.385   0.067   4.137
 6063SOL     OW19087   6.158   5.854   6.794
 6063SOL    HW119088   6.229   5.918   6.824
 6063SOL    HW219089   6.093   5.901   6.734
 6064SOL     OW19090   0.912   5.097   2.360
 6064SOL    HW119091   0.916   5.129   2.455
 6064SOL    HW219092   0.839   5.031   2.350
 6065SOL     OW19093   5.314   6.759   1.807
 6065SOL    HW119094   5.232   6.712   1.838
 6065SOL    HW219095   5.372   6.782   1.886
 6066SOL     OW19096   4.164   1.603   5.463
 6066SOL    HW119097   4.081   1.571   5.419
 6066SOL    HW219098   4.179   1.699   5.439
 6067SOL     OW19099   4.683   2.148   6.592
 6067SOL    HW119100   4.761   2.211   6.594
 6067SOL    HW219101   4.695   2.077   6.661
 6068SOL     OW19102   5.339   0.905   5.584
 6068SOL    HW119103   5.412   0.839   5.564
 6068SOL    HW219104   5.258   0.857   5.617
 6069SOL     OW19105   6.372   5.263   3.679
 6069SOL    HW119106   6.290   5.216   3.646
 6069SOL    HW219107   6.382   5.350   3.631
 6070SOL     OW19108   5.042   3.520   0.519
 6070SOL    HW119109   5.137   3.548   0.503
 6070SOL    HW219110   5.033   3.482   0.611
 6071SOL     OW19111   5.229   6.572   4.991
 6071SOL    HW119112   5.137   6.538   4.969
 6071SOL    HW219113   5.222   6.665   5.027
 6072SOL     OW19114   6.267   1.973   1.349
 6072SOL    HW119115   6.316   1.979   1.262
 6072SOL    HW219116   6.186   2.031   1.345
 6073SOL     OW19117   6.341   0.558   1.445
 6073SOL    HW119118   6.425   0.567   1.392
 6073SOL    HW219119   6.364   0.548   1.542
 6074SOL     OW19120   1.171   0.529   5.779
 6074SOL    HW119121   1.222   0.449   5.748
 6074SOL    HW219122   1.091   0.543   5.721
 6075SOL     OW19123   4.943   3.760   6.279
 6075SOL    HW119124   4.933   3.850   6.322
 6075SOL    HW219125   5.021   3.713   6.319
 6076SOL     OW19126   2.716   0.393   3.732
 6076SOL    HW119127   2.673   0.439   3.654
 6076SOL    HW219128   2.669   0.421   3.817
 6077SOL     OW19129   4.468   4.886   2.965
 6077SOL    HW119130   4.491   4.983   2.954
 6077SOL    HW219131   4.369   4.874   2.955
 6078SOL     OW19132   1.711   4.078   4.007
 6078SOL    HW119133   1.798   4.046   3.968
 6078SOL    HW219134   1.730   4.141   4.082
 6079SOL     OW19135   3.303   1.956   0.914
 6079SOL    HW119136   3.211   1.995   0.917
 6079SOL    HW219137   3.363   2.006   0.976
 6080SOL     OW19138   5.910   3.016   3.240
 6080SOL    HW119139   5.906   3.083   3.314
 6080SOL    HW219140   5.853   3.047   3.163
 6081SOL     OW19141   0.365   3.984   2.363
 6081SOL    HW119142   0.377   4.065   2.305
 6081SOL    HW219143   0.359   3.902   2.306
 6082SOL     OW19144   4.099   1.716   4.983
 6082SOL    HW119145   4.193   1.687   5.000
 6082SOL    HW219146   4.060   1.756   5.065
 6083SOL     OW19147   1.839   6.283   6.985
 6083SOL    HW119148   1.881   6.236   0.037
 6083SOL    HW219149   1.748   6.316   7.011
 6084SOL     OW19150   6.908   5.681   6.274
 6084SOL    HW119151   6.833   5.621   6.301
 6084SOL    HW219152   6.870   5.768   6.241
 6085SOL     OW19153   5.059   5.363   1.852
 6085SOL    HW119154   5.059   5.304   1.770
 6085SOL    HW219155   5.147   5.410   1.858
 6086SOL     OW19156   3.228   1.629   2.545
 6086SOL    HW119157   3.285   1.708   2.570
 6086SOL    HW219158   3.280   1.568   2.486
 6087SOL     OW19159   3.756   0.499   0.711
 6087SOL    HW119160   3.844   0.478   0.754
 6087SOL    HW219161   3.762   0.587   0.664
 6088SOL     OW19162   6.766   0.690   5.171
 6088SOL    HW119163   6.814   0.667   5.256
 6088SOL    HW219164   6.817   0.654   5.093
 6089SOL     OW19165   6.726   3.755   1.348
 6089SOL    HW119166   6.630   3.773   1.329
 6089SOL    HW219167   6.782   3.820   1.296
 6090SOL     OW19168   6.936   5.890   4.200
 6090SOL    HW119169   6.910   5.974   4.247
 6090SOL    HW219170   6.924   5.902   4.101
 6091SOL     OW19171   6.635   2.602   1.682
 6091SOL    HW119172   6.591   2.525   1.729
 6091SOL    HW219173   6.678   2.569   1.598
 6092SOL     OW19174   1.230   3.321   0.901
 6092SOL    HW119175   1.235   3.394   0.833
 6092SOL    HW219176   1.259   3.235   0.859
 6093SOL     OW19177   1.024   4.600   0.620
 6093SOL    HW119178   0.998   4.677   0.678
 6093SOL    HW219179   1.088   4.631   0.550
 6094SOL     OW19180   0.402   1.171   0.985
 6094SOL    HW119181   0.479   1.233   0.972
 6094SOL    HW219182   0.320   1.209   0.942
 6095SOL     OW19183   6.262   4.179   5.104
 6095SOL    HW119184   6.295   4.107   5.043
 6095SOL    HW219185   6.214   4.137   5.181
 6096SOL     OW19186   5.467   1.931   2.572
 6096SOL    HW119187   5.488   2.010   2.631
 6096SOL    HW219188   5.536   1.923   2.501
 6097SOL     OW19189   3.317   1.994   2.878
 6097SOL    HW119190   3.259   1.976   2.957
 6097SOL    HW219191   3.396   2.049   2.906
 6098SOL     OW19192   0.836   0.517   6.805
 6098SOL    HW119193   0.744   0.479   6.815
 6098SOL    HW219194   0.850   0.588   6.873
 6099SOL     OW19195   5.644   4.333   4.659
 6099SOL    HW119196   5.639   4.397   4.582
 6099SOL    HW219197   5.552   4.315   4.693
 6100SOL     OW19198   0.016   2.782   0.288
 6100SOL    HW119199   0.065   2.844   0.349
 6100SOL    HW219200   0.062   2.780   0.199
 6101SOL     OW19201   6.527   6.521   3.395
 6101SOL    HW119202   6.614   6.571   3.391
 6101SOL    HW219203   6.520   6.472   3.482
 6102SOL     OW19204   3.001   6.588   4.791
 6102SOL    HW119205   2.949   6.543   4.864
 6102SOL    HW219206   2.988   6.687   4.797
 6103SOL     OW19207   5.564   1.597   5.212
 6103SOL    HW119208   5.557   1.696   5.226
 6103SOL    HW219209   5.541   1.550   5.297
 6104SOL     OW19210   1.521   2.639   1.020
 6104SOL    HW119211   1.483   2.623   1.110
 6104SOL    HW219212   1.608   2.591   1.011
 6105SOL     OW19213   2.966   4.844   4.238
 6105SOL    HW119214   2.961   4.943   4.251
 6105SOL    HW219215   2.927   4.797   4.317
 6106SOL     OW19216   2.263   5.018   4.211
 6106SOL    HW119217   2.296   5.018   4.306
 6106SOL    HW219218   2.164   5.001   4.210
 6107SOL     OW19219   2.124   5.423   5.976
 6107SOL    HW119220   2.136   5.499   6.041
 6107SOL    HW219221   2.044   5.369   6.003
 6108SOL     OW19222   5.428   1.842   4.950
 6108SOL    HW119223   5.388   1.933   4.954
 6108SOL    HW219224   5.527   1.850   4.937
 6109SOL     OW19225   6.819   4.030   1.730
 6109SOL    HW119226   6.901   3.978   1.708
 6109SOL    HW219227   6.756   4.027   1.652
 6110SOL     OW19228   3.437   1.955   3.279
 6110SOL    HW119229   3.514   2.017   3.289
 6110SOL    HW219230   3.390   1.945   3.367
 6111SOL     OW19231   0.321   4.309   3.687
 6111SOL    HW119232   0.301   4.288   3.782
 6111SOL    HW219233   0.329   4.224   3.635
 6112SOL     OW19234   1.497   1.745   1.252
 6112SOL    HW119235   1.539   1.829   1.218
 6112SOL    HW219236   1.487   1.680   1.177
 6113SOL     OW19237   1.563   4.647   5.178
 6113SOL    HW119238   1.496   4.669   5.250
 6113SOL    HW219239   1.598   4.555   5.193
 6114SOL     OW19240   4.329   4.402   0.774
 6114SOL    HW119241   4.279   4.324   0.737
 6114SOL    HW219242   4.265   4.462   0.824
 6115SOL     OW19243   6.853   4.948   2.217
 6115SOL    HW119244   6.919   5.016   2.186
 6115SOL    HW219245   6.796   4.919   2.139
 6116SOL     OW19246   3.888   2.110   1.212
 6116SOL    HW119247   3.972   2.079   1.256
 6116SOL    HW219248   3.821   2.132   1.283
 6117SOL     OW19249   5.750   6.413   3.869
 6117SOL    HW119250   5.757   6.463   3.956
 6117SOL    HW219251   5.840   6.376   3.845
 6118SOL     OW19252   6.756   6.934   3.249
 6118SOL    HW119253   6.773   0.007   3.247
 6118SOL    HW219254   6.660   6.916   3.225
 6119SOL     OW19255   5.421   5.483   4.317
 6119SOL    HW119256   5.432   5.472   4.218
 6119SOL    HW219257   5.452   5.400   4.364
 6120SOL     OW19258   2.098   1.551   3.318
 6120SOL    HW119259   2.189   1.588   3.301
 6120SOL    HW219260   2.047   1.547   3.231
 6121SOL     OW19261   0.133   2.037   4.130
 6121SOL    HW119262   0.188   1.954   4.125
 6121SOL    HW219263   0.115   2.059   4.226
 6122SOL     OW19264   3.654   5.766   4.197
 6122SOL    HW119265   3.704   5.688   4.161
 6122SOL    HW219266   3.691   5.791   4.287
 6123SOL     OW19267   5.375   1.488   2.741
 6123SOL    HW119268   5.365   1.495   2.841
 6123SOL    HW219269   5.286   1.501   2.698
 6124SOL     OW19270   3.039   0.536   4.724
 6124SOL    HW119271   3.060   0.445   4.689
 6124SOL    HW219272   2.967   0.530   4.793
 6125SOL     OW19273   1.085   4.391   2.229
 6125SOL    HW119274   1.009   4.379   2.292
 6125SOL    HW219275   1.157   4.446   2.272
 6126SOL     OW19276   3.441   6.657   2.918
 6126SOL    HW119277   3.448   6.749   2.957
 6126SOL    HW219278   3.394   6.662   2.829
 6127SOL     OW19279   2.004   5.544   1.544
 6127SOL    HW119280   2.102   5.525   1.547
 6127SOL    HW219281   1.954   5.458   1.530
 6128SOL     OW19282   5.129   4.092   1.073
 6128SOL    HW119283   5.228   4.080   1.073
 6128SOL    HW219284   5.105   4.177   1.120
 6129SOL     OW19285   6.149   3.665   3.506
 6129SOL    HW119286   6.072   3.695   3.562
 6129SOL    HW219287   6.128   3.679   3.410
 6130SOL     OW19288   5.526   3.510   2.761
 6130SOL    HW119289   5.479   3.423   2.743
 6130SOL    HW219290   5.516   3.534   2.857
 6131SOL     OW19291   6.468   0.781   5.413
 6131SOL    HW119292   6.383   0.733   5.434
 6131SOL    HW219293   6.526   0.784   5.494
 6132SOL     OW19294   0.463   2.506   0.462
 6132SOL    HW119295   0.436   2.599   0.440
 6132SOL    HW219296   0.390   2.443   0.436
 6133SOL     OW19297   1.239   4.972   0.229
 6133SOL    HW119298   1.168   4.934   0.288
 6133SOL    HW219299   1.310   4.903   0.214
 6134SOL     OW19300   4.927   4.086   6.778
 6134SOL    HW119301   4.857   4.118   6.714
 6134SOL    HW219302   4.983   4.016   6.733
 6135SOL     OW19303   5.714   6.992   2.727
 6135SOL    HW119304   5.615   6.976   2.732
 6135SOL    HW219305   5.736   0.012   2.640
 6136SOL     OW19306   1.429   1.743   2.705
 6136SOL    HW119307   1.358   1.778   2.645
 6136SOL    HW219308   1.515   1.735   2.654
 6137SOL     OW19309   3.701   6.991   6.381
 6137SOL    HW119310   3.683   0.031   6.308
 6137SOL    HW219311   3.745   6.909   6.342
 6138SOL     OW19312   4.933   0.656   2.935
 6138SOL    HW119313   4.902   0.744   2.971
 6138SOL    HW219314   4.988   0.671   2.853
 6139SOL     OW19315   2.720   6.041   3.783
 6139SOL    HW119316   2.771   5.955   3.774
 6139SOL    HW219317   2.785   6.118   3.784
 6140SOL     OW19318   2.480   5.529   1.396
 6140SOL    HW119319   2.509   5.506   1.304
 6140SOL    HW219320   2.390   5.573   1.393
 6141SOL     OW19321   0.382   5.723   5.320
 6141SOL    HW119322   0.359   5.636   5.275
 6141SOL    HW219323   0.481   5.736   5.319
 6142SOL     OW19324   7.000   3.840   3.750
 6142SOL    HW119325   6.961   3.813   3.838
 6142SOL    HW219326   7.002   3.939   3.743
 6143SOL     OW19327   5.865   5.456   6.426
 6143SOL    HW119328   5.907   5.367   6.404
 6143SOL    HW219329   5.937   5.523   6.443
 6144SOL     OW19330   0.195   5.565   4.195
 6144SOL    HW119331   0.188   5.588   4.098
 6144SOL    HW219332   0.118   5.605   4.245
 6145SOL     OW19333   5.901   5.150   3.250
 6145SOL    HW119334   5.832   5.148   3.177
 6145SOL    HW219335   5.970   5.079   3.233
 6146SOL     OW19336   5.863   1.867   3.572
 6146SOL    HW119337   5.934   1.937   3.572
 6146SOL    HW219338   5.823   1.860   3.663
 6147SOL     OW19339   0.986   3.780   3.550
 6147SOL    HW119340   1.056   3.716   3.580
 6147SOL    HW219341   1.028   3.868   3.527
 6148SOL     OW19342   6.498   6.082   2.666
 6148SOL    HW119343   6.579   6.139   2.652
 6148SOL    HW219344   6.425   6.137   2.707
 6149SOL     OW19345   1.193   5.532   4.733
 6149SOL    HW119346   1.106   5.484   4.724
 6149SOL    HW219347   1.265   5.480   4.688
 6150SOL     OW19348   4.416   6.366   6.347
 6150SOL    HW119349   4.415   6.319   6.259
 6150SOL    HW219350   4.371   6.455   6.338
 6151SOL     OW19351   4.837   0.045   5.184
 6151SOL    HW119352   4.928   0.083   5.199
 6151SOL    HW219353   4.768   0.112   5.212
 6152SOL     OW19354   6.467   4.100   5.661
 6152SOL    HW119355   6.477   4.079   5.758
 6152SOL    HW219356   6.535   4.049   5.609
 6153SOL     OW19357   3.804   5.538   5.648
 6153SOL    HW119358   3.760   5.612   5.597
 6153SOL    HW219359   3.749   5.455   5.641
 6154SOL     OW19360   5.265   3.256   3.129
 6154SOL    HW119361   5.310   3.206   3.055
 6154SOL    HW219362   5.219   3.336   3.092
 6155SOL     OW19363   2.414   4.563   4.760
 6155SOL    HW119364   2.356   4.578   4.840
 6155SOL    HW219365   2.391   4.475   4.718
 6156SOL     OW19366   5.741   0.456   4.806
 6156SOL    HW119367   5.792   0.472   4.891
 6156SOL    HW219368   5.787   0.502   4.730
 6157SOL     OW19369   0.845   1.242   4.862
 6157SOL    HW119370   0.779   1.314   4.843
 6157SOL    HW219371   0.806   1.153   4.837
 6158SOL     OW19372   5.489   0.113   6.848
 6158SOL    HW119373   5.504   0.184   6.916
 6158SOL    HW219374   5.538   0.030   6.876
 6159SOL     OW19375   5.034   3.634   6.600
 6159SOL    HW119376   4.937   3.621   6.578
 6159SOL    HW219377   5.090   3.611   6.520
 6160SOL     OW19378   6.311   5.214   6.684
 6160SOL    HW119379   6.338   5.118   6.688
 6160SOL    HW219380   6.332   5.258   6.772
 6161SOL     OW19381   5.706   0.238   6.191
 6161SOL    HW119382   5.799   0.258   6.221
 6161SOL    HW219383   5.654   0.322   6.184
 6162SOL     OW19384   5.836   5.069   3.968
 6162SOL    HW119385   5.778   5.032   3.896
 6162SOL    HW219386   5.832   5.010   4.048
 6163SOL     OW19387   6.586   3.988   3.012
 6163SOL    HW119388   6.530   4.016   3.090
 6163SOL    HW219389   6.683   4.003   3.034
 6164SOL     OW19390   4.547   3.302   1.633
 6164SOL    HW119391   4.533   3.246   1.551
 6164SOL    HW219392   4.622   3.265   1.687
 6165SOL     OW19393   4.171   0.357   1.199
 6165SOL    HW119394   4.200   0.350   1.103
 6165SOL    HW219395   4.249   0.338   1.259
 6166SOL     OW19396   3.329   0.686   0.348
 6166SOL    HW119397   3.312   0.775   0.306
 6166SOL    HW219398   3.254   0.662   0.408
 6167SOL     OW19399   6.762   5.293   3.523
 6167SOL    HW119400   6.717   5.254   3.443
 6167SOL    HW219401   6.736   5.241   3.605
 6168SOL     OW19402   0.230   2.727   1.513
 6168SOL    HW119403   0.291   2.800   1.483
 6168SOL    HW219404   0.269   2.682   1.592
 6169SOL     OW19405   1.262   4.018   1.047
 6169SOL    HW119406   1.344   3.961   1.045
 6169SOL    HW219407   1.233   4.038   0.953
 6170SOL     OW19408   6.615   1.899   3.711
 6170SOL    HW119409   6.572   1.866   3.627
 6170SOL    HW219410   6.585   1.992   3.730
 6171SOL     OW19411   5.985   1.845   6.606
 6171SOL    HW119412   6.084   1.826   6.608
 6171SOL    HW219413   5.939   1.773   6.556
 6172SOL     OW19414   0.214   4.628   3.889
 6172SOL    HW119415   0.262   4.559   3.835
 6172SOL    HW219416   0.211   4.714   3.838
 6173SOL     OW19417   5.360   6.521   2.927
 6173SOL    HW119418   5.410   6.435   2.941
 6173SOL    HW219419   5.264   6.507   2.952
 6174SOL     OW19420   6.955   2.163   3.613
 6174SOL    HW119421   6.958   2.066   3.634
 6174SOL    HW219422   0.012   2.189   3.562
 6175SOL     OW19423   3.955   2.023   6.967
 6175SOL    HW119424   3.955   1.958   6.891
 6175SOL    HW219425   3.964   2.116   6.932
 6176SOL     OW19426   2.802   4.781   6.085
 6176SOL    HW119427   2.830   4.736   6.000
 6176SOL    HW219428   2.883   4.822   6.129
 6177SOL     OW19429   5.846   5.733   1.738
 6177SOL    HW119430   5.930   5.781   1.714
 6177SOL    HW219431   5.802   5.699   1.656
 6178SOL     OW19432   4.033   4.903   1.878
 6178SOL    HW119433   4.087   4.822   1.853
 6178SOL    HW219434   4.053   4.977   1.813
 6179SOL     OW19435   4.392   5.576   4.782
 6179SOL    HW119436   4.472   5.588   4.725
 6179SOL    HW219437   4.314   5.624   4.742
 6180SOL     OW19438   2.094   3.705   7.023
 6180SOL    HW119439   2.037   3.770   0.047
 6180SOL    HW219440   2.052   3.614   0.002
 6181SOL     OW19441   6.939   6.413   0.051
 6181SOL    HW119442   6.949   6.447   0.144
 6181SOL    HW219443   0.003   6.413   0.005
 6182SOL     OW19444   3.389   2.886   6.502
 6182SOL    HW119445   3.406   2.985   6.497
 6182SOL    HW219446   3.443   2.840   6.432
 6183SOL     OW19447   0.194   0.587   0.058
 6183SOL    HW119448   0.294   0.595   0.060
 6183SOL    HW219449   0.168   0.494   0.036
 6184SOL     OW19450   3.231   6.790   5.593
 6184SOL    HW119451   3.321   6.829   5.614
 6184SOL    HW219452   3.160   6.859   5.608
 6185SOL     OW19453   3.799   2.976   4.176
 6185SOL    HW119454   3.750   2.955   4.091
 6185SOL    HW219455   3.765   3.062   4.213
 6186SOL     OW19456   0.966   1.701   2.598
 6186SOL    HW119457   1.047   1.756   2.575
 6186SOL    HW219458   0.908   1.692   2.517
 6187SOL     OW19459   3.806   1.717   5.873
 6187SOL    HW119460   3.741   1.676   5.809
 6187SOL    HW219461   3.897   1.717   5.832
 6188SOL     OW19462   1.723   1.459   5.829
 6188SOL    HW119463   1.809   1.488   5.871
 6188SOL    HW219464   1.672   1.402   5.893
 6189SOL     OW19465   6.640   5.549   0.575
 6189SOL    HW119466   6.721   5.543   0.518
 6189SOL    HW219467   6.585   5.628   0.547
 6190SOL     OW19468   0.629   3.361   3.904
 6190SOL    HW119469   0.592   3.454   3.902
 6190SOL    HW219470   0.672   3.344   3.993
 6191SOL     OW19471   2.897   4.684   0.282
 6191SOL    HW119472   2.986   4.659   0.318
 6191SOL    HW219473   2.834   4.703   0.357
 6192SOL     OW19474   3.060   1.775   1.272
 6192SOL    HW119475   3.003   1.838   1.219
 6192SOL    HW219476   3.153   1.813   1.280
 6193SOL     OW19477   4.734   5.959   6.678
 6193SOL    HW119478   4.829   5.983   6.659
 6193SOL    HW219479   4.729   5.909   6.765
 6194SOL     OW19480   5.417   6.946   5.601
 6194SOL    HW119481   5.504   6.904   5.577
 6194SOL    HW219482   5.415   0.014   5.567
 6195SOL     OW19483   4.273   5.430   5.669
 6195SOL    HW119484   4.322   5.431   5.582
 6195SOL    HW219485   4.199   5.496   5.667
 6196SOL     OW19486   0.073   3.498   3.424
 6196SOL    HW119487   7.001   3.483   3.411
 6196SOL    HW219488   0.115   3.522   3.336
 6197SOL     OW19489   0.724   5.676   0.555
 6197SOL    HW119490   0.821   5.698   0.567
 6197SOL    HW219491   0.672   5.715   0.632
 6198SOL     OW19492   6.282   1.597   6.242
 6198SOL    HW119493   6.293   1.597   6.342
 6198SOL    HW219494   6.227   1.518   6.215
 6199SOL     OW19495   2.323   6.622   6.312
 6199SOL    HW119496   2.224   6.615   6.307
 6199SOL    HW219497   2.348   6.700   6.369
 6200SOL     OW19498   1.937   6.695   0.098
 6200SOL    HW119499   2.022   6.703   0.150
 6200SOL    HW219500   1.860   6.719   0.157
 6201SOL     OW19501   0.123   4.740   3.463
 6201SOL    HW119502   0.148   4.837   3.466
 6201SOL    HW219503   0.095   4.716   3.370
 6202SOL     OW19504   5.879   0.942   1.866
 6202SOL    HW119505   5.963   0.994   1.850
 6202SOL    HW219506   5.864   0.932   1.964
 6203SOL     OW19507   7.009   1.525   2.245
 6203SOL    HW119508   0.044   1.590   2.199
 6203SOL    HW219509   6.939   1.494   2.181
 6204SOL     OW19510   1.307   5.995   4.965
 6204SOL    HW119511   1.232   5.994   5.031
 6204SOL    HW219512   1.318   5.903   4.926
 6205SOL     OW19513   6.550   4.342   3.429
 6205SOL    HW119514   6.520   4.247   3.429
 6205SOL    HW219515   6.540   4.381   3.520
 6206SOL     OW19516   5.247   2.035   3.383
 6206SOL    HW119517   5.344   2.012   3.377
 6206SOL    HW219518   5.215   2.019   3.477
 6207SOL     OW19519   1.555   5.884   3.839
 6207SOL    HW119520   1.473   5.917   3.791
 6207SOL    HW219521   1.625   5.860   3.773
 6208SOL     OW19522   3.687   4.131   6.670
 6208SOL    HW119523   3.680   4.130   6.770
 6208SOL    HW219524   3.659   4.043   6.633
 6209SOL     OW19525   3.285   1.034   2.535
 6209SOL    HW119526   3.218   1.097   2.494
 6209SOL    HW219527   3.354   1.087   2.584
 6210SOL     OW19528   5.830   1.200   4.152
 6210SOL    HW119529   5.822   1.139   4.073
 6210SOL    HW219530   5.859   1.147   4.231
 6211SOL     OW19531   5.094   2.707   5.113
 6211SOL    HW119532   5.002   2.715   5.076
 6211SOL    HW219533   5.145   2.640   5.060
 6212SOL     OW19534   5.462   3.863   4.758
 6212SOL    HW119535   5.432   3.913   4.839
 6212SOL    HW219536   5.501   3.775   4.786
 6213SOL     OW19537   5.111   5.806   0.389
 6213SOL    HW119538   5.065   5.741   0.450
 6213SOL    HW219539   5.186   5.759   0.341
 6214SOL     OW19540   6.851   6.677   6.336
 6214SOL    HW119541   6.766   6.727   6.318
 6214SOL    HW219542   6.906   6.727   6.402
 6215SOL     OW19543   5.930   2.525   4.924
 6215SOL    HW119544   5.837   2.520   4.889
 6215SOL    HW219545   5.956   2.438   4.965
 6216SOL     OW19546   5.173   2.582   5.548
 6216SOL    HW119547   5.189   2.674   5.584
 6216SOL    HW219548   5.075   2.561   5.553
 6217SOL     OW19549   6.904   4.350   2.229
 6217SOL    HW119550   6.925   4.379   2.322
 6217SOL    HW219551   6.964   4.274   2.204
 6218SOL     OW19552   4.795   6.621   1.294
 6218SOL    HW119553   4.797   6.550   1.365
 6218SOL    HW219554   4.720   6.684   1.311
 6219SOL     OW19555   2.411   0.615   0.358
 6219SOL    HW119556   2.485   0.619   0.291
 6219SOL    HW219557   2.348   0.541   0.332
 6220SOL     OW19558   3.375   0.634   2.294
 6220SOL    HW119559   3.366   0.733   2.293
 6220SOL    HW219560   3.425   0.603   2.213
 6221SOL     OW19561   4.523   5.147   5.417
 6221SOL    HW119562   4.477   5.153   5.328
 6221SOL    HW219563   4.615   5.109   5.404
 6222SOL     OW19564   6.591   1.417   2.051
 6222SOL    HW119565   6.592   1.516   2.068
 6222SOL    HW219566   6.594   1.369   2.139
 6223SOL     OW19567   6.510   4.987   4.056
 6223SOL    HW119568   6.451   5.068   4.058
 6223SOL    HW219569   6.557   4.978   4.143
 6224SOL     OW19570   4.044   0.049   0.267
 6224SOL    HW119571   4.105   0.018   0.193
 6224SOL    HW219572   3.978   7.002   0.287
 6225SOL     OW19573   5.140   5.988   6.898
 6225SOL    HW119574   5.101   5.999   6.989
 6225SOL    HW219575   5.093   6.048   6.833
 6226SOL     OW19576   1.068   1.303   4.049
 6226SOL    HW119577   1.014   1.290   4.131
 6226SOL    HW219578   1.016   1.273   3.969
 6227SOL     OW19579   1.958   4.381   6.115
 6227SOL    HW119580   2.050   4.417   6.128
 6227SOL    HW219581   1.900   4.452   6.073
 6228SOL     OW19582   0.417   3.354   4.296
 6228SOL    HW119583   0.373   3.385   4.212
 6228SOL    HW219584   0.461   3.266   4.280
 6229SOL     OW19585   0.358   4.233   5.252
 6229SOL    HW119586   0.297   4.173   5.304
 6229SOL    HW219587   0.453   4.203   5.263
 6230SOL     OW19588   1.120   0.675   1.341
 6230SOL    HW119589   1.040   0.623   1.311
 6230SOL    HW219590   1.101   0.773   1.332
 6231SOL     OW19591   2.269   5.790   5.781
 6231SOL    HW119592   2.299   5.804   5.687
 6231SOL    HW219593   2.293   5.869   5.836
 6232SOL     OW19594   4.231   0.297   6.581
 6232SOL    HW119595   4.226   0.349   6.666
 6232SOL    HW219596   4.250   0.201   6.602
 6233SOL     OW19597   0.057   4.450   1.104
 6233SOL    HW119598   0.059   4.530   1.044
 6233SOL    HW219599   7.011   4.462   1.173
 6234SOL     OW19600   4.617   5.619   3.220
 6234SOL    HW119601   4.652   5.711   3.238
 6234SOL    HW219602   4.644   5.590   3.128
 6235SOL     OW19603   0.020   0.791   1.475
 6235SOL    HW119604   0.069   0.846   1.407
 6235SOL    HW219605   6.997   0.717   1.428
 6236SOL     OW19606   6.546   5.812   1.693
 6236SOL    HW119607   6.518   5.893   1.744
 6236SOL    HW219608   6.529   5.826   1.595
 6237SOL     OW19609   4.120   1.422   2.530
 6237SOL    HW119610   4.136   1.405   2.627
 6237SOL    HW219611   4.053   1.495   2.519
 6238SOL     OW19612   2.435   0.054   3.890
 6238SOL    HW119613   2.462   0.035   3.985
 6238SOL    HW219614   2.393   6.998   3.850
 6239SOL     OW19615   3.932   1.688   4.012
 6239SOL    HW119616   3.866   1.667   4.085
 6239SOL    HW219617   3.945   1.607   3.956
 6240SOL     OW19618   4.119   3.538   4.102
 6240SOL    HW119619   4.114   3.609   4.173
 6240SOL    HW219620   4.093   3.577   4.014
 6241SOL     OW19621   4.287   0.007   3.204
 6241SOL    HW119622   4.282   6.938   3.237
 6241SOL    HW219623   4.291   0.070   3.282
 6242SOL     OW19624   3.331   2.163   4.595
 6242SOL    HW119625   3.264   2.160   4.669
 6242SOL    HW219626   3.407   2.222   4.622
 6243SOL     OW19627   3.249   1.082   6.976
 6243SOL    HW119628   3.280   0.991   6.948
 6243SOL    HW219629   3.231   1.138   6.895
 6244SOL     OW19630   4.855   2.356   2.034
 6244SOL    HW119631   4.840   2.420   1.958
 6244SOL    HW219632   4.925   2.393   2.095
 6245SOL     OW19633   6.784   4.541   2.097
 6245SOL    HW119634   6.835   4.474   2.150
 6245SOL    HW219635   6.768   4.505   2.005
 6246SOL     OW19636   0.659   5.725   5.165
 6246SOL    HW119637   0.745   5.683   5.194
 6246SOL    HW219638   0.648   5.714   5.066
 6247SOL     OW19639   5.572   5.221   2.476
 6247SOL    HW119640   5.563   5.293   2.545
 6247SOL    HW219641   5.622   5.144   2.516
 6248SOL     OW19642   4.531   2.934   6.205
 6248SOL    HW119643   4.599   2.867   6.174
 6248SOL    HW219644   4.505   2.992   6.128
 6249SOL     OW19645   5.633   2.592   3.381
 6249SOL    HW119646   5.578   2.530   3.325
 6249SOL    HW219647   5.587   2.681   3.386
 6250SOL     OW19648   5.366   0.166   5.431
 6250SOL    HW119649   5.284   0.187   5.484
 6250SOL    HW219650   5.430   0.243   5.437
 6251SOL     OW19651   2.539   0.993   4.180
 6251SOL    HW119652   2.466   0.998   4.112
 6251SOL    HW219653   2.601   0.917   4.158
 6252SOL     OW19654   2.994   5.203   0.357
 6252SOL    HW119655   2.993   5.159   0.447
 6252SOL    HW219656   2.994   5.133   0.286
 6253SOL     OW19657   5.230   6.146   3.232
 6253SOL    HW119658   5.198   6.218   3.170
 6253SOL    HW219659   5.310   6.180   3.282
 6254SOL     OW19660   6.993   7.011   1.993
 6254SOL    HW119661   0.046   7.011   2.055
 6254SOL    HW219662   7.005   0.056   1.923
 6255SOL     OW19663   2.145   0.778   0.452
 6255SOL    HW119664   2.130   0.681   0.471
 6255SOL    HW219665   2.060   0.821   0.424
 6256SOL     OW19666   6.655   4.606   2.354
 6256SOL    HW119667   6.660   4.579   2.257
 6256SOL    HW219668   6.747   4.606   2.393
 6257SOL     OW19669   4.250   4.103   0.720
 6257SOL    HW119670   4.170   4.157   0.748
 6257SOL    HW219671   4.251   4.094   0.620
 6258SOL     OW19672   3.880   4.909   4.742
 6258SOL    HW119673   3.914   4.892   4.835
 6258SOL    HW219674   3.950   4.958   4.690
 6259SOL     OW19675   4.598   0.602   4.485
 6259SOL    HW119676   4.584   0.538   4.409
 6259SOL    HW219677   4.592   0.696   4.451
 6260SOL     OW19678   3.620   2.107   6.858
 6260SOL    HW119679   3.553   2.102   6.785
 6260SOL    HW219680   3.667   2.019   6.867
 6261SOL     OW19681   4.134   6.577   1.180
 6261SOL    HW119682   4.229   6.565   1.205
 6261SOL    HW219683   4.086   6.627   1.252
 6262SOL     OW19684   6.140   1.009   3.128
 6262SOL    HW119685   6.047   1.026   3.095
 6262SOL    HW219686   6.205   1.053   3.066
 6263SOL     OW19687   6.166   6.318   6.377
 6263SOL    HW119688   6.131   6.394   6.431
 6263SOL    HW219689   6.202   6.353   6.290
 6264SOL     OW19690   1.007   6.388   0.887
 6264SOL    HW119691   1.007   6.304   0.941
 6264SOL    HW219692   1.002   6.366   0.790
 6265SOL     OW19693   4.011   6.865   6.961
 6265SOL    HW119694   4.023   6.840   6.865
 6265SOL    HW219695   3.957   6.795   7.008
 6266SOL     OW19696   2.592   5.068   3.179
 6266SOL    HW119697   2.521   5.000   3.161
 6266SOL    HW219698   2.652   5.075   3.099
 6267SOL     OW19699   0.660   6.190   4.810
 6267SOL    HW119700   0.579   6.137   4.835
 6267SOL    HW219701   0.713   6.209   4.892
 6268SOL     OW19702   3.024   1.625   1.754
 6268SOL    HW119703   2.953   1.578   1.806
 6268SOL    HW219704   2.994   1.636   1.659
 6269SOL     OW19705   6.907   6.118   0.276
 6269SOL    HW119706   6.888   6.125   0.178
 6269SOL    HW219707   7.001   6.149   0.293
 6270SOL     OW19708   1.595   6.544   0.943
 6270SOL    HW119709   1.637   6.571   1.029
 6270SOL    HW219710   1.605   6.617   0.876
 6271SOL     OW19711   0.271   3.444   5.901
 6271SOL    HW119712   0.352   3.386   5.892
 6271SOL    HW219713   0.290   3.533   5.859
 6272SOL     OW19714   0.598   1.228   0.757
 6272SOL    HW119715   0.556   1.156   0.812
 6272SOL    HW219716   0.570   1.318   0.792
 6273SOL     OW19717   1.095   6.179   3.315
 6273SOL    HW119718   0.996   6.176   3.334
 6273SOL    HW219719   1.132   6.086   3.319
 6274SOL     OW19720   2.979   5.611   4.324
 6274SOL    HW119721   2.905   5.615   4.256
 6274SOL    HW219722   3.057   5.563   4.284
 6275SOL     OW19723   3.026   5.647   1.625
 6275SOL    HW119724   2.970   5.712   1.676
 6275SOL    HW219725   3.082   5.593   1.689
 6276SOL     OW19726   1.845   4.929   2.561
 6276SOL    HW119727   1.889   4.844   2.532
 6276SOL    HW219728   1.754   4.909   2.599
 6277SOL     OW19729   4.929   2.574   1.582
 6277SOL    HW119730   4.830   2.570   1.565
 6277SOL    HW219731   4.947   2.642   1.653
 6278SOL     OW19732   3.118   3.133   0.246
 6278SOL    HW119733   3.213   3.118   0.273
 6278SOL    HW219734   3.111   3.140   0.147
 6279SOL     OW19735   1.390   6.624   2.030
 6279SOL    HW119736   1.376   6.616   2.129
 6279SOL    HW219737   1.450   6.551   1.999
 6280SOL     OW19738   5.044   1.022   6.800
 6280SOL    HW119739   4.965   1.029   6.860
 6280SOL    HW219740   5.128   1.016   6.855
 6281SOL     OW19741   5.497   3.869   5.872
 6281SOL    HW119742   5.515   3.964   5.896
 6281SOL    HW219743   5.436   3.866   5.792
 6282SOL     OW19744   0.346   3.789   5.723
 6282SOL    HW119745   0.320   3.702   5.683
 6282SOL    HW219746   0.437   3.781   5.763
 6283SOL     OW19747   2.332   0.351   4.088
 6283SOL    HW119748   2.429   0.347   4.066
 6283SOL    HW219749   2.317   0.417   4.162
 6284SOL     OW19750   1.727   3.945   6.214
 6284SOL    HW119751   1.762   4.038   6.224
 6284SOL    HW219752   1.744   3.913   6.121
 6285SOL     OW19753   1.508   4.402   3.316
 6285SOL    HW119754   1.552   4.340   3.381
 6285SOL    HW219755   1.480   4.486   3.363
 6286SOL     OW19756   1.230   2.835   6.870
 6286SOL    HW119757   1.231   2.736   6.864
 6286SOL    HW219758   1.182   2.872   6.790
 6287SOL     OW19759   4.639   5.090   4.997
 6287SOL    HW119760   4.633   5.133   4.907
 6287SOL    HW219761   4.562   5.120   5.053
 6288SOL     OW19762   3.254   3.723   5.385
 6288SOL    HW119763   3.155   3.725   5.400
 6288SOL    HW219764   3.279   3.638   5.338
 6289SOL     OW19765   2.577   4.790   5.431
 6289SOL    HW119766   2.601   4.786   5.334
 6289SOL    HW219767   2.565   4.697   5.466
 6290SOL     OW19768   6.474   0.154   3.218
 6290SOL    HW119769   6.468   0.140   3.120
 6290SOL    HW219770   6.462   0.067   3.266
 6291SOL     OW19771   2.925   3.208   2.277
 6291SOL    HW119772   2.961   3.180   2.366
 6291SOL    HW219773   2.906   3.306   2.278
 6292SOL     OW19774   0.966   4.289   5.017
 6292SOL    HW119775   0.939   4.375   5.061
 6292SOL    HW219776   0.955   4.298   4.918
 6293SOL     OW19777   2.701   1.184   0.510
 6293SOL    HW119778   2.616   1.192   0.563
 6293SOL    HW219779   2.699   1.098   0.458
 6294SOL     OW19780   1.665   0.183   2.105
 6294SOL    HW119781   1.692   0.087   2.094
 6294SOL    HW219782   1.679   0.211   2.200
 6295SOL     OW19783   4.438   2.554   5.801
 6295SOL    HW119784   4.465   2.637   5.752
 6295SOL    HW219785   4.385   2.495   5.739
 6296SOL     OW19786   6.957   2.554   0.433
 6296SOL    HW119787   6.980   2.635   0.379
 6296SOL    HW219788   6.910   2.488   0.374
 6297SOL     OW19789   7.024   0.983   4.469
 6297SOL    HW119790   7.009   1.066   4.522
 6297SOL    HW219791   0.079   0.935   4.504
 6298SOL     OW19792   6.643   0.369   6.787
 6298SOL    HW119793   6.668   0.444   6.725
 6298SOL    HW219794   6.620   0.407   6.876
 6299SOL     OW19795   3.069   1.494   3.831
 6299SOL    HW119796   3.160   1.531   3.849
 6299SOL    HW219797   3.073   1.394   3.833
 6300SOL     OW19798   2.856   2.187   1.250
 6300SOL    HW119799   2.944   2.234   1.242
 6300SOL    HW219800   2.787   2.236   1.196
 6301SOL     OW19801   3.959   6.346   1.171
 6301SOL    HW119802   4.030   6.416   1.166
 6301SOL    HW219803   3.869   6.388   1.165
 6302SOL     OW19804   1.594   3.748   0.168
 6302SOL    HW119805   1.693   3.742   0.183
 6302SOL    HW219806   1.548   3.675   0.219
 6303SOL     OW19807   6.506   4.791   4.937
 6303SOL    HW119808   6.457   4.876   4.957
 6303SOL    HW219809   6.572   4.773   5.009
 6304SOL     OW19810   2.180   2.178   4.386
 6304SOL    HW119811   2.141   2.103   4.439
 6304SOL    HW219812   2.248   2.226   4.442
 6305SOL     OW19813   0.891   5.671   5.502
 6305SOL    HW119814   0.879   5.650   5.599
 6305SOL    HW219815   0.862   5.591   5.447
 6306SOL     OW19816   0.668   4.468   4.491
 6306SOL    HW119817   0.699   4.389   4.439
 6306SOL    HW219818   0.649   4.544   4.429
 6307SOL     OW19819   3.102   3.132   3.314
 6307SOL    HW119820   3.038   3.209   3.322
 6307SOL    HW219821   3.194   3.163   3.334
 6308SOL     OW19822   0.627   1.098   1.391
 6308SOL    HW119823   0.585   1.121   1.479
 6308SOL    HW219824   0.647   1.182   1.340
 6309SOL     OW19825   1.945   5.722   5.059
 6309SOL    HW119826   1.986   5.764   5.141
 6309SOL    HW219827   1.933   5.624   5.075
 6310SOL     OW19828   0.863   6.610   3.142
 6310SOL    HW119829   0.786   6.608   3.206
 6310SOL    HW219830   0.945   6.643   3.189
 6311SOL     OW19831   6.439   1.108   6.145
 6311SOL    HW119832   6.342   1.121   6.166
 6311SOL    HW219833   6.494   1.150   6.217
 6312SOL     OW19834   3.633   5.815   1.134
 6312SOL    HW119835   3.727   5.808   1.165
 6312SOL    HW219836   3.605   5.911   1.132
 6313SOL     OW19837   5.540   4.708   2.738
 6313SOL    HW119838   5.616   4.754   2.783
 6313SOL    HW219839   5.492   4.650   2.804
 6314SOL     OW19840   2.069   6.821   3.408
 6314SOL    HW119841   1.998   6.823   3.479
 6314SOL    HW219842   2.035   6.864   3.325
 6315SOL     OW19843   1.988   2.867   3.116
 6315SOL    HW119844   1.894   2.869   3.083
 6315SOL    HW219845   2.032   2.956   3.098
 6316SOL     OW19846   4.462   0.354   4.682
 6316SOL    HW119847   4.524   0.308   4.744
 6316SOL    HW219848   4.488   0.334   4.587
 6317SOL     OW19849   5.011   3.968   3.030
 6317SOL    HW119850   4.932   3.961   2.970
 6317SOL    HW219851   4.980   3.973   3.125
 6318SOL     OW19852   5.825   0.035   0.134
 6318SOL    HW119853   5.908   0.088   0.116
 6318SOL    HW219854   5.763   0.087   0.192
 6319SOL     OW19855   4.734   2.839   4.239
 6319SOL    HW119856   4.686   2.783   4.172
 6319SOL    HW219857   4.674   2.858   4.317
 6320SOL     OW19858   6.260   1.829   6.572
 6320SOL    HW119859   6.315   1.748   6.590
 6320SOL    HW219860   6.320   1.906   6.547
 6321SOL     OW19861   1.171   3.763   0.172
 6321SOL    HW119862   1.202   3.742   0.079
 6321SOL    HW219863   1.071   3.765   0.174
 6322SOL     OW19864   2.086   1.772   2.370
 6322SOL    HW119865   2.157   1.806   2.308
 6322SOL    HW219866   2.105   1.676   2.392
 6323SOL     OW19867   1.997   5.874   1.136
 6323SOL    HW119868   1.979   5.840   1.228
 6323SOL    HW219869   2.040   5.965   1.142
 6324SOL     OW19870   5.059   3.750   0.973
 6324SOL    HW119871   5.149   3.725   1.008
 6324SOL    HW219872   5.031   3.837   1.013
 6325SOL     OW19873   1.282   3.413   3.988
 6325SOL    HW119874   1.228   3.329   3.999
 6325SOL    HW219875   1.377   3.396   4.017
 6326SOL     OW19876   4.653   5.387   4.899
 6326SOL    HW119877   4.600   5.471   4.882
 6326SOL    HW219878   4.646   5.362   4.995
 6327SOL     OW19879   0.617   0.783   2.722
 6327SOL    HW119880   0.620   0.699   2.669
 6327SOL    HW219881   0.555   0.848   2.679
 6328SOL     OW19882   3.976   3.288   4.971
 6328SOL    HW119883   3.984   3.227   4.892
 6328SOL    HW219884   3.918   3.246   5.041
 6329SOL     OW19885   0.043   3.251   4.842
 6329SOL    HW119886   0.141   3.256   4.862
 6329SOL    HW219887   0.028   3.198   4.759
 6330SOL     OW19888   4.183   1.795   3.655
 6330SOL    HW119889   4.202   1.697   3.643
 6330SOL    HW219890   4.091   1.807   3.692
 6331SOL     OW19891   1.846   3.715   3.590
 6331SOL    HW119892   1.837   3.634   3.531
 6331SOL    HW219893   1.925   3.703   3.651
 6332SOL     OW19894   4.504   1.901   0.272
 6332SOL    HW119895   4.536   1.840   0.200
 6332SOL    HW219896   4.440   1.851   0.331
 6333SOL     OW19897   5.842   1.051   0.399
 6333SOL    HW119898   5.897   1.120   0.352
 6333SOL    HW219899   5.888   0.963   0.396
 6334SOL     OW19900   2.111   1.412   1.818
 6334SOL    HW119901   2.024   1.405   1.770
 6334SOL    HW219902   2.183   1.368   1.764
 6335SOL     OW19903   5.919   2.602   5.354
 6335SOL    HW119904   5.885   2.580   5.446
 6335SOL    HW219905   6.018   2.613   5.357
 6336SOL     OW19906   0.461   5.096   6.091
 6336SOL    HW119907   0.539   5.155   6.114
 6336SOL    HW219908   0.488   5.000   6.099
 6337SOL     OW19909   6.204   0.180   5.419
 6337SOL    HW119910   6.160   0.269   5.416
 6337SOL    HW219911   6.256   0.171   5.504
 6338SOL     OW19912   0.653   0.579   2.527
 6338SOL    HW119913   0.711   0.504   2.559
 6338SOL    HW219914   0.709   0.643   2.474
 6339SOL     OW19915   0.202   4.164   3.187
 6339SOL    HW119916   0.160   4.124   3.106
 6339SOL    HW219917   0.189   4.263   3.186
 6340SOL     OW19918   2.245   5.580   6.495
 6340SOL    HW119919   2.223   5.484   6.483
 6340SOL    HW219920   2.342   5.594   6.476
 6341SOL     OW19921   0.869   4.519   2.600
 6341SOL    HW119922   0.776   4.518   2.638
 6341SOL    HW219923   0.935   4.522   2.675
 6342SOL     OW19924   2.421   0.403   1.459
 6342SOL    HW119925   2.376   0.314   1.452
 6342SOL    HW219926   2.357   0.470   1.497
 6343SOL     OW19927   1.482   4.920   6.796
 6343SOL    HW119928   1.461   5.012   6.761
 6343SOL    HW219929   1.415   4.855   6.762
 6344SOL     OW19930   1.366   1.305   4.341
 6344SOL    HW119931   1.309   1.387   4.339
 6344SOL    HW219932   1.358   1.257   4.253
 6345SOL     OW19933   0.445   2.997   3.189
 6345SOL    HW119934   0.459   3.058   3.267
 6345SOL    HW219935   0.532   2.958   3.161
 6346SOL     OW19936   0.802   4.323   3.368
 6346SOL    HW119937   0.831   4.325   3.464
 6346SOL    HW219938   0.703   4.318   3.364
 6347SOL     OW19939   2.244   1.969   2.997
 6347SOL    HW119940   2.267   2.035   3.069
 6347SOL    HW219941   2.146   1.953   2.997
 6348SOL     OW19942   1.673   2.905   7.015
 6348SOL    HW119943   1.599   2.909   6.947
 6348SOL    HW219944   1.683   2.812   0.023
 6349SOL     OW19945   6.140   1.540   1.037
 6349SOL    HW119946   6.235   1.509   1.038
 6349SOL    HW219947   6.083   1.473   1.083
 6350SOL     OW19948   0.353   6.741   1.382
 6350SOL    HW119949   0.447   6.770   1.403
 6350SOL    HW219950   0.319   6.684   1.457
 6351SOL     OW19951   6.398   2.498   2.034
 6351SOL    HW119952   6.299   2.504   2.051
 6351SOL    HW219953   6.434   2.590   2.015
 6352SOL     OW19954   4.362   0.744   4.639
 6352SOL    HW119955   4.387   0.650   4.660
 6352SOL    HW219956   4.283   0.770   4.695
 6353SOL     OW19957   3.679   6.064   5.776
 6353SOL    HW119958   3.621   6.053   5.857
 6353SOL    HW219959   3.766   6.104   5.803
 6354SOL     OW19960   5.699   4.499   2.444
 6354SOL    HW119961   5.664   4.578   2.394
 6354SOL    HW219962   5.799   4.499   2.441
 6355SOL     OW19963   4.925   6.390   0.062
 6355SOL    HW119964   4.844   6.442   0.090
 6355SOL    HW219965   4.900   6.322   7.019
 6356SOL     OW19966   0.692   6.684   5.986
 6356SOL    HW119967   0.685   6.782   6.007
 6356SOL    HW219968   0.605   6.639   6.004
 6357SOL     OW19969   4.987   1.881   2.918
 6357SOL    HW119970   4.899   1.834   2.916
 6357SOL    HW219971   5.019   1.898   2.825
 6358SOL     OW19972   1.224   1.521   4.850
 6358SOL    HW119973   1.320   1.503   4.866
 6358SOL    HW219974   1.179   1.438   4.818
 6359SOL     OW19975   5.861   4.686   0.820
 6359SOL    HW119976   5.784   4.748   0.830
 6359SOL    HW219977   5.846   4.605   0.877
 6360SOL     OW19978   2.487   2.707   0.645
 6360SOL    HW119979   2.488   2.746   0.738
 6360SOL    HW219980   2.459   2.612   0.649
 6361SOL     OW19981   0.375   2.727   2.304
 6361SOL    HW119982   0.473   2.717   2.321
 6361SOL    HW219983   0.324   2.694   2.384
 6362SOL     OW19984   2.371   5.460   0.689
 6362SOL    HW119985   2.402   5.555   0.682
 6362SOL    HW219986   2.446   5.403   0.721
 6363SOL     OW19987   0.984   2.479   1.670
 6363SOL    HW119988   1.017   2.457   1.579
 6363SOL    HW219989   1.051   2.537   1.717
 6364SOL     OW19990   2.458   1.575   4.523
 6364SOL    HW119991   2.396   1.516   4.471
 6364SOL    HW219992   2.546   1.580   4.476
 6365SOL     OW19993   6.541   6.860   2.171
 6365SOL    HW119994   6.622   6.868   2.112
 6365SOL    HW219995   6.557   6.910   2.256
 6366SOL     OW19996   5.759   1.490   4.872
 6366SOL    HW119997   5.794   1.407   4.827
 6366SOL    HW219998   5.671   1.514   4.832
 6367SOL     OW19999   1.246   2.946   4.879
 6367SOL    HW120000   1.308   2.989   4.813
 6367SOL    HW220001   1.286   2.862   4.913
 6368SOL     OW20002   5.033   3.124   5.060
 6368SOL    HW120003   5.109   3.071   5.022
 6368SOL    HW220004   5.057   3.155   5.152
 6369SOL     OW20005   3.536   4.688   0.745
 6369SOL    HW120006   3.491   4.605   0.712
 6369SOL    HW220007   3.475   4.766   0.734
 6370SOL     OW20008   6.108   3.736   4.818
 6370SOL    HW120009   6.186   3.732   4.755
 6370SOL    HW220010   6.101   3.649   4.867
 6371SOL     OW20011   5.707   4.586   1.088
 6371SOL    HW120012   5.662   4.497   1.095
 6371SOL    HW220013   5.645   4.658   1.119
 6372SOL     OW20014   6.169   1.477   1.332
 6372SOL    HW120015   6.111   1.517   1.404
 6372SOL    HW220016   6.238   1.418   1.374
 6373SOL     OW20017   5.283   1.867   1.413
 6373SOL    HW120018   5.257   1.853   1.317
 6373SOL    HW220019   5.327   1.956   1.422
 6374SOL     OW20020   3.836   2.781   6.822
 6374SOL    HW120021   3.845   2.796   6.920
 6374SOL    HW220022   3.921   2.806   6.776
 6375SOL     OW20023   5.651   1.082   1.967
 6375SOL    HW120024   5.552   1.082   1.983
 6375SOL    HW220025   5.678   0.992   1.934
 6376SOL     OW20026   3.068   6.705   0.765
 6376SOL    HW120027   3.121   6.634   0.811
 6376SOL    HW220028   2.975   6.673   0.749
 6377SOL     OW20029   0.045   1.115   0.529
 6377SOL    HW120030   0.028   1.200   0.480
 6377SOL    HW220031   0.066   1.042   0.464
 6378SOL     OW20032   5.892   3.958   3.204
 6378SOL    HW120033   5.842   3.899   3.268
 6378SOL    HW220034   5.946   3.903   3.141
 6379SOL     OW20035   2.717   5.624   6.945
 6379SOL    HW120036   2.746   5.666   0.005
 6379SOL    HW220037   2.753   5.531   6.939
 6380SOL     OW20038   2.254   3.011   4.760
 6380SOL    HW120039   2.306   2.940   4.712
 6380SOL    HW220040   2.284   3.014   4.856
 6381SOL     OW20041   3.404   4.445   0.667
 6381SOL    HW120042   3.420   4.431   0.765
 6381SOL    HW220043   3.310   4.473   0.652
 6382SOL     OW20044   1.877   1.008   0.850
 6382SOL    HW120045   1.849   1.025   0.945
 6382SOL    HW220046   1.883   1.094   0.801
 6383SOL     OW20047   2.627   2.036   2.761
 6383SOL    HW120048   2.636   2.021   2.662
 6383SOL    HW220049   2.613   2.133   2.779
 6384SOL     OW20050   6.796   1.602   2.659
 6384SOL    HW120051   6.703   1.568   2.671
 6384SOL    HW220052   6.806   1.643   2.568
 6385SOL     OW20053   0.149   3.841   1.365
 6385SOL    HW120054   0.236   3.890   1.365
 6385SOL    HW220055   0.084   3.888   1.306
 6386SOL     OW20056   3.067   4.262   0.255
 6386SOL    HW120057   3.018   4.305   0.180
 6386SOL    HW220058   3.156   4.229   0.222
 6387SOL     OW20059   6.511   1.116   5.647
 6387SOL    HW120060   6.430   1.125   5.589
 6387SOL    HW220061   6.542   1.020   5.646
 6388SOL     OW20062   6.059   5.146   2.004
 6388SOL    HW120063   6.078   5.049   1.989
 6388SOL    HW220064   6.140   5.190   2.042
 6389SOL     OW20065   6.529   6.622   0.882
 6389SOL    HW120066   6.601   6.569   0.927
 6389SOL    HW220067   6.514   6.586   0.790
 6390SOL     OW20068   4.670   6.392   0.224
 6390SOL    HW120069   4.655   6.488   0.251
 6390SOL    HW220070   4.670   6.334   0.306
 6391SOL     OW20071   1.362   2.111   5.305
 6391SOL    HW120072   1.423   2.180   5.265
 6391SOL    HW220073   1.381   2.022   5.263
 6392SOL     OW20074   4.717   6.593   3.478
 6392SOL    HW120075   4.685   6.579   3.572
 6392SOL    HW220076   4.715   6.691   3.457
 6393SOL     OW20077   2.656   5.149   0.009
 6393SOL    HW120078   2.565   5.183   0.032
 6393SOL    HW220079   2.696   5.104   0.089
 6394SOL     OW20080   1.491   5.646   1.844
 6394SOL    HW120081   1.559   5.658   1.772
 6394SOL    HW220082   1.505   5.558   1.889
 6395SOL     OW20083   1.057   4.039   5.116
 6395SOL    HW120084   1.051   4.014   5.213
 6395SOL    HW220085   1.002   4.121   5.100
 6396SOL     OW20086   0.806   2.991   4.571
 6396SOL    HW120087   0.772   2.998   4.665
 6396SOL    HW220088   0.853   3.076   4.546
 6397SOL     OW20089   6.825   3.427   4.533
 6397SOL    HW120090   6.793   3.363   4.604
 6397SOL    HW220091   6.755   3.498   4.519
 6398SOL     OW20092   0.915   0.237   2.860
 6398SOL    HW120093   0.981   0.238   2.784
 6398SOL    HW220094   0.961   0.265   2.944
 6399SOL     OW20095   2.871   6.793   6.910
 6399SOL    HW120096   2.932   6.863   6.946
 6399SOL    HW220097   2.776   6.815   6.934
 6400SOL     OW20098   1.058   6.178   2.774
 6400SOL    HW120099   1.090   6.244   2.842
 6400SOL    HW220100   1.015   6.226   2.698
 6401SOL     OW20101   3.846   5.010   1.574
 6401SOL    HW120102   3.935   4.993   1.532
 6401SOL    HW220103   3.803   4.923   1.598
 6402SOL     OW20104   3.621   3.513   5.865
 6402SOL    HW120105   3.677   3.434   5.892
 6402SOL    HW220106   3.641   3.537   5.770
 6403SOL     OW20107   4.049   5.544   5.735
 6403SOL    HW120108   4.066   5.484   5.813
 6403SOL    HW220109   3.950   5.551   5.719
 6404SOL     OW20110   4.886   5.877   6.099
 6404SOL    HW120111   4.884   5.929   6.184
 6404SOL    HW220112   4.971   5.825   6.094
 6405SOL     OW20113   4.543   0.974   3.136
 6405SOL    HW120114   4.463   1.034   3.141
 6405SOL    HW220115   4.594   0.994   3.052
 6406SOL     OW20116   0.313   3.446   1.826
 6406SOL    HW120117   0.358   3.364   1.861
 6406SOL    HW220118   0.214   3.433   1.830
 6407SOL     OW20119   0.592   6.783   2.276
 6407SOL    HW120120   0.612   6.808   2.182
 6407SOL    HW220121   0.596   6.683   2.286
 6408SOL     OW20122   7.015   1.609   1.675
 6408SOL    HW120123   6.916   1.624   1.685
 6408SOL    HW220124   0.036   1.641   1.758
 6409SOL     OW20125   6.116   4.646   3.783
 6409SOL    HW120126   6.155   4.592   3.708
 6409SOL    HW220127   6.027   4.607   3.808
 6410SOL     OW20128   1.381   0.649   6.872
 6410SOL    HW120129   1.452   0.695   6.818
 6410SOL    HW220130   1.405   0.652   6.969
 6411SOL     OW20131   1.129   2.806   4.299
 6411SOL    HW120132   1.136   2.860   4.383
 6411SOL    HW220133   1.033   2.781   4.283
 6412SOL     OW20134   4.465   0.347   0.037
 6412SOL    HW120135   4.503   0.376   6.975
 6412SOL    HW220136   4.400   0.272   0.023
 6413SOL     OW20137   4.900   5.818   2.863
 6413SOL    HW120138   4.804   5.818   2.891
 6413SOL    HW220139   4.945   5.899   2.902
 6414SOL     OW20140   3.477   0.288   0.296
 6414SOL    HW120141   3.476   0.320   0.391
 6414SOL    HW220142   3.567   0.304   0.256
 6415SOL     OW20143   6.894   1.917   3.746
 6415SOL    HW120144   6.798   1.897   3.730
 6415SOL    HW220145   6.921   1.881   3.835
 6416SOL     OW20146   2.972   4.793   0.014
 6416SOL    HW120147   2.976   4.756   0.106
 6416SOL    HW220148   2.884   4.771   6.998
 6417SOL     OW20149   4.453   3.636   6.567
 6417SOL    HW120150   4.409   3.600   6.485
 6417SOL    HW220151   4.416   3.590   6.648
 6418SOL     OW20152   4.912   5.639   0.031
 6418SOL    HW120153   4.851   5.570   7.019
 6418SOL    HW220154   4.938   5.614   0.125
 6419SOL     OW20155   1.494   6.602   6.298
 6419SOL    HW120156   1.548   6.686   6.289
 6419SOL    HW220157   1.555   6.527   6.323
 6420SOL     OW20158   1.999   4.882   3.445
 6420SOL    HW120159   2.050   4.798   3.424
 6420SOL    HW220160   2.046   4.960   3.404
 6421SOL     OW20161   5.240   6.745   1.522
 6421SOL    HW120162   5.238   6.650   1.492
 6421SOL    HW220163   5.304   6.755   1.597
 6422SOL     OW20164   0.980   1.263   5.098
 6422SOL    HW120165   1.024   1.353   5.096
 6422SOL    HW220166   0.913   1.258   5.023
 6423SOL     OW20167   1.211   3.590   4.491
 6423SOL    HW120168   1.261   3.662   4.540
 6423SOL    HW220169   1.219   3.605   4.393
 6424SOL     OW20170   6.678   3.986   5.524
 6424SOL    HW120171   6.699   4.062   5.464
 6424SOL    HW220172   6.727   3.997   5.611
 6425SOL     OW20173   1.223   6.984   5.143
 6425SOL    HW120174   1.283   6.904   5.141
 6425SOL    HW220175   1.179   6.991   5.233
 6426SOL     OW20176   3.982   5.347   3.775
 6426SOL    HW120177   4.028   5.404   3.842
 6426SOL    HW220178   3.991   5.251   3.800
 6427SOL     OW20179   3.214   3.713   3.487
 6427SOL    HW120180   3.184   3.618   3.502
 6427SOL    HW220181   3.134   3.770   3.467
 6428SOL     OW20182   6.387   2.624   0.101
 6428SOL    HW120183   6.327   2.614   0.180
 6428SOL    HW220184   6.413   2.720   0.090
 6429SOL     OW20185   2.731   1.867   4.891
 6429SOL    HW120186   2.696   1.920   4.968
 6429SOL    HW220187   2.660   1.857   4.822
 6430SOL     OW20188   6.503   1.670   4.866
 6430SOL    HW120189   6.425   1.614   4.836
 6430SOL    HW220190   6.487   1.702   4.959
 6431SOL     OW20191   3.268   4.935   3.476
 6431SOL    HW120192   3.276   4.892   3.566
 6431SOL    HW220193   3.174   4.923   3.443
 6432SOL     OW20194   4.390   3.182   6.795
 6432SOL    HW120195   4.312   3.150   6.850
 6432SOL    HW220196   4.475   3.152   6.837
 6433SOL     OW20197   3.871   5.182   6.085
 6433SOL    HW120198   3.909   5.204   5.996
 6433SOL    HW220199   3.853   5.267   6.135
 6434SOL     OW20200   6.461   4.678   6.199
 6434SOL    HW120201   6.467   4.767   6.153
 6434SOL    HW220202   6.525   4.614   6.156
 6435SOL     OW20203   4.575   1.336   1.057
 6435SOL    HW120204   4.494   1.376   1.014
 6435SOL    HW220205   4.612   1.264   0.999
 6436SOL     OW20206   0.907   2.464   3.933
 6436SOL    HW120207   0.911   2.564   3.930
 6436SOL    HW220208   0.813   2.434   3.918
 6437SOL     OW20209   1.509   2.592   6.598
 6437SOL    HW120210   1.562   2.509   6.618
 6437SOL    HW220211   1.567   2.659   6.553
 6438SOL     OW20212   0.488   5.618   1.293
 6438SOL    HW120213   0.498   5.675   1.211
 6438SOL    HW220214   0.458   5.674   1.370
 6439SOL     OW20215   4.171   6.427   2.943
 6439SOL    HW120216   4.220   6.351   2.900
 6439SOL    HW220217   4.128   6.395   3.028
 6440SOL     OW20218   2.397   2.448   5.637
 6440SOL    HW120219   2.441   2.465   5.549
 6440SOL    HW220220   2.299   2.432   5.622
 6441SOL     OW20221   1.764   1.816   1.440
 6441SOL    HW120222   1.864   1.815   1.446
 6441SOL    HW220223   1.736   1.764   1.359
 6442SOL     OW20224   2.834   1.840   4.458
 6442SOL    HW120225   2.873   1.798   4.540
 6442SOL    HW220226   2.827   1.939   4.470
 6443SOL     OW20227   2.995   2.466   5.866
 6443SOL    HW120228   2.929   2.479   5.791
 6443SOL    HW220229   3.072   2.412   5.833
 6444SOL     OW20230   0.143   4.091   5.406
 6444SOL    HW120231   0.152   3.992   5.392
 6444SOL    HW220232   0.085   4.130   5.335
 6445SOL     OW20233   3.461   3.181   3.713
 6445SOL    HW120234   3.461   3.257   3.647
 6445SOL    HW220235   3.510   3.208   3.795
 6446SOL     OW20236   1.463   0.465   1.394
 6446SOL    HW120237   1.368   0.445   1.370
 6446SOL    HW220238   1.523   0.441   1.318
 6447SOL     OW20239   6.311   3.930   1.401
 6447SOL    HW120240   6.265   3.989   1.335
 6447SOL    HW220241   6.286   3.959   1.494
 6448SOL     OW20242   3.903   4.367   1.625
 6448SOL    HW120243   3.943   4.286   1.667
 6448SOL    HW220244   3.920   4.366   1.527
 6449SOL     OW20245   4.433   5.609   0.262
 6449SOL    HW120246   4.438   5.707   0.243
 6449SOL    HW220247   4.389   5.562   0.186
 6450SOL     OW20248   4.560   3.205   0.511
 6450SOL    HW120249   4.512   3.149   0.579
 6450SOL    HW220250   4.516   3.295   0.506
 6451SOL     OW20251   4.456   2.661   1.405
 6451SOL    HW120252   4.414   2.695   1.489
 6451SOL    HW220253   4.391   2.669   1.329
 6452SOL     OW20254   4.465   2.105   4.473
 6452SOL    HW120255   4.525   2.064   4.406
 6452SOL    HW220256   4.370   2.083   4.451
 6453SOL     OW20257   2.718   0.979   3.134
 6453SOL    HW120258   2.680   0.887   3.134
 6453SOL    HW220259   2.726   1.012   3.228
 6454SOL     OW20260   5.268   3.936   5.363
 6454SOL    HW120261   5.344   3.973   5.309
 6454SOL    HW220262   5.181   3.965   5.322
 6455SOL     OW20263   0.050   2.968   5.083
 6455SOL    HW120264   0.104   2.949   5.165
 6455SOL    HW220265   0.102   3.028   5.023
 6456SOL     OW20266   6.401   1.946   3.191
 6456SOL    HW120267   6.380   1.866   3.134
 6456SOL    HW220268   6.316   1.990   3.219
 6457SOL     OW20269   1.372   6.008   3.641
 6457SOL    HW120270   1.443   6.001   3.571
 6457SOL    HW220271   1.361   6.104   3.668
 6458SOL     OW20272   1.338   0.555   5.208
 6458SOL    HW120273   1.356   0.535   5.305
 6458SOL    HW220274   1.242   0.535   5.187
 6459SOL     OW20275   0.601   3.385   2.971
 6459SOL    HW120276   0.619   3.291   2.999
 6459SOL    HW220277   0.678   3.443   2.997
 6460SOL     OW20278   1.749   5.603   5.787
 6460SOL    HW120279   1.788   5.526   5.736
 6460SOL    HW220280   1.649   5.597   5.786
 6461SOL     OW20281   0.289   6.782   2.057
 6461SOL    HW120282   0.299   6.870   2.102
 6461SOL    HW220283   0.372   6.727   2.071
 6462SOL     OW20284   2.546   4.174   5.368
 6462SOL    HW120285   2.511   4.105   5.304
 6462SOL    HW220286   2.636   4.206   5.336
 6463SOL     OW20287   4.780   3.237   1.769
 6463SOL    HW120288   4.749   3.167   1.834
 6463SOL    HW220289   4.873   3.216   1.740
 6464SOL     OW20290   1.121   4.035   3.430
 6464SOL    HW120291   1.172   4.020   3.346
 6464SOL    HW220292   1.181   4.021   3.509
 6465SOL     OW20293   2.276   1.538   2.994
 6465SOL    HW120294   2.248   1.560   3.087
 6465SOL    HW220295   2.360   1.588   2.971
 6466SOL     OW20296   6.284   5.822   6.363
 6466SOL    HW120297   6.221   5.758   6.320
 6466SOL    HW220298   6.349   5.856   6.294
 6467SOL     OW20299   2.684   3.483   5.832
 6467SOL    HW120300   2.703   3.486   5.930
 6467SOL    HW220301   2.752   3.539   5.784
 6468SOL     OW20302   0.961   0.795   1.008
 6468SOL    HW120303   1.033   0.860   1.032
 6468SOL    HW220304   0.873   0.828   1.041
 6469SOL     OW20305   2.446   0.968   0.809
 6469SOL    HW120306   2.379   0.940   0.741
 6469SOL    HW220307   2.441   0.908   0.889
 6470SOL     OW20308   5.533   1.052   6.956
 6470SOL    HW120309   5.457   1.118   6.959
 6470SOL    HW220310   5.553   1.019   0.023
 6471SOL     OW20311   1.066   6.317   5.632
 6471SOL    HW120312   1.037   6.382   5.703
 6471SOL    HW220313   1.095   6.368   5.551
 6472SOL     OW20314   0.689   6.467   1.296
 6472SOL    HW120315   0.663   6.469   1.393
 6472SOL    HW220316   0.770   6.524   1.282
 6473SOL     OW20317   2.848   1.879   3.748
 6473SOL    HW120318   2.883   1.949   3.811
 6473SOL    HW220319   2.795   1.923   3.676
 6474SOL     OW20320   4.006   6.849   4.463
 6474SOL    HW120321   3.981   6.812   4.553
 6474SOL    HW220322   3.960   6.937   4.449
 6475SOL     OW20323   5.354   6.060   3.584
 6475SOL    HW120324   5.449   6.039   3.562
 6475SOL    HW220325   5.296   5.983   3.557
 6476SOL     OW20326   5.544   3.979   5.246
 6476SOL    HW120327   5.583   4.013   5.160
 6476SOL    HW220328   5.618   3.968   5.313
 6477SOL     OW20329   1.120   6.845   0.774
 6477SOL    HW120330   1.114   6.883   0.866
 6477SOL    HW220331   1.047   6.779   0.760
 6478SOL     OW20332   1.920   5.867   0.092
 6478SOL    HW120333   1.953   5.793   0.151
 6478SOL    HW220334   1.881   5.940   0.150
 6479SOL     OW20335   4.523   6.045   4.009
 6479SOL    HW120336   4.553   6.132   4.047
 6479SOL    HW220337   4.599   6.002   3.960
 6480SOL     OW20338   3.519   1.157   5.001
 6480SOL    HW120339   3.503   1.167   5.099
 6480SOL    HW220340   3.487   1.240   4.954
 6481SOL     OW20341   4.000   3.449   1.930
 6481SOL    HW120342   4.067   3.384   1.966
 6481SOL    HW220343   3.940   3.480   2.005
 6482SOL     OW20344   5.453   2.759   4.177
 6482SOL    HW120345   5.552   2.767   4.190
 6482SOL    HW220346   5.428   2.663   4.173
 6483SOL     OW20347   1.883   5.700   6.012
 6483SOL    HW120348   1.833   5.648   5.944
 6483SOL    HW220349   1.982   5.686   6.001
 6484SOL     OW20350   4.252   0.701   3.292
 6484SOL    HW120351   4.155   0.725   3.291
 6484SOL    HW220352   4.263   0.605   3.265
 6485SOL     OW20353   1.786   5.103   4.856
 6485SOL    HW120354   1.776   5.005   4.841
 6485SOL    HW220355   1.771   5.124   4.952
 6486SOL     OW20356   6.982   4.329   2.543
 6486SOL    HW120357   0.055   4.337   2.528
 6486SOL    HW220358   6.955   4.394   2.614
 6487SOL     OW20359   6.334   5.424   4.302
 6487SOL    HW120360   6.419   5.428   4.250
 6487SOL    HW220361   6.275   5.500   4.275
 6488SOL     OW20362   3.507   5.170   3.992
 6488SOL    HW120363   3.526   5.192   4.088
 6488SOL    HW220364   3.586   5.195   3.936
 6489SOL     OW20365   6.526   3.248   5.667
 6489SOL    HW120366   6.519   3.213   5.761
 6489SOL    HW220367   6.482   3.337   5.661
 6490SOL     OW20368   1.966   3.443   6.861
 6490SOL    HW120369   1.917   3.508   6.802
 6490SOL    HW220370   1.900   3.394   6.918
 6491SOL     OW20371   1.254   0.413   2.243
 6491SOL    HW120372   1.239   0.444   2.149
 6491SOL    HW220373   1.181   0.350   2.269
 6492SOL     OW20374   4.052   3.254   3.337
 6492SOL    HW120375   4.124   3.324   3.332
 6492SOL    HW220376   4.049   3.216   3.429
 6493SOL     OW20377   1.566   4.901   4.191
 6493SOL    HW120378   1.646   4.950   4.157
 6493SOL    HW220379   1.483   4.950   4.166
 6494SOL     OW20380   6.147   1.027   1.533
 6494SOL    HW120381   6.152   0.935   1.493
 6494SOL    HW220382   6.053   1.048   1.557
 6495SOL     OW20383   6.047   6.663   2.597
 6495SOL    HW120384   5.968   6.605   2.579
 6495SOL    HW220385   6.034   6.752   2.553
 6496SOL     OW20386   2.603   2.923   1.243
 6496SOL    HW120387   2.507   2.907   1.265
 6496SOL    HW220388   2.611   2.953   1.148
 6497SOL     OW20389   0.155   2.520   0.615
 6497SOL    HW120390   0.211   2.603   0.624
 6497SOL    HW220391   0.077   2.539   0.555
 6498SOL     OW20392   2.393   4.822   4.652
 6498SOL    HW120393   2.390   4.724   4.630
 6498SOL    HW220394   2.339   4.838   4.735
 6499SOL     OW20395   6.027   2.408   2.440
 6499SOL    HW120396   6.120   2.441   2.429
 6499SOL    HW220397   5.994   2.372   2.353
 6500SOL     OW20398   1.735   4.137   2.721
 6500SOL    HW120399   1.699   4.230   2.710
 6500SOL    HW220400   1.807   4.136   2.790
 6501SOL     OW20401   6.563   1.471   2.417
 6501SOL    HW120402   6.556   1.486   2.516
 6501SOL    HW220403   6.635   1.403   2.400
 6502SOL     OW20404   0.835   2.885   2.313
 6502SOL    HW120405   0.753   2.938   2.293
 6502SOL    HW220406   0.874   2.916   2.399
 6503SOL     OW20407   0.195   2.331   5.598
 6503SOL    HW120408   0.202   2.400   5.670
 6503SOL    HW220409   0.254   2.357   5.522
 6504SOL     OW20410   4.017   6.431   6.395
 6504SOL    HW120411   3.948   6.440   6.467
 6504SOL    HW220412   4.001   6.346   6.344
 6505SOL     OW20413   0.755   6.786   0.085
 6505SOL    HW120414   0.697   6.715   0.046
 6505SOL    HW220415   0.785   6.759   0.177
 6506SOL     OW20416   0.231   4.103   1.825
 6506SOL    HW120417   0.218   4.146   1.736
 6506SOL    HW220418   0.317   4.051   1.826
 6507SOL     OW20419   4.993   5.665   0.579
 6507SOL    HW120420   4.952   5.585   0.536
 6507SOL    HW220421   4.923   5.716   0.629
 6508SOL     OW20422   0.085   0.796   4.206
 6508SOL    HW120423   0.033   0.749   4.277
 6508SOL    HW220424   0.042   0.883   4.185
 6509SOL     OW20425   2.579   1.646   0.205
 6509SOL    HW120426   2.577   1.554   0.246
 6509SOL    HW220427   2.486   1.680   0.195
 6510SOL     OW20428   3.563   4.914   4.221
 6510SOL    HW120429   3.470   4.936   4.251
 6510SOL    HW220430   3.622   4.903   4.301
 6511SOL     OW20431   3.384   3.107   0.270
 6511SOL    HW120432   3.454   3.157   0.320
 6511SOL    HW220433   3.403   3.009   0.275
 6512SOL     OW20434   4.735   1.012   1.747
 6512SOL    HW120435   4.797   1.091   1.743
 6512SOL    HW220436   4.699   0.994   1.656
 6513SOL     OW20437   3.145   5.357   2.064
 6513SOL    HW120438   3.072   5.300   2.102
 6513SOL    HW220439   3.216   5.299   2.025
 6514SOL     OW20440   5.237   5.550   5.874
 6514SOL    HW120441   5.283   5.616   5.815
 6514SOL    HW220442   5.248   5.458   5.837
 6515SOL     OW20443   0.962   5.258   2.127
 6515SOL    HW120444   0.953   5.180   2.189
 6515SOL    HW220445   0.981   5.226   2.035
 6516SOL     OW20446   5.590   1.088   3.206
 6516SOL    HW120447   5.674   1.134   3.235
 6516SOL    HW220448   5.603   1.050   3.115
 6517SOL     OW20449   6.685   4.453   0.775
 6517SOL    HW120450   6.702   4.551   0.780
 6517SOL    HW220451   6.754   4.410   0.717
 6518SOL     OW20452   1.361   1.552   2.263
 6518SOL    HW120453   1.280   1.552   2.205
 6518SOL    HW220454   1.345   1.493   2.342
 6519SOL     OW20455   1.337   1.911   3.813
 6519SOL    HW120456   1.276   1.848   3.765
 6519SOL    HW220457   1.286   1.960   3.883
 6520SOL     OW20458   5.742   6.349   6.761
 6520SOL    HW120459   5.735   6.440   6.801
 6520SOL    HW220460   5.779   6.285   6.828
 6521SOL     OW20461   1.414   4.202   4.488
 6521SOL    HW120462   1.377   4.120   4.533
 6521SOL    HW220463   1.500   4.228   4.532
 6522SOL     OW20464   2.412   2.953   5.413
 6522SOL    HW120465   2.464   3.005   5.482
 6522SOL    HW220466   2.388   3.013   5.337
 6523SOL     OW20467   5.384   6.814   0.456
 6523SOL    HW120468   5.444   6.742   0.421
 6523SOL    HW220469   5.329   6.779   0.531
 6524SOL     OW20470   3.357   2.392   1.091
 6524SOL    HW120471   3.320   2.476   1.051
 6524SOL    HW220472   3.432   2.416   1.153
 6525SOL     OW20473   2.325   4.930   3.798
 6525SOL    HW120474   2.258   4.994   3.836
 6525SOL    HW220475   2.304   4.837   3.830
 6526SOL     OW20476   6.457   6.490   0.651
 6526SOL    HW120477   6.511   6.417   0.694
 6526SOL    HW220478   6.507   6.526   0.573
 6527SOL     OW20479   5.467   2.616   0.714
 6527SOL    HW120480   5.519   2.595   0.631
 6527SOL    HW220481   5.372   2.587   0.702
 6528SOL     OW20482   4.686   6.832   0.515
 6528SOL    HW120483   4.736   6.919   0.518
 6528SOL    HW220484   4.720   6.777   0.439
 6529SOL     OW20485   4.305   6.804   1.490
 6529SOL    HW120486   4.246   6.812   1.570
 6529SOL    HW220487   4.380   6.741   1.510
 6530SOL     OW20488   0.044   1.957   4.381
 6530SOL    HW120489   6.998   1.887   4.387
 6530SOL    HW220490   0.013   2.040   4.426
 6531SOL     OW20491   3.075   3.778   3.908
 6531SOL    HW120492   3.169   3.777   3.876
 6531SOL    HW220493   3.015   3.742   3.836
 6532SOL     OW20494   1.062   5.692   0.212
 6532SOL    HW120495   1.030   5.772   0.264
 6532SOL    HW220496   0.984   5.646   0.170
 6533SOL     OW20497   5.057   5.187   1.058
 6533SOL    HW120498   4.974   5.152   1.014
 6533SOL    HW220499   5.061   5.287   1.047
 6534SOL     OW20500   6.506   3.324   3.817
 6534SOL    HW120501   6.537   3.348   3.724
 6534SOL    HW220502   6.406   3.317   3.818
 6535SOL     OW20503   5.401   3.675   0.039
 6535SOL    HW120504   5.353   3.688   0.127
 6535SOL    HW220505   5.334   3.669   6.991
 6536SOL     OW20506   0.180   5.089   5.263
 6536SOL    HW120507   0.210   5.101   5.357
 6536SOL    HW220508   0.089   5.129   5.251
 6537SOL     OW20509   6.556   5.602   4.545
 6537SOL    HW120510   6.481   5.668   4.554
 6537SOL    HW220511   6.566   5.576   4.448
 6538SOL     OW20512   1.726   3.414   3.357
 6538SOL    HW120513   1.820   3.433   3.329
 6538SOL    HW220514   1.685   3.348   3.295
 6539SOL     OW20515   5.526   0.085   5.162
 6539SOL    HW120516   5.560   0.171   5.124
 6539SOL    HW220517   5.466   0.105   5.240
 6540SOL     OW20518   0.804   2.501   5.670
 6540SOL    HW120519   0.800   2.443   5.589
 6540SOL    HW220520   0.826   2.446   5.750
 6541SOL     OW20521   3.964   1.505   5.326
 6541SOL    HW120522   3.983   1.431   5.261
 6541SOL    HW220523   3.881   1.554   5.297
 6542SOL     OW20524   2.293   4.634   2.234
 6542SOL    HW120525   2.365   4.609   2.170
 6542SOL    HW220526   2.207   4.590   2.208
 6543SOL     OW20527   4.097   1.869   4.132
 6543SOL    HW120528   4.027   1.802   4.109
 6543SOL    HW220529   4.163   1.876   4.057
 6544SOL     OW20530   0.906   0.579   1.180
 6544SOL    HW120531   0.807   0.582   1.193
 6544SOL    HW220532   0.934   0.655   1.121
 6545SOL     OW20533   5.842   5.282   0.983
 6545SOL    HW120534   5.913   5.350   1.004
 6545SOL    HW220535   5.760   5.329   0.950
 6546SOL     OW20536   4.229   5.252   4.623
 6546SOL    HW120537   4.251   5.208   4.709
 6546SOL    HW220538   4.156   5.319   4.637
 6547SOL     OW20539   1.258   6.631   5.018
 6547SOL    HW120540   1.336   6.690   4.994
 6547SOL    HW220541   1.264   6.545   4.969
 6548SOL     OW20542   1.570   1.939   5.803
 6548SOL    HW120543   1.566   1.839   5.800
 6548SOL    HW220544   1.662   1.967   5.830
 6549SOL     OW20545   3.013   1.549   3.285
 6549SOL    HW120546   2.952   1.484   3.239
 6549SOL    HW220547   2.976   1.641   3.276
 6550SOL     OW20548   5.763   6.639   2.000
 6550SOL    HW120549   5.829   6.704   1.964
 6550SOL    HW220550   5.750   6.564   1.935
 6551SOL     OW20551   2.731   5.086   1.507
 6551SOL    HW120552   2.665   5.031   1.558
 6551SOL    HW220553   2.747   5.172   1.555
 6552SOL     OW20554   2.353   3.762   6.998
 6552SOL    HW120555   2.255   3.745   7.006
 6552SOL    HW220556   2.376   3.782   6.903
 6553SOL     OW20557   0.460   1.554   3.585
 6553SOL    HW120558   0.374   1.515   3.619
 6553SOL    HW220559   0.440   1.618   3.511
 6554SOL     OW20560   1.483   1.867   4.038
 6554SOL    HW120561   1.477   1.949   4.096
 6554SOL    HW220562   1.431   1.882   3.954
 6555SOL     OW20563   1.871   3.744   2.029
 6555SOL    HW120564   1.932   3.671   2.001
 6555SOL    HW220565   1.924   3.817   2.072
 6556SOL     OW20566   4.945   3.284   3.205
 6556SOL    HW120567   4.918   3.370   3.161
 6556SOL    HW220568   4.878   3.213   3.182
 6557SOL     OW20569   2.144   6.674   2.898
 6557SOL    HW120570   2.221   6.728   2.933
 6557SOL    HW220571   2.089   6.641   2.974
 6558SOL     OW20572   5.483   5.545   0.834
 6558SOL    HW120573   5.537   5.629   0.835
 6558SOL    HW220574   5.394   5.564   0.790
 6559SOL     OW20575   0.577   1.770   6.329
 6559SOL    HW120576   0.583   1.710   6.408
 6559SOL    HW220577   0.487   1.813   6.326
 6560SOL     OW20578   6.643   4.543   6.049
 6560SOL    HW120579   6.593   4.484   5.986
 6560SOL    HW220580   6.700   4.607   5.997
 6561SOL     OW20581   2.780   5.447   0.323
 6561SOL    HW120582   2.827   5.445   0.234
 6561SOL    HW220583   2.832   5.394   0.390
 6562SOL     OW20584   4.692   2.707   1.131
 6562SOL    HW120585   4.611   2.679   1.079
 6562SOL    HW220586   4.697   2.654   1.216
 6563SOL     OW20587   6.087   5.431   5.282
 6563SOL    HW120588   6.110   5.423   5.379
 6563SOL    HW220589   6.052   5.344   5.248
 6564SOL     OW20590   5.243   4.054   2.018
 6564SOL    HW120591   5.197   4.121   2.077
 6564SOL    HW220592   5.304   3.997   2.074
 6565SOL     OW20593   5.294   5.633   2.092
 6565SOL    HW120594   5.348   5.551   2.110
 6565SOL    HW220595   5.200   5.607   2.071
 6566SOL     OW20596   5.776   5.560   3.674
 6566SOL    HW120597   5.848   5.517   3.729
 6566SOL    HW220598   5.692   5.507   3.682
 6567SOL     OW20599   3.399   0.572   2.556
 6567SOL    HW120600   3.412   0.590   2.458
 6567SOL    HW220601   3.301   0.572   2.576
 6568SOL     OW20602   4.968   1.539   0.448
 6568SOL    HW120603   4.932   1.490   0.368
 6568SOL    HW220604   4.975   1.476   0.525
 6569SOL     OW20605   1.516   4.133   3.527
 6569SOL    HW120606   1.436   4.075   3.541
 6569SOL    HW220607   1.570   4.137   3.611
 6570SOL     OW20608   4.356   0.024   2.724
 6570SOL    HW120609   4.420   0.095   2.756
 6570SOL    HW220610   4.283   0.067   2.671
 6571SOL     OW20611   3.200   6.618   3.116
 6571SOL    HW120612   3.164   6.586   3.203
 6571SOL    HW220613   3.281   6.565   3.092
 6572SOL     OW20614   1.389   6.520   3.969
 6572SOL    HW120615   1.330   6.484   4.042
 6572SOL    HW220616   1.335   6.534   3.887
 6573SOL     OW20617   1.262   2.385   3.514
 6573SOL    HW120618   1.273   2.410   3.610
 6573SOL    HW220619   1.228   2.291   3.508
 6574SOL     OW20620   0.905   4.728   1.506
 6574SOL    HW120621   0.822   4.687   1.468
 6574SOL    HW220622   0.980   4.718   1.441
 6575SOL     OW20623   6.883   1.258   4.298
 6575SOL    HW120624   6.931   1.337   4.334
 6575SOL    HW220625   6.830   1.215   4.371
 6576SOL     OW20626   3.710   0.015   2.127
 6576SOL    HW120627   3.687   0.062   2.212
 6576SOL    HW220628   3.770   6.963   2.146
 6577SOL     OW20629   3.168   0.942   5.373
 6577SOL    HW120630   3.170   0.881   5.293
 6577SOL    HW220631   3.076   0.944   5.411
 6578SOL     OW20632   0.677   5.843   0.021
 6578SOL    HW120633   0.722   5.777   6.988
 6578SOL    HW220634   0.664   5.803   0.112
 6579SOL     OW20635   1.695   1.756   3.355
 6579SOL    HW120636   1.785   1.742   3.398
 6579SOL    HW220637   1.627   1.699   3.401
 6580SOL     OW20638   3.292   2.820   0.012
 6580SOL    HW120639   3.349   2.785   6.964
 6580SOL    HW220640   3.312   2.917   0.027
 6581SOL     OW20641   0.140   2.743   2.168
 6581SOL    HW120642   0.157   2.840   2.151
 6581SOL    HW220643   0.217   2.703   2.219
 6582SOL     OW20644   3.991   0.158   3.396
 6582SOL    HW120645   3.973   0.203   3.309
 6582SOL    HW220646   3.925   0.085   3.410
 6583SOL     OW20647   2.267   3.966   1.452
 6583SOL    HW120648   2.217   3.879   1.448
 6583SOL    HW220649   2.318   3.970   1.538
 6584SOL     OW20650   4.094   3.349   6.257
 6584SOL    HW120651   4.107   3.356   6.356
 6584SOL    HW220652   4.168   3.295   6.218
 6585SOL     OW20653   5.425   6.994   1.683
 6585SOL    HW120654   5.508   6.981   1.738
 6585SOL    HW220655   5.344   6.985   1.741
 6586SOL     OW20656   6.830   1.968   0.191
 6586SOL    HW120657   6.853   1.880   0.234
 6586SOL    HW220658   6.765   2.017   0.249
 6587SOL     OW20659   2.675   5.027   5.517
 6587SOL    HW120660   2.641   4.938   5.484
 6587SOL    HW220661   2.642   5.042   5.611
 6588SOL     OW20662   1.108   1.645   0.807
 6588SOL    HW120663   1.108   1.722   0.871
 6588SOL    HW220664   1.187   1.587   0.825
 6589SOL     OW20665   5.621   0.035   0.840
 6589SOL    HW120666   5.560   7.024   0.769
 6589SOL    HW220667   5.635   6.991   0.911
 6590SOL     OW20668   1.324   6.341   4.727
 6590SOL    HW120669   1.262   6.314   4.801
 6590SOL    HW220670   1.397   6.273   4.719
 6591SOL     OW20671   6.469   3.280   3.519
 6591SOL    HW120672   6.375   3.246   3.515
 6591SOL    HW220673   6.507   3.284   3.427
 6592SOL     OW20674   0.238   0.495   4.694
 6592SOL    HW120675   0.167   0.563   4.677
 6592SOL    HW220676   0.328   0.539   4.691
 6593SOL     OW20677   0.740   0.834   3.296
 6593SOL    HW120678   0.787   0.923   3.298
 6593SOL    HW220679   0.794   0.766   3.344
 6594SOL     OW20680   5.268   0.253   6.435
 6594SOL    HW120681   5.261   0.225   6.531
 6594SOL    HW220682   5.364   0.261   6.409
 6595SOL     OW20683   1.507   1.062   5.024
 6595SOL    HW120684   1.433   1.083   4.960
 6595SOL    HW220685   1.590   1.039   4.972
 6596SOL     OW20686   5.637   0.642   2.914
 6596SOL    HW120687   5.546   0.633   2.872
 6596SOL    HW220688   5.637   0.719   2.978
 6597SOL     OW20689   1.282   5.070   1.333
 6597SOL    HW120690   1.223   5.022   1.398
 6597SOL    HW220691   1.257   5.167   1.331
 6598SOL     OW20692   1.625   5.444   1.482
 6598SOL    HW120693   1.717   5.412   1.462
 6598SOL    HW220694   1.564   5.365   1.496
 6599SOL     OW20695   0.638   6.327   6.365
 6599SOL    HW120696   0.725   6.298   6.406
 6599SOL    HW220697   0.657   6.388   6.288
 6600SOL     OW20698   4.974   6.882   4.212
 6600SOL    HW120699   4.920   6.842   4.287
 6600SOL    HW220700   4.939   6.973   4.192
 6601SOL     OW20701   1.025   2.743   2.547
 6601SOL    HW120702   1.066   2.652   2.554
 6601SOL    HW220703   1.094   2.809   2.515
 6602SOL     OW20704   5.912   6.184   0.241
 6602SOL    HW120705   5.904   6.253   0.313
 6602SOL    HW220706   5.832   6.124   0.245
 6603SOL     OW20707   0.258   4.697   2.427
 6603SOL    HW120708   0.293   4.685   2.334
 6603SOL    HW220709   0.198   4.777   2.430
 6604SOL     OW20710   1.675   5.377   2.595
 6604SOL    HW120711   1.691   5.452   2.659
 6604SOL    HW220712   1.753   5.368   2.534
 6605SOL     OW20713   0.216   5.341   0.930
 6605SOL    HW120714   0.157   5.391   0.866
 6605SOL    HW220715   0.194   5.244   0.928
 6606SOL     OW20716   1.297   4.864   2.764
 6606SOL    HW120717   1.321   4.887   2.859
 6606SOL    HW220718   1.221   4.800   2.763
 6607SOL     OW20719   6.567   3.414   4.079
 6607SOL    HW120720   6.545   3.383   3.986
 6607SOL    HW220721   6.483   3.445   4.124
 6608SOL     OW20722   1.786   1.073   5.420
 6608SOL    HW120723   1.808   0.992   5.474
 6608SOL    HW220724   1.779   1.152   5.480
 6609SOL     OW20725   2.611   2.103   6.935
 6609SOL    HW120726   2.597   2.171   7.007
 6609SOL    HW220727   2.704   2.067   6.941
 6610SOL     OW20728   3.176   5.910   0.922
 6610SOL    HW120729   3.179   5.994   0.977
 6610SOL    HW220730   3.251   5.850   0.949
 6611SOL     OW20731   3.180   1.524   4.807
 6611SOL    HW120732   3.192   1.465   4.886
 6611SOL    HW220733   3.157   1.616   4.837
 6612SOL     OW20734   6.766   0.612   0.227
 6612SOL    HW120735   6.710   0.539   0.266
 6612SOL    HW220736   6.731   0.701   0.256
 6613SOL     OW20737   4.388   0.300   1.373
 6613SOL    HW120738   4.449   0.268   1.301
 6613SOL    HW220739   4.392   0.237   1.451
 6614SOL     OW20740   4.147   4.760   0.606
 6614SOL    HW120741   4.225   4.706   0.574
 6614SOL    HW220742   4.063   4.707   0.598
 6615SOL     OW20743   3.766   5.813   5.894
 6615SOL    HW120744   3.702   5.878   5.935
 6615SOL    HW220745   3.749   5.722   5.930
 6616SOL     OW20746   4.316   2.050   5.975
 6616SOL    HW120747   4.308   1.968   6.032
 6616SOL    HW220748   4.270   2.126   6.021
 6617SOL     OW20749   3.413   1.951   4.067
 6617SOL    HW120750   3.350   1.945   3.990
 6617SOL    HW220751   3.373   2.010   4.138
 6618SOL     OW20752   6.645   2.962   3.317
 6618SOL    HW120753   6.553   2.941   3.350
 6618SOL    HW220754   6.663   2.913   3.232
 6619SOL     OW20755   4.593   5.237   4.245
 6619SOL    HW120756   4.534   5.253   4.325
 6619SOL    HW220757   4.549   5.275   4.163
 6620SOL     OW20758   1.232   2.637   3.394
 6620SOL    HW120759   1.248   2.547   3.435
 6620SOL    HW220760   1.198   2.700   3.464
 6621SOL     OW20761   3.414   3.820   3.841
 6621SOL    HW120762   3.470   3.744   3.809
 6621SOL    HW220763   3.386   3.876   3.763
 6622SOL     OW20764   0.145   4.550   1.796
 6622SOL    HW120765   0.132   4.610   1.875
 6622SOL    HW220766   0.071   4.483   1.793
 6623SOL     OW20767   3.662   3.180   3.934
 6623SOL    HW120768   3.665   3.181   4.034
 6623SOL    HW220769   3.697   3.093   3.900
 6624SOL     OW20770   2.218   2.158   2.738
 6624SOL    HW120771   2.223   2.238   2.678
 6624SOL    HW220772   2.241   2.076   2.686
 6625SOL     OW20773   0.294   4.415   5.424
 6625SOL    HW120774   0.344   4.406   5.510
 6625SOL    HW220775   0.319   4.340   5.363
 6626SOL     OW20776   3.348   6.041   5.162
 6626SOL    HW120777   3.417   6.080   5.101
 6626SOL    HW220778   3.273   6.107   5.174
 6627SOL     OW20779   2.614   6.793   4.621
 6627SOL    HW120780   2.590   6.701   4.653
 6627SOL    HW220781   2.633   6.790   4.523
 6628SOL     OW20782   4.046   6.471   3.394
 6628SOL    HW120783   4.010   6.563   3.409
 6628SOL    HW220784   4.100   6.443   3.474
 6629SOL     OW20785   4.809   6.018   5.144
 6629SOL    HW120786   4.822   6.110   5.108
 6629SOL    HW220787   4.811   6.021   5.244
 6630SOL     OW20788   2.041   6.916   0.560
 6630SOL    HW120789   2.042   6.987   0.489
 6630SOL    HW220790   2.070   6.956   0.647
 6631SOL     OW20791   1.665   1.603   6.132
 6631SOL    HW120792   1.588   1.664   6.153
 6631SOL    HW220793   1.698   1.561   6.217
 6632SOL     OW20794   1.350   0.467   6.314
 6632SOL    HW120795   1.270   0.454   6.256
 6632SOL    HW220796   1.322   0.504   6.402
 6633SOL     OW20797   4.681   6.525   6.108
 6633SOL    HW120798   4.598   6.483   6.070
 6633SOL    HW220799   4.691   6.617   6.071
 6634SOL     OW20800   2.874   2.250   4.091
 6634SOL    HW120801   2.937   2.222   4.164
 6634SOL    HW220802   2.782   2.260   4.129
 6635SOL     OW20803   5.029   5.286   6.024
 6635SOL    HW120804   5.023   5.201   6.077
 6635SOL    HW220805   5.120   5.294   5.984
 6636SOL     OW20806   4.350   1.821   1.172
 6636SOL    HW120807   4.275   1.758   1.149
 6636SOL    HW220808   4.362   1.887   1.097
 6637SOL     OW20809   0.615   3.083   6.676
 6637SOL    HW120810   0.578   3.073   6.768
 6637SOL    HW220811   0.614   3.179   6.648
 6638SOL     OW20812   2.979   3.907   4.147
 6638SOL    HW120813   3.018   3.887   4.057
 6638SOL    HW220814   2.925   3.829   4.178
 6639SOL     OW20815   4.994   3.200   1.615
 6639SOL    HW120816   4.963   3.154   1.532
 6639SOL    HW220817   5.017   3.295   1.594
 6640SOL     OW20818   0.873   3.256   4.519
 6640SOL    HW120819   0.956   3.309   4.506
 6640SOL    HW220820   0.802   3.314   4.559
 6641SOL     OW20821   5.314   2.575   6.978
 6641SOL    HW120822   5.284   2.665   7.007
 6641SOL    HW220823   5.295   2.508   0.025
 6642SOL     OW20824   1.186   5.002   6.034
 6642SOL    HW120825   1.183   5.058   5.951
 6642SOL    HW220826   1.107   4.941   6.036
 6643SOL     OW20827   4.643   5.437   5.881
 6643SOL    HW120828   4.690   5.491   5.951
 6643SOL    HW220829   4.710   5.382   5.831
 6644SOL     OW20830   1.811   0.063   3.428
 6644SOL    HW120831   1.833   0.014   3.343
 6644SOL    HW220832   1.894   0.074   3.482
 6645SOL     OW20833   4.654   2.626   5.285
 6645SOL    HW120834   4.666   2.706   5.226
 6645SOL    HW220835   4.693   2.545   5.240
 6646SOL     OW20836   5.156   6.977   5.774
 6646SOL    HW120837   5.205   0.036   5.751
 6646SOL    HW220838   5.210   6.898   5.745
 6647SOL     OW20839   3.779   4.699   0.857
 6647SOL    HW120840   3.703   4.732   0.801
 6647SOL    HW220841   3.863   4.698   0.803
 6648SOL     OW20842   3.369   5.519   5.224
 6648SOL    HW120843   3.305   5.447   5.250
 6648SOL    HW220844   3.462   5.483   5.225
 6649SOL     OW20845   5.577   3.055   5.589
 6649SOL    HW120846   5.644   3.029   5.519
 6649SOL    HW220847   5.565   3.154   5.589
 6650SOL     OW20848   3.023   0.928   4.728
 6650SOL    HW120849   3.061   0.977   4.650
 6650SOL    HW220850   3.097   0.893   4.786
 6651SOL     OW20851   6.628   1.041   3.723
 6651SOL    HW120852   6.638   0.985   3.641
 6651SOL    HW220853   6.710   1.034   3.778
 6652SOL     OW20854   0.087   5.358   6.979
 6652SOL    HW120855   0.116   5.345   0.048
 6652SOL    HW220856   7.013   5.365   6.975
 6653SOL     OW20857   5.594   3.820   6.704
 6653SOL    HW120858   5.674   3.792   6.651
 6653SOL    HW220859   5.594   3.919   6.716
 6654SOL     OW20860   7.025   1.839   3.532
 6654SOL    HW120861   6.972   1.883   3.459
 6654SOL    HW220862   6.974   1.843   3.617
 6655SOL     OW20863   0.364   5.368   1.387
 6655SOL    HW120864   0.397   5.442   1.329
 6655SOL    HW220865   0.276   5.392   1.427
 6656SOL     OW20866   5.160   0.634   2.349
 6656SOL    HW120867   5.176   0.732   2.357
 6656SOL    HW220868   5.141   0.596   2.440
 6657SOL     OW20869   4.830   2.156   4.283
 6657SOL    HW120870   4.760   2.223   4.306
 6657SOL    HW220871   4.900   2.155   4.355
 6658SOL     OW20872   6.592   5.884   4.863
 6658SOL    HW120873   6.654   5.848   4.794
 6658SOL    HW220874   6.571   5.979   4.843
 6659SOL     OW20875   0.803   6.779   0.669
 6659SOL    HW120876   0.716   6.760   0.715
 6659SOL    HW220877   0.850   6.694   0.650
 6660SOL     OW20878   1.059   0.461   3.979
 6660SOL    HW120879   1.102   0.371   3.976
 6660SOL    HW220880   0.982   0.459   4.044
 6661SOL     OW20881   3.725   6.331   3.487
 6661SOL    HW120882   3.776   6.343   3.401
 6661SOL    HW220883   3.785   6.291   3.556
 6662SOL     OW20884   3.251   0.001   2.139
 6662SOL    HW120885   3.323   0.014   2.070
 6662SOL    HW220886   3.250   0.080   2.200
 6663SOL     OW20887   1.570   3.845   5.190
 6663SOL    HW120888   1.626   3.820   5.270
 6663SOL    HW220889   1.602   3.932   5.154
 6664SOL     OW20890   2.903   0.125   1.755
 6664SOL    HW120891   2.951   0.158   1.673
 6664SOL    HW220892   2.827   0.186   1.775
 6665SOL     OW20893   2.536   0.247   6.691
 6665SOL    HW120894   2.502   0.285   6.605
 6665SOL    HW220895   2.607   0.179   6.673
 6666SOL     OW20896   3.102   6.186   6.264
 6666SOL    HW120897   3.105   6.143   6.354
 6666SOL    HW220898   3.182   6.244   6.252
 6667SOL     OW20899   1.984   5.683   0.295
 6667SOL    HW120900   2.066   5.693   0.352
 6667SOL    HW220901   1.983   5.593   0.253
 6668SOL     OW20902   0.640   3.569   5.973
 6668SOL    HW120903   0.675   3.512   5.899
 6668SOL    HW220904   0.597   3.511   6.043
 6669SOL     OW20905   0.924   3.419   3.696
 6669SOL    HW120906   0.854   3.394   3.763
 6669SOL    HW220907   0.914   3.359   3.616
 6670SOL     OW20908   2.191   4.035   0.791
 6670SOL    HW120909   2.269   4.025   0.853
 6670SOL    HW220910   2.219   4.013   0.698
 6671SOL     OW20911   4.375   5.057   0.409
 6671SOL    HW120912   4.276   5.060   0.422
 6671SOL    HW220913   4.413   4.983   0.463
 6672SOL     OW20914   2.003   2.396   1.081
 6672SOL    HW120915   2.065   2.442   1.017
 6672SOL    HW220916   2.057   2.351   1.153
 6673SOL     OW20917   5.597   3.712   4.506
 6673SOL    HW120918   5.568   3.688   4.599
 6673SOL    HW220919   5.553   3.798   4.479
 6674SOL     OW20920   6.886   1.097   0.156
 6674SOL    HW120921   6.842   1.072   0.242
 6674SOL    HW220922   6.962   1.159   0.175
 6675SOL     OW20923   5.022   1.512   0.138
 6675SOL    HW120924   4.965   1.429   0.142
 6675SOL    HW220925   5.111   1.493   0.180
 6676SOL     OW20926   1.080   3.684   5.385
 6676SOL    HW120927   1.180   3.695   5.391
 6676SOL    HW220928   1.037   3.775   5.382
 6677SOL     OW20929   0.469   2.474   6.718
 6677SOL    HW120930   0.374   2.451   6.696
 6677SOL    HW220931   0.504   2.410   6.787
 6678SOL     OW20932   2.872   3.827   6.418
 6678SOL    HW120933   2.812   3.749   6.437
 6678SOL    HW220934   2.821   3.898   6.370
 6679SOL     OW20935   1.569   0.353   4.309
 6679SOL    HW120936   1.608   0.342   4.218
 6679SOL    HW220937   1.497   0.423   4.307
 6680SOL     OW20938   6.493   5.882   2.192
 6680SOL    HW120939   6.476   5.938   2.273
 6680SOL    HW220940   6.430   5.804   2.191
 6681SOL     OW20941   3.307   5.461   0.918
 6681SOL    HW120942   3.227   5.446   0.861
 6681SOL    HW220943   3.324   5.379   0.973
 6682SOL     OW20944   2.528   4.879   6.305
 6682SOL    HW120945   2.530   4.924   6.395
 6682SOL    HW220946   2.550   4.946   6.234
 6683SOL     OW20947   6.943   6.131   6.354
 6683SOL    HW120948   6.948   6.231   6.346
 6683SOL    HW220949   6.891   6.106   6.436
 6684SOL     OW20950   3.151   6.773   6.062
 6684SOL    HW120951   3.107   6.736   5.980
 6684SOL    HW220952   3.082   6.816   6.120
 6685SOL     OW20953   3.683   2.708   0.762
 6685SOL    HW120954   3.626   2.626   0.776
 6685SOL    HW220955   3.632   2.789   0.792
 6686SOL     OW20956   4.587   4.245   5.215
 6686SOL    HW120957   4.517   4.313   5.193
 6686SOL    HW220958   4.543   4.157   5.232
 6687SOL     OW20959   7.002   2.501   0.850
 6687SOL    HW120960   6.937   2.435   0.813
 6687SOL    HW220961   0.058   2.504   0.792
 6688SOL     OW20962   5.714   5.365   0.738
 6688SOL    HW120963   5.635   5.426   0.738
 6688SOL    HW220964   5.705   5.299   0.664
 6689SOL     OW20965   3.640   5.001   6.008
 6689SOL    HW120966   3.562   5.022   6.066
 6689SOL    HW220967   3.722   5.045   6.044
 6690SOL     OW20968   1.187   0.461   0.233
 6690SOL    HW120969   1.258   0.398   0.262
 6690SOL    HW220970   1.213   0.554   0.259
 6691SOL     OW20971   2.158   1.707   1.863
 6691SOL    HW120972   2.136   1.664   1.775
 6691SOL    HW220973   2.161   1.637   1.934
 6692SOL     OW20974   4.180   6.751   1.993
 6692SOL    HW120975   4.196   6.684   2.066
 6692SOL    HW220976   4.114   6.819   2.024
 6693SOL     OW20977   2.708   1.082   6.202
 6693SOL    HW120978   2.709   1.014   6.129
 6693SOL    HW220979   2.727   1.173   6.164
 6694SOL     OW20980   4.389   4.202   1.615
 6694SOL    HW120981   4.385   4.215   1.714
 6694SOL    HW220982   4.416   4.288   1.570
 6695SOL     OW20983   3.040   2.415   6.887
 6695SOL    HW120984   2.968   2.463   6.937
 6695SOL    HW220985   3.001   2.367   6.808
 6696SOL     OW20986   3.685   2.642   5.397
 6696SOL    HW120987   3.761   2.589   5.435
 6696SOL    HW220988   3.606   2.583   5.383
 6697SOL     OW20989   5.101   1.930   2.667
 6697SOL    HW120990   5.137   2.020   2.690
 6697SOL    HW220991   5.165   1.882   2.607
 6698SOL     OW20992   2.790   3.713   1.781
 6698SOL    HW120993   2.800   3.633   1.839
 6698SOL    HW220994   2.873   3.769   1.787
 6699SOL     OW20995   2.128   3.399   6.434
 6699SOL    HW120996   2.095   3.329   6.498
 6699SOL    HW220997   2.162   3.478   6.485
 6700SOL     OW20998   4.722   0.786   1.489
 6700SOL    HW120999   4.704   0.877   1.452
 6700SOL    HW221000   4.649   0.723   1.461
 6701SOL     OW21001   5.870   6.764   1.734
 6701SOL    HW121002   5.833   6.673   1.714
 6701SOL    HW221003   5.932   6.758   1.813
 6702SOL     OW21004   4.809   2.385   1.279
 6702SOL    HW121005   4.727   2.348   1.237
 6702SOL    HW221006   4.798   2.386   1.378
 6703SOL     OW21007   0.433   1.495   0.476
 6703SOL    HW121008   0.473   1.408   0.448
 6703SOL    HW221009   0.418   1.552   0.395
 6704SOL     OW21010   2.610   6.821   6.100
 6704SOL    HW121011   2.552   6.766   6.040
 6704SOL    HW221012   2.571   6.912   6.109
 6705SOL     OW21013   0.493   4.362   2.369
 6705SOL    HW121014   0.555   4.286   2.349
 6705SOL    HW221015   0.458   4.400   2.283
 6706SOL     OW21016   0.544   6.190   0.481
 6706SOL    HW121017   0.456   6.162   0.520
 6706SOL    HW221018   0.596   6.241   0.550
 6707SOL     OW21019   4.810   1.287   2.808
 6707SOL    HW121020   4.868   1.223   2.757
 6707SOL    HW221021   4.805   1.259   2.904
 6708SOL     OW21022   0.528   3.392   0.718
 6708SOL    HW121023   0.487   3.308   0.753
 6708SOL    HW221024   0.590   3.430   0.786
 6709SOL     OW21025   1.790   4.245   2.172
 6709SOL    HW121026   1.750   4.229   2.082
 6709SOL    HW221027   1.728   4.212   2.243
 6710SOL     OW21028   4.580   1.863   1.642
 6710SOL    HW121029   4.540   1.822   1.560
 6710SOL    HW221030   4.520   1.935   1.676
 6711SOL     OW21031   4.339   5.335   6.084
 6711SOL    HW121032   4.309   5.359   6.177
 6711SOL    HW221033   4.343   5.418   6.029
 6712SOL     OW21034   5.318   3.774   1.097
 6712SOL    HW121035   5.410   3.758   1.060
 6712SOL    HW221036   5.301   3.872   1.104
 6713SOL     OW21037   1.929   4.507   4.001
 6713SOL    HW121038   1.967   4.540   3.914
 6713SOL    HW221039   1.835   4.477   3.986
 6714SOL     OW21040   6.053   1.114   2.173
 6714SOL    HW121041   5.996   1.032   2.171
 6714SOL    HW221042   6.060   1.147   2.268
 6715SOL     OW21043   1.284   0.264   5.974
 6715SOL    HW121044   1.203   0.205   5.984
 6715SOL    HW221045   1.365   0.206   5.959
 6716SOL     OW21046   1.228   4.611   1.800
 6716SOL    HW121047   1.167   4.567   1.865
 6716SOL    HW221048   1.320   4.575   1.810
 6717SOL     OW21049   6.183   2.547   5.456
 6717SOL    HW121050   6.275   2.582   5.438
 6717SOL    HW221051   6.184   2.447   5.448
 6718SOL     OW21052   4.582   2.473   0.705
 6718SOL    HW121053   4.654   2.541   0.694
 6718SOL    HW221054   4.556   2.436   0.616
 6719SOL     OW21055   1.403   1.110   0.338
 6719SOL    HW121056   1.383   1.014   0.317
 6719SOL    HW221057   1.453   1.151   0.262
 6720SOL     OW21058   1.641   1.734   4.896
 6720SOL    HW121059   1.570   1.680   4.942
 6720SOL    HW221060   1.684   1.679   4.825
 6721SOL     OW21061   6.179   6.926   0.258
 6721SOL    HW121062   6.139   7.008   0.297
 6721SOL    HW221063   6.142   6.845   0.303
 6722SOL     OW21064   6.067   4.185   1.469
 6722SOL    HW121065   6.142   4.202   1.534
 6722SOL    HW221066   5.984   4.231   1.502
 6723SOL     OW21067   1.653   3.040   4.640
 6723SOL    HW121068   1.715   3.105   4.683
 6723SOL    HW221069   1.703   2.984   4.574
 6724SOL     OW21070   1.862   3.061   5.221
 6724SOL    HW121071   1.935   3.082   5.155
 6724SOL    HW221072   1.875   3.118   5.303
 6725SOL     OW21073   4.589   2.656   3.490
 6725SOL    HW121074   4.671   2.599   3.492
 6725SOL    HW221075   4.600   2.733   3.553
 6726SOL     OW21076   6.744   1.481   0.354
 6726SOL    HW121077   6.644   1.480   0.360
 6726SOL    HW221078   6.773   1.443   0.266
 6727SOL     OW21079   0.778   5.343   5.733
 6727SOL    HW121080   0.691   5.326   5.780
 6727SOL    HW221081   0.814   5.432   5.760
 6728SOL     OW21082   3.702   1.579   5.264
 6728SOL    HW121083   3.661   1.648   5.324
 6728SOL    HW221084   3.643   1.499   5.260
 6729SOL     OW21085   4.641   1.004   2.862
 6729SOL    HW121086   4.567   1.036   2.802
 6729SOL    HW221087   4.727   1.006   2.812
 6730SOL     OW21088   0.413   1.902   1.425
 6730SOL    HW121089   0.415   1.991   1.473
 6730SOL    HW221090   0.501   1.888   1.379
 6731SOL     OW21091   3.760   0.525   6.451
 6731SOL    HW121092   3.778   0.515   6.549
 6731SOL    HW221093   3.836   0.575   6.408
 6732SOL     OW21094   6.166   5.439   5.545
 6732SOL    HW121095   6.261   5.406   5.545
 6732SOL    HW221096   6.116   5.395   5.620
 6733SOL     OW21097   5.107   4.870   5.308
 6733SOL    HW121098   5.121   4.898   5.213
 6733SOL    HW221099   5.194   4.841   5.348
 6734SOL     OW21100   5.593   2.237   5.566
 6734SOL    HW121101   5.527   2.166   5.542
 6734SOL    HW221102   5.595   2.306   5.494
 6735SOL     OW21103   5.727   3.152   4.329
 6735SOL    HW121104   5.754   3.207   4.408
 6735SOL    HW221105   5.664   3.205   4.272
 6736SOL     OW21106   3.824   3.831   0.712
 6736SOL    HW121107   3.833   3.732   0.717
 6736SOL    HW221108   3.904   3.870   0.666
 6737SOL     OW21109   6.016   3.828   0.984
 6737SOL    HW121110   5.992   3.893   1.055
 6737SOL    HW221111   6.014   3.872   0.895
 6738SOL     OW21112   2.077   6.736   4.274
 6738SOL    HW121113   2.115   6.803   4.210
 6738SOL    HW221114   2.073   6.647   4.229
 6739SOL     OW21115   0.310   0.533   5.756
 6739SOL    HW121116   0.276   0.591   5.682
 6739SOL    HW221117   0.394   0.572   5.794
 6740SOL     OW21118   0.768   6.558   2.031
 6740SOL    HW121119   0.767   6.652   2.066
 6740SOL    HW221120   0.853   6.514   2.061
 6741SOL     OW21121   2.982   2.271   0.558
 6741SOL    HW121122   2.909   2.318   0.509
 6741SOL    HW221123   2.950   2.182   0.590
 6742SOL     OW21124   6.422   4.658   2.457
 6742SOL    HW121125   6.513   4.650   2.416
 6742SOL    HW221126   6.411   4.749   2.496
 6743SOL     OW21127   3.878   4.004   6.905
 6743SOL    HW121128   3.871   4.097   6.869
 6743SOL    HW221129   3.877   3.938   6.830
 6744SOL     OW21130   6.578   6.718   6.113
 6744SOL    HW121131   6.664   6.717   6.062
 6744SOL    HW221132   6.553   6.624   6.138
 6745SOL     OW21133   5.755   3.751   5.656
 6745SOL    HW121134   5.729   3.763   5.751
 6745SOL    HW221135   5.854   3.766   5.646
 6746SOL     OW21136   1.423   2.019   3.202
 6746SOL    HW121137   1.428   2.096   3.266
 6746SOL    HW221138   1.367   2.044   3.124
 6747SOL     OW21139   1.283   5.885   5.268
 6747SOL    HW121140   1.324   5.970   5.301
 6747SOL    HW221141   1.185   5.885   5.288
 6748SOL     OW21142   1.434   1.980   4.481
 6748SOL    HW121143   1.346   1.995   4.526
 6748SOL    HW221144   1.432   2.022   4.390
 6749SOL     OW21145   4.061   4.815   2.267
 6749SOL    HW121146   4.015   4.790   2.352
 6749SOL    HW221147   3.996   4.811   2.191
 6750SOL     OW21148   3.868   0.459   6.018
 6750SOL    HW121149   3.846   0.392   6.088
 6750SOL    HW221150   3.865   0.551   6.058
 6751SOL     OW21151   4.014   0.934   4.465
 6751SOL    HW121152   3.995   1.001   4.393
 6751SOL    HW221153   3.957   0.952   4.544
 6752SOL     OW21154   1.909   4.662   3.158
 6752SOL    HW121155   1.873   4.742   3.110
 6752SOL    HW221156   2.003   4.646   3.130
 6753SOL     OW21157   3.501   4.293   0.472
 6753SOL    HW121158   3.480   4.305   0.375
 6753SOL    HW221159   3.463   4.369   0.525
 6754SOL     OW21160   6.315   0.963   0.603
 6754SOL    HW121161   6.332   1.004   0.692
 6754SOL    HW221162   6.399   0.920   0.569
 6755SOL     OW21163   4.054   5.885   5.531
 6755SOL    HW121164   4.086   5.796   5.563
 6755SOL    HW221165   4.099   5.907   5.444
 6756SOL     OW21166   4.144   3.263   6.526
 6756SOL    HW121167   4.218   3.196   6.535
 6756SOL    HW221168   4.057   3.216   6.517
 6757SOL     OW21169   4.400   6.990   2.092
 6757SOL    HW121170   4.364   6.956   2.179
 6757SOL    HW221171   4.325   7.017   2.032
 6758SOL     OW21172   4.840   3.070   3.064
 6758SOL    HW121173   4.813   2.982   3.026
 6758SOL    HW221174   4.859   3.134   2.990
 6759SOL     OW21175   1.526   2.561   2.105
 6759SOL    HW121176   1.529   2.532   2.009
 6759SOL    HW221177   1.475   2.494   2.158
 6760SOL     OW21178   5.547   1.792   5.687
 6760SOL    HW121179   5.503   1.825   5.770
 6760SOL    HW221180   5.622   1.730   5.712
 6761SOL     OW21181   2.847   0.542   4.910
 6761SOL    HW121182   2.830   0.640   4.915
 6761SOL    HW221183   2.853   0.505   5.003
 6762SOL     OW21184   5.486   4.991   4.413
 6762SOL    HW121185   5.585   4.983   4.401
 6762SOL    HW221186   5.457   4.930   4.487
 6763SOL     OW21187   5.636   6.462   4.167
 6763SOL    HW121188   5.663   6.541   4.112
 6763SOL    HW221189   5.539   6.443   4.154
 6764SOL     OW21190   1.067   4.806   1.714
 6764SOL    HW121191   1.009   4.768   1.642
 6764SOL    HW221192   1.135   4.738   1.742
 6765SOL     OW21193   6.856   4.019   3.068
 6765SOL    HW121194   6.839   4.088   3.138
 6765SOL    HW221195   6.949   4.030   3.031
 6766SOL     OW21196   6.040   7.024   1.753
 6766SOL    HW121197   6.118   7.003   1.812
 6766SOL    HW221198   6.053   6.979   1.664
 6767SOL     OW21199   3.179   0.520   1.199
 6767SOL    HW121200   3.261   0.526   1.256
 6767SOL    HW221201   3.114   0.590   1.227
 6768SOL     OW21202   2.084   6.982   6.621
 6768SOL    HW121203   2.130   6.894   6.611
 6768SOL    HW221204   2.003   6.971   6.678
 6769SOL     OW21205   5.150   3.201   1.244
 6769SOL    HW121206   5.145   3.111   1.202
 6769SOL    HW221207   5.099   3.267   1.189
 6770SOL     OW21208   0.406   1.399   1.981
 6770SOL    HW121209   0.445   1.329   2.041
 6770SOL    HW221210   0.349   1.355   1.911
 6771SOL     OW21211   4.807   1.262   3.691
 6771SOL    HW121212   4.904   1.278   3.676
 6771SOL    HW221213   4.795   1.208   3.774
 6772SOL     OW21214   3.462   1.441   4.892
 6772SOL    HW121215   3.520   1.517   4.920
 6772SOL    HW221216   3.382   1.477   4.843
 6773SOL     OW21217   0.449   3.524   1.624
 6773SOL    HW121218   0.541   3.527   1.664
 6773SOL    HW221219   0.384   3.491   1.692
 6774SOL     OW21220   1.271   2.078   6.428
 6774SOL    HW121221   1.233   1.998   6.382
 6774SOL    HW221222   1.288   2.150   6.361
 6775SOL     OW21223   0.349   3.702   0.391
 6775SOL    HW121224   0.345   3.621   0.450
 6775SOL    HW221225   0.421   3.763   0.424
 6776SOL     OW21226   6.059   6.268   6.681
 6776SOL    HW121227   6.071   6.338   6.611
 6776SOL    HW221228   6.136   6.270   6.744
 6777SOL     OW21229   4.539   4.914   6.848
 6777SOL    HW121230   4.611   4.984   6.853
 6777SOL    HW221231   4.581   4.823   6.849
 6778SOL     OW21232   6.269   5.709   3.189
 6778SOL    HW121233   6.306   5.626   3.148
 6778SOL    HW221234   6.188   5.686   3.243
 6779SOL     OW21235   5.811   3.692   6.570
 6779SOL    HW121236   5.780   3.613   6.622
 6779SOL    HW221237   5.888   3.735   6.616
 6780SOL     OW21238   0.908   3.153   1.352
 6780SOL    HW121239   0.887   3.151   1.255
 6780SOL    HW221240   0.999   3.192   1.366
 6781SOL     OW21241   5.050   4.935   5.810
 6781SOL    HW121242   5.073   5.032   5.806
 6781SOL    HW221243   4.955   4.925   5.838
 6782SOL     OW21244   6.088   1.383   3.297
 6782SOL    HW121245   6.100   1.298   3.349
 6782SOL    HW221246   6.104   1.461   3.358
 6783SOL     OW21247   1.373   5.717   6.467
 6783SOL    HW121248   1.353   5.718   6.369
 6783SOL    HW221249   1.451   5.656   6.484
 6784SOL     OW21250   3.817   3.684   0.113
 6784SOL    HW121251   3.769   3.612   0.163
 6784SOL    HW221252   3.750   3.742   0.065
 6785SOL     OW21253   5.622   5.527   2.163
 6785SOL    HW121254   5.536   5.478   2.154
 6785SOL    HW221255   5.682   5.478   2.227
 6786SOL     OW21256   1.760   3.442   5.335
 6786SOL    HW121257   1.794   3.526   5.292
 6786SOL    HW221258   1.684   3.406   5.281
 6787SOL     OW21259   1.104   3.707   1.547
 6787SOL    HW121260   1.182   3.753   1.504
 6787SOL    HW221261   1.134   3.665   1.632
 6788SOL     OW21262   2.745   3.731   1.248
 6788SOL    HW121263   2.774   3.674   1.325
 6788SOL    HW221264   2.815   3.729   1.177
 6789SOL     OW21265   1.477   4.664   3.435
 6789SOL    HW121266   1.440   4.713   3.356
 6789SOL    HW221267   1.577   4.670   3.436
 6790SOL     OW21268   1.457   2.837   0.831
 6790SOL    HW121269   1.478   2.754   0.883
 6790SOL    HW221270   1.474   2.821   0.734
 6791SOL     OW21271   3.834   3.939   6.073
 6791SOL    HW121272   3.766   3.865   6.067
 6791SOL    HW221273   3.881   3.949   5.985
 6792SOL     OW21274   0.432   5.022   0.896
 6792SOL    HW121275   0.448   5.102   0.953
 6792SOL    HW221276   0.459   4.939   0.946
 6793SOL     OW21277   5.304   1.470   1.061
 6793SOL    HW121278   5.215   1.465   1.106
 6793SOL    HW221279   5.365   1.400   1.099
 6794SOL     OW21280   3.617   1.227   4.435
 6794SOL    HW121281   3.693   1.219   4.500
 6794SOL    HW221282   3.578   1.137   4.417
 6795SOL     OW21283   3.609   6.107   0.029
 6795SOL    HW121284   3.613   6.204   0.005
 6795SOL    HW221285   3.638   6.095   0.124
 6796SOL     OW21286   4.290   1.776   2.199
 6796SOL    HW121287   4.327   1.868   2.193
 6796SOL    HW221288   4.192   1.781   2.221
 6797SOL     OW21289   6.529   2.292   2.582
 6797SOL    HW121290   6.480   2.353   2.520
 6797SOL    HW221291   6.462   2.238   2.635
 6798SOL     OW21292   6.612   6.934   2.425
 6798SOL    HW121293   6.635   0.006   2.430
 6798SOL    HW221294   6.696   6.880   2.422
 6799SOL     OW21295   5.640   5.956   1.814
 6799SOL    HW121296   5.619   5.887   1.745
 6799SOL    HW221297   5.597   6.042   1.789
 6800SOL     OW21298   3.328   4.148   6.583
 6800SOL    HW121299   3.336   4.060   6.536
 6800SOL    HW221300   3.351   4.222   6.519
 6801SOL     OW21301   0.773   3.098   3.128
 6801SOL    HW121302   0.824   3.052   3.055
 6801SOL    HW221303   0.836   3.155   3.182
 6802SOL     OW21304   2.975   4.893   2.442
 6802SOL    HW121305   2.970   4.838   2.358
 6802SOL    HW221306   3.009   4.984   2.420
 6803SOL     OW21307   4.124   2.045   0.804
 6803SOL    HW121308   4.047   2.077   0.860
 6803SOL    HW221309   4.187   2.120   0.788
 6804SOL     OW21310   1.084   6.423   3.498
 6804SOL    HW121311   1.086   6.357   3.573
 6804SOL    HW221312   1.112   6.378   3.413
 6805SOL     OW21313   5.664   1.028   5.442
 6805SOL    HW121314   5.636   0.938   5.411
 6805SOL    HW221315   5.764   1.032   5.448
 6806SOL     OW21316   5.385   6.204   4.741
 6806SOL    HW121317   5.421   6.292   4.710
 6806SOL    HW221318   5.307   6.178   4.684
 6807SOL     OW21319   3.560   3.508   7.006
 6807SOL    HW121320   3.552   3.463   0.070
 6807SOL    HW221321   3.572   3.606   7.020
 6808SOL     OW21322   2.205   3.922   4.100
 6808SOL    HW121323   2.163   3.864   4.170
 6808SOL    HW221324   2.171   4.016   4.110
 6809SOL     OW21325   1.750   4.019   0.034
 6809SOL    HW121326   1.701   4.050   6.977
 6809SOL    HW221327   1.684   3.978   0.098
 6810SOL     OW21328   5.643   1.354   3.750
 6810SOL    HW121329   5.706   1.395   3.816
 6810SOL    HW221330   5.588   1.284   3.796
 6811SOL     OW21331   5.096   5.919   1.957
 6811SOL    HW121332   5.092   5.822   1.983
 6811SOL    HW221333   5.086   5.975   2.039
 6812SOL     OW21334   3.552   2.873   2.766
 6812SOL    HW121335   3.528   2.844   2.673
 6812SOL    HW221336   3.475   2.859   2.827
 6813SOL     OW21337   5.068   3.697   1.308
 6813SOL    HW121338   4.980   3.715   1.264
 6813SOL    HW221339   5.079   3.757   1.387
 6814SOL     OW21340   2.192   2.736   0.515
 6814SOL    HW121341   2.102   2.742   0.559
 6814SOL    HW221342   2.261   2.776   0.575
 6815SOL     OW21343   1.506   0.331   0.575
 6815SOL    HW121344   1.514   0.388   0.493
 6815SOL    HW221345   1.539   0.382   0.655
 6816SOL     OW21346   5.288   4.593   1.545
 6816SOL    HW121347   5.260   4.500   1.569
 6816SOL    HW221348   5.257   4.615   1.453
 6817SOL     OW21349   0.531   2.715   5.897
 6817SOL    HW121350   0.566   2.654   5.968
 6817SOL    HW221351   0.605   2.745   5.838
 6818SOL     OW21352   3.881   5.380   1.393
 6818SOL    HW121353   3.903   5.385   1.490
 6818SOL    HW221354   3.798   5.326   1.380
 6819SOL     OW21355   2.365   1.854   4.050
 6819SOL    HW121356   2.369   1.925   3.980
 6819SOL    HW221357   2.272   1.851   4.088
 6820SOL     OW21358   1.560   5.061   4.596
 6820SOL    HW121359   1.527   4.989   4.657
 6820SOL    HW221360   1.653   5.040   4.567
 6821SOL     OW21361   2.166   3.121   3.987
 6821SOL    HW121362   2.218   3.039   4.011
 6821SOL    HW221363   2.164   3.183   4.065
 6822SOL     OW21364   5.072   1.493   5.959
 6822SOL    HW121365   5.116   1.579   5.933
 6822SOL    HW221366   5.008   1.465   5.888
 6823SOL     OW21367   4.080   3.654   2.113
 6823SOL    HW121368   3.992   3.607   2.121
 6823SOL    HW221369   4.149   3.591   2.078
 6824SOL     OW21370   0.706   5.386   5.078
 6824SOL    HW121371   0.685   5.470   5.128
 6824SOL    HW221372   0.642   5.377   5.001
 6825SOL     OW21373   5.631   0.263   3.805
 6825SOL    HW121374   5.594   0.299   3.719
 6825SOL    HW221375   5.729   0.247   3.794
 6826SOL     OW21376   1.323   3.049   2.854
 6826SOL    HW121377   1.349   3.079   2.762
 6826SOL    HW221378   1.236   3.092   2.880
 6827SOL     OW21379   4.708   5.330   5.190
 6827SOL    HW121380   4.669   5.268   5.258
 6827SOL    HW221381   4.803   5.351   5.214
 6828SOL     OW21382   2.364   1.706   1.098
 6828SOL    HW121383   2.437   1.704   1.030
 6828SOL    HW221384   2.279   1.673   1.057
 6829SOL     OW21385   5.607   4.634   3.782
 6829SOL    HW121386   5.545   4.689   3.839
 6829SOL    HW221387   5.572   4.632   3.688
 6830SOL     OW21388   5.187   1.762   4.071
 6830SOL    HW121389   5.230   1.675   4.045
 6830SOL    HW221390   5.092   1.746   4.098
 6831SOL     OW21391   0.253   1.498   5.833
 6831SOL    HW121392   0.195   1.431   5.787
 6831SOL    HW221393   0.215   1.519   5.923
 6832SOL     OW21394   3.584   4.555   1.237
 6832SOL    HW121395   3.581   4.600   1.327
 6832SOL    HW221396   3.492   4.555   1.197
 6833SOL     OW21397   4.530   5.890   0.334
 6833SOL    HW121398   4.502   5.941   0.253
 6833SOL    HW221399   4.493   5.934   0.415
 6834SOL     OW21400   3.157   5.196   2.756
 6834SOL    HW121401   3.220   5.119   2.741
 6834SOL    HW221402   3.079   5.164   2.810
 6835SOL     OW21403   3.802   0.298   4.832
 6835SOL    HW121404   3.740   0.278   4.755
 6835SOL    HW221405   3.823   0.396   4.834
 6836SOL     OW21406   4.220   5.525   0.104
 6836SOL    HW121407   4.149   5.530   0.174
 6836SOL    HW221408   4.178   5.503   0.016
 6837SOL     OW21409   0.708   2.853   3.223
 6837SOL    HW121410   0.757   2.784   3.277
 6837SOL    HW221411   0.763   2.936   3.217
 6838SOL     OW21412   2.700   1.697   1.143
 6838SOL    HW121413   2.727   1.716   1.237
 6838SOL    HW221414   2.728   1.772   1.084
 6839SOL     OW21415   4.342   1.169   1.798
 6839SOL    HW121416   4.413   1.147   1.864
 6839SOL    HW221417   4.272   1.097   1.799
 6840SOL     OW21418   1.088   1.137   6.250
 6840SOL    HW121419   1.103   1.136   6.151
 6840SOL    HW221420   1.065   1.045   6.281
 6841SOL     OW21421   0.498   3.046   5.748
 6841SOL    HW121422   0.510   2.993   5.664
 6841SOL    HW221423   0.420   3.010   5.799
 6842SOL     OW21424   2.575   4.664   2.530
 6842SOL    HW121425   2.658   4.690   2.580
 6842SOL    HW221426   2.564   4.724   2.451
 6843SOL     OW21427   4.308   0.443   1.592
 6843SOL    HW121428   4.317   0.361   1.649
 6843SOL    HW221429   4.366   0.434   1.511
 6844SOL     OW21430   5.757   0.260   5.119
 6844SOL    HW121431   5.806   0.173   5.127
 6844SOL    HW221432   5.821   0.332   5.095
 6845SOL     OW21433   5.590   1.768   2.730
 6845SOL    HW121434   5.506   1.714   2.740
 6845SOL    HW221435   5.573   1.847   2.672
 6846SOL     OW21436   1.940   3.495   0.155
 6846SOL    HW121437   1.993   3.464   0.234
 6846SOL    HW221438   1.895   3.417   0.112
 6847SOL     OW21439   6.974   2.206   4.480
 6847SOL    HW121440   6.877   2.228   4.469
 6847SOL    HW221441   7.015   2.269   4.546
 6848SOL     OW21442   6.990   5.089   3.851
 6848SOL    HW121443   0.003   5.164   3.799
 6848SOL    HW221444   6.914   5.122   3.907
 6849SOL     OW21445   3.116   4.499   5.609
 6849SOL    HW121446   3.114   4.467   5.514
 6849SOL    HW221447   3.075   4.591   5.614
 6850SOL     OW21448   4.820   0.262   4.390
 6850SOL    HW121449   4.918   0.271   4.376
 6850SOL    HW221450   4.772   0.342   4.353
 6851SOL     OW21451   1.922   4.170   2.913
 6851SOL    HW121452   1.933   4.082   2.960
 6851SOL    HW221453   1.861   4.229   2.967
 6852SOL     OW21454   4.186   3.430   0.246
 6852SOL    HW121455   4.169   3.486   0.327
 6852SOL    HW221456   4.122   3.353   0.244
 6853SOL     OW21457   3.896   4.807   5.910
 6853SOL    HW121458   3.850   4.889   5.874
 6853SOL    HW221459   3.847   4.775   5.991
 6854SOL     OW21460   5.310   5.972   5.655
 6854SOL    HW121461   5.351   5.989   5.565
 6854SOL    HW221462   5.382   5.963   5.723
 6855SOL     OW21463   4.106   5.351   3.261
 6855SOL    HW121464   4.179   5.405   3.218
 6855SOL    HW221465   4.024   5.355   3.204
 6856SOL     OW21466   6.424   2.564   0.613
 6856SOL    HW121467   6.365   2.641   0.634
 6856SOL    HW221468   6.382   2.479   0.645
 6857SOL     OW21469   1.117   4.641   5.929
 6857SOL    HW121470   1.159   4.640   5.838
 6857SOL    HW221471   1.096   4.547   5.957
 6858SOL     OW21472   1.174   3.004   1.186
 6858SOL    HW121473   1.178   3.093   1.230
 6858SOL    HW221474   1.252   2.949   1.215
 6859SOL     OW21475   2.380   1.907   0.865
 6859SOL    HW121476   2.335   1.939   0.949
 6859SOL    HW221477   2.311   1.892   0.794
 6860SOL     OW21478   0.578   6.578   0.016
 6860SOL    HW121479   0.585   6.479   0.007
 6860SOL    HW221480   0.544   6.617   6.956
 6861SOL     OW21481   6.668   3.260   7.018
 6861SOL    HW121482   6.572   3.277   0.017
 6861SOL    HW221483   6.672   3.201   6.937
 6862SOL     OW21484   0.335   4.583   3.609
 6862SOL    HW121485   0.268   4.650   3.577
 6862SOL    HW221486   0.296   4.491   3.600
 6863SOL     OW21487   5.150   1.356   5.369
 6863SOL    HW121488   5.137   1.308   5.282
 6863SOL    HW221489   5.234   1.324   5.413
 6864SOL     OW21490   2.200   3.591   6.645
 6864SOL    HW121491   2.156   3.678   6.669
 6864SOL    HW221492   2.161   3.518   6.700
 6865SOL     OW21493   1.997   0.294   4.186
 6865SOL    HW121494   1.994   0.196   4.207
 6865SOL    HW221495   1.984   0.346   4.271
 6866SOL     OW21496   1.869   4.847   6.854
 6866SOL    HW121497   1.809   4.774   6.821
 6866SOL    HW221498   1.962   4.830   6.821
 6867SOL     OW21499   1.966   2.185   6.166
 6867SOL    HW121500   2.003   2.156   6.078
 6867SOL    HW221501   1.978   2.283   6.177
 6868SOL     OW21502   3.550   5.007   3.624
 6868SOL    HW121503   3.621   5.060   3.578
 6868SOL    HW221504   3.477   5.068   3.655
 6869SOL     OW21505   1.533   0.882   5.684
 6869SOL    HW121506   1.569   0.833   5.605
 6869SOL    HW221507   1.591   0.866   5.764
 6870SOL     OW21508   5.340   2.877   6.593
 6870SOL    HW121509   5.336   2.782   6.622
 6870SOL    HW221510   5.306   2.936   6.666
 6871SOL     OW21511   6.328   2.448   2.819
 6871SOL    HW121512   6.323   2.546   2.839
 6871SOL    HW221513   6.423   2.420   2.812
 6872SOL     OW21514   1.635   4.586   0.841
 6872SOL    HW121515   1.618   4.517   0.771
 6872SOL    HW221516   1.590   4.558   0.926
 6873SOL     OW21517   0.585   4.384   2.617
 6873SOL    HW121518   0.542   4.396   2.528
 6873SOL    HW221519   0.651   4.309   2.613
 6874SOL     OW21520   4.310   6.346   2.014
 6874SOL    HW121521   4.326   6.444   2.026
 6874SOL    HW221522   4.397   6.297   2.014
 6875SOL     OW21523   2.723   0.885   6.407
 6875SOL    HW121524   2.813   0.885   6.451
 6875SOL    HW221525   2.714   0.965   6.348
 6876SOL     OW21526   5.795   4.942   3.403
 6876SOL    HW121527   5.833   5.027   3.366
 6876SOL    HW221528   5.861   4.901   3.466
 6877SOL     OW21529   0.470   4.148   1.645
 6877SOL    HW121530   0.553   4.202   1.629
 6877SOL    HW221531   0.389   4.207   1.633
 6878SOL     OW21532   2.134   0.600   4.307
 6878SOL    HW121533   2.038   0.614   4.331
 6878SOL    HW221534   2.164   0.673   4.246
 6879SOL     OW21535   1.130   1.498   1.806
 6879SOL    HW121536   1.041   1.535   1.779
 6879SOL    HW221537   1.199   1.571   1.801
 6880SOL     OW21538   2.154   6.250   0.860
 6880SOL    HW121539   2.062   6.249   0.899
 6880SOL    HW221540   2.171   6.338   0.816
 6881SOL     OW21541   6.920   3.590   0.392
 6881SOL    HW121542   6.953   3.683   0.407
 6881SOL    HW221543   6.850   3.591   0.321
 6882SOL     OW21544   2.789   6.587   0.434
 6882SOL    HW121545   2.768   6.674   0.389
 6882SOL    HW221546   2.816   6.519   0.366
 6883SOL     OW21547   4.972   0.291   1.152
 6883SOL    HW121548   4.886   0.325   1.190
 6883SOL    HW221549   4.955   0.211   1.096
 6884SOL     OW21550   1.545   5.114   3.378
 6884SOL    HW121551   1.486   5.054   3.431
 6884SOL    HW221552   1.580   5.065   3.298
 6885SOL     OW21553   5.474   5.018   4.835
 6885SOL    HW121554   5.455   4.973   4.922
 6885SOL    HW221555   5.467   4.951   4.761
 6886SOL     OW21556   5.615   3.623   0.535
 6886SOL    HW121557   5.629   3.560   0.459
 6886SOL    HW221558   5.636   3.716   0.506
 6887SOL     OW21559   5.606   6.688   5.672
 6887SOL    HW121560   5.592   6.657   5.578
 6887SOL    HW221561   5.668   6.766   5.673
 6888SOL     OW21562   6.920   4.351   0.566
 6888SOL    HW121563   6.995   4.415   0.551
 6888SOL    HW221564   6.947   4.260   0.537
 6889SOL     OW21565   0.077   2.384   5.991
 6889SOL    HW121566   0.033   2.474   5.990
 6889SOL    HW221567   0.160   2.388   6.047
 6890SOL     OW21568   4.728   4.623   4.305
 6890SOL    HW121569   4.791   4.662   4.372
 6890SOL    HW221570   4.681   4.696   4.256
 6891SOL     OW21571   2.103   1.655   0.498
 6891SOL    HW121572   2.170   1.729   0.506
 6891SOL    HW221573   2.111   1.612   0.408
 6892SOL     OW21574   2.127   0.928   4.724
 6892SOL    HW121575   2.133   0.873   4.641
 6892SOL    HW221576   2.163   1.019   4.708
 6893SOL     OW21577   5.983   3.068   0.110
 6893SOL    HW121578   5.966   3.140   0.043
 6893SOL    HW221579   6.051   3.004   0.073
 6894SOL     OW21580   5.502   5.068   0.256
 6894SOL    HW121581   5.587   5.086   0.206
 6894SOL    HW221582   5.442   5.010   0.201
 6895SOL     OW21583   1.212   5.313   1.779
 6895SOL    HW121584   1.272   5.289   1.856
 6895SOL    HW221585   1.155   5.390   1.804
 6896SOL     OW21586   5.433   0.990   6.179
 6896SOL    HW121587   5.353   0.934   6.157
 6896SOL    HW221588   5.514   0.954   6.134
 6897SOL     OW21589   4.497   2.580   4.998
 6897SOL    HW121590   4.487   2.488   4.960
 6897SOL    HW221591   4.413   2.632   4.984
 6898SOL     OW21592   1.836   6.811   1.350
 6898SOL    HW121593   1.856   6.783   1.444
 6898SOL    HW221594   1.884   6.895   1.328
 6899SOL     OW21595   5.265   5.275   2.354
 6899SOL    HW121596   5.349   5.233   2.389
 6899SOL    HW221597   5.212   5.312   2.430
 6900SOL     OW21598   6.854   3.948   4.610
 6900SOL    HW121599   6.787   3.935   4.536
 6900SOL    HW221600   6.931   4.002   4.576
 6901SOL     OW21601   4.893   4.467   6.095
 6901SOL    HW121602   4.797   4.462   6.068
 6901SOL    HW221603   4.945   4.512   6.022
 6902SOL     OW21604   0.023   5.583   5.805
 6902SOL    HW121605   6.989   5.658   5.833
 6902SOL    HW221606   6.999   5.521   5.745
 6903SOL     OW21607   1.955   6.239   5.501
 6903SOL    HW121608   1.928   6.325   5.458
 6903SOL    HW221609   2.049   6.216   5.473
 6904SOL     OW21610   1.095   0.652   6.021
 6904SOL    HW121611   1.129   0.599   5.943
 6904SOL    HW221612   0.997   0.669   6.010
 6905SOL     OW21613   4.542   6.031   5.355
 6905SOL    HW121614   4.609   5.961   5.381
 6905SOL    HW221615   4.460   5.987   5.320
 6906SOL     OW21616   3.133   1.293   3.549
 6906SOL    HW121617   3.105   1.281   3.644
 6906SOL    HW221618   3.063   1.256   3.488
 6907SOL     OW21619   5.631   2.614   0.419
 6907SOL    HW121620   5.688   2.684   0.462
 6907SOL    HW221621   5.546   2.656   0.385
 6908SOL     OW21622   4.188   6.296   0.484
 6908SOL    HW121623   4.239   6.316   0.568
 6908SOL    HW221624   4.234   6.338   0.407
 6909SOL     OW21625   5.578   3.938   1.970
 6909SOL    HW121626   5.556   3.889   1.885
 6909SOL    HW221627   5.651   4.004   1.952
 6910SOL     OW21628   1.811   2.305   1.842
 6910SOL    HW121629   1.904   2.268   1.849
 6910SOL    HW221630   1.790   2.359   1.924
 6911SOL     OW21631   2.700   6.679   5.469
 6911SOL    HW121632   2.733   6.761   5.515
 6911SOL    HW221633   2.756   6.601   5.497
 6912SOL     OW21634   3.386   4.406   6.478
 6912SOL    HW121635   3.483   4.426   6.496
 6912SOL    HW221636   3.332   4.430   6.558
 6913SOL     OW21637   4.071   5.593   6.031
 6913SOL    HW121638   4.024   5.682   6.029
 6913SOL    HW221639   4.140   5.590   5.959
 6914SOL     OW21640   0.411   2.323   2.674
 6914SOL    HW121641   0.360   2.377   2.741
 6914SOL    HW221642   0.350   2.300   2.597
 6915SOL     OW21643   0.099   3.349   4.209
 6915SOL    HW121644   0.014   3.388   4.243
 6915SOL    HW221645   0.115   3.379   4.115
 6916SOL     OW21646   4.751   6.201   5.619
 6916SOL    HW121647   4.701   6.277   5.578
 6916SOL    HW221648   4.754   6.125   5.555
 6917SOL     OW21649   4.005   6.387   2.234
 6917SOL    HW121650   4.038   6.293   2.232
 6917SOL    HW221651   3.950   6.404   2.152
 6918SOL     OW21652   1.830   3.704   0.256
 6918SOL    HW121653   1.865   3.623   0.210
 6918SOL    HW221654   1.894   3.780   0.241
 6919SOL     OW21655   6.431   6.044   2.984
 6919SOL    HW121656   6.464   6.120   2.928
 6919SOL    HW221657   6.344   6.070   3.026
 6920SOL     OW21658   0.242   2.614   5.477
 6920SOL    HW121659   0.211   2.700   5.439
 6920SOL    HW221660   0.261   2.625   5.575
 6921SOL     OW21661   3.232   0.200   4.163
 6921SOL    HW121662   3.171   0.248   4.227
 6921SOL    HW221663   3.297   0.145   4.215
 6922SOL     OW21664   2.911   5.150   6.734
 6922SOL    HW121665   2.933   5.188   6.645
 6922SOL    HW221666   2.830   5.092   6.726
 6923SOL     OW21667   5.118   6.999   3.147
 6923SOL    HW121668   5.197   7.011   3.087
 6923SOL    HW221669   5.044   0.034   3.118
 6924SOL     OW21670   2.981   5.159   2.138
 6924SOL    HW121671   2.952   5.168   2.043
 6924SOL    HW221672   2.904   5.125   2.193
 6925SOL     OW21673   6.621   6.289   4.339
 6925SOL    HW121674   6.653   6.365   4.395
 6925SOL    HW221675   6.557   6.322   4.270
 6926SOL     OW21676   2.646   2.341   0.491
 6926SOL    HW121677   2.647   2.273   0.418
 6926SOL    HW221678   2.702   2.419   0.465
 6927SOL     OW21679   3.451   0.180   6.552
 6927SOL    HW121680   3.399   0.098   6.575
 6927SOL    HW221681   3.501   0.211   6.632
 6928SOL     OW21682   4.538   6.000   0.595
 6928SOL    HW121683   4.462   5.989   0.659
 6928SOL    HW221684   4.622   5.965   0.636
 6929SOL     OW21685   4.670   5.243   3.123
 6929SOL    HW121686   4.689   5.339   3.103
 6929SOL    HW221687   4.660   5.192   3.038
 6930SOL     OW21688   0.783   6.280   1.657
 6930SOL    HW121689   0.769   6.278   1.756
 6930SOL    HW221690   0.879   6.261   1.636
 6931SOL     OW21691   3.386   3.124   0.916
 6931SOL    HW121692   3.359   3.075   0.999
 6931SOL    HW221693   3.443   3.065   0.859
 6932SOL     OW21694   4.119   0.637   6.778
 6932SOL    HW121695   4.148   0.541   6.788
 6932SOL    HW221696   4.150   0.672   6.690
 6933SOL     OW21697   3.581   6.006   6.037
 6933SOL    HW121698   3.497   5.953   6.050
 6933SOL    HW221699   3.626   6.020   6.125
 6934SOL     OW21700   4.940   5.009   0.188
 6934SOL    HW121701   5.001   4.961   0.251
 6934SOL    HW221702   4.991   5.040   0.108
 6935SOL     OW21703   4.344   5.739   2.283
 6935SOL    HW121704   4.436   5.745   2.321
 6935SOL    HW221705   4.329   5.815   2.219
 6936SOL     OW21706   0.883   1.991   0.129
 6936SOL    HW121707   0.903   2.089   0.130
 6936SOL    HW221708   0.785   1.976   0.135
 6937SOL     OW21709   5.647   4.667   0.285
 6937SOL    HW121710   5.735   4.644   0.328
 6937SOL    HW221711   5.573   4.652   0.350
 6938SOL     OW21712   3.507   0.396   5.015
 6938SOL    HW121713   3.530   0.348   5.100
 6938SOL    HW221714   3.432   0.461   5.033
 6939SOL     OW21715   5.593   3.119   3.444
 6939SOL    HW121716   5.612   3.041   3.385
 6939SOL    HW221717   5.605   3.092   3.540
 6940SOL     OW21718   2.049   6.420   1.700
 6940SOL    HW121719   2.081   6.327   1.715
 6940SOL    HW221720   1.971   6.419   1.639
 6941SOL     OW21721   3.719   3.083   2.752
 6941SOL    HW121722   3.652   3.012   2.773
 6941SOL    HW221723   3.694   3.168   2.799
 6942SOL     OW21724   6.621   4.814   3.170
 6942SOL    HW121725   6.609   4.715   3.164
 6942SOL    HW221726   6.708   4.834   3.215
 6943SOL     OW21727   3.580   5.354   5.764
 6943SOL    HW121728   3.497   5.393   5.726
 6943SOL    HW221729   3.582   5.256   5.747
 6944SOL     OW21730   0.581   4.953   5.244
 6944SOL    HW121731   0.624   4.874   5.199
 6944SOL    HW221732   0.642   5.032   5.239
 6945SOL     OW21733   4.347   1.254   0.555
 6945SOL    HW121734   4.251   1.240   0.530
 6945SOL    HW221735   4.378   1.342   0.521
 6946SOL     OW21736   5.578   6.043   2.860
 6946SOL    HW121737   5.666   6.038   2.813
 6946SOL    HW221738   5.504   6.040   2.793
 6947SOL     OW21739   6.126   4.435   5.363
 6947SOL    HW121740   6.099   4.353   5.412
 6947SOL    HW221741   6.138   4.511   5.427
 6948SOL     OW21742   0.089   4.638   6.605
 6948SOL    HW121743   0.187   4.643   6.624
 6948SOL    HW221744   0.056   4.546   6.627
 6949SOL     OW21745   2.428   1.341   3.195
 6949SOL    HW121746   2.381   1.365   3.279
 6949SOL    HW221747   2.504   1.404   3.180
 6950SOL     OW21748   2.055   1.385   3.994
 6950SOL    HW121749   2.116   1.406   3.917
 6950SOL    HW221750   1.963   1.366   3.960
 6951SOL     OW21751   1.306   4.059   6.968
 6951SOL    HW121752   1.323   4.130   0.011
 6951SOL    HW221753   1.353   3.975   6.994
 6952SOL     OW21754   4.419   5.545   3.384
 6952SOL    HW121755   4.433   5.493   3.468
 6952SOL    HW221756   4.507   5.557   3.338
 6953SOL     OW21757   0.222   0.921   1.913
 6953SOL    HW121758   0.132   0.965   1.904
 6953SOL    HW221759   0.210   0.824   1.932
 6954SOL     OW21760   6.403   4.909   6.030
 6954SOL    HW121761   6.352   4.873   5.951
 6954SOL    HW221762   6.343   4.967   6.085
 6955SOL     OW21763   4.448   5.883   2.704
 6955SOL    HW121764   4.513   5.958   2.689
 6955SOL    HW221765   4.369   5.895   2.643
 6956SOL     OW21766   5.811   5.186   1.439
 6956SOL    HW121767   5.736   5.226   1.492
 6956SOL    HW221768   5.854   5.113   1.493
 6957SOL     OW21769   6.108   4.440   5.075
 6957SOL    HW121770   6.181   4.497   5.039
 6957SOL    HW221771   6.103   4.452   5.175
 6958SOL     OW21772   3.086   3.735   2.529
 6958SOL    HW121773   3.001   3.712   2.577
 6958SOL    HW221774   3.133   3.808   2.579
 6959SOL     OW21775   1.290   3.961   2.741
 6959SOL    HW121776   1.212   3.899   2.754
 6959SOL    HW221777   1.302   4.017   2.823
 6960SOL     OW21778   5.225   4.801   1.324
 6960SOL    HW121779   5.299   4.740   1.296
 6960SOL    HW221780   5.141   4.748   1.337
 6961SOL     OW21781   5.349   2.107   4.880
 6961SOL    HW121782   5.261   2.095   4.834
 6961SOL    HW221783   5.346   2.192   4.933
 6962SOL     OW21784   2.404   6.155   0.774
 6962SOL    HW121785   2.322   6.180   0.826
 6962SOL    HW221786   2.437   6.066   0.807
 6963SOL     OW21787   0.784   6.590   6.614
 6963SOL    HW121788   0.870   6.550   6.645
 6963SOL    HW221789   0.802   6.656   6.541
 6964SOL     OW21790   2.307   1.672   4.960
 6964SOL    HW121791   2.357   1.602   4.909
 6964SOL    HW221792   2.209   1.662   4.940
 6965SOL     OW21793   1.737   1.201   6.858
 6965SOL    HW121794   1.750   1.203   6.957
 6965SOL    HW221795   1.639   1.192   6.837
 6966SOL     OW21796   1.636   6.905   1.107
 6966SOL    HW121797   1.729   6.895   1.144
 6966SOL    HW221798   1.572   6.859   1.169
 6967SOL     OW21799   3.800   0.125   6.576
 6967SOL    HW121800   3.732   0.127   6.650
 6967SOL    HW221801   3.765   0.070   6.501
 6968SOL     OW21802   3.522   0.576   2.070
 6968SOL    HW121803   3.615   0.600   2.040
 6968SOL    HW221804   3.525   0.491   2.122
 6969SOL     OW21805   1.394   3.145   2.617
 6969SOL    HW121806   1.475   3.155   2.559
 6969SOL    HW221807   1.374   3.232   2.662
 6970SOL     OW21808   3.478   6.185   5.547
 6970SOL    HW121809   3.549   6.145   5.605
 6970SOL    HW221810   3.456   6.122   5.473
 6971SOL     OW21811   6.715   4.073   6.618
 6971SOL    HW121812   6.779   4.096   6.692
 6971SOL    HW221813   6.756   4.004   6.559
 6972SOL     OW21814   5.484   3.904   1.674
 6972SOL    HW121815   5.584   3.906   1.676
 6972SOL    HW221816   5.451   3.817   1.710
 6973SOL     OW21817   1.169   1.673   3.167
 6973SOL    HW121818   1.268   1.682   3.165
 6973SOL    HW221819   1.127   1.761   3.143
 6974SOL     OW21820   4.015   3.522   2.952
 6974SOL    HW121821   4.049   3.428   2.951
 6974SOL    HW221822   3.925   3.525   2.908
 6975SOL     OW21823   3.075   5.278   4.846
 6975SOL    HW121824   3.074   5.258   4.944
 6975SOL    HW221825   3.154   5.234   4.803
 6976SOL     OW21826   4.756   5.070   6.152
 6976SOL    HW121827   4.784   4.985   6.195
 6976SOL    HW221828   4.704   5.125   6.217
 6977SOL     OW21829   4.758   4.825   2.422
 6977SOL    HW121830   4.737   4.757   2.492
 6977SOL    HW221831   4.692   4.817   2.347
 6978SOL     OW21832   1.405   3.563   1.046
 6978SOL    HW121833   1.406   3.464   1.036
 6978SOL    HW221834   1.400   3.606   0.955
 6979SOL     OW21835   1.059   3.816   3.103
 6979SOL    HW121836   1.054   3.834   3.005
 6979SOL    HW221837   1.146   3.771   3.125
 6980SOL     OW21838   2.173   4.569   3.120
 6980SOL    HW121839   2.183   4.619   3.206
 6980SOL    HW221840   2.238   4.494   3.117
 6981SOL     OW21841   4.096   2.383   0.125
 6981SOL    HW121842   4.187   2.375   0.165
 6981SOL    HW221843   4.075   2.300   0.074
 6982SOL     OW21844   6.757   0.273   2.013
 6982SOL    HW121845   6.822   0.265   2.088
 6982SOL    HW221846   6.765   0.193   1.953
 6983SOL     OW21847   0.183   0.369   3.859
 6983SOL    HW121848   0.242   0.435   3.905
 6983SOL    HW221849   0.132   0.317   3.927
 6984SOL     OW21850   2.061   4.385   3.532
 6984SOL    HW121851   2.030   4.389   3.437
 6984SOL    HW221852   2.014   4.310   3.580
 6985SOL     OW21853   5.191   3.228   0.703
 6985SOL    HW121854   5.258   3.256   0.634
 6985SOL    HW221855   5.130   3.305   0.724
 6986SOL     OW21856   3.498   5.726   5.049
 6986SOL    HW121857   3.593   5.712   5.077
 6986SOL    HW221858   3.438   5.670   5.106
 6987SOL     OW21859   6.951   1.189   6.771
 6987SOL    HW121860   0.021   1.206   6.796
 6987SOL    HW221861   6.920   1.260   6.708
 6988SOL     OW21862   2.221   0.712   6.147
 6988SOL    HW121863   2.223   0.722   6.247
 6988SOL    HW221864   2.315   0.703   6.114
 6989SOL     OW21865   0.816   3.420   2.359
 6989SOL    HW121866   0.746   3.382   2.299
 6989SOL    HW221867   0.878   3.347   2.389
 6990SOL     OW21868   3.819   4.324   6.830
 6990SOL    HW121869   3.825   4.344   6.732
 6990SOL    HW221870   3.908   4.340   6.873
 6991SOL     OW21871   5.122   4.162   3.630
 6991SOL    HW121872   5.055   4.098   3.666
 6991SOL    HW221873   5.145   4.138   3.536
 6992SOL     OW21874   1.906   5.434   6.272
 6992SOL    HW121875   1.809   5.431   6.297
 6992SOL    HW221876   1.934   5.530   6.263
 6993SOL     OW21877   4.401   2.515   1.794
 6993SOL    HW121878   4.307   2.484   1.780
 6993SOL    HW221879   4.449   2.450   1.853
 6994SOL     OW21880   2.385   1.308   2.845
 6994SOL    HW121881   2.402   1.229   2.903
 6994SOL    HW221882   2.320   1.369   2.890
 6995SOL     OW21883   0.055   4.583   0.829
 6995SOL    HW121884   0.092   4.578   0.736
 6995SOL    HW221885   6.992   4.536   0.831
 6996SOL     OW21886   0.959   1.731   6.572
 6996SOL    HW121887   0.988   1.719   6.476
 6996SOL    HW221888   0.997   1.817   6.607
 6997SOL     OW21889   5.733   6.064   6.013
 6997SOL    HW121890   5.707   6.055   6.109
 6997SOL    HW221891   5.785   6.149   6.000
 6998SOL     OW21892   0.334   0.919   0.036
 6998SOL    HW121893   0.399   0.909   6.986
 6998SOL    HW221894   0.378   0.893   0.122
 6999SOL     OW21895   0.278   2.813   0.136
 6999SOL    HW121896   0.228   2.790   0.052
 6999SOL    HW221897   0.282   2.912   0.147
 7000SOL     OW21898   0.671   5.052   3.579
 7000SOL    HW121899   0.677   5.135   3.523
 7000SOL    HW221900   0.714   5.069   3.668
 7001SOL     OW21901   0.534   1.287   4.217
 7001SOL    HW121902   0.465   1.342   4.262
 7001SOL    HW221903   0.514   1.281   4.119
 7002SOL     OW21904   1.126   4.634   2.666
 7002SOL    HW121905   1.121   4.670   2.572
 7002SOL    HW221906   1.058   4.680   2.722
 7003SOL     OW21907   0.678   5.546   6.067
 7003SOL    HW121908   0.640   5.454   6.054
 7003SOL    HW221909   0.743   5.544   6.143
 7004SOL     OW21910   1.185   0.763   6.508
 7004SOL    HW121911   1.165   0.793   6.601
 7004SOL    HW221912   1.220   0.669   6.510
 7005SOL     OW21913   1.869   5.203   0.190
 7005SOL    HW121914   1.951   5.259   0.201
 7005SOL    HW221915   1.892   5.107   0.203
 7006SOL     OW21916   0.769   0.559   3.825
 7006SOL    HW121917   0.736   0.471   3.793
 7006SOL    HW221918   0.781   0.556   3.925
 7007SOL     OW21919   2.057   0.206   6.498
 7007SOL    HW121920   2.075   0.127   6.556
 7007SOL    HW221921   1.960   0.210   6.476
 7008SOL     OW21922   5.311   3.444   2.345
 7008SOL    HW121923   5.291   3.419   2.439
 7008SOL    HW221924   5.395   3.400   2.315
 7009SOL     OW21925   5.625   6.078   2.466
 7009SOL    HW121926   5.648   6.091   2.370
 7009SOL    HW221927   5.625   5.980   2.488
 7010SOL     OW21928   5.275   3.665   2.183
 7010SOL    HW121929   5.204   3.725   2.222
 7010SOL    HW221930   5.286   3.585   2.242
 7011SOL     OW21931   2.250   6.225   6.222
 7011SOL    HW121932   2.237   6.295   6.293
 7011SOL    HW221933   2.162   6.208   6.177
 7012SOL     OW21934   0.121   4.190   0.487
 7012SOL    HW121935   0.058   4.217   0.415
 7012SOL    HW221936   0.199   4.253   0.490
 7013SOL     OW21937   2.662   2.745   0.178
 7013SOL    HW121938   2.740   2.704   0.131
 7013SOL    HW221939   2.580   2.690   0.162
 7014SOL     OW21940   6.194   3.741   0.458
 7014SOL    HW121941   6.113   3.697   0.496
 7014SOL    HW221942   6.219   3.697   0.372
 7015SOL     OW21943   6.116   6.351   1.241
 7015SOL    HW121944   6.194   6.289   1.233
 7015SOL    HW221945   6.050   6.333   1.169
 7016SOL     OW21946   3.429   5.275   1.079
 7016SOL    HW121947   3.475   5.355   1.118
 7016SOL    HW221948   3.439   5.198   1.142
 7017SOL     OW21949   6.460   4.546   6.445
 7017SOL    HW121950   6.535   4.495   6.487
 7017SOL    HW221951   6.489   4.580   6.355
 7018SOL     OW21952   5.483   2.935   4.991
 7018SOL    HW121953   5.565   2.899   4.946
 7018SOL    HW221954   5.493   3.034   5.003
 7019SOL     OW21955   4.040   5.714   2.216
 7019SOL    HW121956   4.035   5.813   2.209
 7019SOL    HW221957   4.129   5.688   2.254
 7020SOL     OW21958   0.088   1.432   0.552
 7020SOL    HW121959   0.145   1.509   0.579
 7020SOL    HW221960   0.111   1.404   0.459
 7021SOL     OW21961   0.567   1.967   4.883
 7021SOL    HW121962   0.664   1.989   4.887
 7021SOL    HW221963   0.527   1.975   4.975
 7022SOL     OW21964   1.940   3.913   0.824
 7022SOL    HW121965   2.025   3.964   0.809
 7022SOL    HW221966   1.909   3.927   0.918
 7023SOL     OW21967   0.211   1.647   1.274
 7023SOL    HW121968   0.136   1.712   1.285
 7023SOL    HW221969   0.294   1.697   1.247
 7024SOL     OW21970   3.633   3.910   5.634
 7024SOL    HW121971   3.634   3.878   5.539
 7024SOL    HW221972   3.711   3.872   5.683
 7025SOL     OW21973   2.769   0.941   1.202
 7025SOL    HW121974   2.802   0.855   1.241
 7025SOL    HW221975   2.728   0.997   1.274
 7026SOL     OW21976   2.651   2.237   1.036
 7026SOL    HW121977   2.552   2.240   1.052
 7026SOL    HW221978   2.669   2.191   0.948
 7027SOL     OW21979   3.087   4.591   1.188
 7027SOL    HW121980   3.046   4.594   1.097
 7027SOL    HW221981   3.017   4.567   1.255
 7028SOL     OW21982   3.418   0.162   3.009
 7028SOL    HW121983   3.435   0.252   2.969
 7028SOL    HW221984   3.419   0.170   3.109
 7029SOL     OW21985   3.331   3.932   3.604
 7029SOL    HW121986   3.270   3.865   3.562
 7029SOL    HW221987   3.383   3.979   3.533
 7030SOL     OW21988   6.296   6.797   4.912
 7030SOL    HW121989   6.265   6.765   5.002
 7030SOL    HW221990   6.236   6.871   4.880
 7031SOL     OW21991   5.592   5.264   0.479
 7031SOL    HW121992   5.548   5.175   0.490
 7031SOL    HW221993   5.523   5.333   0.455
 7032SOL     OW21994   4.178   5.285   4.351
 7032SOL    HW121995   4.216   5.356   4.291
 7032SOL    HW221996   4.223   5.289   4.440
 7033SOL     OW21997   2.106   2.080   5.364
 7033SOL    HW121998   2.078   2.149   5.431
 7033SOL    HW221999   2.197   2.102   5.330
 7034SOL     OW22000   6.603   2.190   2.307
 7034SOL    HW122001   6.530   2.254   2.332
 7034SOL    HW222002   6.691   2.239   2.304
 7035SOL     OW22003   2.638   2.500   0.938
 7035SOL    HW122004   2.664   2.405   0.956
 7035SOL    HW222005   2.576   2.503   0.860
 7036SOL     OW22006   6.462   1.909   1.931
 7036SOL    HW122007   6.561   1.894   1.930
 7036SOL    HW222008   6.428   1.906   2.025
 7037SOL     OW22009   1.273   0.809   6.213
 7037SOL    HW122010   1.217   0.833   6.293
 7037SOL    HW222011   1.220   0.748   6.153
 7038SOL     OW22012   0.288   5.141   0.056
 7038SOL    HW122013   0.292   5.178   6.989
 7038SOL    HW222014   0.377   5.103   0.081
 7039SOL     OW22015   6.902   6.998   1.357
 7039SOL    HW122016   6.996   7.025   1.377
 7039SOL    HW222017   6.839   0.030   1.410
 7040SOL     OW22018   5.062   2.631   4.576
 7040SOL    HW122019   5.032   2.668   4.488
 7040SOL    HW222020   5.094   2.705   4.635
 7041SOL     OW22021   0.895   6.968   3.713
 7041SOL    HW122022   0.908   6.895   3.646
 7041SOL    HW222023   0.950   0.022   3.686
 7042SOL     OW22024   5.569   5.862   4.996
 7042SOL    HW122025   5.501   5.928   4.965
 7042SOL    HW222026   5.654   5.910   5.018
 7043SOL     OW22027   1.885   5.681   0.688
 7043SOL    HW122028   1.871   5.773   0.651
 7043SOL    HW222029   1.982   5.664   0.700
 7044SOL     OW22030   4.150   6.223   5.059
 7044SOL    HW122031   4.125   6.157   5.130
 7044SOL    HW222032   4.134   6.316   5.092
 7045SOL     OW22033   5.517   6.454   1.820
 7045SOL    HW122034   5.532   6.547   1.786
 7045SOL    HW222035   5.438   6.453   1.880
 7046SOL     OW22036   2.556   1.101   2.704
 7046SOL    HW122037   2.616   1.179   2.684
 7046SOL    HW222038   2.473   1.134   2.749
 7047SOL     OW22039   1.651   6.936   0.845
 7047SOL    HW122040   1.643   6.925   0.944
 7047SOL    HW222041   1.560   6.943   0.804
 7048SOL     OW22042   0.556   5.822   4.095
 7048SOL    HW122043   0.495   5.867   4.029
 7048SOL    HW222044   0.631   5.884   4.119
 7049SOL     OW22045   3.193   1.378   4.575
 7049SOL    HW122046   3.167   1.430   4.494
 7049SOL    HW222047   3.182   1.436   4.656
 7050SOL     OW22048   4.073   4.531   0.844
 7050SOL    HW122049   4.103   4.625   0.827
 7050SOL    HW222050   4.063   4.515   0.942
 7051SOL     OW22051   1.769   1.348   2.007
 7051SOL    HW122052   1.809   1.386   2.090
 7051SOL    HW222053   1.672   1.374   2.002
 7052SOL     OW22054   5.273   2.486   2.949
 7052SOL    HW122055   5.265   2.493   2.850
 7052SOL    HW222056   5.255   2.391   2.977
 7053SOL     OW22057   1.284   4.631   4.024
 7053SOL    HW122058   1.220   4.663   4.094
 7053SOL    HW222059   1.249   4.655   3.933
 7054SOL     OW22060   5.320   0.540   0.039
 7054SOL    HW122061   5.236   0.500   0.004
 7054SOL    HW222062   5.364   0.476   0.102
 7055SOL     OW22063   2.084   0.175   6.899
 7055SOL    HW122064   2.065   0.248   6.834
 7055SOL    HW222065   2.090   0.088   6.850
 7056SOL     OW22066   6.793   5.449   0.926
 7056SOL    HW122067   6.779   5.361   0.973
 7056SOL    HW222068   6.882   5.448   0.881
 7057SOL     OW22069   2.957   5.368   4.504
 7057SOL    HW122070   2.954   5.415   4.415
 7057SOL    HW222071   3.002   5.427   4.571
 7058SOL     OW22072   5.968   2.199   6.204
 7058SOL    HW122073   5.916   2.135   6.262
 7058SOL    HW222074   5.906   2.239   6.136
 7059SOL     OW22075   1.713   0.982   4.839
 7059SOL    HW122076   1.650   0.920   4.792
 7059SOL    HW222077   1.718   1.069   4.790
 7060SOL     OW22078   3.017   2.386   1.594
 7060SOL    HW122079   3.062   2.454   1.536
 7060SOL    HW222080   3.023   2.415   1.690
 7061SOL     OW22081   1.842   0.594   1.163
 7061SOL    HW122082   1.845   0.557   1.256
 7061SOL    HW222083   1.900   0.539   1.103
 7062SOL     OW22084   3.961   0.719   5.199
 7062SOL    HW122085   3.998   0.733   5.290
 7062SOL    HW222086   3.967   0.805   5.147
 7063SOL     OW22087   0.423   0.950   1.692
 7063SOL    HW122088   0.395   0.888   1.619
 7063SOL    HW222089   0.356   0.947   1.767
 7064SOL     OW22090   2.820   1.352   5.409
 7064SOL    HW122091   2.856   1.259   5.422
 7064SOL    HW222092   2.720   1.348   5.408
 7065SOL     OW22093   3.295   6.846   4.411
 7065SOL    HW122094   3.243   6.775   4.365
 7065SOL    HW222095   3.384   6.809   4.439
 7066SOL     OW22096   3.903   0.660   1.056
 7066SOL    HW122097   3.829   0.664   1.123
 7066SOL    HW222098   3.962   0.741   1.067
 7067SOL     OW22099   2.281   4.276   6.419
 7067SOL    HW122100   2.289   4.360   6.472
 7067SOL    HW222101   2.273   4.298   6.322
 7068SOL     OW22102   4.881   4.583   3.150
 7068SOL    HW122103   4.797   4.620   3.189
 7068SOL    HW222104   4.903   4.496   3.194
 7069SOL     OW22105   4.380   0.917   5.073
 7069SOL    HW122106   4.405   0.944   5.167
 7069SOL    HW222107   4.325   0.834   5.076
 7070SOL     OW22108   7.024   1.340   5.994
 7070SOL    HW122109   0.035   1.286   6.070
 7070SOL    HW222110   6.935   1.378   6.020
 7071SOL     OW22111   4.567   5.508   6.411
 7071SOL    HW122112   4.506   5.532   6.486
 7071SOL    HW222113   4.563   5.579   6.341
 7072SOL     OW22114   1.070   3.711   6.322
 7072SOL    HW122115   1.028   3.660   6.247
 7072SOL    HW222116   1.046   3.668   6.409
 7073SOL     OW22117   4.089   0.988   3.857
 7073SOL    HW122118   4.081   0.939   3.944
 7073SOL    HW222119   3.998   1.012   3.824
 7074SOL     OW22120   6.053   3.727   2.207
 7074SOL    HW122121   6.000   3.643   2.194
 7074SOL    HW222122   6.107   3.720   2.291
 7075SOL     OW22123   2.303   5.258   2.642
 7075SOL    HW122124   2.252   5.184   2.687
 7075SOL    HW222125   2.264   5.346   2.670
 7076SOL     OW22126   5.791   2.716   0.644
 7076SOL    HW122127   5.753   2.764   0.723
 7076SOL    HW222128   5.822   2.625   0.672
 7077SOL     OW22129   3.764   5.868   1.573
 7077SOL    HW122130   3.808   5.868   1.483
 7077SOL    HW222131   3.752   5.962   1.604
 7078SOL     OW22132   0.207   1.982   6.551
 7078SOL    HW122133   0.230   1.980   6.454
 7078SOL    HW222134   0.276   1.932   6.603
 7079SOL     OW22135   2.357   5.544   5.508
 7079SOL    HW122136   2.398   5.484   5.439
 7079SOL    HW222137   2.319   5.488   5.582
 7080SOL     OW22138   4.024   1.800   5.716
 7080SOL    HW122139   4.092   1.792   5.788
 7080SOL    HW222140   4.016   1.896   5.689
 7081SOL     OW22141   2.579   6.127   0.218
 7081SOL    HW122142   2.655   6.131   0.154
 7081SOL    HW222143   2.551   6.220   0.242
 7082SOL     OW22144   1.200   4.964   2.316
 7082SOL    HW122145   1.254   4.909   2.381
 7082SOL    HW222146   1.107   4.975   2.351
 7083SOL     OW22147   5.539   3.261   2.339
 7083SOL    HW122148   5.570   3.210   2.259
 7083SOL    HW222149   5.496   3.198   2.404
 7084SOL     OW22150   1.220   5.406   0.348
 7084SOL    HW122151   1.207   5.458   0.265
 7084SOL    HW222152   1.298   5.443   0.399
 7085SOL     OW22153   0.084   3.718   2.203
 7085SOL    HW122154   0.080   3.684   2.297
 7085SOL    HW222155   0.047   3.649   2.141
 7086SOL     OW22156   4.273   0.845   3.710
 7086SOL    HW122157   4.228   0.904   3.777
 7086SOL    HW222158   4.324   0.902   3.645
 7087SOL     OW22159   4.979   2.840   3.495
 7087SOL    HW122160   5.015   2.852   3.588
 7087SOL    HW222161   5.054   2.825   3.431
 7088SOL     OW22162   6.108   2.261   5.477
 7088SOL    HW122163   6.119   2.168   5.443
 7088SOL    HW222164   6.126   2.264   5.575
 7089SOL     OW22165   3.106   6.113   1.283
 7089SOL    HW122166   3.143   6.110   1.190
 7089SOL    HW222167   3.100   6.020   1.319
 7090SOL     OW22168   4.820   3.724   1.232
 7090SOL    HW122169   4.816   3.823   1.234
 7090SOL    HW222170   4.787   3.687   1.318
 7091SOL     OW22171   6.127   0.863   7.011
 7091SOL    HW122172   6.141   0.775   0.031
 7091SOL    HW222173   6.056   0.915   0.032
 7092SOL     OW22174   4.193   6.664   6.054
 7092SOL    HW122175   4.132   6.593   6.090
 7092SOL    HW222176   4.137   6.740   6.020
 7093SOL     OW22177   4.222   2.886   0.660
 7093SOL    HW122178   4.183   2.797   0.634
 7093SOL    HW222179   4.163   2.929   0.728
 7094SOL     OW22180   4.258   1.010   4.561
 7094SOL    HW122181   4.168   0.982   4.527
 7094SOL    HW222182   4.317   0.930   4.568
 7095SOL     OW22183   2.061   4.603   3.774
 7095SOL    HW122184   2.130   4.539   3.739
 7095SOL    HW222185   2.015   4.648   3.698
 7096SOL     OW22186   6.779   5.679   0.240
 7096SOL    HW122187   6.869   5.696   0.200
 7096SOL    HW222188   6.789   5.648   0.334
 7097SOL     OW22189   4.862   1.886   2.545
 7097SOL    HW122190   4.952   1.896   2.585
 7097SOL    HW222191   4.864   1.916   2.450
 7098SOL     OW22192   0.681   1.336   2.850
 7098SOL    HW122193   0.778   1.330   2.826
 7098SOL    HW222194   0.662   1.276   2.928
 7099SOL     OW22195   3.415   1.893   4.721
 7099SOL    HW122196   3.360   1.955   4.665
 7099SOL    HW222197   3.444   1.815   4.666
 7100SOL     OW22198   0.535   3.858   1.633
 7100SOL    HW122199   0.524   3.955   1.613
 7100SOL    HW222200   0.487   3.804   1.563
 7101SOL     OW22201   2.550   5.419   4.329
 7101SOL    HW122202   2.592   5.344   4.379
 7101SOL    HW222203   2.483   5.465   4.387
 7102SOL     OW22204   5.626   1.430   2.702
 7102SOL    HW122205   5.675   1.510   2.669
 7102SOL    HW222206   5.530   1.454   2.718
 7103SOL     OW22207   5.812   3.734   4.127
 7103SOL    HW122208   5.803   3.815   4.184
 7103SOL    HW222209   5.800   3.651   4.182
 7104SOL     OW22210   4.602   2.720   4.045
 7104SOL    HW122211   4.615   2.628   4.009
 7104SOL    HW222212   4.505   2.739   4.056
 7105SOL     OW22213   2.987   3.930   2.173
 7105SOL    HW122214   2.972   4.022   2.209
 7105SOL    HW222215   3.085   3.916   2.157
 7106SOL     OW22216   2.674   2.283   2.570
 7106SOL    HW122217   2.722   2.288   2.482
 7106SOL    HW222218   2.582   2.320   2.559
 7107SOL     OW22219   4.171   0.669   0.518
 7107SOL    HW122220   4.193   0.714   0.432
 7107SOL    HW222221   4.096   0.604   0.503
 7108SOL     OW22222   3.078   6.807   1.578
 7108SOL    HW122223   3.084   6.774   1.673
 7108SOL    HW222224   3.161   6.857   1.555
 7109SOL     OW22225   2.520   4.975   5.753
 7109SOL    HW122226   2.465   5.036   5.811
 7109SOL    HW222227   2.461   4.928   5.689
 7110SOL     OW22228   2.833   5.592   5.717
 7110SOL    HW122229   2.924   5.614   5.753
 7110SOL    HW222230   2.763   5.635   5.774
 7111SOL     OW22231   6.700   0.946   4.755
 7111SOL    HW122232   6.672   1.016   4.821
 7111SOL    HW222233   6.648   0.862   4.773
 7112SOL     OW22234   6.453   5.038   5.024
 7112SOL    HW122235   6.499   5.084   5.099
 7112SOL    HW222236   6.374   5.092   4.996
 7113SOL     OW22237   3.404   0.053   5.028
 7113SOL    HW122238   3.487   0.034   4.976
 7113SOL    HW222239   3.379   0.149   5.017
 7114SOL     OW22240   5.421   4.321   0.162
 7114SOL    HW122241   5.392   4.245   0.105
 7114SOL    HW222242   5.521   4.321   0.169
 7115SOL     OW22243   4.792   2.847   5.845
 7115SOL    HW122244   4.828   2.908   5.774
 7115SOL    HW222245   4.699   2.875   5.869
 7116SOL     OW22246   6.149   5.281   4.725
 7116SOL    HW122247   6.228   5.321   4.679
 7116SOL    HW222248   6.065   5.319   4.686
 7117SOL     OW22249   4.241   0.411   3.234
 7117SOL    HW122250   4.212   0.419   3.330
 7117SOL    HW222251   4.165   0.377   3.179
 7118SOL     OW22252   4.690   4.121   5.612
 7118SOL    HW122253   4.785   4.094   5.599
 7118SOL    HW222254   4.667   4.195   5.548
 7119SOL     OW22255   2.697   6.394   4.349
 7119SOL    HW122256   2.703   6.494   4.348
 7119SOL    HW222257   2.639   6.364   4.274
 7120SOL     OW22258   4.280   1.350   2.291
 7120SOL    HW122259   4.242   1.262   2.264
 7120SOL    HW222260   4.225   1.389   2.365
 7121SOL     OW22261   1.176   5.994   1.820
 7121SOL    HW122262   1.206   6.077   1.773
 7121SOL    HW222263   1.090   6.012   1.868
 7122SOL     OW22264   3.271   2.056   6.126
 7122SOL    HW122265   3.363   2.021   6.106
 7122SOL    HW222266   3.251   2.044   6.223
 7123SOL     OW22267   5.285   4.468   6.708
 7123SOL    HW122268   5.238   4.437   6.626
 7123SOL    HW222269   5.239   4.431   6.789
 7124SOL     OW22270   2.963   2.780   6.402
 7124SOL    HW122271   3.040   2.835   6.370
 7124SOL    HW222272   2.996   2.711   6.467
 7125SOL     OW22273   1.028   6.351   1.366
 7125SOL    HW122274   1.013   6.259   1.329
 7125SOL    HW222275   1.050   6.344   1.463
 7126SOL     OW22276   3.930   4.952   1.084
 7126SOL    HW122277   3.945   5.009   1.165
 7126SOL    HW222278   3.843   4.903   1.093
 7127SOL     OW22279   2.733   6.705   5.192
 7127SOL    HW122280   2.706   6.705   5.289
 7127SOL    HW222281   2.703   6.791   5.150
 7128SOL     OW22282   3.501   4.288   0.184
 7128SOL    HW122283   3.530   4.350   0.112
 7128SOL    HW222284   3.422   4.235   0.153
 7129SOL     OW22285   0.094   2.076   0.040
 7129SOL    HW122286   0.109   2.146   0.110
 7129SOL    HW222287   0.023   2.107   7.003
 7130SOL     OW22288   3.596   0.166   4.110
 7130SOL    HW122289   3.531   0.223   4.059
 7130SOL    HW222290   3.661   0.225   4.159
 7131SOL     OW22291   2.000   1.519   3.081
 7131SOL    HW122292   2.066   1.509   3.006
 7131SOL    HW222293   1.908   1.524   3.043
 7132SOL     OW22294   5.330   4.883   1.839
 7132SOL    HW122295   5.293   4.878   1.931
 7132SOL    HW222296   5.398   4.811   1.825
 7133SOL     OW22297   3.317   5.928   2.366
 7133SOL    HW122298   3.275   6.003   2.417
 7133SOL    HW222299   3.312   5.947   2.268
 7134SOL     OW22300   4.893   4.703   6.935
 7134SOL    HW122301   4.974   4.758   6.917
 7134SOL    HW222302   4.815   4.741   6.885
 7135SOL     OW22303   2.220   4.529   1.287
 7135SOL    HW122304   2.315   4.560   1.290
 7135SOL    HW222305   2.213   4.452   1.224
 7136SOL     OW22306   1.575   3.191   2.396
 7136SOL    HW122307   1.519   3.255   2.344
 7136SOL    HW222308   1.571   3.101   2.352
 7137SOL     OW22309   1.763   6.941   2.210
 7137SOL    HW122310   1.825   6.948   2.288
 7137SOL    HW222311   1.816   6.922   2.127
 7138SOL     OW22312   6.531   3.738   0.248
 7138SOL    HW122313   6.536   3.837   0.235
 7138SOL    HW222314   6.558   3.715   0.341
 7139SOL     OW22315   5.499   5.891   1.048
 7139SOL    HW122316   5.452   5.959   0.992
 7139SOL    HW222317   5.431   5.829   1.088
 7140SOL     OW22318   0.172   4.809   0.587
 7140SOL    HW122319   0.229   4.878   0.543
 7140SOL    HW222320   0.230   4.742   0.633
 7141SOL     OW22321   2.712   1.836   0.661
 7141SOL    HW122322   2.716   1.796   0.752
 7141SOL    HW222323   2.656   1.778   0.602
 7142SOL     OW22324   4.789   6.463   5.746
 7142SOL    HW122325   4.861   6.505   5.691
 7142SOL    HW222326   4.784   6.365   5.728
 7143SOL     OW22327   3.243   3.013   5.925
 7143SOL    HW122328   3.272   3.073   6.000
 7143SOL    HW222329   3.175   3.061   5.870
 7144SOL     OW22330   6.288   1.489   5.566
 7144SOL    HW122331   6.207   1.472   5.509
 7144SOL    HW222332   6.370   1.456   5.519
 7145SOL     OW22333   0.318   3.202   6.863
 7145SOL    HW122334   0.396   3.156   6.906
 7145SOL    HW222335   0.249   3.133   6.839
 7146SOL     OW22336   0.188   1.730   4.732
 7146SOL    HW122337   0.246   1.734   4.813
 7146SOL    HW222338   0.234   1.776   4.656
 7147SOL     OW22339   7.025   6.859   0.633
 7147SOL    HW122340   0.059   6.884   0.556
 7147SOL    HW222341   0.025   6.768   0.666
 7148SOL     OW22342   5.389   6.582   0.861
 7148SOL    HW122343   5.372   6.568   0.763
 7148SOL    HW222344   5.402   6.680   0.879
 7149SOL     OW22345   6.191   4.134   6.725
 7149SOL    HW122346   6.124   4.083   6.670
 7149SOL    HW222347   6.277   4.140   6.675
 7150SOL     OW22348   2.892   2.056   6.960
 7150SOL    HW122349   2.942   2.078   6.877
 7150SOL    HW222350   2.956   2.030   0.007
 7151SOL     OW22351   5.626   2.099   0.116
 7151SOL    HW122352   5.550   2.137   0.063
 7151SOL    HW222353   5.713   2.131   0.078
 7152SOL     OW22354   5.515   0.367   5.158
 7152SOL    HW122355   5.607   0.331   5.142
 7152SOL    HW222356   5.515   0.466   5.149
 7153SOL     OW22357   5.107   5.985   0.581
 7153SOL    HW122358   5.116   5.920   0.506
 7153SOL    HW222359   5.134   5.941   0.667
 7154SOL     OW22360   4.773   0.335   1.708
 7154SOL    HW122361   4.865   0.312   1.740
 7154SOL    HW222362   4.761   0.434   1.708
 7155SOL     OW22363   2.114   0.312   1.277
 7155SOL    HW122364   2.201   0.262   1.270
 7155SOL    HW222365   2.090   0.348   1.187
 7156SOL     OW22366   6.195   3.093   5.452
 7156SOL    HW122367   6.285   3.110   5.491
 7156SOL    HW222368   6.202   3.024   5.380
 7157SOL     OW22369   6.787   3.462   5.241
 7157SOL    HW122370   6.735   3.490   5.161
 7157SOL    HW222371   6.786   3.535   5.309
 7158SOL     OW22372   4.698   0.330   4.053
 7158SOL    HW122373   4.651   0.276   3.983
 7158SOL    HW222374   4.747   0.406   4.010
 7159SOL     OW22375   0.549   6.433   2.979
 7159SOL    HW122376   0.524   6.501   2.911
 7159SOL    HW222377   0.634   6.388   2.951
 7160SOL     OW22378   5.459   6.914   2.746
 7160SOL    HW122379   5.405   6.966   2.812
 7160SOL    HW222380   5.404   6.897   2.664
 7161SOL     OW22381   3.715   3.291   1.967
 7161SOL    HW122382   3.763   3.322   2.048
 7161SOL    HW222383   3.689   3.370   1.911
 7162SOL     OW22384   0.878   6.170   0.617
 7162SOL    HW122385   0.815   6.247   0.628
 7162SOL    HW222386   0.871   6.133   0.525
 7163SOL     OW22387   6.829   6.955   0.227
 7163SOL    HW122388   6.738   6.927   0.258
 7163SOL    HW222389   6.858   0.010   0.279
 7164SOL     OW22390   1.612   6.432   6.995
 7164SOL    HW122391   1.531   6.384   6.963
 7164SOL    HW222392   1.611   6.526   6.962
 7165SOL     OW22393   4.010   2.262   6.585
 7165SOL    HW122394   4.015   2.288   6.682
 7165SOL    HW222395   3.922   2.216   6.568
 7166SOL     OW22396   6.647   6.398   4.782
 7166SOL    HW122397   6.604   6.472   4.834
 7166SOL    HW222398   6.668   6.430   4.690
 7167SOL     OW22399   0.729   3.271   5.460
 7167SOL    HW122400   0.706   3.198   5.395
 7167SOL    HW222401   0.789   3.337   5.416
 7168SOL     OW22402   1.059   7.007   2.482
 7168SOL    HW122403   0.989   6.978   2.416
 7168SOL    HW222404   1.143   6.955   2.466
 7169SOL     OW22405   1.687   4.629   5.912
 7169SOL    HW122406   1.704   4.586   6.001
 7169SOL    HW222407   1.645   4.562   5.850
 7170SOL     OW22408   4.234   2.171   1.523
 7170SOL    HW122409   4.265   2.210   1.609
 7170SOL    HW222410   4.137   2.146   1.530
 7171SOL     OW22411   0.618   5.039   1.243
 7171SOL    HW122412   0.631   4.995   1.332
 7171SOL    HW222413   0.522   5.067   1.233
 7172SOL     OW22414   1.204   2.799   3.636
 7172SOL    HW122415   1.181   2.752   3.721
 7172SOL    HW222416   1.142   2.877   3.623
 7173SOL     OW22417   3.304   5.415   4.438
 7173SOL    HW122418   3.303   5.317   4.417
 7173SOL    HW222419   3.238   5.435   4.511
 7174SOL     OW22420   6.722   3.557   2.223
 7174SOL    HW122421   6.748   3.653   2.209
 7174SOL    HW222422   6.795   3.509   2.271
 7175SOL     OW22423   6.416   3.287   6.202
 7175SOL    HW122424   6.496   3.285   6.262
 7175SOL    HW222425   6.441   3.252   6.112
 7176SOL     OW22426   6.778   1.610   6.652
 7176SOL    HW122427   6.831   1.528   6.673
 7176SOL    HW222428   6.734   1.643   6.736
 7177SOL     OW22429   1.035   5.856   3.599
 7177SOL    HW122430   1.071   5.883   3.688
 7177SOL    HW222431   1.100   5.882   3.528
 7178SOL     OW22432   1.205   6.748   5.502
 7178SOL    HW122433   1.298   6.730   5.534
 7178SOL    HW222434   1.167   6.827   5.551
 7179SOL     OW22435   5.018   3.946   5.815
 7179SOL    HW122436   4.996   4.026   5.760
 7179SOL    HW222437   5.108   3.911   5.789
 7180SOL     OW22438   0.144   2.257   2.064
 7180SOL    HW122439   0.188   2.256   1.974
 7180SOL    HW222440   0.070   2.324   2.063
 7181SOL     OW22441   3.351   0.073   0.212
 7181SOL    HW122442   3.276   0.057   0.276
 7181SOL    HW222443   3.390   0.164   0.228
 7182SOL     OW22444   2.090   1.145   2.851
 7182SOL    HW122445   2.096   1.046   2.861
 7182SOL    HW222446   2.072   1.167   2.755
 7183SOL     OW22447   1.615   0.385   1.191
 7183SOL    HW122448   1.605   0.461   1.127
 7183SOL    HW222449   1.692   0.328   1.164
 7184SOL     OW22450   0.254   1.359   3.585
 7184SOL    HW122451   0.173   1.414   3.606
 7184SOL    HW222452   0.243   1.267   3.622
 7185SOL     OW22453   3.944   0.536   3.576
 7185SOL    HW122454   4.019   0.477   3.547
 7185SOL    HW222455   3.980   0.610   3.633
 7186SOL     OW22456   6.714   1.740   6.864
 7186SOL    HW122457   6.683   1.704   6.952
 7186SOL    HW222458   6.729   1.839   6.873
 7187SOL     OW22459   3.719   3.643   4.255
 7187SOL    HW122460   3.631   3.645   4.303
 7187SOL    HW222461   3.786   3.594   4.310
 7188SOL     OW22462   5.009   4.509   0.149
 7188SOL    HW122463   4.937   4.578   0.157
 7188SOL    HW222464   5.037   4.501   0.053
 7189SOL     OW22465   6.769   2.005   5.935
 7189SOL    HW122466   6.724   2.086   5.897
 7189SOL    HW222467   6.702   1.933   5.948
 7190SOL     OW22468   5.701   6.174   0.561
 7190SOL    HW122469   5.791   6.134   0.546
 7190SOL    HW222470   5.641   6.105   0.603
 7191SOL     OW22471   0.116   4.802   2.837
 7191SOL    HW122472   0.135   4.799   2.739
 7191SOL    HW222473   0.170   4.733   2.884
 7192SOL     OW22474   3.384   3.944   5.734
 7192SOL    HW122475   3.324   3.983   5.664
 7192SOL    HW222476   3.470   3.916   5.692
 7193SOL     OW22477   3.701   1.440   3.394
 7193SOL    HW122478   3.784   1.495   3.391
 7193SOL    HW222479   3.707   1.367   3.326
 7194SOL     OW22480   3.589   2.258   5.334
 7194SOL    HW122481   3.623   2.178   5.384
 7194SOL    HW222482   3.649   2.277   5.256
 7195SOL     OW22483   0.472   4.230   5.561
 7195SOL    HW122484   0.534   4.263   5.489
 7195SOL    HW222485   0.468   4.299   5.634
 7196SOL     OW22486   3.018   3.869   1.857
 7196SOL    HW122487   3.074   3.908   1.784
 7196SOL    HW222488   2.999   3.940   1.926
 7197SOL     OW22489   3.626   4.434   6.233
 7197SOL    HW122490   3.551   4.495   6.207
 7197SOL    HW222491   3.590   4.361   6.291
 7198SOL     OW22492   1.057   0.200   2.214
 7198SOL    HW122493   0.964   0.209   2.178
 7198SOL    HW222494   1.063   0.117   2.269
 7199SOL     OW22495   5.941   0.861   3.462
 7199SOL    HW122496   6.021   0.811   3.428
 7199SOL    HW222497   5.882   0.886   3.385
 7200SOL     OW22498   0.554   4.046   6.625
 7200SOL    HW122499   0.572   3.966   6.683
 7200SOL    HW222500   0.611   4.042   6.543
 7201SOL     OW22501   5.450   6.052   4.429
 7201SOL    HW122502   5.469   6.014   4.338
 7201SOL    HW222503   5.486   5.991   4.499
 7202SOL     OW22504   5.063   0.601   5.949
 7202SOL    HW122505   5.148   0.554   5.926
 7202SOL    HW222506   5.081   0.667   6.022
 7203SOL     OW22507   1.104   1.768   1.132
 7203SOL    HW122508   1.144   1.840   1.074
 7203SOL    HW222509   1.138   1.778   1.225
 7204SOL     OW22510   6.027   0.769   2.952
 7204SOL    HW122511   6.003   0.863   2.976
 7204SOL    HW222512   5.978   0.742   2.869
 7205SOL     OW22513   3.088   1.692   4.137
 7205SOL    HW122514   3.088   1.743   4.051
 7205SOL    HW222515   3.180   1.659   4.156
 7206SOL     OW22516   2.247   3.030   6.399
 7206SOL    HW122517   2.157   2.988   6.411
 7206SOL    HW222518   2.241   3.104   6.332
 7207SOL     OW22519   1.760   2.261   3.488
 7207SOL    HW122520   1.789   2.192   3.422
 7207SOL    HW222521   1.840   2.314   3.518
 7208SOL     OW22522   3.177   0.086   3.428
 7208SOL    HW122523   3.172   0.103   3.526
 7208SOL    HW222524   3.263   0.039   3.407
 7209SOL     OW22525   4.048   0.695   2.123
 7209SOL    HW122526   4.121   0.705   2.056
 7209SOL    HW222527   4.063   0.759   2.199
 7210SOL     OW22528   3.351   1.274   4.263
 7210SOL    HW122529   3.405   1.193   4.285
 7210SOL    HW222530   3.380   1.350   4.320
 7211SOL     OW22531   4.382   5.777   5.908
 7211SOL    HW122532   4.398   5.828   5.992
 7211SOL    HW222533   4.349   5.838   5.837
 7212SOL     OW22534   0.711   5.851   4.582
 7212SOL    HW122535   0.627   5.903   4.564
 7212SOL    HW222536   0.784   5.885   4.523
 7213SOL     OW22537   4.641   2.503   0.223
 7213SOL    HW122538   4.627   2.438   0.148
 7213SOL    HW222539   4.704   2.575   0.193
 7214SOL     OW22540   6.486   1.224   5.907
 7214SOL    HW122541   6.498   1.169   5.825
 7214SOL    HW222542   6.489   1.164   5.988
 7215SOL     OW22543   6.041   1.395   2.627
 7215SOL    HW122544   6.012   1.487   2.600
 7215SOL    HW222545   5.988   1.366   2.706
 7216SOL     OW22546   5.708   6.656   4.016
 7216SOL    HW122547   5.685   6.739   4.066
 7216SOL    HW222548   5.798   6.668   3.973
 7217SOL     OW22549   1.017   3.204   3.269
 7217SOL    HW122550   1.050   3.238   3.357
 7217SOL    HW222551   1.062   3.255   3.195
 7218SOL     OW22552   6.762   2.654   5.416
 7218SOL    HW122553   6.851   2.608   5.417
 7218SOL    HW222554   6.761   2.721   5.342
 7219SOL     OW22555   3.193   6.008   1.762
 7219SOL    HW122556   3.150   5.933   1.811
 7219SOL    HW222557   3.284   5.981   1.730
 7220SOL     OW22558   6.865   3.318   3.709
 7220SOL    HW122559   6.885   3.221   3.698
 7220SOL    HW222560   6.855   3.340   3.806
 7221SOL     OW22561   4.643   4.970   3.444
 7221SOL    HW122562   4.692   5.032   3.504
 7221SOL    HW222563   4.602   4.896   3.498
 7222SOL     OW22564   6.630   6.140   3.923
 7222SOL    HW122565   6.681   6.070   3.873
 7222SOL    HW222566   6.562   6.181   3.861
 7223SOL     OW22567   6.931   5.942   1.842
 7223SOL    HW122568   0.005   5.947   1.827
 7223SOL    HW222569   6.901   6.024   1.889
 7224SOL     OW22570   4.998   2.483   2.223
 7224SOL    HW122571   4.949   2.565   2.250
 7224SOL    HW222572   5.033   2.436   2.304
 7225SOL     OW22573   0.861   5.561   0.078
 7225SOL    HW122574   0.850   5.583   7.007
 7225SOL    HW222575   0.826   5.469   0.095
 7226SOL     OW22576   6.250   6.491   0.306
 7226SOL    HW122577   6.350   6.497   0.306
 7226SOL    HW222578   6.222   6.405   0.265
 7227SOL     OW22579   1.986   1.128   1.923
 7227SOL    HW122580   2.073   1.173   1.900
 7227SOL    HW222581   1.918   1.196   1.948
 7228SOL     OW22582   5.680   3.085   3.011
 7228SOL    HW122583   5.632   2.997   3.006
 7228SOL    HW222584   5.629   3.147   3.071
 7229SOL     OW22585   6.393   0.197   5.150
 7229SOL    HW122586   6.482   0.211   5.195
 7229SOL    HW222587   6.354   0.110   5.180
 7230SOL     OW22588   2.175   4.918   5.201
 7230SOL    HW122589   2.251   4.854   5.192
 7230SOL    HW222590   2.092   4.878   5.163
 7231SOL     OW22591   3.895   3.163   6.302
 7231SOL    HW122592   3.949   3.229   6.249
 7231SOL    HW222593   3.825   3.212   6.354
 7232SOL     OW22594   4.535   6.048   3.539
 7232SOL    HW122595   4.449   6.084   3.577
 7232SOL    HW222596   4.530   5.949   3.532
 7233SOL     OW22597   0.311   1.792   6.317
 7233SOL    HW122598   0.286   1.884   6.286
 7233SOL    HW222599   0.230   1.733   6.314
 7234SOL     OW22600   5.761   4.821   2.843
 7234SOL    HW122601   5.822   4.865   2.910
 7234SOL    HW222602   5.805   4.821   2.753
 7235SOL     OW22603   6.613   0.580   1.556
 7235SOL    HW122604   6.615   0.670   1.512
 7235SOL    HW222605   6.631   0.590   1.654
 7236SOL     OW22606   0.516   3.790   2.730
 7236SOL    HW122607   0.485   3.759   2.640
 7236SOL    HW222608   0.475   3.733   2.801
 7237SOL     OW22609   5.333   1.250   0.138
 7237SOL    HW122610   5.319   1.194   0.219
 7237SOL    HW222611   5.289   1.339   0.151
 7238SOL     OW22612   4.358   3.234   0.147
 7238SOL    HW122613   4.322   3.320   0.183
 7238SOL    HW222614   4.458   3.233   0.157
 7239SOL     OW22615   5.727   2.793   1.760
 7239SOL    HW122616   5.804   2.786   1.697
 7239SOL    HW222617   5.652   2.734   1.728
 7240SOL     OW22618   0.404   2.027   0.157
 7240SOL    HW122619   0.333   2.054   0.092
 7240SOL    HW222620   0.425   2.103   0.218
 7241SOL     OW22621   2.130   0.306   2.670
 7241SOL    HW122622   2.145   0.207   2.675
 7241SOL    HW222623   2.034   0.327   2.684
 7242SOL     OW22624   6.215   4.145   5.528
 7242SOL    HW122625   6.300   4.135   5.580
 7242SOL    HW222626   6.138   4.123   5.587
 7243SOL     OW22627   5.724   4.523   6.258
 7243SOL    HW122628   5.696   4.427   6.254
 7243SOL    HW222629   5.779   4.545   6.178
 7244SOL     OW22630   6.849   6.033   6.630
 7244SOL    HW122631   6.771   5.973   6.613
 7244SOL    HW222632   6.931   5.978   6.646
 7245SOL     OW22633   1.445   2.202   0.019
 7245SOL    HW122634   1.387   2.235   6.969
 7245SOL    HW222635   1.435   2.103   0.028
 7246SOL     OW22636   4.341   6.734   3.947
 7246SOL    HW122637   4.436   6.705   3.958
 7246SOL    HW222638   4.282   6.675   4.002
 7247SOL     OW22639   3.493   4.050   4.884
 7247SOL    HW122640   3.435   4.104   4.823
 7247SOL    HW222641   3.532   4.109   4.954
 7248SOL     OW22642   2.381   1.480   5.191
 7248SOL    HW122643   2.367   1.560   5.250
 7248SOL    HW222644   2.295   1.460   5.143
 7249SOL     OW22645   3.216   5.761   2.780
 7249SOL    HW122646   3.251   5.744   2.872
 7249SOL    HW222647   3.257   5.845   2.745
 7250SOL     OW22648   5.117   5.289   5.702
 7250SOL    HW122649   5.135   5.369   5.644
 7250SOL    HW222650   5.195   5.275   5.763
 7251SOL     OW22651   0.961   6.230   4.461
 7251SOL    HW122652   0.928   6.238   4.555
 7251SOL    HW222653   0.941   6.138   4.427
 7252SOL     OW22654   4.054   3.880   2.247
 7252SOL    HW122655   4.140   3.931   2.238
 7252SOL    HW222656   4.061   3.794   2.197
 7253SOL     OW22657   2.113   5.244   5.147
 7253SOL    HW122658   2.064   5.182   5.209
 7253SOL    HW222659   2.166   5.310   5.201
 7254SOL     OW22660   6.760   3.605   3.992
 7254SOL    HW122661   6.720   3.633   3.904
 7254SOL    HW222662   6.702   3.536   4.035
 7255SOL     OW22663   4.635   4.055   0.457
 7255SOL    HW122664   4.729   4.061   0.489
 7255SOL    HW222665   4.579   4.008   0.525
 7256SOL     OW22666   2.972   6.632   4.149
 7256SOL    HW122667   3.057   6.599   4.191
 7256SOL    HW222668   2.945   6.570   4.075
 7257SOL     OW22669   0.883   1.038   5.220
 7257SOL    HW122670   0.949   1.107   5.192
 7257SOL    HW222671   0.794   1.081   5.235
 7258SOL     OW22672   6.288   2.578   2.455
 7258SOL    HW122673   6.258   2.609   2.545
 7258SOL    HW222674   6.324   2.656   2.403
 7259SOL     OW22675   1.076   4.230   2.494
 7259SOL    HW122676   1.016   4.150   2.487
 7259SOL    HW222677   1.060   4.277   2.580
 7260SOL     OW22678   6.310   3.430   1.174
 7260SOL    HW122679   6.300   3.528   1.158
 7260SOL    HW222680   6.392   3.413   1.229
 7261SOL     OW22681   0.408   4.294   6.904
 7261SOL    HW122682   0.438   4.290   6.999
 7261SOL    HW222683   0.487   4.288   6.844
 7262SOL     OW22684   4.055   0.450   5.231
 7262SOL    HW122685   3.986   0.515   5.202
 7262SOL    HW222686   4.053   0.441   5.331
 7263SOL     OW22687   6.318   5.472   5.149
 7263SOL    HW122688   6.231   5.443   5.189
 7263SOL    HW222689   6.300   5.518   5.061
 7264SOL     OW22690   5.514   1.084   1.620
 7264SOL    HW122691   5.447   1.085   1.695
 7264SOL    HW222692   5.467   1.102   1.534
 7265SOL     OW22693   3.562   0.347   6.029
 7265SOL    HW122694   3.578   0.425   6.089
 7265SOL    HW222695   3.562   0.263   6.083
 7266SOL     OW22696   6.823   0.926   3.519
 7266SOL    HW122697   6.886   0.853   3.547
 7266SOL    HW222698   6.737   0.885   3.488
 7267SOL     OW22699   6.959   4.030   5.203
 7267SOL    HW122700   0.005   3.960   5.216
 7267SOL    HW222701   6.870   3.986   5.200
 7268SOL     OW22702   5.498   6.326   4.460
 7268SOL    HW122703   5.591   6.353   4.484
 7268SOL    HW222704   5.489   6.227   4.469
 7269SOL     OW22705   2.809   5.377   4.197
 7269SOL    HW122706   2.729   5.387   4.257
 7269SOL    HW222707   2.778   5.366   4.103
 7270SOL     OW22708   0.540   0.193   4.744
 7270SOL    HW122709   0.608   0.258   4.779
 7270SOL    HW222710   0.529   0.208   4.645
 7271SOL     OW22711   0.492   4.832   3.358
 7271SOL    HW122712   0.569   4.872   3.408
 7271SOL    HW222713   0.505   4.845   3.260
 7272SOL     OW22714   5.837   4.310   1.604
 7272SOL    HW122715   5.778   4.252   1.660
 7272SOL    HW222716   5.780   4.370   1.547
 7273SOL     OW22717   0.401   1.165   5.443
 7273SOL    HW122718   0.323   1.199   5.495
 7273SOL    HW222719   0.444   1.090   5.493
 7274SOL     OW22720   0.105   5.227   6.183
 7274SOL    HW122721   0.106   5.127   6.191
 7274SOL    HW222722   0.122   5.253   6.088
 7275SOL     OW22723   0.759   5.288   3.421
 7275SOL    HW122724   0.721   5.333   3.340
 7275SOL    HW222725   0.777   5.357   3.492
 7276SOL     OW22726   4.818   6.334   3.385
 7276SOL    HW122727   4.746   6.286   3.335
 7276SOL    HW222728   4.791   6.429   3.400
 7277SOL     OW22729   4.975   0.743   0.312
 7277SOL    HW122730   4.989   0.685   0.392
 7277SOL    HW222731   5.028   0.828   0.323
 7278SOL     OW22732   3.600   2.844   2.383
 7278SOL    HW122733   3.690   2.852   2.426
 7278SOL    HW222734   3.583   2.748   2.360
 7279SOL     OW22735   3.578   6.623   5.999
 7279SOL    HW122736   3.553   6.597   6.092
 7279SOL    HW222737   3.502   6.673   5.957
 7280SOL     OW22738   4.805   1.066   6.359
 7280SOL    HW122739   4.898   1.102   6.347
 7280SOL    HW222740   4.739   1.142   6.356
 7281SOL     OW22741   5.721   1.285   6.135
 7281SOL    HW122742   5.635   1.282   6.187
 7281SOL    HW222743   5.708   1.242   6.046
 7282SOL     OW22744   5.833   6.123   2.795
 7282SOL    HW122745   5.882   6.165   2.871
 7282SOL    HW222746   5.817   6.192   2.724
 7283SOL     OW22747   2.135   1.710   3.732
 7283SOL    HW122748   2.223   1.758   3.728
 7283SOL    HW222749   2.151   1.612   3.743
 7284SOL     OW22750   1.383   1.801   5.489
 7284SOL    HW122751   1.400   1.890   5.532
 7284SOL    HW222752   1.290   1.772   5.508
 7285SOL     OW22753   6.069   5.374   1.832
 7285SOL    HW122754   6.069   5.279   1.866
 7285SOL    HW222755   5.998   5.426   1.878
 7286SOL     OW22756   1.647   3.952   0.788
 7286SOL    HW122757   1.629   4.050   0.787
 7286SOL    HW222758   1.745   3.936   0.783
 7287SOL     OW22759   6.353   1.713   5.674
 7287SOL    HW122760   6.329   1.616   5.662
 7287SOL    HW222761   6.421   1.739   5.606
 7288SOL     OW22762   2.960   0.318   0.290
 7288SOL    HW122763   2.948   0.238   0.232
 7288SOL    HW222764   2.988   0.289   0.382
 7289SOL     OW22765   4.592   2.341   4.277
 7289SOL    HW122766   4.503   2.316   4.314
 7289SOL    HW222767   4.583   2.364   4.180
 7290SOL     OW22768   2.421   5.442   4.622
 7290SOL    HW122769   2.490   5.430   4.693
 7290SOL    HW222770   2.369   5.357   4.612
 7291SOL     OW22771   3.551   4.658   1.494
 7291SOL    HW122772   3.608   4.677   1.574
 7291SOL    HW222773   3.474   4.601   1.522
 7292SOL     OW22774   3.331   0.306   4.843
 7292SOL    HW122775   3.351   0.352   4.756
 7292SOL    HW222776   3.392   0.342   4.914
 7293SOL     OW22777   2.166   1.274   6.618
 7293SOL    HW122778   2.210   1.309   6.536
 7293SOL    HW222779   2.232   1.270   6.693
 7294SOL     OW22780   5.518   5.276   6.916
 7294SOL    HW122781   5.504   5.361   6.865
 7294SOL    HW222782   5.610   5.242   6.899
 7295SOL     OW22783   4.597   0.156   1.580
 7295SOL    HW122784   4.663   0.217   1.623
 7295SOL    HW222785   4.506   0.174   1.617
 7296SOL     OW22786   4.340   5.298   1.172
 7296SOL    HW122787   4.329   5.257   1.081
 7296SOL    HW222788   4.252   5.296   1.220
 7297SOL     OW22789   4.882   6.753   2.092
 7297SOL    HW122790   4.966   6.800   2.118
 7297SOL    HW222791   4.803   6.812   2.110
 7298SOL     OW22792   6.284   3.532   4.104
 7298SOL    HW122793   6.242   3.457   4.155
 7298SOL    HW222794   6.246   3.535   4.012
 7299SOL     OW22795   5.643   3.491   6.663
 7299SOL    HW122796   5.643   3.422   6.590
 7299SOL    HW222797   5.566   3.554   6.649
 7300SOL     OW22798   4.721   5.775   1.642
 7300SOL    HW122799   4.788   5.702   1.656
 7300SOL    HW222800   4.651   5.745   1.577
 7301SOL     OW22801   6.677   1.488   6.414
 7301SOL    HW122802   6.694   1.542   6.497
 7301SOL    HW222803   6.658   1.550   6.338
 7302SOL     OW22804   5.823   0.828   6.223
 7302SOL    HW122805   5.845   0.925   6.208
 7302SOL    HW222806   5.882   0.791   6.295
 7303SOL     OW22807   3.908   0.759   0.589
 7303SOL    HW122808   3.912   0.809   0.675
 7303SOL    HW222809   3.991   0.778   0.536
 7304SOL     OW22810   3.634   2.962   5.067
 7304SOL    HW122811   3.553   2.907   5.045
 7304SOL    HW222812   3.675   2.930   5.152
 7305SOL     OW22813   5.584   1.875   0.269
 7305SOL    HW122814   5.523   1.902   0.343
 7305SOL    HW222815   5.614   1.957   0.218
 7306SOL     OW22816   4.873   4.946   2.080
 7306SOL    HW122817   4.913   4.964   2.170
 7306SOL    HW222818   4.941   4.901   2.022
 7307SOL     OW22819   4.418   6.426   2.290
 7307SOL    HW122820   4.453   6.386   2.206
 7307SOL    HW222821   4.400   6.354   2.357
 7308SOL     OW22822   5.862   0.888   4.259
 7308SOL    HW122823   5.920   0.853   4.186
 7308SOL    HW222824   5.769   0.856   4.246
 7309SOL     OW22825   4.389   5.132   1.608
 7309SOL    HW122826   4.428   5.172   1.525
 7309SOL    HW222827   4.459   5.077   1.654
 7310SOL     OW22828   1.921   5.678   1.746
 7310SOL    HW122829   1.979   5.632   1.678
 7310SOL    HW222830   1.947   5.648   1.838
 7311SOL     OW22831   2.531   1.965   2.071
 7311SOL    HW122832   2.528   1.902   2.148
 7311SOL    HW222833   2.563   1.917   1.989
 7312SOL     OW22834   6.795   2.252   6.275
 7312SOL    HW122835   6.727   2.285   6.210
 7312SOL    HW222836   6.749   2.217   6.357
 7313SOL     OW22837   3.576   2.279   6.241
 7313SOL    HW122838   3.598   2.275   6.339
 7313SOL    HW222839   3.488   2.327   6.230
 7314SOL     OW22840   0.867   2.777   4.241
 7314SOL    HW122841   0.827   2.722   4.167
 7314SOL    HW222842   0.795   2.811   4.300
 7315SOL     OW22843   0.149   0.825   5.939
 7315SOL    HW122844   0.081   0.775   5.887
 7315SOL    HW222845   0.113   0.847   6.030
 7316SOL     OW22846   3.712   2.896   4.804
 7316SOL    HW122847   3.802   2.927   4.834
 7316SOL    HW222848   3.648   2.899   4.881
 7317SOL     OW22849   2.828   1.146   4.072
 7317SOL    HW122850   2.878   1.128   4.157
 7317SOL    HW222851   2.839   1.242   4.047
 7318SOL     OW22852   1.429   1.561   1.047
 7318SOL    HW122853   1.425   1.470   1.005
 7318SOL    HW222854   1.450   1.629   0.977
 7319SOL     OW22855   0.253   3.959   6.240
 7319SOL    HW122856   0.260   3.939   6.142
 7319SOL    HW222857   0.158   3.949   6.269
 7320SOL     OW22858   0.341   1.583   2.387
 7320SOL    HW122859   0.376   1.644   2.457
 7320SOL    HW222860   0.358   1.488   2.412
 7321SOL     OW22861   2.815   1.644   4.223
 7321SOL    HW122862   2.905   1.661   4.183
 7321SOL    HW222863   2.799   1.709   4.297
 7322SOL     OW22864   0.451   3.321   1.382
 7322SOL    HW122865   0.382   3.351   1.448
 7322SOL    HW222866   0.541   3.324   1.425
 7323SOL     OW22867   2.199   3.991   2.973
 7323SOL    HW122868   2.249   4.050   2.910
 7323SOL    HW222869   2.254   3.911   2.995
 7324SOL     OW22870   5.226   5.028   3.138
 7324SOL    HW122871   5.248   4.941   3.181
 7324SOL    HW222872   5.128   5.035   3.124
 7325SOL     OW22873   2.956   6.036   0.293
 7325SOL    HW122874   2.907   5.956   0.260
 7325SOL    HW222875   2.890   6.102   0.330
 7326SOL     OW22876   2.476   0.898   4.434
 7326SOL    HW122877   2.483   0.948   4.348
 7326SOL    HW222878   2.385   0.857   4.442
 7327SOL     OW22879   1.419   3.138   5.493
 7327SOL    HW122880   1.460   3.111   5.581
 7327SOL    HW222881   1.402   3.056   5.438
 7328SOL     OW22882   2.340   7.004   6.685
 7328SOL    HW122883   2.363   0.069   6.721
 7328SOL    HW222884   2.241   6.988   6.696
 7329SOL     OW22885   4.578   3.565   1.662
 7329SOL    HW122886   4.496   3.612   1.629
 7329SOL    HW222887   4.565   3.466   1.653
 7330SOL     OW22888   4.543   1.968   0.636
 7330SOL    HW122889   4.641   1.977   0.621
 7330SOL    HW222890   4.509   1.887   0.589
 7331SOL     OW22891   4.757   1.423   1.777
 7331SOL    HW122892   4.830   1.357   1.793
 7331SOL    HW222893   4.753   1.446   1.680
 7332SOL     OW22894   3.818   5.957   0.604
 7332SOL    HW122895   3.841   5.886   0.671
 7332SOL    HW222896   3.902   5.997   0.568
 7333SOL     OW22897   0.453   5.007   2.729
 7333SOL    HW122898   0.452   5.066   2.810
 7333SOL    HW222899   0.410   5.054   2.652
 7334SOL     OW22900   3.113   0.242   4.666
 7334SOL    HW122901   3.188   0.247   4.731
 7334SOL    HW222902   3.107   0.150   4.627
 7335SOL     OW22903   2.113   3.510   2.858
 7335SOL    HW122904   2.063   3.550   2.782
 7335SOL    HW222905   2.125   3.412   2.843
 7336SOL     OW22906   1.829   6.250   4.002
 7336SOL    HW122907   1.852   6.153   4.010
 7336SOL    HW222908   1.864   6.300   4.081
 7337SOL     OW22909   4.859   2.549   1.846
 7337SOL    HW122910   4.773   2.601   1.852
 7337SOL    HW222911   4.881   2.533   1.750
 7338SOL     OW22912   0.062   3.113   0.009
 7338SOL    HW122913   0.099   3.121   0.101
 7338SOL    HW222914   0.001   3.033   0.004
 7339SOL     OW22915   1.314   5.751   4.851
 7339SOL    HW122916   1.270   5.665   4.826
 7339SOL    HW222917   1.398   5.732   4.902
 7340SOL     OW22918   2.632   6.461   0.092
 7340SOL    HW122919   2.599   6.475   7.024
 7340SOL    HW222920   2.575   6.514   0.156
 7341SOL     OW22921   6.629   1.911   0.962
 7341SOL    HW122922   6.683   1.827   0.974
 7341SOL    HW222923   6.683   1.989   0.993
 7342SOL     OW22924   0.687   6.232   2.221
 7342SOL    HW122925   0.707   6.259   2.127
 7342SOL    HW222926   0.672   6.133   2.224
 7343SOL     OW22927   6.137   3.141   0.332
 7343SOL    HW122928   6.179   3.058   0.368
 7343SOL    HW222929   6.078   3.118   0.255
 7344SOL     OW22930   2.875   6.595   5.905
 7344SOL    HW122931   2.777   6.589   5.886
 7344SOL    HW222932   2.908   6.507   5.940
 7345SOL     OW22933   3.612   5.822   5.622
 7345SOL    HW122934   3.626   5.883   5.700
 7345SOL    HW222935   3.688   5.834   5.557
 7346SOL     OW22936   4.102   5.185   2.004
 7346SOL    HW122937   4.139   5.222   1.919
 7346SOL    HW222938   4.076   5.260   2.064
 7347SOL     OW22939   6.102   1.304   0.281
 7347SOL    HW122940   6.026   1.301   0.216
 7347SOL    HW222941   6.082   1.372   0.351
 7348SOL     OW22942   6.750   5.004   0.374
 7348SOL    HW122943   6.795   4.918   0.397
 7348SOL    HW222944   6.666   5.014   0.428
 7349SOL     OW22945   3.978   1.849   1.507
 7349SOL    HW122946   4.013   1.811   1.593
 7349SOL    HW222947   3.987   1.948   1.508
 7350SOL     OW22948   3.722   0.875   4.322
 7350SOL    HW122949   3.729   0.847   4.418
 7350SOL    HW222950   3.633   0.919   4.306
 7351SOL     OW22951   2.250   4.701   3.938
 7351SOL    HW122952   2.171   4.676   3.883
 7351SOL    HW222953   2.327   4.641   3.915
 7352SOL     OW22954   5.888   3.353   4.119
 7352SOL    HW122955   5.824   3.414   4.165
 7352SOL    HW222956   5.890   3.265   4.167
 7353SOL     OW22957   6.292   1.099   5.470
 7353SOL    HW122958   6.212   1.153   5.496
 7353SOL    HW222959   6.280   1.065   5.376
 7354SOL     OW22960   0.918   1.659   2.858
 7354SOL    HW122961   0.824   1.680   2.885
 7354SOL    HW222962   0.933   1.691   2.765
 7355SOL     OW22963   3.222   1.541   0.722
 7355SOL    HW122964   3.207   1.494   0.635
 7355SOL    HW222965   3.144   1.601   0.741
 7356SOL     OW22966   4.401   4.237   6.290
 7356SOL    HW122967   4.332   4.212   6.358
 7356SOL    HW222968   4.469   4.297   6.332
 7357SOL     OW22969   4.822   6.488   2.077
 7357SOL    HW122970   4.839   6.587   2.074
 7357SOL    HW222971   4.782   6.459   1.990
 7358SOL     OW22972   4.927   0.221   3.198
 7358SOL    HW122973   4.834   0.260   3.197
 7358SOL    HW222974   4.991   0.288   3.161
 7359SOL     OW22975   4.092   6.976   2.176
 7359SOL    HW122976   4.158   7.006   2.245
 7359SOL    HW222977   4.021   6.922   2.220
 7360SOL     OW22978   2.781   3.743   5.222
 7360SOL    HW122979   2.776   3.649   5.256
 7360SOL    HW222980   2.807   3.742   5.126
 7361SOL     OW22981   6.736   0.461   3.114
 7361SOL    HW122982   6.785   0.543   3.143
 7361SOL    HW222983   6.638   0.479   3.114
 7362SOL     OW22984   3.621   5.598   0.194
 7362SOL    HW122985   3.539   5.585   0.249
 7362SOL    HW222986   3.603   5.668   0.124
 7363SOL     OW22987   4.056   0.934   1.107
 7363SOL    HW122988   4.044   1.000   1.180
 7363SOL    HW222989   4.054   0.981   1.019
 7364SOL     OW22990   6.267   6.188   1.791
 7364SOL    HW122991   6.288   6.254   1.718
 7364SOL    HW222992   6.251   6.237   1.877
 7365SOL     OW22993   4.896   3.693   2.410
 7365SOL    HW122994   4.968   3.758   2.385
 7365SOL    HW222995   4.864   3.646   2.327
 7366SOL     OW22996   2.343   0.050   3.475
 7366SOL    HW122997   2.387   0.090   3.395
 7366SOL    HW222998   2.381   6.985   3.493
 7367SOL     OW22999   4.181   1.111   6.742
 7367SOL    HW123000   4.194   1.067   6.831
 7367SOL    HW223001   4.227   1.200   6.743
 7368SOL     OW23002   3.126   3.427   3.523
 7368SOL    HW123003   3.063   3.387   3.457
 7368SOL    HW223004   3.126   3.372   3.607
 7369SOL     OW23005   5.964   3.836   7.005
 7369SOL    HW123006   5.961   3.926   0.023
 7369SOL    HW223007   5.870   3.804   6.989
 7370SOL     OW23008   1.726   1.547   4.691
 7370SOL    HW123009   1.693   1.453   4.677
 7370SOL    HW223010   1.825   1.550   4.675
 7371SOL     OW23011   4.000   0.784   3.266
 7371SOL    HW123012   3.907   0.753   3.282
 7371SOL    HW223013   4.001   0.884   3.255
 7372SOL     OW23014   4.964   0.972   5.347
 7372SOL    HW123015   5.002   1.033   5.278
 7372SOL    HW223016   5.002   0.880   5.335
 7373SOL     OW23017   6.016   3.066   4.405
 7373SOL    HW123018   5.993   3.046   4.309
 7373SOL    HW223019   6.098   3.015   4.430
 7374SOL     OW23020   0.921   2.532   6.649
 7374SOL    HW123021   0.838   2.580   6.675
 7374SOL    HW223022   0.982   2.593   6.599
 7375SOL     OW23023   2.246   3.129   0.321
 7375SOL    HW123024   2.239   3.169   0.229
 7375SOL    HW223025   2.157   3.094   0.349
 7376SOL     OW23026   6.497   4.759   0.425
 7376SOL    HW123027   6.398   4.751   0.435
 7376SOL    HW223028   6.524   4.855   0.438
 7377SOL     OW23029   2.735   5.572   1.169
 7377SOL    HW123030   2.781   5.497   1.218
 7377SOL    HW223031   2.772   5.578   1.077
 7378SOL     OW23032   1.792   5.119   5.570
 7378SOL    HW123033   1.746   5.072   5.645
 7378SOL    HW223034   1.840   5.052   5.514
 7379SOL     OW23035   4.605   2.009   2.489
 7379SOL    HW123036   4.702   1.989   2.503
 7379SOL    HW223037   4.561   1.931   2.444
 7380SOL     OW23038   5.248   3.665   1.618
 7380SOL    HW123039   5.280   3.689   1.709
 7380SOL    HW223040   5.196   3.580   1.621
 7381SOL     OW23041   3.587   6.569   1.732
 7381SOL    HW123042   3.570   6.540   1.826
 7381SOL    HW223043   3.665   6.520   1.695
 7382SOL     OW23044   0.371   2.239   6.396
 7382SOL    HW123045   0.384   2.174   6.471
 7382SOL    HW223046   0.459   2.280   6.372
 7383SOL     OW23047   2.192   6.727   0.862
 7383SOL    HW123048   2.142   6.809   0.833
 7383SOL    HW223049   2.246   6.692   0.785
 7384SOL     OW23050   6.547   6.853   0.286
 7384SOL    HW123051   6.514   6.946   0.302
 7384SOL    HW223052   6.515   6.821   0.197
 7385SOL     OW23053   6.276   4.798   3.153
 7385SOL    HW123054   6.274   4.779   3.055
 7385SOL    HW223055   6.349   4.745   3.195
 7386SOL     OW23056   5.757   4.254   6.998
 7386SOL    HW123057   5.678   4.316   7.002
 7386SOL    HW223058   5.827   4.293   6.938
 7387SOL     OW23059   6.615   5.529   3.995
 7387SOL    HW123060   6.551   5.453   3.982
 7387SOL    HW223061   6.595   5.600   3.927
 7388SOL     OW23062   2.404   4.454   2.584
 7388SOL    HW123063   2.479   4.519   2.575
 7388SOL    HW223064   2.331   4.479   2.520
 7389SOL     OW23065   6.510   3.082   0.586
 7389SOL    HW123066   6.553   3.150   0.526
 7389SOL    HW223067   6.581   3.032   0.635
 7390SOL     OW23068   2.903   2.270   3.603
 7390SOL    HW123069   2.875   2.350   3.655
 7390SOL    HW223070   2.824   2.209   3.591
 7391SOL     OW23071   3.259   4.031   2.928
 7391SOL    HW123072   3.193   3.967   2.887
 7391SOL    HW223073   3.253   4.025   3.028
 7392SOL     OW23074   3.255   6.545   0.902
 7392SOL    HW123075   3.192   6.488   0.955
 7392SOL    HW223076   3.291   6.618   0.960
 7393SOL     OW23077   5.359   5.712   3.125
 7393SOL    HW123078   5.264   5.689   3.109
 7393SOL    HW223079   5.373   5.809   3.108
 7394SOL     OW23080   2.430   2.045   6.139
 7394SOL    HW123081   2.428   2.100   6.222
 7394SOL    HW223082   2.515   1.993   6.134
 7395SOL     OW23083   2.850   6.246   1.293
 7395SOL    HW123084   2.923   6.181   1.315
 7395SOL    HW223085   2.889   6.322   1.240
 7396SOL     OW23086   1.311   5.189   2.212
 7396SOL    HW123087   1.278   5.104   2.254
 7396SOL    HW223088   1.257   5.266   2.245
 7397SOL     OW23089   6.088   4.552   4.087
 7397SOL    HW123090   6.044   4.462   4.090
 7397SOL    HW223091   6.132   4.565   3.998
 7398SOL     OW23092   3.126   5.119   2.396
 7398SOL    HW123093   3.102   5.142   2.302
 7398SOL    HW223094   3.209   5.063   2.397
 7399SOL     OW23095   5.948   1.497   5.670
 7399SOL    HW123096   5.849   1.493   5.685
 7399SOL    HW223097   5.975   1.418   5.614
 7400SOL     OW23098   4.064   3.537   5.717
 7400SOL    HW123099   4.152   3.515   5.760
 7400SOL    HW223100   4.068   3.514   5.619
 7401SOL     OW23101   1.542   2.599   3.775
 7401SOL    HW123102   1.459   2.601   3.718
 7401SOL    HW223103   1.622   2.605   3.716
 7402SOL     OW23104   3.560   5.516   4.407
 7402SOL    HW123105   3.465   5.495   4.429
 7402SOL    HW223106   3.578   5.613   4.423
 7403SOL     OW23107   1.674   4.449   3.963
 7403SOL    HW123108   1.608   4.434   3.890
 7403SOL    HW223109   1.640   4.520   4.025
 7404SOL     OW23110   2.682   4.069   0.734
 7404SOL    HW123111   2.676   3.970   0.741
 7404SOL    HW223112   2.594   4.106   0.705
 7405SOL     OW23113   3.758   6.705   5.597
 7405SOL    HW123114   3.803   6.783   5.553
 7405SOL    HW223115   3.781   6.621   5.547
 7406SOL     OW23116   0.665   2.340   4.510
 7406SOL    HW123117   0.741   2.277   4.501
 7406SOL    HW223118   0.646   2.356   4.607
 7407SOL     OW23119   1.156   6.512   5.354
 7407SOL    HW123120   1.192   6.603   5.376
 7407SOL    HW223121   1.232   6.447   5.352
 7408SOL     OW23122   4.335   5.437   5.008
 7408SOL    HW123123   4.349   5.464   4.913
 7408SOL    HW223124   4.388   5.496   5.068
 7409SOL     OW23125   6.342   4.899   1.643
 7409SOL    HW123126   6.367   4.986   1.600
 7409SOL    HW223127   6.293   4.843   1.576
 7410SOL     OW23128   6.482   1.151   1.124
 7410SOL    HW123129   6.578   1.126   1.130
 7410SOL    HW223130   6.426   1.075   1.159
 7411SOL     OW23131   3.625   1.785   5.455
 7411SOL    HW123132   3.579   1.828   5.533
 7411SOL    HW223133   3.721   1.768   5.478
 7412SOL     OW23134   4.239   6.940   0.101
 7412SOL    HW123135   4.159   6.899   0.057
 7412SOL    HW223136   4.297   6.868   0.139
 7413SOL     OW23137   5.174   0.836   3.387
 7413SOL    HW123138   5.152   0.934   3.390
 7413SOL    HW223139   5.216   0.809   3.473
 7414SOL     OW23140   2.607   1.082   3.848
 7414SOL    HW123141   2.656   1.109   3.931
 7414SOL    HW223142   2.526   1.029   3.873
 7415SOL     OW23143   4.015   0.183   6.409
 7415SOL    HW123144   3.936   0.183   6.471
 7415SOL    HW223145   4.084   0.246   6.444
 7416SOL     OW23146   1.336   0.396   1.642
 7416SOL    HW123147   1.294   0.486   1.657
 7416SOL    HW223148   1.396   0.401   1.562
 7417SOL     OW23149   0.376   0.413   2.497
 7417SOL    HW123150   0.463   0.385   2.457
 7417SOL    HW223151   0.392   0.449   2.589
 7418SOL     OW23152   1.398   3.654   6.185
 7418SOL    HW123153   1.472   3.638   6.120
 7418SOL    HW223154   1.325   3.705   6.140
 7419SOL     OW23155   6.232   3.293   4.239
 7419SOL    HW123156   6.169   3.319   4.312
 7419SOL    HW223157   6.311   3.246   4.279
 7420SOL     OW23158   7.005   6.700   0.972
 7420SOL    HW123159   0.048   6.652   1.029
 7420SOL    HW223160   7.008   6.798   0.992
 7421SOL     OW23161   5.949   4.030   1.149
 7421SOL    HW123162   6.017   4.089   1.106
 7421SOL    HW223163   5.982   4.000   1.239
 7422SOL     OW23164   5.453   3.169   1.563
 7422SOL    HW123165   5.380   3.226   1.602
 7422SOL    HW223166   5.447   3.172   1.463
 7423SOL     OW23167   4.609   2.618   6.106
 7423SOL    HW123168   4.537   2.568   6.059
 7423SOL    HW223169   4.630   2.574   6.193
 7424SOL     OW23170   0.283   2.358   4.286
 7424SOL    HW123171   0.322   2.295   4.219
 7424SOL    HW223172   0.295   2.320   4.378
 7425SOL     OW23173   5.455   0.385   1.436
 7425SOL    HW123174   5.492   0.463   1.385
 7425SOL    HW223175   5.444   0.307   1.374
 7426SOL     OW23176   3.173   2.931   5.595
 7426SOL    HW123177   3.263   2.902   5.562
 7426SOL    HW223178   3.145   2.874   5.673
 7427SOL     OW23179   2.630   0.408   2.664
 7427SOL    HW123180   2.583   0.432   2.579
 7427SOL    HW223181   2.606   0.474   2.736
 7428SOL     OW23182   2.933   0.229   4.973
 7428SOL    HW123183   2.934   0.313   5.028
 7428SOL    HW223184   2.998   0.164   5.012
 7429SOL     OW23185   0.826   0.786   2.450
 7429SOL    HW123186   0.875   0.779   2.538
 7429SOL    HW223187   0.883   0.836   2.385
 7430SOL     OW23188   0.111   4.053   2.960
 7430SOL    HW123189   0.125   4.147   2.928
 7430SOL    HW223190   0.175   3.992   2.912
 7431SOL     OW23191   0.914   2.200   4.580
 7431SOL    HW123192   0.891   2.151   4.496
 7431SOL    HW223193   0.881   2.149   4.659
 7432SOL     OW23194   1.468   1.218   2.757
 7432SOL    HW123195   1.486   1.299   2.813
 7432SOL    HW223196   1.413   1.244   2.678
 7433SOL     OW23197   3.493   6.841   6.566
 7433SOL    HW123198   3.537   6.900   6.498
 7433SOL    HW223199   3.522   6.869   6.658
 7434SOL     OW23200   4.135   0.363   3.510
 7434SOL    HW123201   4.185   0.368   3.597
 7434SOL    HW223202   4.103   0.269   3.496
 7435SOL     OW23203   5.143   4.757   2.735
 7435SOL    HW123204   5.100   4.847   2.742
 7435SOL    HW223205   5.126   4.705   2.818
 7436SOL     OW23206   5.236   2.804   6.022
 7436SOL    HW123207   5.252   2.791   5.924
 7436SOL    HW223208   5.323   2.823   6.068
 7437SOL     OW23209   3.122   0.845   1.215
 7437SOL    HW123210   3.100   0.943   1.218
 7437SOL    HW223211   3.220   0.834   1.199
 7438SOL     OW23212   1.679   0.416   6.932
 7438SOL    HW123213   1.753   0.447   6.873
 7438SOL    HW223214   1.640   0.331   6.896
 7439SOL     OW23215   1.383   4.437   6.042
 7439SOL    HW123216   1.391   4.390   5.955
 7439SOL    HW223217   1.288   4.433   6.074
 7440SOL     OW23218   5.498   3.361   3.593
 7440SOL    HW123219   5.488   3.423   3.516
 7440SOL    HW223220   5.429   3.288   3.586
 7441SOL     OW23221   4.182   6.263   0.945
 7441SOL    HW123222   4.242   6.183   0.939
 7441SOL    HW223223   4.088   6.235   0.930
 7442SOL     OW23224   5.879   1.206   5.795
 7442SOL    HW123225   5.903   1.294   5.836
 7442SOL    HW223226   5.779   1.199   5.787
 7443SOL     OW23227   0.132   0.118   1.224
 7443SOL    HW123228   0.147   0.148   1.130
 7443SOL    HW223229   0.210   0.064   1.255
 7444SOL     OW23230   1.318   6.339   6.910
 7444SOL    HW123231   1.379   6.297   6.843
 7444SOL    HW223232   1.224   6.310   6.892
 7445SOL     OW23233   3.722   5.437   2.677
 7445SOL    HW123234   3.692   5.375   2.750
 7445SOL    HW223235   3.650   5.445   2.608
 7446SOL     OW23236   6.423   5.065   0.094
 7446SOL    HW123237   6.399   5.119   0.013
 7446SOL    HW223238   6.438   5.126   0.172
 7447SOL     OW23239   0.987   5.873   0.821
 7447SOL    HW123240   1.011   5.958   0.774
 7447SOL    HW223241   0.992   5.796   0.756
 7448SOL     OW23242   4.281   4.864   6.789
 7448SOL    HW123243   4.243   4.926   6.720
 7448SOL    HW223244   4.373   4.895   6.813
 7449SOL     OW23245   6.436   4.070   6.549
 7449SOL    HW123246   6.534   4.074   6.564
 7449SOL    HW223247   6.406   4.151   6.498
 7450SOL     OW23248   5.601   2.886   6.867
 7450SOL    HW123249   5.606   2.791   6.835
 7450SOL    HW223250   5.558   2.942   6.796
 7451SOL     OW23251   4.515   4.575   2.869
 7451SOL    HW123252   4.462   4.639   2.813
 7451SOL    HW223253   4.603   4.615   2.892
 7452SOL     OW23254   6.500   5.941   6.247
 7452SOL    HW123255   6.590   5.903   6.228
 7452SOL    HW223256   6.463   5.983   6.164
 7453SOL     OW23257   4.227   5.469   6.303
 7453SOL    HW123258   4.146   5.449   6.248
 7453SOL    HW223259   4.248   5.566   6.297
 7454SOL     OW23260   4.334   1.924   0.912
 7454SOL    HW123261   4.260   1.985   0.883
 7454SOL    HW223262   4.414   1.939   0.855
 7455SOL     OW23263   6.525   0.398   3.358
 7455SOL    HW123264   6.534   0.313   3.307
 7455SOL    HW223265   6.524   0.475   3.293
 7456SOL     OW23266   2.916   1.711   6.040
 7456SOL    HW123267   2.976   1.758   5.976
 7456SOL    HW223268   2.850   1.776   6.078
 7457SOL     OW23269   1.194   1.388   2.822
 7457SOL    HW123270   1.125   1.435   2.877
 7457SOL    HW223271   1.285   1.410   2.858
 7458SOL     OW23272   0.323   5.498   4.901
 7458SOL    HW123273   0.238   5.447   4.916
 7458SOL    HW223274   0.310   5.593   4.927
 7459SOL     OW23275   5.864   0.232   3.383
 7459SOL    HW123276   5.804   0.168   3.334
 7459SOL    HW223277   5.819   0.321   3.389
 7460SOL     OW23278   0.673   0.378   1.349
 7460SOL    HW123279   0.731   0.381   1.431
 7460SOL    HW223280   0.701   0.302   1.291
 7461SOL     OW23281   1.893   4.543   4.661
 7461SOL    HW123282   1.839   4.465   4.692
 7461SOL    HW223283   1.956   4.571   4.733
 7462SOL     OW23284   1.720   4.627   0.018
 7462SOL    HW123285   1.657   4.553   0.039
 7462SOL    HW223286   1.809   4.590   7.019
 7463SOL     OW23287   4.687   5.178   1.617
 7463SOL    HW123288   4.715   5.154   1.524
 7463SOL    HW223289   4.684   5.095   1.673
 7464SOL     OW23290   5.255   5.457   4.859
 7464SOL    HW123291   5.156   5.462   4.849
 7464SOL    HW223292   5.279   5.447   4.955
 7465SOL     OW23293   1.569   4.163   6.568
 7465SOL    HW123294   1.607   4.085   6.519
 7465SOL    HW223295   1.536   4.231   6.503
 7466SOL     OW23296   0.781   0.757   5.408
 7466SOL    HW123297   0.827   0.747   5.320
 7466SOL    HW223298   0.728   0.842   5.409
 7467SOL     OW23299   0.668   3.518   4.621
 7467SOL    HW123300   0.736   3.585   4.650
 7467SOL    HW223301   0.639   3.537   4.527
 7468SOL     OW23302   5.478   2.803   5.611
 7468SOL    HW123303   5.524   2.739   5.550
 7468SOL    HW223304   5.523   2.892   5.606
 7469SOL     OW23305   0.269   2.354   0.339
 7469SOL    HW123306   0.267   2.274   0.400
 7469SOL    HW223307   0.178   2.371   0.302
 7470SOL     OW23308   4.999   3.063   3.930
 7470SOL    HW123309   4.998   3.153   3.886
 7470SOL    HW223310   5.042   2.997   3.869
 7471SOL     OW23311   3.630   6.909   6.826
 7471SOL    HW123312   3.562   6.976   6.857
 7471SOL    HW223313   3.679   6.873   6.904
 7472SOL     OW23314   0.554   0.143   5.928
 7472SOL    HW123315   0.478   0.207   5.937
 7472SOL    HW223316   0.604   0.161   5.844
 7473SOL     OW23317   4.016   6.091   3.360
 7473SOL    HW123318   4.065   6.038   3.290
 7473SOL    HW223319   3.927   6.118   3.324
 7474SOL     OW23320   5.729   2.529   0.165
 7474SOL    HW123321   5.796   2.599   0.140
 7474SOL    HW223322   5.690   2.551   0.255
 7475SOL     OW23323   5.111   2.585   0.991
 7475SOL    HW123324   5.111   2.550   0.897
 7475SOL    HW223325   5.205   2.589   1.025
 7476SOL     OW23326   2.274   1.201   2.628
 7476SOL    HW123327   2.226   1.271   2.577
 7476SOL    HW223328   2.321   1.243   2.706
 7477SOL     OW23329   2.683   3.787   5.753
 7477SOL    HW123330   2.733   3.865   5.715
 7477SOL    HW223331   2.691   3.709   5.690
 7478SOL     OW23332   0.256   2.062   6.214
 7478SOL    HW123333   0.294   2.124   6.283
 7478SOL    HW223334   0.260   2.105   6.124
 7479SOL     OW23335   4.986   2.792   1.378
 7479SOL    HW123336   4.916   2.740   1.328
 7479SOL    HW223337   5.011   2.742   1.462
 7480SOL     OW23338   3.688   6.118   2.620
 7480SOL    HW123339   3.777   6.159   2.642
 7480SOL    HW223340   3.702   6.025   2.587
 7481SOL     OW23341   0.009   3.423   6.263
 7481SOL    HW123342   6.957   3.483   6.284
 7481SOL    HW223343   0.094   3.475   6.267
 7482SOL     OW23344   4.546   2.597   4.485
 7482SOL    HW123345   4.454   2.600   4.525
 7482SOL    HW223346   4.549   2.529   4.412
 7483SOL     OW23347   4.901   1.605   6.181
 7483SOL    HW123348   4.923   1.583   6.086
 7483SOL    HW223349   4.977   1.657   6.221
 7484SOL     OW23350   2.668   0.726   4.399
 7484SOL    HW123351   2.742   0.722   4.466
 7484SOL    HW223352   2.601   0.795   4.426
 7485SOL     OW23353   4.195   0.389   6.849
 7485SOL    HW123354   4.104   0.350   6.841
 7485SOL    HW223355   4.222   0.394   6.945
 7486SOL     OW23356   4.377   6.931   1.129
 7486SOL    HW123357   4.360   6.836   1.153
 7486SOL    HW223358   4.474   6.952   1.140
 7487SOL     OW23359   3.078   6.226   4.224
 7487SOL    HW123360   2.980   6.215   4.207
 7487SOL    HW223361   3.110   6.311   4.182
 7488SOL     OW23362   1.319   5.964   4.240
 7488SOL    HW123363   1.344   6.007   4.327
 7488SOL    HW223364   1.327   5.865   4.248
 7489SOL     OW23365   5.064   3.124   6.442
 7489SOL    HW123366   5.150   3.085   6.409
 7489SOL    HW223367   5.019   3.057   6.501
 7490SOL     OW23368   1.822   3.120   1.490
 7490SOL    HW123369   1.885   3.058   1.536
 7490SOL    HW223370   1.843   3.122   1.392
 7491SOL     OW23371   4.362   3.794   6.941
 7491SOL    HW123372   4.436   3.859   6.957
 7491SOL    HW223373   4.383   3.708   6.986
 7492SOL     OW23374   1.777   0.636   4.010
 7492SOL    HW123375   1.715   0.606   3.938
 7492SOL    HW223376   1.727   0.645   4.096
 7493SOL     OW23377   6.513   5.171   4.740
 7493SOL    HW123378   6.503   5.151   4.838
 7493SOL    HW223379   6.504   5.270   4.726
 7494SOL     OW23380   6.255   1.223   1.994
 7494SOL    HW123381   6.163   1.192   2.018
 7494SOL    HW223382   6.281   1.297   2.056
 7495SOL     OW23383   1.165   2.972   4.488
 7495SOL    HW123384   1.240   3.028   4.453
 7495SOL    HW223385   1.126   3.016   4.569
 7496SOL     OW23386   6.422   3.713   2.697
 7496SOL    HW123387   6.327   3.690   2.677
 7496SOL    HW223388   6.431   3.739   2.793
 7497SOL     OW23389   6.427   0.024   1.317
 7497SOL    HW123390   6.334   0.047   1.286
 7497SOL    HW223391   6.426   6.959   1.358
 7498SOL     OW23392   2.619   6.679   3.861
 7498SOL    HW123393   2.606   6.647   3.955
 7498SOL    HW223394   2.694   6.745   3.858
 7499SOL     OW23395   2.767   1.528   3.576
 7499SOL    HW123396   2.671   1.501   3.567
 7499SOL    HW223397   2.778   1.580   3.661
 7500SOL     OW23398   3.871   1.193   4.012
 7500SOL    HW123399   3.794   1.255   4.000
 7500SOL    HW223400   3.872   1.126   3.938
 7501SOL     OW23401   6.177   1.936   3.818
 7501SOL    HW123402   6.131   1.874   3.881
 7501SOL    HW223403   6.113   1.965   3.747
 7502SOL     OW23404   4.060   0.968   3.518
 7502SOL    HW123405   4.075   0.869   3.518
 7502SOL    HW223406   3.964   0.987   3.498
 7503SOL     OW23407   1.510   5.885   1.243
 7503SOL    HW123408   1.537   5.827   1.320
 7503SOL    HW223409   1.563   5.970   1.245
 7504SOL     OW23410   5.691   6.499   4.727
 7504SOL    HW123411   5.594   6.506   4.747
 7504SOL    HW223412   5.715   6.561   4.653
 7505SOL     OW23413   0.956   6.358   5.952
 7505SOL    HW123414   0.989   6.425   5.885
 7505SOL    HW223415   0.860   6.337   5.934
 7506SOL     OW23416   3.360   2.123   4.321
 7506SOL    HW123417   3.335   2.144   4.415
 7506SOL    HW223418   3.460   2.125   4.311
 7507SOL     OW23419   6.705   3.875   6.156
 7507SOL    HW123420   6.625   3.859   6.215
 7507SOL    HW223421   6.757   3.790   6.147
 7508SOL     OW23422   2.995   6.345   0.713
 7508SOL    HW123423   2.935   6.423   0.700
 7508SOL    HW223424   3.053   6.334   0.631
 7509SOL     OW23425   6.307   4.595   1.981
 7509SOL    HW123426   6.361   4.666   1.934
 7509SOL    HW223427   6.216   4.631   2.002
 7510SOL     OW23428   3.186   3.924   1.654
 7510SOL    HW123429   3.181   3.866   1.573
 7510SOL    HW223430   3.207   4.018   1.626
 7511SOL     OW23431   4.753   6.263   3.807
 7511SOL    HW123432   4.783   6.190   3.747
 7511SOL    HW223433   4.653   6.264   3.812
 7512SOL     OW23434   4.354   0.120   0.892
 7512SOL    HW123435   4.429   0.085   0.948
 7512SOL    HW223436   4.364   0.085   0.799
 7513SOL     OW23437   0.921   0.934   2.036
 7513SOL    HW123438   0.922   0.967   2.130
 7513SOL    HW223439   1.014   0.909   2.008
 7514SOL     OW23440   0.386   0.051   0.529
 7514SOL    HW123441   0.363   0.146   0.549
 7514SOL    HW223442   0.483   0.044   0.506
 7515SOL     OW23443   0.192   4.828   5.206
 7515SOL    HW123444   0.214   4.816   5.110
 7515SOL    HW223445   0.189   4.926   5.228
 7516SOL     OW23446   2.237   6.338   5.167
 7516SOL    HW123447   2.196   6.251   5.195
 7516SOL    HW223448   2.289   6.377   5.243
 7517SOL     OW23449   0.744   2.341   6.621
 7517SOL    HW123450   0.664   2.401   6.621
 7517SOL    HW223451   0.827   2.396   6.625
 7518SOL     OW23452   3.821   2.176   4.506
 7518SOL    HW123453   3.887   2.251   4.499
 7518SOL    HW223454   3.819   2.142   4.600
 7519SOL     OW23455   3.591   6.908   4.693
 7519SOL    HW123456   3.523   6.980   4.680
 7519SOL    HW223457   3.611   6.898   4.790
 7520SOL     OW23458   1.862   1.225   0.697
 7520SOL    HW123459   1.887   1.319   0.718
 7520SOL    HW223460   1.898   1.200   0.607
 7521SOL     OW23461   4.137   1.304   5.418
 7521SOL    HW123462   4.234   1.300   5.396
 7521SOL    HW223463   4.099   1.392   5.389
 7522SOL     OW23464   1.673   6.617   4.486
 7522SOL    HW123465   1.603   6.688   4.493
 7522SOL    HW223466   1.632   6.534   4.449
 7523SOL     OW23467   5.634   1.588   0.202
 7523SOL    HW123468   5.662   1.660   0.138
 7523SOL    HW223469   5.632   1.626   0.295
 7524SOL     OW23470   0.542   3.458   5.488
 7524SOL    HW123471   0.593   3.523   5.545
 7524SOL    HW223472   0.594   3.373   5.480
 7525SOL     OW23473   2.087   4.857   5.773
 7525SOL    HW123474   2.003   4.836   5.722
 7525SOL    HW223475   2.166   4.825   5.721
 7526SOL     OW23476   1.564   4.213   0.819
 7526SOL    HW123477   1.588   4.268   0.739
 7526SOL    HW223478   1.465   4.213   0.832
 7527SOL     OW23479   2.683   5.091   2.901
 7527SOL    HW123480   2.783   5.094   2.898
 7527SOL    HW223481   2.646   5.129   2.817
 7528SOL     OW23482   5.978   2.782   6.685
 7528SOL    HW123483   5.983   2.684   6.703
 7528SOL    HW223484   6.049   2.808   6.619
 7529SOL     OW23485   5.526   3.142   4.771
 7529SOL    HW123486   5.568   3.208   4.833
 7529SOL    HW223487   5.435   3.118   4.804
 7530SOL     OW23488   1.383   2.788   2.906
 7530SOL    HW123489   1.317   2.747   2.969
 7530SOL    HW223490   1.355   2.883   2.887
 7531SOL     OW23491   3.929   1.776   3.744
 7531SOL    HW123492   3.893   1.698   3.692
 7531SOL    HW223493   3.912   1.762   3.841
 7532SOL     OW23494   5.101   5.161   6.281
 7532SOL    HW123495   5.106   5.061   6.278
 7532SOL    HW223496   5.193   5.198   6.296
 7533SOL     OW23497   4.420   4.603   2.016
 7533SOL    HW123498   4.499   4.578   2.072
 7533SOL    HW223499   4.383   4.520   1.973
 7534SOL     OW23500   4.246   5.687   5.484
 7534SOL    HW123501   4.243   5.665   5.386
 7534SOL    HW223502   4.313   5.759   5.500
 7535SOL     OW23503   0.271   6.716   4.492
 7535SOL    HW123504   0.315   6.800   4.461
 7535SOL    HW223505   0.247   6.725   4.589
 7536SOL     OW23506   6.645   6.249   2.968
 7536SOL    HW123507   6.685   6.272   3.057
 7536SOL    HW223508   6.687   6.166   2.933
 7537SOL     OW23509   1.768   0.049   2.574
 7537SOL    HW123510   1.824   6.991   2.572
 7537SOL    HW223511   1.726   0.059   2.664
 7538SOL     OW23512   0.054   4.978   0.043
 7538SOL    HW123513   0.019   4.965   6.976
 7538SOL    HW223514   0.126   5.047   0.043
 7539SOL     OW23515   6.516   0.556   4.158
 7539SOL    HW123516   6.502   0.653   4.177
 7539SOL    HW223517   6.612   0.541   4.135
 7540SOL     OW23518   5.348   4.449   2.971
 7540SOL    HW123519   5.435   4.411   3.006
 7540SOL    HW223520   5.321   4.400   2.889
 7541SOL     OW23521   2.326   4.102   6.648
 7541SOL    HW123522   2.385   4.179   6.625
 7541SOL    HW223523   2.289   4.063   6.564
 7542SOL     OW23524   6.067   5.656   4.725
 7542SOL    HW123525   5.984   5.623   4.770
 7542SOL    HW223526   6.060   5.640   4.627
 7543SOL     OW23527   2.354   0.919   0.533
 7543SOL    HW123528   2.278   0.854   0.520
 7543SOL    HW223529   2.423   0.903   0.462
 7544SOL     OW23530   6.062   1.477   4.599
 7544SOL    HW123531   5.977   1.424   4.601
 7544SOL    HW223532   6.132   1.425   4.550
 7545SOL     OW23533   1.471   5.470   5.148
 7545SOL    HW123534   1.555   5.431   5.110
 7545SOL    HW223535   1.469   5.455   5.247
 7546SOL     OW23536   2.247   2.822   1.971
 7546SOL    HW123537   2.254   2.833   2.070
 7546SOL    HW223538   2.255   2.912   1.927
 7547SOL     OW23539   4.162   0.045   1.936
 7547SOL    HW123540   4.127   7.025   2.017
 7547SOL    HW223541   4.123   0.137   1.930
 7548SOL     OW23542   2.854   2.089   6.212
 7548SOL    HW123543   2.792   2.123   6.141
 7548SOL    HW223544   2.916   2.163   6.239
 7549SOL     OW23545   5.385   0.759   4.444
 7549SOL    HW123546   5.410   0.686   4.382
 7549SOL    HW223547   5.355   0.721   4.531
 7550SOL     OW23548   2.163   6.115   4.787
 7550SOL    HW123549   2.199   6.106   4.880
 7550SOL    HW223550   2.184   6.032   4.735
 7551SOL     OW23551   6.082   3.413   6.528
 7551SOL    HW123552   6.065   3.462   6.443
 7551SOL    HW223553   6.178   3.385   6.533
 7552SOL     OW23554   2.670   5.976   4.963
 7552SOL    HW123555   2.763   6.005   4.984
 7552SOL    HW223556   2.609   6.055   4.959
 7553SOL     OW23557   6.096   6.631   5.932
 7553SOL    HW123558   6.141   6.562   5.876
 7553SOL    HW223559   6.022   6.673   5.879
 7554SOL     OW23560   4.749   1.550   1.526
 7554SOL    HW123561   4.839   1.537   1.484
 7554SOL    HW223562   4.680   1.558   1.454
 7555SOL     OW23563   4.401   5.229   4.011
 7555SOL    HW123564   4.429   5.192   3.923
 7555SOL    HW223565   4.319   5.181   4.043
 7556SOL     OW23566   1.341   5.790   1.013
 7556SOL    HW123567   1.413   5.726   0.985
 7556SOL    HW223568   1.377   5.852   1.082
 7557SOL     OW23569   4.308   6.294   1.235
 7557SOL    HW123570   4.312   6.269   1.138
 7557SOL    HW223571   4.229   6.251   1.278
 7558SOL     OW23572   0.620   1.838   3.749
 7558SOL    HW123573   0.631   1.825   3.650
 7558SOL    HW223574   0.710   1.838   3.793
 7559SOL     OW23575   2.886   0.460   5.196
 7559SOL    HW123576   2.787   0.453   5.209
 7559SOL    HW223577   2.932   0.395   5.256
 7560SOL     OW23578   1.150   1.085   5.728
 7560SOL    HW123579   1.148   1.113   5.632
 7560SOL    HW223580   1.161   0.986   5.734
 7561SOL     OW23581   5.329   1.087   5.160
 7561SOL    HW123582   5.354   1.101   5.256
 7561SOL    HW223583   5.382   1.150   5.103
 7562SOL     OW23584   2.231   5.584   3.528
 7562SOL    HW123585   2.193   5.531   3.603
 7562SOL    HW223586   2.157   5.616   3.469
 7563SOL     OW23587   2.911   6.239   3.628
 7563SOL    HW123588   2.882   6.333   3.647
 7563SOL    HW223589   3.005   6.240   3.595
 7564SOL     OW23590   4.704   2.691   5.538
 7564SOL    HW123591   4.763   2.630   5.592
 7564SOL    HW223592   4.688   2.651   5.448
 7565SOL     OW23593   6.509   2.993   5.550
 7565SOL    HW123594   6.582   2.953   5.606
 7565SOL    HW223595   6.488   3.084   5.584
 7566SOL     OW23596   5.013   4.629   1.361
 7566SOL    HW123597   4.949   4.673   1.424
 7566SOL    HW223598   5.007   4.529   1.373
 7567SOL     OW23599   1.595   0.322   4.024
 7567SOL    HW123600   1.553   0.409   3.999
 7567SOL    HW223601   1.655   0.291   3.951
 7568SOL     OW23602   6.489   4.393   1.111
 7568SOL    HW123603   6.410   4.446   1.081
 7568SOL    HW223604   6.471   4.356   1.203
 7569SOL     OW23605   4.668   3.394   0.892
 7569SOL    HW123606   4.752   3.365   0.845
 7569SOL    HW223607   4.692   3.444   0.975
 7570SOL     OW23608   0.951   2.995   1.963
 7570SOL    HW123609   1.038   3.012   2.010
 7570SOL    HW223610   0.916   2.906   1.992
 7571SOL     OW23611   4.754   1.725   2.913
 7571SOL    HW123612   4.693   1.794   2.876
 7571SOL    HW223613   4.708   1.675   2.986
 7572SOL     OW23614   4.242   6.771   3.342
 7572SOL    HW123615   4.319   6.796   3.401
 7572SOL    HW223616   4.272   6.703   3.275
 7573SOL     OW23617   4.767   6.461   6.716
 7573SOL    HW123618   4.711   6.447   6.634
 7573SOL    HW223619   4.785   6.373   6.760
 7574SOL     OW23620   0.472   2.743   4.140
 7574SOL    HW123621   0.549   2.807   4.145
 7574SOL    HW223622   0.494   2.670   4.075
 7575SOL     OW23623   7.007   6.940   1.057
 7575SOL    HW123624   7.012   7.017   0.994
 7575SOL    HW223625   6.988   6.973   1.150
 7576SOL     OW23626   4.371   2.698   0.001
 7576SOL    HW123627   4.310   2.771   0.035
 7576SOL    HW223628   4.380   2.706   6.927
 7577SOL     OW23629   0.194   0.458   6.282
 7577SOL    HW123630   0.139   0.519   6.339
 7577SOL    HW223631   0.225   0.508   6.200
 7578SOL     OW23632   6.266   6.224   2.736
 7578SOL    HW123633   6.214   6.140   2.723
 7578SOL    HW223634   6.205   6.297   2.767
 7579SOL     OW23635   1.042   1.665   6.935
 7579SOL    HW123636   1.126   1.611   6.921
 7579SOL    HW223637   1.056   1.729   7.010
 7580SOL     OW23638   1.664   5.163   2.905
 7580SOL    HW123639   1.749   5.166   2.852
 7580SOL    HW223640   1.586   5.156   2.842
 7581SOL     OW23641   0.360   6.762   0.602
 7581SOL    HW123642   0.267   6.743   0.636
 7581SOL    HW223643   0.363   6.853   0.561
 7582SOL     OW23644   2.302   1.173   6.076
 7582SOL    HW123645   2.216   1.158   6.125
 7582SOL    HW223646   2.290   1.248   6.011
 7583SOL     OW23647   5.897   3.503   2.153
 7583SOL    HW123648   5.878   3.432   2.086
 7583SOL    HW223649   5.852   3.481   2.239
 7584SOL     OW23650   0.147   1.119   3.731
 7584SOL    HW123651   0.234   1.101   3.686
 7584SOL    HW223652   0.072   1.108   3.665
 7585SOL     OW23653   1.325   1.362   5.630
 7585SOL    HW123654   1.386   1.283   5.630
 7585SOL    HW223655   1.314   1.395   5.536
 7586SOL     OW23656   1.612   6.333   3.834
 7586SOL    HW123657   1.573   6.417   3.872
 7586SOL    HW223658   1.682   6.298   3.897
 7587SOL     OW23659   4.797   0.019   1.820
 7587SOL    HW123660   4.810   0.118   1.833
 7587SOL    HW223661   4.869   7.010   1.759
 7588SOL     OW23662   1.767   3.462   4.887
 7588SOL    HW123663   1.734   3.409   4.966
 7588SOL    HW223664   1.863   3.485   4.900
 7589SOL     OW23665   6.589   0.176   2.348
 7589SOL    HW123666   6.642   0.187   2.264
 7589SOL    HW223667   6.608   0.254   2.409
 7590SOL     OW23668   6.143   1.218   0.838
 7590SOL    HW123669   6.080   1.162   0.784
 7590SOL    HW223670   6.096   1.253   0.919
 7591SOL     OW23671   3.155   4.074   4.953
 7591SOL    HW123672   3.203   4.148   4.905
 7591SOL    HW223673   3.166   4.086   5.052
 7592SOL     OW23674   0.894   6.510   3.905
 7592SOL    HW123675   0.855   6.444   3.841
 7592SOL    HW223676   0.821   6.549   3.962
 7593SOL     OW23677   6.647   1.219   6.297
 7593SOL    HW123678   6.731   1.195   6.247
 7593SOL    HW223679   6.651   1.314   6.326
 7594SOL     OW23680   6.943   3.462   5.708
 7594SOL    HW123681   6.926   3.365   5.689
 7594SOL    HW223682   7.021   3.493   5.654
 7595SOL     OW23683   0.513   3.404   6.654
 7595SOL    HW123684   0.533   3.408   6.752
 7595SOL    HW223685   0.414   3.400   6.641
 7596SOL     OW23686   2.545   1.655   0.549
 7596SOL    HW123687   2.497   1.607   0.623
 7596SOL    HW223688   2.599   1.589   0.497
 7597SOL     OW23689   2.325   4.291   0.876
 7597SOL    HW123690   2.340   4.388   0.894
 7597SOL    HW223691   2.278   4.249   0.954
 7598SOL     OW23692   5.646   0.800   2.303
 7598SOL    HW123693   5.628   0.702   2.288
 7598SOL    HW223694   5.619   0.825   2.396
 7599SOL     OW23695   3.376   3.658   0.345
 7599SOL    HW123696   3.454   3.661   0.408
 7599SOL    HW223697   3.311   3.590   0.376
 7600SOL     OW23698   1.075   0.181   3.722
 7600SOL    HW123699   1.061   0.163   3.819
 7600SOL    HW223700   1.170   0.164   3.698
 7601SOL     OW23701   3.214   6.706   1.162
 7601SOL    HW123702   3.202   6.800   1.130
 7601SOL    HW223703   3.300   6.669   1.127
 7602SOL     OW23704   0.813   1.809   1.097
 7602SOL    HW123705   0.903   1.791   1.058
 7602SOL    HW223706   0.748   1.827   1.024
 7603SOL     OW23707   4.313   0.912   6.281
 7603SOL    HW123708   4.364   0.850   6.222
 7603SOL    HW223709   4.372   0.940   6.357
 7604SOL     OW23710   2.105   2.605   5.461
 7604SOL    HW123711   2.185   2.644   5.416
 7604SOL    HW223712   2.119   2.507   5.477
 7605SOL     OW23713   3.103   5.985   6.948
 7605SOL    HW123714   3.186   6.024   6.988
 7605SOL    HW223715   3.098   5.888   6.971
 7606SOL     OW23716   6.652   0.853   3.181
 7606SOL    HW123717   6.727   0.787   3.175
 7606SOL    HW223718   6.641   0.883   3.276
 7607SOL     OW23719   1.764   5.893   5.517
 7607SOL    HW123720   1.730   5.803   5.541
 7607SOL    HW223721   1.855   5.906   5.557
 7608SOL     OW23722   0.026   2.233   6.562
 7608SOL    HW123723   0.005   2.276   6.474
 7608SOL    HW223724   0.093   2.160   6.549
 7609SOL     OW23725   3.878   0.670   4.903
 7609SOL    HW123726   3.914   0.653   4.994
 7609SOL    HW223727   3.778   0.673   4.906
 7610SOL     OW23728   4.130   4.988   4.594
 7610SOL    HW123729   4.171   5.076   4.567
 7610SOL    HW223730   4.138   4.924   4.518
 7611SOL     OW23731   4.619   2.089   0.001
 7611SOL    HW123732   4.548   2.139   6.976
 7611SOL    HW223733   4.665   2.151   0.064
 7612SOL     OW23734   4.387   1.865   2.939
 7612SOL    HW123735   4.418   1.935   3.004
 7612SOL    HW223736   4.459   1.851   2.871
 7613SOL     OW23737   0.402   0.974   6.570
 7613SOL    HW123738   0.437   1.037   6.501
 7613SOL    HW223739   0.366   0.891   6.526
 7614SOL     OW23740   5.961   4.821   0.180
 7614SOL    HW123741   6.042   4.867   0.143
 7614SOL    HW223742   5.952   4.731   0.138
 7615SOL     OW23743   5.873   3.057   6.348
 7615SOL    HW123744   5.860   3.068   6.249
 7615SOL    HW223745   5.953   3.000   6.365
 7616SOL     OW23746   6.771   6.665   2.454
 7616SOL    HW123747   6.710   6.587   2.457
 7616SOL    HW223748   6.802   6.679   2.359
 7617SOL     OW23749   5.997   4.096   2.895
 7617SOL    HW123750   6.068   4.033   2.863
 7617SOL    HW223751   5.913   4.045   2.915
 7618SOL     OW23752   2.428   1.924   7.008
 7618SOL    HW123753   2.335   1.960   7.018
 7618SOL    HW223754   2.484   1.989   6.957
 7619SOL     OW23755   1.005   0.610   5.597
 7619SOL    HW123756   0.920   0.629   5.547
 7619SOL    HW223757   1.083   0.616   5.535
 7620SOL     OW23758   3.038   3.928   0.200
 7620SOL    HW123759   3.022   3.985   0.281
 7620SOL    HW223760   3.136   3.913   0.189
 7621SOL     OW23761   6.309   5.257   0.261
 7621SOL    HW123762   6.290   5.327   0.192
 7621SOL    HW223763   6.298   5.297   0.352
 7622SOL     OW23764   3.125   3.570   1.826
 7622SOL    HW123765   3.072   3.655   1.817
 7622SOL    HW223766   3.162   3.564   1.919
 7623SOL     OW23767   5.174   4.715   2.252
 7623SOL    HW123768   5.146   4.622   2.230
 7623SOL    HW223769   5.178   4.727   2.351
 7624SOL     OW23770   0.597   2.985   2.420
 7624SOL    HW123771   0.625   2.897   2.459
 7624SOL    HW223772   0.622   3.059   2.483
 7625SOL     OW23773   5.291   0.342   1.696
 7625SOL    HW123774   5.346   0.259   1.691
 7625SOL    HW223775   5.308   0.399   1.615
 7626SOL     OW23776   4.605   0.048   0.208
 7626SOL    HW123777   4.689   7.024   0.187
 7626SOL    HW223778   4.625   0.146   0.215
 7627SOL     OW23779   4.173   2.567   6.055
 7627SOL    HW123780   4.252   2.508   6.072
 7627SOL    HW223781   4.170   2.639   6.124
 7628SOL     OW23782   3.185   3.050   0.605
 7628SOL    HW123783   3.173   3.147   0.628
 7628SOL    HW223784   3.103   3.017   0.558
 7629SOL     OW23785   5.857   2.486   3.187
 7629SOL    HW123786   5.797   2.506   3.264
 7629SOL    HW223787   5.952   2.481   3.219
 7630SOL     OW23788   1.045   6.316   4.018
 7630SOL    HW123789   0.992   6.387   3.973
 7630SOL    HW223790   1.125   6.356   4.062
 7631SOL     OW23791   1.617   0.972   6.056
 7631SOL    HW123792   1.668   0.914   5.993
 7631SOL    HW223793   1.654   0.962   6.149
 7632SOL     OW23794   4.040   5.748   1.013
 7632SOL    HW123795   4.097   5.685   0.960
 7632SOL    HW223796   4.017   5.707   1.101
 7633SOL     OW23797   5.305   0.790   1.756
 7633SOL    HW123798   5.381   0.768   1.696
 7633SOL    HW223799   5.226   0.817   1.701
 7634SOL     OW23800   0.466   2.148   6.645
 7634SOL    HW123801   0.455   2.064   6.698
 7634SOL    HW223802   0.558   2.186   6.661
 7635SOL     OW23803   1.420   3.517   5.713
 7635SOL    HW123804   1.413   3.560   5.622
 7635SOL    HW223805   1.511   3.479   5.725
 7636SOL     OW23806   6.817   3.441   3.457
 7636SOL    HW123807   6.829   3.351   3.415
 7636SOL    HW223808   6.804   3.430   3.556
 7637SOL     OW23809   1.019   4.147   5.536
 7637SOL    HW123810   0.920   4.159   5.543
 7637SOL    HW223811   1.065   4.227   5.575
 7638SOL     OW23812   0.494   6.280   1.188
 7638SOL    HW123813   0.419   6.314   1.244
 7638SOL    HW223814   0.582   6.304   1.231
 7639SOL     OW23815   2.752   6.211   0.447
 7639SOL    HW123816   2.716   6.303   0.466
 7639SOL    HW223817   2.676   6.150   0.426
 7640SOL     OW23818   3.218   0.675   0.872
 7640SOL    HW123819   3.213   0.660   0.971
 7640SOL    HW223820   3.151   0.615   0.826
 7641SOL     OW23821   6.716   5.090   4.990
 7641SOL    HW123822   6.644   5.021   4.992
 7641SOL    HW223823   6.802   5.048   4.958
 7642SOL     OW23824   5.816   1.044   3.932
 7642SOL    HW123825   5.851   1.091   3.851
 7642SOL    HW223826   5.802   0.947   3.911
 7643SOL     OW23827   5.408   2.553   4.677
 7643SOL    HW123828   5.371   2.494   4.605
 7643SOL    HW223829   5.457   2.630   4.635
 7644SOL     OW23830   5.359   4.356   0.594
 7644SOL    HW123831   5.274   4.394   0.631
 7644SOL    HW223832   5.411   4.430   0.550
 7645SOL     OW23833   4.669   5.116   6.492
 7645SOL    HW123834   4.762   5.150   6.502
 7645SOL    HW223835   4.629   5.152   6.408
 7646SOL     OW23836   6.720   1.858   1.951
 7646SOL    HW123837   6.775   1.896   2.025
 7646SOL    HW223838   6.765   1.877   1.863
 7647SOL     OW23839   6.612   1.754   3.962
 7647SOL    HW123840   6.614   1.813   3.882
 7647SOL    HW223841   6.697   1.764   4.014
 7648SOL     OW23842   1.753   2.176   1.097
 7648SOL    HW123843   1.671   2.226   1.068
 7648SOL    HW223844   1.786   2.213   1.184
 7649SOL     OW23845   4.038   0.727   0.061
 7649SOL    HW123846   4.126   0.733   0.015
 7649SOL    HW223847   4.010   0.818   0.092
 7650SOL     OW23848   3.116   2.429   0.739
 7650SOL    HW123849   3.202   2.469   0.708
 7650SOL    HW223850   3.072   2.381   0.664
 7651SOL     OW23851   3.781   5.463   6.539
 7651SOL    HW123852   3.757   5.554   6.503
 7651SOL    HW223853   3.703   5.401   6.525
 7652SOL     OW23854   0.166   0.849   5.197
 7652SOL    HW123855   0.265   0.863   5.185
 7652SOL    HW223856   0.131   0.795   5.121
 7653SOL     OW23857   1.950   6.527   6.907
 7653SOL    HW123858   1.922   6.437   6.942
 7653SOL    HW223859   1.945   6.594   6.981
 7654SOL     OW23860   6.924   2.374   5.693
 7654SOL    HW123861   6.965   2.284   5.678
 7654SOL    HW223862   6.982   2.427   5.756
 7655SOL     OW23863   3.629   1.630   5.010
 7655SOL    HW123864   3.646   1.727   4.995
 7655SOL    HW223865   3.645   1.607   5.106
 7656SOL     OW23866   6.015   3.815   6.706
 7656SOL    HW123867   6.017   3.843   6.802
 7656SOL    HW223868   5.998   3.895   6.648
 7657SOL     OW23869   0.926   3.814   4.864
 7657SOL    HW123870   0.981   3.775   4.937
 7657SOL    HW223871   0.839   3.847   4.901
 7658SOL     OW23872   2.564   0.661   1.578
 7658SOL    HW123873   2.502   0.685   1.504
 7658SOL    HW223874   2.518   0.597   1.641
 7659SOL     OW23875   5.184   4.475   6.024
 7659SOL    HW123876   5.134   4.524   5.953
 7659SOL    HW223877   5.226   4.541   6.087
 7660SOL     OW23878   6.543   6.535   5.405
 7660SOL    HW123879   6.534   6.471   5.481
 7660SOL    HW223880   6.463   6.528   5.345
 7661SOL     OW23881   2.654   0.673   5.418
 7661SOL    HW123882   2.649   0.601   5.348
 7661SOL    HW223883   2.578   0.662   5.482
 7662SOL     OW23884   0.072   6.198   1.365
 7662SOL    HW123885   0.029   6.269   1.420
 7662SOL    HW223886   0.007   6.165   1.296
 7663SOL     OW23887   1.177   6.025   4.708
 7663SOL    HW123888   1.099   6.074   4.747
 7663SOL    HW223889   1.245   6.008   4.779
 7664SOL     OW23890   5.473   2.396   2.323
 7664SOL    HW123891   5.405   2.409   2.395
 7664SOL    HW223892   5.563   2.425   2.357
 7665SOL     OW23893   3.018   0.636   5.549
 7665SOL    HW123894   3.096   0.596   5.501
 7665SOL    HW223895   2.968   0.564   5.597
 7666SOL     OW23896   6.145   5.373   4.073
 7666SOL    HW123897   6.176   5.468   4.074
 7666SOL    HW223898   6.200   5.319   4.137
 7667SOL     OW23899   4.250   5.412   1.869
 7667SOL    HW123900   4.337   5.377   1.905
 7667SOL    HW223901   4.242   5.509   1.892
 7668SOL     OW23902   1.744   5.485   0.378
 7668SOL    HW123903   1.825   5.455   0.429
 7668SOL    HW223904   1.758   5.579   0.347
 7669SOL     OW23905   3.059   1.898   6.551
 7669SOL    HW123906   3.034   1.877   6.457
 7669SOL    HW223907   3.115   1.824   6.589
 7670SOL     OW23908   1.140   0.336   0.730
 7670SOL    HW123909   1.073   0.278   0.776
 7670SOL    HW223910   1.176   0.403   0.795
 7671SOL     OW23911   3.380   0.034   1.381
 7671SOL    HW123912   3.311   7.004   1.428
 7671SOL    HW223913   3.398   7.021   1.290
 7672SOL     OW23914   5.580   3.385   1.916
 7672SOL    HW123915   5.509   3.314   1.918
 7672SOL    HW223916   5.667   3.346   1.948
 7673SOL     OW23917   2.157   6.598   5.167
 7673SOL    HW123918   2.082   6.596   5.102
 7673SOL    HW223919   2.216   6.518   5.152
 7674SOL     OW23920   3.436   5.479   3.786
 7674SOL    HW123921   3.433   5.380   3.772
 7674SOL    HW223922   3.510   5.501   3.850
 7675SOL     OW23923   3.791   6.237   3.149
 7675SOL    HW123924   3.736   6.321   3.142
 7675SOL    HW223925   3.736   6.165   3.190
 7676SOL     OW23926   2.890   3.134   5.233
 7676SOL    HW123927   2.910   3.159   5.138
 7676SOL    HW223928   2.791   3.129   5.246
 7677SOL     OW23929   0.247   5.841   6.852
 7677SOL    HW123930   0.204   5.751   6.855
 7677SOL    HW223931   0.245   5.877   6.759
 7678SOL     OW23932   3.728   0.978   5.862
 7678SOL    HW123933   3.751   1.047   5.794
 7678SOL    HW223934   3.764   1.006   5.951
 7679SOL     OW23935   2.550   4.703   4.116
 7679SOL    HW123936   2.481   4.751   4.061
 7679SOL    HW223937   2.635   4.754   4.115
 7680SOL     OW23938   1.960   6.615   4.518
 7680SOL    HW123939   1.997   6.664   4.439
 7680SOL    HW223940   1.860   6.606   4.508
 7681SOL     OW23941   2.170   2.122   5.724
 7681SOL    HW123942   2.189   2.176   5.806
 7681SOL    HW223943   2.153   2.026   5.750
 7682SOL     OW23944   3.302   0.692   1.986
 7682SOL    HW123945   3.246   0.716   2.065
 7682SOL    HW223946   3.389   0.653   2.017
 7683SOL     OW23947   0.249   4.298   4.504
 7683SOL    HW123948   0.310   4.230   4.545
 7683SOL    HW223949   0.216   4.361   4.574
 7684SOL     OW23950   4.822   3.540   1.787
 7684SOL    HW123951   4.740   3.558   1.733
 7684SOL    HW223952   4.816   3.449   1.828
 7685SOL     OW23953   2.427   0.212   6.959
 7685SOL    HW123954   2.501   0.248   7.016
 7685SOL    HW223955   2.455   0.216   6.863
 7686SOL     OW23956   6.821   0.412   3.689
 7686SOL    HW123957   6.824   0.509   3.708
 7686SOL    HW223958   6.910   0.381   3.656
 7687SOL     OW23959   5.563   3.350   5.822
 7687SOL    HW123960   5.580   3.415   5.896
 7687SOL    HW223961   5.647   3.339   5.768
 7688SOL     OW23962   6.347   3.213   0.149
 7688SOL    HW123963   6.345   3.137   0.214
 7688SOL    HW223964   6.313   3.296   0.193
 7689SOL     OW23965   5.651   0.198   2.265
 7689SOL    HW123966   5.627   0.277   2.321
 7689SOL    HW223967   5.714   0.226   2.192
 7690SOL     OW23968   5.957   4.315   2.035
 7690SOL    HW123969   5.970   4.392   1.972
 7690SOL    HW223970   6.046   4.272   2.053
 7691SOL     OW23971   5.302   2.952   3.531
 7691SOL    HW123972   5.253   2.977   3.448
 7691SOL    HW223973   5.353   2.867   3.516
 7692SOL     OW23974   2.221   6.741   2.021
 7692SOL    HW123975   2.219   6.811   2.092
 7692SOL    HW223976   2.300   6.681   2.036
 7693SOL     OW23977   2.673   1.881   0.947
 7693SOL    HW123978   2.574   1.888   0.934
 7693SOL    HW223979   2.702   1.949   1.015
 7694SOL     OW23980   4.231   2.405   0.677
 7694SOL    HW123981   4.175   2.409   0.759
 7694SOL    HW223982   4.268   2.496   0.658
 7695SOL     OW23983   5.175   6.756   3.617
 7695SOL    HW123984   5.223   6.680   3.573
 7695SOL    HW223985   5.214   6.774   3.707
 7696SOL     OW23986   3.192   1.795   5.722
 7696SOL    HW123987   3.284   1.820   5.750
 7696SOL    HW223988   3.127   1.821   5.793
 7697SOL     OW23989   5.905   6.782   2.979
 7697SOL    HW123990   5.981   6.837   2.945
 7697SOL    HW223991   5.940   6.710   3.039
 7698SOL     OW23992   6.274   3.029   1.262
 7698SOL    HW123993   6.215   3.107   1.284
 7698SOL    HW223994   6.311   3.039   1.170
 7699SOL     OW23995   3.930   6.191   6.202
 7699SOL    HW123996   3.991   6.141   6.140
 7699SOL    HW223997   3.872   6.126   6.250
 7700SOL     OW23998   6.629   5.263   2.201
 7700SOL    HW123999   6.585   5.327   2.265
 7700SOL    HW224000   6.686   5.314   2.137
 7701SOL     OW24001   3.110   1.246   6.446
 7701SOL    HW124002   3.186   1.297   6.486
 7701SOL    HW224003   3.031   1.306   6.435
 7702SOL     OW24004   6.079   6.231   5.777
 7702SOL    HW124005   6.082   6.135   5.750
 7702SOL    HW224006   6.051   6.238   5.873
 7703SOL     OW24007   6.797   6.642   6.001
 7703SOL    HW124008   6.888   6.639   5.959
 7703SOL    HW224009   6.786   6.564   6.062
 7704SOL     OW24010   1.737   2.007   4.946
 7704SOL    HW124011   1.694   2.082   4.897
 7704SOL    HW224012   1.692   1.921   4.922
 7705SOL     OW24013   0.680   4.265   0.342
 7705SOL    HW124014   0.646   4.329   0.410
 7705SOL    HW224015   0.713   4.182   0.388
 7706SOL     OW24016   3.270   3.548   2.432
 7706SOL    HW124017   3.195   3.613   2.445
 7706SOL    HW224018   3.302   3.515   2.521
 7707SOL     OW24019   0.168   4.741   6.355
 7707SOL    HW124020   0.263   4.711   6.349
 7707SOL    HW224021   0.124   4.696   6.433
 7708SOL     OW24022   0.518   0.224   4.448
 7708SOL    HW124023   0.534   0.321   4.431
 7708SOL    HW224024   0.507   0.176   4.361
 7709SOL     OW24025   5.956   4.631   1.192
 7709SOL    HW124026   6.034   4.613   1.132
 7709SOL    HW224027   5.871   4.604   1.147
 7710SOL     OW24028   6.421   3.317   2.565
 7710SOL    HW124029   6.453   3.326   2.471
 7710SOL    HW224030   6.321   3.319   2.566
 7711SOL     OW24031   0.873   4.041   3.329
 7711SOL    HW124032   0.827   4.127   3.354
 7711SOL    HW224033   0.956   4.031   3.384
 7712SOL     OW24034   1.170   4.697   4.291
 7712SOL    HW124035   1.241   4.749   4.339
 7712SOL    HW224036   1.197   4.601   4.286
 7713SOL     OW24037   1.089   5.387   0.641
 7713SOL    HW124038   1.118   5.381   0.546
 7713SOL    HW224039   1.072   5.295   0.677
 7714SOL     OW24040   5.855   1.723   5.159
 7714SOL    HW124041   5.838   1.625   5.145
 7714SOL    HW224042   5.947   1.746   5.127
 7715SOL     OW24043   3.888   3.803   6.733
 7715SOL    HW124044   3.912   3.790   6.637
 7715SOL    HW224045   3.837   3.723   6.766
 7716SOL     OW24046   1.227   1.052   6.719
 7716SOL    HW124047   1.150   1.115   6.728
 7716SOL    HW224048   1.194   0.958   6.727
 7717SOL     OW24049   1.010   1.446   5.927
 7717SOL    HW124050   1.085   1.487   5.874
 7717SOL    HW224051   0.923   1.476   5.888
 7718SOL     OW24052   0.520   3.302   3.329
 7718SOL    HW124053   0.515   3.228   3.396
 7718SOL    HW224054   0.612   3.343   3.332
 7719SOL     OW24055   1.985   6.148   5.035
 7719SOL    HW124056   1.961   6.082   4.964
 7719SOL    HW224057   2.009   6.100   5.119
 7720SOL     OW24058   4.515   1.533   6.659
 7720SOL    HW124059   4.505   1.589   6.577
 7720SOL    HW224060   4.601   1.482   6.654
 7721SOL     OW24061   5.915   5.909   2.525
 7721SOL    HW124062   5.884   5.831   2.579
 7721SOL    HW224063   5.912   5.992   2.581
 7722SOL     OW24064   0.168   6.099   4.263
 7722SOL    HW124065   0.088   6.125   4.317
 7722SOL    HW224066   0.146   6.020   4.207
 7723SOL     OW24067   4.149   4.562   6.494
 7723SOL    HW124068   4.167   4.656   6.524
 7723SOL    HW224069   4.232   4.507   6.505
 7724SOL     OW24070   1.320   4.280   0.167
 7724SOL    HW124071   1.361   4.221   0.236
 7724SOL    HW224072   1.220   4.273   0.172
 7725SOL     OW24073   5.417   3.279   5.059
 7725SOL    HW124074   5.353   3.326   4.998
 7725SOL    HW224075   5.511   3.301   5.032
 7726SOL     OW24076   1.887   3.085   0.194
 7726SOL    HW124077   1.881   3.070   0.293
 7726SOL    HW224078   1.937   3.010   0.152
 7727SOL     OW24079   5.898   0.459   2.642
 7727SOL    HW124080   5.816   0.401   2.647
 7727SOL    HW224081   5.877   0.549   2.679
 7728SOL     OW24082   2.140   3.358   5.074
 7728SOL    HW124083   2.103   3.265   5.085
 7728SOL    HW224084   2.237   3.358   5.100
 7729SOL     OW24085   6.726   1.271   2.854
 7729SOL    HW124086   6.710   1.219   2.938
 7729SOL    HW224087   6.805   1.331   2.867
 7730SOL     OW24088   5.937   4.334   6.155
 7730SOL    HW124089   5.860   4.275   6.132
 7730SOL    HW224090   5.941   4.348   6.254
 7731SOL     OW24091   0.019   0.553   6.477
 7731SOL    HW124092   0.028   0.529   6.574
 7731SOL    HW224093   6.950   0.537   6.447
 7732SOL     OW24094   4.260   0.973   6.975
 7732SOL    HW124095   4.252   0.874   6.983
 7732SOL    HW224096   4.284   1.012   0.039
 7733SOL     OW24097   6.467   5.721   1.165
 7733SOL    HW124098   6.502   5.702   1.073
 7733SOL    HW224099   6.411   5.804   1.163
 7734SOL     OW24100   4.031   3.725   3.303
 7734SOL    HW124101   4.039   3.777   3.218
 7734SOL    HW224102   4.063   3.631   3.288
 7735SOL     OW24103   1.317   5.636   0.695
 7735SOL    HW124104   1.307   5.735   0.705
 7735SOL    HW224105   1.412   5.611   0.714
 7736SOL     OW24106   1.631   1.537   0.740
 7736SOL    HW124107   1.565   1.495   0.677
 7736SOL    HW224108   1.582   1.576   0.818
 7737SOL     OW24109   4.610   4.642   6.328
 7737SOL    HW124110   4.540   4.667   6.394
 7737SOL    HW224111   4.666   4.722   6.306
 7738SOL     OW24112   1.650   1.422   5.409
 7738SOL    HW124113   1.653   1.353   5.337
 7738SOL    HW224114   1.708   1.393   5.485
 7739SOL     OW24115   1.075   2.763   0.120
 7739SOL    HW124116   1.009   2.776   0.047
 7739SOL    HW224117   1.155   2.714   0.085
 7740SOL     OW24118   2.147   1.261   4.221
 7740SOL    HW124119   2.076   1.222   4.280
 7740SOL    HW224120   2.109   1.281   4.131
 7741SOL     OW24121   6.990   4.003   6.276
 7741SOL    HW124122   6.900   4.020   6.317
 7741SOL    HW224123   0.001   4.088   6.238
 7742SOL     OW24124   4.502   1.952   3.651
 7742SOL    HW124125   4.403   1.943   3.650
 7742SOL    HW224126   4.544   1.862   3.665
 7743SOL     OW24127   3.344   0.865   6.660
 7743SOL    HW124128   3.438   0.862   6.626
 7743SOL    HW224129   3.283   0.893   6.586
 7744SOL     OW24130   0.596   6.590   5.013
 7744SOL    HW124131   0.694   6.574   4.997
 7744SOL    HW224132   0.544   6.510   4.984
 7745SOL     OW24133   2.798   7.019   0.594
 7745SOL    HW124134   2.752   6.974   0.671
 7745SOL    HW224135   2.831   0.084   0.624
 7746SOL     OW24136   0.054   6.613   0.721
 7746SOL    HW124137   0.015   6.649   0.806
 7746SOL    HW224138   0.124   6.545   0.742
 7747SOL     OW24139   0.250   5.997   1.566
 7747SOL    HW124140   0.177   5.984   1.499
 7747SOL    HW224141   0.312   6.070   1.535
 7748SOL     OW24142   4.086   0.822   6.179
 7748SOL    HW124143   4.181   0.820   6.207
 7748SOL    HW224144   4.039   0.898   6.224
 7749SOL     OW24145   3.480   3.808   2.976
 7749SOL    HW124146   3.438   3.897   2.991
 7749SOL    HW224147   3.540   3.812   2.896
 7750SOL     OW24148   5.330   4.783   6.146
 7750SOL    HW124149   5.386   4.737   6.215
 7750SOL    HW224150   5.370   4.769   6.056
 7751SOL     OW24151   0.382   1.009   5.037
 7751SOL    HW124152   0.440   1.081   5.000
 7751SOL    HW224153   0.430   0.962   5.112
 7752SOL     OW24154   6.439   4.419   5.528
 7752SOL    HW124155   6.362   4.389   5.471
 7752SOL    HW224156   6.413   4.411   5.625
 7753SOL     OW24157   3.184   0.737   4.864
 7753SOL    HW124158   3.190   0.717   4.961
 7753SOL    HW224159   3.127   0.668   4.819
 7754SOL     OW24160   6.551   0.780   1.158
 7754SOL    HW124161   6.489   0.859   1.164
 7754SOL    HW224162   6.498   0.696   1.162
 7755SOL     OW24163   1.619   5.956   5.062
 7755SOL    HW124164   1.529   5.964   5.105
 7755SOL    HW224165   1.690   5.977   5.129
 7756SOL     OW24166   4.117   5.948   3.144
 7756SOL    HW124167   4.062   5.874   3.104
 7756SOL    HW224168   4.204   5.910   3.175
 7757SOL     OW24169   3.313   0.322   5.848
 7757SOL    HW124170   3.406   0.321   5.885
 7757SOL    HW224171   3.311   0.272   5.761
 7758SOL     OW24172   2.384   2.181   6.374
 7758SOL    HW124173   2.295   2.223   6.391
 7758SOL    HW224174   2.444   2.197   6.452
 7759SOL     OW24175   1.953   0.655   4.600
 7759SOL    HW124176   2.045   0.624   4.623
 7759SOL    HW224177   1.910   0.696   4.681
 7760SOL     OW24178   5.268   2.191   3.022
 7760SOL    HW124179   5.215   2.234   3.096
 7760SOL    HW224180   5.293   2.098   3.048
 7761SOL     OW24181   4.333   1.326   6.783
 7761SOL    HW124182   4.297   1.343   6.875
 7761SOL    HW224183   4.396   1.399   6.758
 7762SOL     OW24184   1.016   2.604   0.657
 7762SOL    HW124185   1.026   2.686   0.713
 7762SOL    HW224186   1.106   2.573   0.626
 7763SOL     OW24187   2.224   2.483   0.918
 7763SOL    HW124188   2.301   2.503   0.977
 7763SOL    HW224189   2.255   2.430   0.839
 7764SOL     OW24190   3.211   3.232   1.870
 7764SOL    HW124191   3.237   3.189   1.956
 7764SOL    HW224192   3.112   3.250   1.871
 7765SOL     OW24193   6.752   1.603   1.829
 7765SOL    HW124194   6.739   1.695   1.867
 7765SOL    HW224195   6.693   1.591   1.749
 7766SOL     OW24196   6.756   2.838   6.551
 7766SOL    HW124197   6.743   2.745   6.515
 7766SOL    HW224198   6.759   2.903   6.476
 7767SOL     OW24199   5.709   4.047   4.999
 7767SOL    HW124200   5.780   4.116   5.015
 7767SOL    HW224201   5.751   3.965   4.959
 7768SOL     OW24202   3.680   5.356   1.646
 7768SOL    HW124203   3.777   5.337   1.657
 7768SOL    HW224204   3.641   5.292   1.580
 7769SOL     OW24205   5.747   2.202   2.723
 7769SOL    HW124206   5.699   2.290   2.722
 7769SOL    HW224207   5.797   2.191   2.637
 7770SOL     OW24208   3.665   6.148   0.958
 7770SOL    HW124209   3.592   6.214   0.940
 7770SOL    HW224210   3.650   6.066   0.903
 7771SOL     OW24211   1.625   1.344   4.455
 7771SOL    HW124212   1.534   1.326   4.417
 7771SOL    HW224213   1.660   1.430   4.417
 7772SOL     OW24214   5.765   0.681   5.449
 7772SOL    HW124215   5.810   0.619   5.513
 7772SOL    HW224216   5.830   0.707   5.377
 7773SOL     OW24217   3.887   4.331   6.272
 7773SOL    HW124218   3.809   4.393   6.262
 7773SOL    HW224219   3.970   4.377   6.241
 7774SOL     OW24220   5.502   1.948   6.427
 7774SOL    HW124221   5.552   2.000   6.496
 7774SOL    HW224222   5.566   1.891   6.375
 7775SOL     OW24223   1.515   6.924   2.325
 7775SOL    HW124224   1.476   7.015   2.308
 7775SOL    HW224225   1.600   6.915   2.274
 7776SOL     OW24226   3.519   4.130   0.760
 7776SOL    HW124227   3.558   4.174   0.679
 7776SOL    HW224228   3.573   4.154   0.841
 7777SOL     OW24229   0.627   0.572   6.288
 7777SOL    HW124230   0.624   0.476   6.260
 7777SOL    HW224231   0.610   0.579   6.386
 7778SOL     OW24232   4.323   1.578   1.939
 7778SOL    HW124233   4.414   1.602   1.904
 7778SOL    HW224234   4.291   1.650   2.001
 7779SOL     OW24235   3.983   2.984   0.326
 7779SOL    HW124236   4.074   2.979   0.285
 7779SOL    HW224237   3.968   2.904   0.384
 7780SOL     OW24238   0.762   0.288   4.545
 7780SOL    HW124239   0.819   0.220   4.498
 7780SOL    HW224240   0.665   0.266   4.530
 7781SOL     OW24241   1.670   3.877   5.440
 7781SOL    HW124242   1.658   3.963   5.391
 7781SOL    HW224243   1.766   3.865   5.464
 7782SOL     OW24244   4.472   4.598   7.012
 7782SOL    HW124245   4.473   4.686   0.034
 7782SOL    HW224246   4.411   4.535   0.034
 7783SOL     OW24247   3.090   6.291   0.260
 7783SOL    HW124248   3.063   6.195   0.259
 7783SOL    HW224249   3.009   6.349   0.253
 7784SOL     OW24250   6.550   4.071   0.411
 7784SOL    HW124251   6.612   4.013   0.465
 7784SOL    HW224252   6.455   4.051   0.437
 7785SOL     OW24253   1.565   5.958   6.301
 7785SOL    HW124254   1.539   5.902   6.380
 7785SOL    HW224255   1.665   5.960   6.294
 7786SOL     OW24256   3.594   4.083   5.416
 7786SOL    HW124257   3.556   4.035   5.337
 7786SOL    HW224258   3.620   4.016   5.486
 7787SOL     OW24259   3.159   2.272   5.419
 7787SOL    HW124260   3.208   2.317   5.343
 7787SOL    HW224261   3.139   2.177   5.394
 7788SOL     OW24262   6.756   2.178   1.028
 7788SOL    HW124263   6.838   2.122   1.013
 7788SOL    HW224264   6.738   2.183   1.127
 7789SOL     OW24265   1.514   0.348   1.930
 7789SOL    HW124266   1.571   0.304   2.000
 7789SOL    HW224267   1.420   0.318   1.939
 7790SOL     OW24268   6.879   3.376   2.384
 7790SOL    HW124269   6.809   3.324   2.432
 7790SOL    HW224270   6.925   3.317   2.318
 7791SOL     OW24271   0.065   5.280   5.611
 7791SOL    HW124272   7.025   5.249   5.680
 7791SOL    HW224273   0.016   5.315   5.532
 7792SOL     OW24274   1.793   5.809   6.394
 7792SOL    HW124275   1.754   5.790   6.483
 7792SOL    HW224276   1.892   5.794   6.396
 7793SOL     OW24277   2.276   0.705   6.429
 7793SOL    HW124278   2.367   0.728   6.395
 7793SOL    HW224279   2.240   0.781   6.483
 7794SOL     OW24280   5.614   5.256   2.887
 7794SOL    HW124281   5.570   5.298   2.808
 7794SOL    HW224282   5.709   5.235   2.865
 7795SOL     OW24283   0.923   4.017   6.600
 7795SOL    HW124284   0.893   4.074   6.676
 7795SOL    HW224285   0.995   3.955   6.631
 7796SOL     OW24286   4.170   3.483   4.841
 7796SOL    HW124287   4.089   3.448   4.888
 7796SOL    HW224288   4.227   3.407   4.811
 7797SOL     OW24289   1.296   6.956   3.483
 7797SOL    HW124290   1.247   6.894   3.422
 7797SOL    HW224291   1.344   6.903   3.553
 7798SOL     OW24292   4.289   5.740   6.371
 7798SOL    HW124293   4.194   5.757   6.400
 7798SOL    HW224294   4.336   5.688   6.442
 7799SOL     OW24295   6.017   6.085   2.132
 7799SOL    HW124296   5.990   6.060   2.039
 7799SOL    HW224297   6.005   6.006   2.192
 7800SOL     OW24298   0.968   6.132   1.907
 7800SOL    HW124299   0.868   6.122   1.905
 7800SOL    HW224300   0.992   6.210   1.964
 7801SOL     OW24301   4.388   2.072   5.012
 7801SOL    HW124302   4.366   1.997   5.074
 7801SOL    HW224303   4.321   2.073   4.937
 7802SOL     OW24304   5.844   2.538   6.816
 7802SOL    HW124305   5.753   2.516   6.780
 7802SOL    HW224306   5.838   2.620   6.873
 7803SOL     OW24307   3.278   3.689   5.794
 7803SOL    HW124308   3.318   3.769   5.749
 7803SOL    HW224309   3.350   3.622   5.812
 7804SOL     OW24310   5.053   0.658   6.350
 7804SOL    HW124311   4.989   0.695   6.282
 7804SOL    HW224312   5.093   0.734   6.402
 7805SOL     OW24313   5.404   3.145   1.312
 7805SOL    HW124314   5.424   3.049   1.292
 7805SOL    HW224315   5.306   3.162   1.299
 7806SOL     OW24316   4.974   3.265   0.091
 7806SOL    HW124317   4.883   3.260   0.131
 7806SOL    HW224318   5.027   3.184   0.116
 7807SOL     OW24319   0.653   3.561   0.097
 7807SOL    HW124320   0.700   3.530   0.014
 7807SOL    HW224321   0.596   3.640   0.075
 7808SOL     OW24322   0.304   0.890   5.463
 7808SOL    HW124323   0.256   0.943   5.533
 7808SOL    HW224324   0.252   0.893   5.378
 7809SOL     OW24325   1.489   5.465   5.419
 7809SOL    HW124326   1.475   5.413   5.503
 7809SOL    HW224327   1.477   5.563   5.437
 7810SOL     OW24328   3.048   1.526   6.798
 7810SOL    HW124329   3.094   1.503   6.884
 7810SOL    HW224330   2.962   1.474   6.791
 7811SOL     OW24331   6.691   4.755   5.149
 7811SOL    HW124332   6.653   4.684   5.208
 7811SOL    HW224333   6.791   4.751   5.153
 7812SOL     OW24334   0.316   1.782   3.458
 7812SOL    HW124335   0.409   1.813   3.478
 7812SOL    HW224336   0.262   1.784   3.543
 7813SOL     OW24337   6.312   2.352   0.860
 7813SOL    HW124338   6.243   2.296   0.906
 7813SOL    HW224339   6.318   2.441   0.906
 7814SOL     OW24340   2.000   2.764   5.098
 7814SOL    HW124341   1.907   2.792   5.123
 7814SOL    HW224342   2.058   2.844   5.089
 7815SOL     OW24343   6.861   1.832   5.446
 7815SOL    HW124344   6.832   1.779   5.526
 7815SOL    HW224345   6.923   1.905   5.475
 7816SOL     OW24346   0.766   4.805   5.031
 7816SOL    HW124347   0.701   4.836   4.961
 7816SOL    HW224348   0.720   4.741   5.093
 7817SOL     OW24349   5.598   3.043   5.867
 7817SOL    HW124350   5.555   3.133   5.859
 7817SOL    HW224351   5.624   3.011   5.776
 7818SOL     OW24352   5.438   3.538   3.416
 7818SOL    HW124353   5.400   3.581   3.497
 7818SOL    HW224354   5.490   3.605   3.363
 7819SOL     OW24355   1.005   1.520   1.289
 7819SOL    HW124356   0.970   1.581   1.218
 7819SOL    HW224357   0.933   1.458   1.318
 7820SOL     OW24358   2.895   6.772   6.405
 7820SOL    HW124359   2.814   6.721   6.379
 7820SOL    HW224360   2.910   6.764   6.504
 7821SOL     OW24361   3.018   5.357   0.950
 7821SOL    HW124362   2.995   5.354   0.853
 7821SOL    HW224363   2.952   5.303   1.001
 7822SOL     OW24364   1.622   6.498   5.590
 7822SOL    HW124365   1.624   6.421   5.654
 7822SOL    HW224366   1.714   6.513   5.554
 7823SOL     OW24367   2.178   3.400   5.501
 7823SOL    HW124368   2.136   3.489   5.515
 7823SOL    HW224369   2.110   3.335   5.467
 7824SOL     OW24370   0.930   3.129   5.277
 7824SOL    HW124371   1.018   3.084   5.263
 7824SOL    HW224372   0.907   3.130   5.374
 7825SOL     OW24373   2.602   0.653   0.122
 7825SOL    HW124374   2.522   0.666   0.063
 7825SOL    HW224375   2.680   0.623   0.067
 7826SOL     OW24376   0.812   3.907   6.059
 7826SOL    HW124377   0.713   3.891   6.055
 7826SOL    HW224378   0.857   3.827   6.098
 7827SOL     OW24379   6.094   4.984   4.331
 7827SOL    HW124380   6.087   5.012   4.427
 7827SOL    HW224381   6.162   4.911   4.323
 7828SOL     OW24382   1.161   5.670   5.965
 7828SOL    HW124383   1.200   5.746   5.914
 7828SOL    HW224384   1.080   5.701   6.014
 7829SOL     OW24385   4.390   4.883   0.770
 7829SOL    HW124386   4.378   4.790   0.734
 7829SOL    HW224387   4.333   4.895   0.851
 7830SOL     OW24388   1.857   5.350   3.648
 7830SOL    HW124389   1.823   5.298   3.727
 7830SOL    HW224390   1.780   5.376   3.590
 7831SOL     OW24391   1.801   0.223   6.361
 7831SOL    HW124392   1.711   0.261   6.377
 7831SOL    HW224393   1.848   0.276   6.290
 7832SOL     OW24394   6.614   1.464   5.642
 7832SOL    HW124395   6.585   1.400   5.713
 7832SOL    HW224396   6.574   1.436   5.554
 7833SOL     OW24397   1.071   0.297   3.082
 7833SOL    HW124398   1.159   0.334   3.111
 7833SOL    HW224399   0.997   0.344   3.132
 7834SOL     OW24400   6.596   3.571   5.074
 7834SOL    HW124401   6.517   3.521   5.037
 7834SOL    HW224402   6.582   3.669   5.060
 7835SOL     OW24403   3.506   2.337   5.732
 7835SOL    HW124404   3.535   2.377   5.645
 7835SOL    HW224405   3.504   2.237   5.724
 7836SOL     OW24406   2.922   3.786   5.002
 7836SOL    HW124407   2.894   3.773   4.907
 7836SOL    HW224408   3.022   3.783   5.008
 7837SOL     OW24409   1.284   5.416   6.592
 7837SOL    HW124410   1.251   5.510   6.601
 7837SOL    HW224411   1.278   5.370   6.681
 7838SOL     OW24412   4.108   5.093   1.699
 7838SOL    HW124413   4.194   5.117   1.656
 7838SOL    HW224414   4.048   5.049   1.632
 7839SOL     OW24415   5.946   3.941   4.843
 7839SOL    HW124416   5.943   4.023   4.786
 7839SOL    HW224417   6.033   3.894   4.829
 7840SOL     OW24418   2.018   2.632   3.511
 7840SOL    HW124419   2.044   2.714   3.461
 7840SOL    HW224420   2.026   2.553   3.451
 7841SOL     OW24421   4.540   1.834   5.621
 7841SOL    HW124422   4.580   1.775   5.551
 7841SOL    HW224423   4.462   1.787   5.664
 7842SOL     OW24424   1.175   0.618   0.816
 7842SOL    HW124425   1.092   0.604   0.870
 7842SOL    HW224426   1.171   0.708   0.772
 7843SOL     OW24427   6.845   6.605   2.176
 7843SOL    HW124428   6.935   6.613   2.134
 7843SOL    HW224429   6.809   6.513   2.161
 7844SOL     OW24430   4.060   0.171   2.359
 7844SOL    HW124431   4.033   0.083   2.398
 7844SOL    HW224432   4.006   0.190   2.278
 7845SOL     OW24433   6.438   3.185   1.538
 7845SOL    HW124434   6.373   3.110   1.523
 7845SOL    HW224435   6.423   3.256   1.469
 7846SOL     OW24436   0.688   1.563   0.633
 7846SOL    HW124437   0.595   1.560   0.595
 7846SOL    HW224438   0.752   1.526   0.566
 7847SOL     OW24439   5.471   4.343   6.246
 7847SOL    HW124440   5.402   4.376   6.310
 7847SOL    HW224441   5.425   4.304   6.166
 7848SOL     OW24442   4.123   4.998   0.445
 7848SOL    HW124443   4.044   5.046   0.483
 7848SOL    HW224444   4.132   4.908   0.488
 7849SOL     OW24445   4.495   5.270   6.677
 7849SOL    HW124446   4.574   5.239   6.624
 7849SOL    HW224447   4.422   5.298   6.614
 7850SOL     OW24448   7.024   0.685   3.518
 7850SOL    HW124449   0.087   0.723   3.492
 7850SOL    HW224450   0.011   0.593   3.555
 7851SOL     OW24451   0.692   5.035   0.481
 7851SOL    HW124452   0.602   5.078   0.485
 7851SOL    HW224453   0.689   4.948   0.531
 7852SOL     OW24454   1.296   3.414   6.030
 7852SOL    HW124455   1.306   3.478   5.954
 7852SOL    HW224456   1.343   3.450   6.111
 7853SOL     OW24457   4.075   3.006   1.697
 7853SOL    HW124458   4.170   2.977   1.711
 7853SOL    HW224459   4.073   3.081   1.631
 7854SOL     OW24460   3.696   0.748   1.362
 7854SOL    HW124461   3.660   0.738   1.269
 7854SOL    HW224462   3.691   0.660   1.410
 7855SOL     OW24463   5.173   6.413   3.918
 7855SOL    HW124464   5.194   6.351   3.993
 7855SOL    HW224465   5.224   6.386   3.837
 7856SOL     OW24466   2.298   6.353   5.876
 7856SOL    HW124467   2.383   6.328   5.923
 7856SOL    HW224468   2.304   6.322   5.780
 7857SOL     OW24469   6.491   5.042   0.454
 7857SOL    HW124470   6.525   5.129   0.488
 7857SOL    HW224471   6.397   5.029   0.487
 7858SOL     OW24472   0.550   3.834   6.095
 7858SOL    HW124473   0.519   3.739   6.093
 7858SOL    HW224474   0.493   3.890   6.035
 7859SOL     OW24475   4.814   2.153   0.847
 7859SOL    HW124476   4.834   2.244   0.885
 7859SOL    HW224477   4.731   2.116   0.890
 7860SOL     OW24478   1.929   1.739   3.515
 7860SOL    HW124479   2.014   1.695   3.545
 7860SOL    HW224480   1.934   1.837   3.535
 7861SOL     OW24481   1.801   5.801   0.961
 7861SOL    HW124482   1.838   5.738   0.892
 7861SOL    HW224483   1.872   5.823   1.028
 7862SOL     OW24484   1.568   6.750   6.910
 7862SOL    HW124485   1.513   6.723   6.831
 7862SOL    HW224486   1.508   6.761   6.989
 7863SOL     OW24487   0.285   3.958   3.681
 7863SOL    HW124488   0.275   3.925   3.587
 7863SOL    HW224489   0.195   3.964   3.724
 7864SOL     OW24490   3.074   5.224   5.122
 7864SOL    HW124491   3.155   5.203   5.177
 7864SOL    HW224492   3.040   5.315   5.146
 7865SOL     OW24493   6.095   5.021   3.871
 7865SOL    HW124494   6.146   4.942   3.906
 7865SOL    HW224495   6.010   5.031   3.924
 7866SOL     OW24496   1.387   1.207   5.355
 7866SOL    HW124497   1.441   1.286   5.328
 7866SOL    HW224498   1.420   1.172   5.442
 7867SOL     OW24499   3.758   5.112   3.473
 7867SOL    HW124500   3.782   5.209   3.465
 7867SOL    HW224501   3.839   5.056   3.454
 7868SOL     OW24502   3.448   6.040   1.417
 7868SOL    HW124503   3.511   6.060   1.343
 7868SOL    HW224504   3.427   6.124   1.467
 7869SOL     OW24505   5.554   4.639   0.004
 7869SOL    HW124506   5.579   4.608   0.096
 7869SOL    HW224507   5.614   4.596   6.962
 7870SOL     OW24508   6.619   6.968   3.579
 7870SOL    HW124509   6.613   0.033   3.538
 7870SOL    HW224510   6.687   6.913   3.530
 7871SOL     OW24511   4.657   1.153   0.401
 7871SOL    HW124512   4.619   1.160   0.493
 7871SOL    HW224513   4.670   1.056   0.378
 7872SOL     OW24514   0.019   4.378   3.806
 7872SOL    HW124515   0.041   4.413   3.715
 7872SOL    HW224516   6.979   4.438   3.851
 7873SOL     OW24517   4.374   2.472   6.570
 7873SOL    HW124518   4.327   2.559   6.585
 7873SOL    HW224519   4.473   2.487   6.574
 7874SOL     OW24520   6.503   2.881   6.912
 7874SOL    HW124521   6.496   2.937   6.994
 7874SOL    HW224522   6.459   2.929   6.836
 7875SOL     OW24523   0.025   4.689   6.961
 7875SOL    HW124524   6.970   4.639   6.928
 7875SOL    HW224525   0.056   4.649   0.022
 7876SOL     OW24526   1.337   6.744   3.279
 7876SOL    HW124527   1.338   6.790   3.190
 7876SOL    HW224528   1.409   6.674   3.281
 7877SOL     OW24529   0.584   2.836   1.973
 7877SOL    HW124530   0.679   2.810   1.952
 7877SOL    HW224531   0.584   2.912   2.037
 7878SOL     OW24532   3.744   0.454   2.390
 7878SOL    HW124533   3.741   0.531   2.455
 7878SOL    HW224534   3.774   0.371   2.439
 7879SOL     OW24535   2.905   5.883   2.752
 7879SOL    HW124536   2.984   5.835   2.790
 7879SOL    HW224537   2.892   5.856   2.656
 7880SOL     OW24538   0.700   4.185   2.264
 7880SOL    HW124539   0.740   4.271   2.295
 7880SOL    HW224540   0.764   4.139   2.202
 7881SOL     OW24541   4.826   2.578   3.541
 7881SOL    HW124542   4.853   2.673   3.529
 7881SOL    HW224543   4.852   2.547   3.633
 7882SOL     OW24544   7.015   2.752   6.711
 7882SOL    HW124545   6.938   2.777   6.652
 7882SOL    HW224546   6.981   2.707   6.793
 7883SOL     OW24547   0.729   6.813   4.619
 7883SOL    HW124548   0.671   6.873   4.674
 7883SOL    HW224549   0.684   6.724   4.609
 7884SOL     OW24550   1.736   2.598   4.235
 7884SOL    HW124551   1.668   2.646   4.178
 7884SOL    HW224552   1.713   2.612   4.332
 7885SOL     OW24553   7.017   6.126   6.971
 7885SOL    HW124554   7.010   6.037   6.926
 7885SOL    HW224555   6.925   6.162   6.988
 7886SOL     OW24556   4.873   4.065   0.603
 7886SOL    HW124557   4.952   4.092   0.658
 7886SOL    HW224558   4.881   3.968   0.580
 7887SOL     OW24559   4.613   2.201   6.045
 7887SOL    HW124560   4.673   2.137   6.094
 7887SOL    HW224561   4.589   2.162   5.956
 7888SOL     OW24562   3.931   5.734   4.449
 7888SOL    HW124563   3.971   5.824   4.467
 7888SOL    HW224564   3.996   5.678   4.398
 7889SOL     OW24565   6.535   5.010   3.785
 7889SOL    HW124566   6.537   5.014   3.885
 7889SOL    HW224567   6.460   5.067   3.751
 7890SOL     OW24568   1.824   3.729   2.864
 7890SOL    HW124569   1.797   3.757   2.772
 7890SOL    HW224570   1.812   3.630   2.873
 7891SOL     OW24571   0.904   4.223   3.019
 7891SOL    HW124572   0.868   4.133   3.042
 7891SOL    HW224573   0.956   4.259   3.097
 7892SOL     OW24574   2.235   2.119   5.031
 7892SOL    HW124575   2.271   2.039   4.983
 7892SOL    HW224576   2.136   2.113   5.036
 7893SOL     OW24577   5.198   6.664   1.059
 7893SOL    HW124578   5.257   6.650   0.979
 7893SOL    HW224579   5.243   6.726   1.123
 7894SOL     OW24580   2.921   0.402   1.339
 7894SOL    HW124581   2.979   0.421   1.260
 7894SOL    HW224582   2.881   0.488   1.373
 7895SOL     OW24583   0.505   1.653   4.024
 7895SOL    HW124584   0.434   1.585   4.003
 7895SOL    HW224585   0.580   1.644   3.959
 7896SOL     OW24586   3.640   2.304   6.497
 7896SOL    HW124587   3.691   2.389   6.503
 7896SOL    HW224588   3.613   2.275   6.590
 7897SOL     OW24589   2.774   3.595   6.880
 7897SOL    HW124590   2.802   3.516   6.934
 7897SOL    HW224591   2.675   3.606   6.887
 7898SOL     OW24592   5.204   1.420   4.392
 7898SOL    HW124593   5.133   1.354   4.369
 7898SOL    HW224594   5.170   1.513   4.373
 7899SOL     OW24595   4.578   1.122   2.424
 7899SOL    HW124596   4.572   1.205   2.370
 7899SOL    HW224597   4.539   1.138   2.515
 7900SOL     OW24598   0.727   6.000   1.735
 7900SOL    HW124599   0.705   5.945   1.655
 7900SOL    HW224600   0.659   6.072   1.747
 7901SOL     OW24601   6.157   4.827   1.470
 7901SOL    HW124602   6.159   4.727   1.466
 7901SOL    HW224603   6.112   4.863   1.388
 7902SOL     OW24604   4.899   4.293   5.883
 7902SOL    HW124605   4.916   4.339   5.971
 7902SOL    HW224606   4.801   4.291   5.864
 7903SOL     OW24607   0.028   2.799   1.868
 7903SOL    HW124608   0.102   2.778   1.932
 7903SOL    HW224609   0.025   2.898   1.852
 7904SOL     OW24610   5.723   2.387   3.604
 7904SOL    HW124611   5.648   2.364   3.665
 7904SOL    HW224612   5.686   2.423   3.518
 7905SOL     OW24613   1.877   1.469   2.217
 7905SOL    HW124614   1.943   1.395   2.229
 7905SOL    HW224615   1.865   1.516   2.304
 7906SOL     OW24616   0.847   5.001   6.804
 7906SOL    HW124617   0.943   5.026   6.792
 7906SOL    HW224618   0.839   4.902   6.811
 7907SOL     OW24619   0.560   2.540   2.666
 7907SOL    HW124620   0.530   2.457   2.620
 7907SOL    HW224621   0.643   2.520   2.719
 7908SOL     OW24622   0.446   1.562   2.839
 7908SOL    HW124623   0.347   1.550   2.831
 7908SOL    HW224624   0.488   1.555   2.748
 7909SOL     OW24625   4.509   6.556   4.841
 7909SOL    HW124626   4.494   6.588   4.935
 7909SOL    HW224627   4.539   6.460   4.843
 7910SOL     OW24628   6.683   2.886   5.724
 7910SOL    HW124629   6.777   2.877   5.755
 7910SOL    HW224630   6.646   2.796   5.701
 7911SOL     OW24631   0.139   5.627   6.379
 7911SOL    HW124632   0.164   5.540   6.338
 7911SOL    HW224633   0.056   5.662   6.335
 7912SOL     OW24634   6.879   5.845   5.312
 7912SOL    HW124635   6.812   5.900   5.262
 7912SOL    HW224636   6.831   5.789   5.380
 7913SOL     OW24637   1.486   6.287   6.672
 7913SOL    HW124638   1.465   6.192   6.649
 7913SOL    HW224639   1.549   6.325   6.604
 7914SOL     OW24640   6.099   4.802   0.819
 7914SOL    HW124641   6.005   4.769   0.825
 7914SOL    HW224642   6.102   4.900   0.840
 7915SOL     OW24643   2.956   0.892   2.714
 7915SOL    HW124644   2.986   0.988   2.709
 7915SOL    HW224645   2.856   0.889   2.721
 7916SOL     OW24646   4.428   3.702   5.305
 7916SOL    HW124647   4.355   3.683   5.239
 7916SOL    HW224648   4.406   3.658   5.392
 7917SOL     OW24649   4.088   3.802   3.598
 7917SOL    HW124650   4.019   3.865   3.634
 7917SOL    HW224651   4.076   3.793   3.499
 7918SOL     OW24652   5.506   1.830   1.743
 7918SOL    HW124653   5.542   1.855   1.833
 7918SOL    HW224654   5.579   1.792   1.687
 7919SOL     OW24655   5.238   4.058   2.677
 7919SOL    HW124656   5.271   4.070   2.584
 7919SOL    HW224657   5.277   4.129   2.736
 7920SOL     OW24658   0.483   6.557   0.991
 7920SOL    HW124659   0.561   6.495   0.989
 7920SOL    HW224660   0.418   6.526   1.061
 7921SOL     OW24661   3.174   5.575   2.212
 7921SOL    HW124662   3.200   5.527   2.296
 7921SOL    HW224663   3.132   5.511   2.148
 7922SOL     OW24664   0.735   4.504   4.921
 7922SOL    HW124665   0.740   4.492   5.020
 7922SOL    HW224666   0.641   4.491   4.890
 7923SOL     OW24667   0.998   2.060   3.486
 7923SOL    HW124668   1.094   2.080   3.505
 7923SOL    HW224669   0.962   2.129   3.423
 7924SOL     OW24670   2.089   0.904   3.602
 7924SOL    HW124671   2.129   0.822   3.643
 7924SOL    HW224672   2.087   0.978   3.670
 7925SOL     OW24673   0.784   1.404   0.062
 7925SOL    HW124674   0.798   1.335   0.133
 7925SOL    HW224675   0.856   1.398   7.019
 7926SOL     OW24676   3.086   0.656   1.813
 7926SOL    HW124677   3.096   0.732   1.748
 7926SOL    HW224678   3.167   0.651   1.871
 7927SOL     OW24679   4.494   5.294   4.505
 7927SOL    HW124680   4.413   5.278   4.562
 7927SOL    HW224681   4.576   5.274   4.559
 7928SOL     OW24682   0.513   3.813   0.066
 7928SOL    HW124683   0.420   3.786   0.091
 7928SOL    HW224684   0.545   3.885   0.129
 7929SOL     OW24685   3.949   4.125   4.964
 7929SOL    HW124686   4.028   4.184   4.944
 7929SOL    HW224687   3.883   4.131   4.889
 7930SOL     OW24688   3.981   6.956   2.465
 7930SOL    HW124689   3.883   6.937   2.467
 7930SOL    HW224690   4.033   6.870   2.468
 7931SOL     OW24691   3.084   3.151   5.755
 7931SOL    HW124692   3.117   3.088   5.685
 7931SOL    HW224693   2.993   3.184   5.731
 7932SOL     OW24694   3.008   1.032   0.375
 7932SOL    HW124695   3.080   1.055   0.441
 7932SOL    HW224696   2.940   0.974   0.420
 7933SOL     OW24697   2.231   1.362   6.351
 7933SOL    HW124698   2.254   1.448   6.305
 7933SOL    HW224699   2.143   1.329   6.318
 7934SOL     OW24700   4.543   2.051   5.815
 7934SOL    HW124701   4.529   1.987   5.739
 7934SOL    HW224702   4.460   2.058   5.869
 7935SOL     OW24703   5.076   5.645   1.925
 7935SOL    HW124704   4.986   5.610   1.897
 7935SOL    HW224705   5.148   5.591   1.881
 7936SOL     OW24706   3.918   6.319   1.761
 7936SOL    HW124707   3.885   6.322   1.855
 7936SOL    HW224708   4.016   6.297   1.761
 7937SOL     OW24709   5.968   1.723   6.056
 7937SOL    HW124710   5.993   1.786   6.129
 7937SOL    HW224711   6.047   1.710   5.995
 7938SOL     OW24712   6.778   4.578   4.134
 7938SOL    HW124713   6.721   4.497   4.121
 7938SOL    HW224714   6.834   4.592   4.052
 7939SOL     OW24715   6.975   6.167   3.295
 7939SOL    HW124716   7.000   6.261   3.268
 7939SOL    HW224717   6.875   6.158   3.292
 7940SOL     OW24718   1.882   6.295   0.881
 7940SOL    HW124719   1.858   6.274   0.786
 7940SOL    HW224720   1.814   6.254   0.942
 7941SOL     OW24721   0.729   0.725   0.813
 7941SOL    HW124722   0.792   0.788   0.768
 7941SOL    HW224723   0.781   0.663   0.873
 7942SOL     OW24724   1.041   0.136   1.859
 7942SOL    HW124725   1.027   0.078   1.778
 7942SOL    HW224726   0.969   0.117   1.925
 7943SOL     OW24727   6.162   2.017   0.514
 7943SOL    HW124728   6.109   2.052   0.437
 7943SOL    HW224729   6.248   1.977   0.481
 7944SOL     OW24730   6.843   4.211   1.964
 7944SOL    HW124731   6.907   4.180   2.034
 7944SOL    HW224732   6.817   4.134   1.906
 7945SOL     OW24733   5.663   0.016   1.319
 7945SOL    HW124734   5.702   0.108   1.323
 7945SOL    HW224735   5.564   0.022   1.321
 7946SOL     OW24736   2.401   1.224   5.536
 7946SOL    HW124737   2.409   1.299   5.602
 7946SOL    HW224738   2.445   1.250   5.450
 7947SOL     OW24739   4.570   5.273   6.269
 7947SOL    HW124740   4.574   5.368   6.298
 7947SOL    HW224741   4.499   5.260   6.201
 7948SOL     OW24742   0.857   5.291   5.473
 7948SOL    HW124743   0.956   5.297   5.461
 7948SOL    HW224744   0.834   5.313   5.568
 7949SOL     OW24745   6.809   3.316   4.285
 7949SOL    HW124746   6.710   3.311   4.271
 7949SOL    HW224747   6.828   3.367   4.369
 7950SOL     OW24748   3.242   5.080   4.008
 7950SOL    HW124749   3.171   5.150   4.007
 7950SOL    HW224750   3.332   5.123   4.010
 7951SOL     OW24751   2.190   3.592   0.541
 7951SOL    HW124752   2.158   3.658   0.609
 7951SOL    HW224753   2.284   3.613   0.516
 7952SOL     OW24754   5.778   4.615   0.530
 7952SOL    HW124755   5.698   4.558   0.546
 7952SOL    HW224756   5.811   4.651   0.617
 7953SOL     OW24757   1.954   4.140   1.864
 7953SOL    HW124758   1.983   4.082   1.788
 7953SOL    HW224759   1.937   4.084   1.945
 7954SOL     OW24760   5.845   4.891   4.195
 7954SOL    HW124761   5.775   4.929   4.256
 7954SOL    HW224762   5.935   4.898   4.239
 7955SOL     OW24763   1.878   6.388   6.329
 7955SOL    HW124764   1.950   6.447   6.294
 7955SOL    HW224765   1.918   6.308   6.373
 7956SOL     OW24766   5.701   5.964   3.088
 7956SOL    HW124767   5.653   5.995   3.006
 7956SOL    HW224768   5.723   5.867   3.078
 7957SOL     OW24769   1.688   2.443   0.828
 7957SOL    HW124770   1.739   2.365   0.792
 7957SOL    HW224771   1.712   2.457   0.924
 7958SOL     OW24772   2.651   5.527   3.596
 7958SOL    HW124773   2.567   5.572   3.569
 7958SOL    HW224774   2.728   5.591   3.588
 7959SOL     OW24775   4.812   5.524   1.875
 7959SOL    HW124776   4.760   5.514   1.790
 7959SOL    HW224777   4.884   5.455   1.879
 7960SOL     OW24778   1.756   2.265   1.398
 7960SOL    HW124779   1.730   2.361   1.408
 7960SOL    HW224780   1.849   2.252   1.432
 7961SOL     OW24781   0.663   5.660   0.239
 7961SOL    HW124782   0.713   5.620   0.161
 7961SOL    HW224783   0.727   5.712   0.296
 7962SOL     OW24784   1.521   0.175   2.513
 7962SOL    HW124785   1.604   0.120   2.515
 7962SOL    HW224786   1.482   0.174   2.421
 7963SOL     OW24787   0.433   6.523   6.342
 7963SOL    HW124788   0.350   6.474   6.319
 7963SOL    HW224789   0.510   6.459   6.347
 7964SOL     OW24790   6.271   5.379   3.333
 7964SOL    HW124791   6.268   5.284   3.365
 7964SOL    HW224792   6.360   5.419   3.357
 7965SOL     OW24793   3.995   1.505   0.361
 7965SOL    HW124794   3.984   1.552   0.273
 7965SOL    HW224795   4.042   1.418   0.347
 7966SOL     OW24796   0.262   1.077   3.969
 7966SOL    HW124797   0.196   1.063   4.043
 7966SOL    HW224798   0.214   1.098   3.884
 7967SOL     OW24799   3.379   0.475   3.500
 7967SOL    HW124800   3.434   0.402   3.542
 7967SOL    HW224801   3.287   0.440   3.481
 7968SOL     OW24802   2.200   0.918   1.013
 7968SOL    HW124803   2.295   0.894   1.034
 7968SOL    HW224804   2.178   0.888   0.920
 7969SOL     OW24805   3.474   1.610   3.406
 7969SOL    HW124806   3.549   1.545   3.409
 7969SOL    HW224807   3.387   1.561   3.403
 7970SOL     OW24808   0.408   4.576   3.259
 7970SOL    HW124809   0.406   4.670   3.295
 7970SOL    HW224810   0.490   4.529   3.292
 7971SOL     OW24811   2.979   2.059   2.367
 7971SOL    HW124812   2.915   1.985   2.386
 7971SOL    HW224813   2.983   2.075   2.268
 7972SOL     OW24814   5.904   6.038   1.889
 7972SOL    HW124815   5.962   5.995   1.820
 7972SOL    HW224816   5.808   6.028   1.862
 7973SOL     OW24817   5.180   1.926   3.112
 7973SOL    HW124818   5.097   1.895   3.066
 7973SOL    HW224819   5.155   1.977   3.195
 7974SOL     OW24820   4.931   6.082   4.475
 7974SOL    HW124821   4.875   6.037   4.405
 7974SOL    HW224822   4.907   6.179   4.479
 7975SOL     OW24823   1.597   1.981   2.339
 7975SOL    HW124824   1.693   1.956   2.351
 7975SOL    HW224825   1.591   2.066   2.287
 7976SOL     OW24826   1.401   6.991   6.606
 7976SOL    HW124827   1.499   6.990   6.623
 7976SOL    HW224828   1.359   6.909   6.647
 7977SOL     OW24829   5.301   6.219   1.206
 7977SOL    HW124830   5.327   6.258   1.117
 7977SOL    HW224831   5.376   6.162   1.239
 7978SOL     OW24832   3.095   1.894   5.963
 7978SOL    HW124833   3.010   1.944   5.946
 7978SOL    HW224834   3.152   1.946   6.026
 7979SOL     OW24835   4.916   6.051   4.044
 7979SOL    HW124836   4.943   5.962   4.081
 7979SOL    HW224837   4.991   6.117   4.057
 7980SOL     OW24838   2.632   0.536   2.011
 7980SOL    HW124839   2.723   0.576   2.006
 7980SOL    HW224840   2.638   0.436   2.015
 7981SOL     OW24841   0.965   6.146   2.266
 7981SOL    HW124842   0.877   6.151   2.218
 7981SOL    HW224843   0.956   6.189   2.356
 7982SOL     OW24844   0.302   3.022   0.667
 7982SOL    HW124845   0.296   2.925   0.691
 7982SOL    HW224846   0.385   3.038   0.615
 7983SOL     OW24847   5.426   2.306   0.991
 7983SOL    HW124848   5.326   2.304   0.989
 7983SOL    HW224849   5.460   2.225   1.039
 7984SOL     OW24850   6.495   0.521   0.868
 7984SOL    HW124851   6.557   0.539   0.792
 7984SOL    HW224852   6.470   0.424   0.868
 7985SOL     OW24853   1.077   1.360   0.908
 7985SOL    HW124854   1.059   1.295   0.982
 7985SOL    HW224855   0.991   1.406   0.883
 7986SOL     OW24856   4.686   3.761   0.647
 7986SOL    HW124857   4.697   3.728   0.553
 7986SOL    HW224858   4.591   3.787   0.663
 7987SOL     OW24859   0.519   3.292   5.056
 7987SOL    HW124860   0.543   3.299   4.960
 7987SOL    HW224861   0.449   3.360   5.078
 7988SOL     OW24862   2.930   1.096   5.473
 7988SOL    HW124863   2.838   1.058   5.482
 7988SOL    HW224864   2.973   1.102   5.563
 7989SOL     OW24865   3.571   3.542   6.583
 7989SOL    HW124866   3.491   3.492   6.615
 7989SOL    HW224867   3.543   3.623   6.531
 7990SOL     OW24868   2.168   2.641   4.811
 7990SOL    HW124869   2.183   2.675   4.718
 7990SOL    HW224870   2.220   2.556   4.825
 7991SOL     OW24871   2.492   3.113   6.040
 7991SOL    HW124872   2.586   3.137   6.017
 7991SOL    HW224873   2.445   3.194   6.075
 7992SOL     OW24874   2.775   1.475   0.764
 7992SOL    HW124875   2.796   1.476   0.666
 7992SOL    HW224876   2.855   1.444   0.815
 7993SOL     OW24877   2.764   5.380   6.106
 7993SOL    HW124878   2.778   5.469   6.063
 7993SOL    HW224879   2.669   5.351   6.093
 7994SOL     OW24880   5.721   0.468   4.393
 7994SOL    HW124881   5.783   0.482   4.470
 7994SOL    HW224882   5.739   0.379   4.351
 7995SOL     OW24883   4.486   5.256   2.613
 7995SOL    HW124884   4.405   5.286   2.564
 7995SOL    HW224885   4.497   5.157   2.601
 7996SOL     OW24886   4.362   1.496   5.311
 7996SOL    HW124887   4.456   1.465   5.329
 7996SOL    HW224888   4.315   1.510   5.397
 7997SOL     OW24889   5.325   3.128   0.916
 7997SOL    HW124890   5.257   3.085   0.975
 7997SOL    HW224891   5.279   3.180   0.844
 7998SOL     OW24892   6.632   5.005   6.151
 7998SOL    HW124893   6.592   5.031   6.238
 7998SOL    HW224894   6.559   4.981   6.086
 7999SOL     OW24895   2.707   2.575   5.669
 7999SOL    HW124896   2.765   2.656   5.663
 7999SOL    HW224897   2.653   2.567   5.585
 8000SOL     OW24898   4.815   0.534   5.927
 8000SOL    HW124899   4.793   0.463   5.995
 8000SOL    HW224900   4.914   0.550   5.928
 8001SOL     OW24901   2.325   4.968   0.200
 8001SOL    HW124902   2.278   4.881   0.211
 8001SOL    HW224903   2.287   5.035   0.264
 8002SOL     OW24904   4.837   2.194   5.734
 8002SOL    HW124905   4.842   2.140   5.650
 8002SOL    HW224906   4.770   2.154   5.796
 8003SOL     OW24907   5.164   5.510   3.161
 8003SOL    HW124908   5.127   5.495   3.253
 8003SOL    HW224909   5.089   5.522   3.096
 8004SOL     OW24910   1.095   4.299   3.226
 8004SOL    HW124911   1.109   4.255   3.314
 8004SOL    HW224912   1.183   4.322   3.185
 8005SOL     OW24913   1.926   0.773   2.423
 8005SOL    HW124914   1.895   0.679   2.411
 8005SOL    HW224915   1.984   0.780   2.504
 8006SOL     OW24916   4.295   5.877   2.045
 8006SOL    HW124917   4.215   5.936   2.054
 8006SOL    HW224918   4.369   5.928   2.001
 8007SOL     OW24919   0.205   1.142   4.326
 8007SOL    HW124920   0.119   1.091   4.332
 8007SOL    HW224921   0.198   1.211   4.253
 8008SOL     OW24922   5.792   5.616   1.470
 8008SOL    HW124923   5.852   5.543   1.438
 8008SOL    HW224924   5.716   5.628   1.407
 8009SOL     OW24925   7.002   6.862   3.156
 8009SOL    HW124926   0.044   6.915   3.207
 8009SOL    HW224927   6.911   6.876   3.195
 8010SOL     OW24928   2.176   2.040   6.920
 8010SOL    HW124929   2.214   2.124   6.959
 8010SOL    HW224930   2.219   2.023   6.831
 8011SOL     OW24931   2.295   3.155   0.046
 8011SOL    HW124932   2.377   3.135   0.099
 8011SOL    HW224933   2.294   3.099   6.989
 8012SOL     OW24934   2.351   6.538   3.272
 8012SOL    HW124935   2.422   6.608   3.267
 8012SOL    HW224936   2.392   6.451   3.301
 8013SOL     OW24937   6.251   5.236   4.987
 8013SOL    HW124938   6.281   5.329   5.008
 8013SOL    HW224939   6.190   5.237   4.908
 8014SOL     OW24940   2.603   6.842   6.904
 8014SOL    HW124941   2.623   6.912   6.836
 8014SOL    HW224942   2.520   6.792   6.876
 8015SOL     OW24943   1.497   2.063   0.633
 8015SOL    HW124944   1.582   2.079   0.584
 8015SOL    HW224945   1.422   2.053   0.567
 8016SOL     OW24946   4.257   6.224   1.754
 8016SOL    HW124947   4.267   6.245   1.852
 8016SOL    HW224948   4.270   6.308   1.702
 8017SOL     OW24949   6.381   3.437   5.483
 8017SOL    HW124950   6.451   3.489   5.532
 8017SOL    HW224951   6.423   3.381   5.412
 8018SOL     OW24952   5.089   3.185   3.538
 8018SOL    HW124953   5.089   3.264   3.476
 8018SOL    HW224954   5.012   3.193   3.601
 8019SOL     OW24955   3.380   5.097   1.282
 8019SOL    HW124956   3.336   5.110   1.371
 8019SOL    HW224957   3.463   5.043   1.294
 8020SOL     OW24958   5.713   0.555   6.553
 8020SOL    HW124959   5.654   0.478   6.525
 8020SOL    HW224960   5.669   0.605   6.627
 8021SOL     OW24961   6.389   1.421   1.123
 8021SOL    HW124962   6.428   1.330   1.134
 8021SOL    HW224963   6.326   1.440   1.198
 8022SOL     OW24964   5.154   5.331   3.770
 8022SOL    HW124965   5.195   5.278   3.844
 8022SOL    HW224966   5.089   5.396   3.807
 8023SOL     OW24967   0.389   5.951   3.894
 8023SOL    HW124968   0.379   6.007   3.811
 8023SOL    HW224969   0.298   5.930   3.931
 8024SOL     OW24970   4.171   5.686   4.643
 8024SOL    HW124971   4.140   5.746   4.716
 8024SOL    HW224972   4.094   5.636   4.604
 8025SOL     OW24973   3.359   5.690   0.518
 8025SOL    HW124974   3.422   5.766   0.503
 8025SOL    HW224975   3.367   5.624   0.444
 8026SOL     OW24976   2.234   1.627   6.256
 8026SOL    HW124977   2.262   1.666   6.343
 8026SOL    HW224978   2.231   1.699   6.186
 8027SOL     OW24979   4.284   3.238   5.366
 8027SOL    HW124980   4.312   3.308   5.432
 8027SOL    HW224981   4.345   3.159   5.374
 8028SOL     OW24982   5.957   5.119   0.579
 8028SOL    HW124983   5.976   5.156   0.488
 8028SOL    HW224984   5.903   5.035   0.570
 8029SOL     OW24985   3.302   4.164   6.167
 8029SOL    HW124986   3.354   4.188   6.086
 8029SOL    HW224987   3.212   4.208   6.165
 8030SOL     OW24988   6.544   3.540   0.810
 8030SOL    HW124989   6.605   3.463   0.827
 8030SOL    HW224990   6.569   3.616   0.870
 8031SOL     OW24991   3.921   6.237   0.866
 8031SOL    HW124992   3.835   6.231   0.916
 8031SOL    HW224993   3.936   6.332   0.838
 8032SOL     OW24994   4.648   3.674   5.762
 8032SOL    HW124995   4.743   3.657   5.788
 8032SOL    HW224996   4.645   3.719   5.673
 8033SOL     OW24997   6.377   1.869   1.672
 8033SOL    HW124998   6.410   1.893   1.764
 8033SOL    HW224999   6.277   1.863   1.673
 8034SOL     OW25000   6.522   1.853   5.859
 8034SOL    HW125001   6.469   1.919   5.913
 8034SOL    HW225002   6.460   1.806   5.796
 8035SOL     OW25003   5.523   5.890   5.831
 8035SOL    HW125004   5.572   5.807   5.856
 8035SOL    HW225005   5.544   5.962   5.897
 8036SOL     OW25006   1.696   4.638   2.022
 8036SOL    HW125007   1.705   4.608   2.117
 8036SOL    HW225008   1.716   4.561   1.961
 8037SOL     OW25009   2.129   3.341   1.735
 8037SOL    HW125010   2.194   3.412   1.762
 8037SOL    HW225011   2.128   3.332   1.635
 8038SOL     OW25012   5.567   1.286   4.202
 8038SOL    HW125013   5.654   1.245   4.175
 8038SOL    HW225014   5.493   1.220   4.190
 8039SOL     OW25015   2.028   5.900   3.998
 8039SOL    HW125016   2.110   5.954   3.980
 8039SOL    HW225017   2.052   5.820   4.053
 8040SOL     OW25018   5.871   6.102   6.816
 8040SOL    HW125019   5.868   6.158   6.898
 8040SOL    HW225020   5.934   6.143   6.750
 8041SOL     OW25021   3.120   2.320   1.231
 8041SOL    HW125022   3.171   2.300   1.147
 8041SOL    HW225023   3.176   2.376   1.292
 8042SOL     OW25024   2.002   5.069   6.927
 8042SOL    HW125025   1.929   5.002   6.915
 8042SOL    HW225026   1.962   5.159   6.943
 8043SOL     OW25027   2.886   0.722   1.280
 8043SOL    HW125028   2.873   0.694   1.375
 8043SOL    HW225029   2.972   0.771   1.271
 8044SOL     OW25030   3.129   2.939   2.228
 8044SOL    HW125031   3.058   3.007   2.247
 8044SOL    HW225032   3.098   2.849   2.257
 8045SOL     OW25033   6.196   2.824   3.595
 8045SOL    HW125034   6.275   2.808   3.655
 8045SOL    HW225035   6.113   2.830   3.650
 8046SOL     OW25036   6.696   5.503   4.987
 8046SOL    HW125037   6.760   5.484   5.061
 8046SOL    HW225038   6.667   5.599   4.992
 8047SOL     OW25039   2.305   6.712   4.413
 8047SOL    HW125040   2.223   6.729   4.358
 8047SOL    HW225041   2.316   6.785   4.480
 8048SOL     OW25042   5.539   0.370   5.431
 8048SOL    HW125043   5.520   0.388   5.335
 8048SOL    HW225044   5.490   0.436   5.488
 8049SOL     OW25045   2.014   6.901   6.939
 8049SOL    HW125046   1.934   6.961   6.935
 8049SOL    HW225047   1.993   6.820   6.993
 8050SOL     OW25048   0.045   3.068   1.829
 8050SOL    HW125049   0.024   3.165   1.834
 8050SOL    HW225050   0.138   3.055   1.795
 8051SOL     OW25051   2.542   1.712   3.822
 8051SOL    HW125052   2.619   1.650   3.810
 8051SOL    HW225053   2.501   1.698   3.912
 8052SOL     OW25054   3.968   1.687   2.584
 8052SOL    HW125055   3.948   1.727   2.674
 8052SOL    HW225056   3.924   1.742   2.513
 8053SOL     OW25057   4.234   3.574   1.735
 8053SOL    HW125058   4.136   3.576   1.714
 8053SOL    HW225059   4.270   3.483   1.714
 8054SOL     OW25060   4.737   6.297   4.593
 8054SOL    HW125061   4.734   6.317   4.495
 8054SOL    HW225062   4.809   6.350   4.636
 8055SOL     OW25063   1.611   0.184   5.552
 8055SOL    HW125064   1.580   0.131   5.631
 8055SOL    HW225065   1.604   0.282   5.572
 8056SOL     OW25066   4.451   1.189   2.667
 8056SOL    HW125067   4.504   1.274   2.678
 8056SOL    HW225068   4.365   1.198   2.716
 8057SOL     OW25069   3.447   6.939   3.705
 8057SOL    HW125070   3.477   6.945   3.800
 8057SOL    HW225071   3.354   6.975   3.698
 8058SOL     OW25072   2.012   0.025   2.950
 8058SOL    HW125073   2.064   7.021   2.870
 8058SOL    HW225074   2.062   0.098   2.997
 8059SOL     OW25075   1.464   1.200   4.123
 8059SOL    HW125076   1.419   1.185   4.036
 8059SOL    HW225077   1.522   1.281   4.117
 8060SOL     OW25078   0.461   2.756   5.210
 8060SOL    HW125079   0.541   2.718   5.256
 8060SOL    HW225080   0.429   2.692   5.139
 8061SOL     OW25081   5.902   6.822   3.349
 8061SOL    HW125082   5.852   6.748   3.304
 8061SOL    HW225083   5.917   6.897   3.285
 8062SOL     OW25084   1.298   2.848   1.828
 8062SOL    HW125085   1.256   2.936   1.852
 8062SOL    HW225086   1.376   2.864   1.768
 8063SOL     OW25087   2.444   2.986   5.797
 8063SOL    HW125088   2.427   3.062   5.860
 8063SOL    HW225089   2.357   2.955   5.758
 8064SOL     OW25090   6.282   2.530   5.875
 8064SOL    HW125091   6.350   2.481   5.820
 8064SOL    HW225092   6.217   2.464   5.914
 8065SOL     OW25093   4.557   0.003   6.414
 8065SOL    HW125094   4.527   6.933   6.405
 8065SOL    HW225095   4.604   0.031   6.330
 8066SOL     OW25096   1.804   0.214   1.549
 8066SOL    HW125097   1.748   0.178   1.475
 8066SOL    HW225098   1.770   0.305   1.575
 8067SOL     OW25099   4.536   2.486   2.528
 8067SOL    HW125100   4.576   2.537   2.604
 8067SOL    HW225101   4.444   2.456   2.552
 8068SOL     OW25102   6.436   4.794   4.666
 8068SOL    HW125103   6.487   4.768   4.749
 8068SOL    HW225104   6.443   4.721   4.599
 8069SOL     OW25105   1.019   6.407   2.132
 8069SOL    HW125106   1.026   6.494   2.181
 8069SOL    HW225107   1.005   6.333   2.198
 8070SOL     OW25108   3.562   0.339   2.222
 8070SOL    HW125109   3.522   0.263   2.273
 8070SOL    HW225110   3.631   0.384   2.278
 8071SOL     OW25111   5.244   4.922   0.082
 8071SOL    HW125112   5.263   4.835   0.037
 8071SOL    HW225113   5.226   4.993   0.014
 8072SOL     OW25114   3.990   0.677   3.005
 8072SOL    HW125115   4.022   0.724   3.088
 8072SOL    HW225116   3.891   0.683   3.000
 8073SOL     OW25117   5.057   0.366   6.109
 8073SOL    HW125118   5.002   0.285   6.088
 8073SOL    HW225119   5.017   0.414   6.187
 8074SOL     OW25120   2.732   4.154   0.090
 8074SOL    HW125121   2.663   4.222   0.113
 8074SOL    HW225122   2.822   4.198   0.090
 8075SOL     OW25123   6.051   1.785   4.017
 8075SOL    HW125124   5.976   1.726   4.048
 8075SOL    HW225125   6.094   1.829   4.096
 8076SOL     OW25126   4.707   3.312   6.576
 8076SOL    HW125127   4.726   3.246   6.650
 8076SOL    HW225128   4.657   3.266   6.503
 8077SOL     OW25129   0.740   0.619   0.303
 8077SOL    HW125130   0.796   0.536   0.313
 8077SOL    HW225131   0.766   0.667   0.219
 8078SOL     OW25132   5.861   3.420   0.956
 8078SOL    HW125133   5.775   3.455   0.918
 8078SOL    HW225134   5.937   3.475   0.922
 8079SOL     OW25135   1.188   2.411   0.849
 8079SOL    HW125136   1.272   2.360   0.867
 8079SOL    HW225137   1.203   2.474   0.773
 8080SOL     OW25138   4.203   5.455   6.846
 8080SOL    HW125139   4.254   5.382   6.891
 8080SOL    HW225140   4.124   5.416   6.798
 8081SOL     OW25141   5.687   2.400   4.637
 8081SOL    HW125142   5.662   2.479   4.693
 8081SOL    HW225143   5.633   2.320   4.665
 8082SOL     OW25144   6.384   3.657   4.814
 8082SOL    HW125145   6.346   3.621   4.899
 8082SOL    HW225146   6.405   3.580   4.753
 8083SOL     OW25147   5.703   1.823   4.890
 8083SOL    HW125148   5.769   1.769   4.837
 8083SOL    HW225149   5.702   1.917   4.856
 8084SOL     OW25150   6.300   0.407   0.323
 8084SOL    HW125151   6.210   0.402   0.279
 8084SOL    HW225152   6.290   0.438   0.417
 8085SOL     OW25153   4.840   2.286   0.606
 8085SOL    HW125154   4.839   2.234   0.691
 8085SOL    HW225155   4.746   2.310   0.580
 8086SOL     OW25156   2.357   5.593   5.926
 8086SOL    HW125157   2.324   5.658   5.857
 8086SOL    HW225158   2.284   5.528   5.948
 8087SOL     OW25159   2.534   3.541   0.744
 8087SOL    HW125160   2.478   3.540   0.827
 8087SOL    HW225161   2.548   3.447   0.712
 8088SOL     OW25162   4.715   0.679   3.313
 8088SOL    HW125163   4.785   0.749   3.327
 8088SOL    HW225164   4.624   0.718   3.328
 8089SOL     OW25165   6.675   2.913   0.730
 8089SOL    HW125166   6.605   2.878   0.792
 8089SOL    HW225167   6.720   2.836   0.684
 8090SOL     OW25168   4.578   1.517   4.941
 8090SOL    HW125169   4.621   1.607   4.946
 8090SOL    HW225170   4.588   1.480   4.849
 8091SOL     OW25171   1.844   3.674   5.236
 8091SOL    HW125172   1.941   3.657   5.220
 8091SOL    HW225173   1.831   3.764   5.277
 8092SOL     OW25174   6.293   1.816   4.451
 8092SOL    HW125175   6.208   1.765   4.465
 8092SOL    HW225176   6.289   1.902   4.501
 8093SOL     OW25177   5.934   5.542   0.671
 8093SOL    HW125178   5.882   5.627   0.670
 8093SOL    HW225179   5.877   5.468   0.707
 8094SOL     OW25180   0.316   3.524   4.047
 8094SOL    HW125181   0.248   3.473   3.994
 8094SOL    HW225182   0.386   3.560   3.986
 8095SOL     OW25183   6.388   3.253   4.611
 8095SOL    HW125184   6.432   3.198   4.682
 8095SOL    HW225185   6.430   3.233   4.522
 8096SOL     OW25186   4.750   0.244   0.706
 8096SOL    HW125187   4.795   0.333   0.710
 8096SOL    HW225188   4.656   0.255   0.674
 8097SOL     OW25189   4.444   2.064   4.026
 8097SOL    HW125190   4.508   2.136   3.998
 8097SOL    HW225191   4.490   2.001   4.088
 8098SOL     OW25192   2.063   1.958   4.520
 8098SOL    HW125193   2.074   1.937   4.617
 8098SOL    HW225194   1.987   2.022   4.509
 8099SOL     OW25195   3.812   6.458   4.268
 8099SOL    HW125196   3.720   6.429   4.297
 8099SOL    HW225197   3.836   6.411   4.183
 8100SOL     OW25198   6.601   6.010   1.256
 8100SOL    HW125199   6.608   6.075   1.180
 8100SOL    HW225200   6.659   6.041   1.331
 8101SOL     OW25201   0.869   4.833   1.884
 8101SOL    HW125202   0.945   4.819   1.821
 8101SOL    HW225203   0.806   4.901   1.847
 8102SOL     OW25204   6.622   0.097   5.844
 8102SOL    HW125205   6.717   0.089   5.815
 8102SOL    HW225206   6.562   0.081   5.766
 8103SOL     OW25207   2.429   2.538   2.258
 8103SOL    HW125208   2.457   2.525   2.353
 8103SOL    HW225209   2.499   2.501   2.197
 8104SOL     OW25210   2.540   0.129   6.310
 8104SOL    HW125211   2.591   0.062   6.363
 8104SOL    HW225212   2.516   0.089   6.221
 8105SOL     OW25213   2.086   2.641   3.030
 8105SOL    HW125214   2.011   2.604   2.975
 8105SOL    HW225215   2.064   2.734   3.058
 8106SOL     OW25216   0.765   4.133   5.614
 8106SOL    HW125217   0.672   4.099   5.601
 8106SOL    HW225218   0.815   4.072   5.675
 8107SOL     OW25219   1.031   5.188   6.546
 8107SOL    HW125220   1.092   5.164   6.470
 8107SOL    HW225221   1.060   5.140   6.628
 8108SOL     OW25222   2.243   2.808   6.233
 8108SOL    HW125223   2.245   2.896   6.280
 8108SOL    HW225224   2.323   2.800   6.174
 8109SOL     OW25225   0.139   5.524   5.430
 8109SOL    HW125226   0.216   5.555   5.486
 8109SOL    HW225227   0.175   5.481   5.347
 8110SOL     OW25228   1.324   4.931   0.545
 8110SOL    HW125229   1.228   4.918   0.520
 8110SOL    HW225230   1.365   5.001   0.487
 8111SOL     OW25231   3.274   6.049   4.191
 8111SOL    HW125232   3.208   6.115   4.228
 8111SOL    HW225233   3.305   6.080   4.101
 8112SOL     OW25234   4.079   1.367   4.046
 8112SOL    HW125235   4.024   1.291   4.079
 8112SOL    HW225236   4.033   1.410   3.968
 8113SOL     OW25237   3.266   2.502   5.674
 8113SOL    HW125238   3.340   2.439   5.653
 8113SOL    HW225239   3.209   2.516   5.593
 8114SOL     OW25240   3.111   3.746   1.448
 8114SOL    HW125241   3.012   3.742   1.462
 8114SOL    HW225242   3.152   3.657   1.468
 8115SOL     OW25243   4.049   2.687   0.975
 8115SOL    HW125244   3.975   2.694   1.042
 8115SOL    HW225245   4.043   2.764   0.911
 8116SOL     OW25246   5.193   1.475   5.644
 8116SOL    HW125247   5.207   1.569   5.676
 8116SOL    HW225248   5.197   1.473   5.544
 8117SOL     OW25249   3.127   2.727   5.781
 8117SOL    HW125250   3.188   2.666   5.730
 8117SOL    HW225251   3.113   2.690   5.873
 8118SOL     OW25252   0.986   2.113   4.211
 8118SOL    HW125253   1.058   2.168   4.255
 8118SOL    HW225254   0.957   2.159   4.127
 8119SOL     OW25255   1.540   6.515   2.492
 8119SOL    HW125256   1.469   6.529   2.423
 8119SOL    HW225257   1.501   6.466   2.570
 8120SOL     OW25258   4.613   4.297   2.387
 8120SOL    HW125259   4.578   4.309   2.480
 8120SOL    HW225260   4.546   4.333   2.321
 8121SOL     OW25261   6.891   5.811   3.182
 8121SOL    HW125262   6.793   5.834   3.178
 8121SOL    HW225263   6.906   5.723   3.137
 8122SOL     OW25264   0.003   5.665   1.703
 8122SOL    HW125265   6.946   5.721   1.712
 8122SOL    HW225266   7.014   5.597   1.631
 8123SOL     OW25267   1.328   5.305   6.937
 8123SOL    HW125268   1.308   5.401   6.919
 8123SOL    HW225269   1.254   5.264   6.990
 8124SOL     OW25270   1.844   6.258   2.872
 8124SOL    HW125271   1.780   6.303   2.934
 8124SOL    HW225272   1.820   6.278   2.777
 8125SOL     OW25273   5.511   5.075   3.086
 8125SOL    HW125274   5.556   5.116   3.006
 8125SOL    HW225275   5.416   5.053   3.064
 8126SOL     OW25276   0.040   4.810   1.700
 8126SOL    HW125277   0.126   4.766   1.724
 8126SOL    HW225278   7.010   4.748   1.645
 8127SOL     OW25279   4.009   5.379   0.965
 8127SOL    HW125280   3.921   5.414   0.934
 8127SOL    HW225281   4.082   5.438   0.932
 8128SOL     OW25282   4.160   1.885   5.406
 8128SOL    HW125283   4.203   1.955   5.465
 8128SOL    HW225284   4.166   1.914   5.311
 8129SOL     OW25285   4.552   6.174   6.709
 8129SOL    HW125286   4.611   6.094   6.696
 8129SOL    HW225287   4.590   6.251   6.659
 8130SOL     OW25288   0.673   0.288   6.175
 8130SOL    HW125289   0.728   0.262   6.255
 8130SOL    HW225290   0.684   0.220   6.103
 8131SOL     OW25291   2.443   1.653   1.365
 8131SOL    HW125292   2.475   1.742   1.400
 8131SOL    HW225293   2.434   1.659   1.265
 8132SOL     OW25294   5.785   4.389   3.049
 8132SOL    HW125295   5.802   4.359   2.955
 8132SOL    HW225296   5.805   4.313   3.111
 8133SOL     OW25297   0.417   5.402   2.000
 8133SOL    HW125298   0.469   5.481   2.035
 8133SOL    HW225299   0.480   5.325   1.986
 8134SOL     OW25300   2.590   3.072   1.616
 8134SOL    HW125301   2.526   3.003   1.582
 8134SOL    HW225302   2.584   3.154   1.560
 8135SOL     OW25303   3.854   6.504   2.432
 8135SOL    HW125304   3.887   6.527   2.524
 8135SOL    HW225305   3.925   6.455   2.382
 8136SOL     OW25306   2.359   5.898   1.864
 8136SOL    HW125307   2.417   5.961   1.915
 8136SOL    HW225308   2.396   5.806   1.869
 8137SOL     OW25309   2.966   3.751   5.429
 8137SOL    HW125310   2.911   3.804   5.493
 8137SOL    HW225311   2.944   3.777   5.335
 8138SOL     OW25312   4.464   0.968   3.555
 8138SOL    HW125313   4.520   1.035   3.506
 8138SOL    HW225314   4.411   0.914   3.489
 8139SOL     OW25315   1.575   2.967   6.185
 8139SOL    HW125316   1.511   3.033   6.145
 8139SOL    HW225317   1.523   2.890   6.223
 8140SOL     OW25318   4.941   1.531   1.328
 8140SOL    HW125319   4.875   1.463   1.298
 8140SOL    HW225320   4.991   1.567   1.249
 8141SOL     OW25321   5.951   0.818   5.285
 8141SOL    HW125322   5.922   0.903   5.242
 8141SOL    HW225323   5.982   0.836   5.378
 8142SOL     OW25324   3.675   5.637   0.623
 8142SOL    HW125325   3.592   5.632   0.678
 8142SOL    HW225326   3.676   5.724   0.573
 8143SOL     OW25327   5.522   4.892   6.888
 8143SOL    HW125328   5.538   4.812   6.946
 8143SOL    HW225329   5.605   4.913   6.837
 8144SOL     OW25330   1.562   5.473   6.710
 8144SOL    HW125331   1.522   5.498   6.621
 8144SOL    HW225332   1.605   5.383   6.702
 8145SOL     OW25333   5.365   5.671   5.620
 8145SOL    HW125334   5.463   5.656   5.632
 8145SOL    HW225335   5.344   5.768   5.634
 8146SOL     OW25336   0.046   6.148   4.912
 8146SOL    HW125337   0.022   6.083   4.839
 8146SOL    HW225338   6.988   6.180   4.956
 8147SOL     OW25339   2.313   6.959   4.593
 8147SOL    HW125340   2.304   0.033   4.608
 8147SOL    HW225341   2.327   6.914   4.681
 8148SOL     OW25342   5.293   4.539   0.255
 8148SOL    HW125343   5.349   4.458   0.236
 8148SOL    HW225344   5.244   4.566   0.172
 8149SOL     OW25345   1.918   6.758   5.439
 8149SOL    HW125346   2.016   6.761   5.421
 8149SOL    HW225347   1.871   6.823   5.380
 8150SOL     OW25348   0.419   4.230   0.779
 8150SOL    HW125349   0.376   4.150   0.739
 8150SOL    HW225350   0.517   4.229   0.761
 8151SOL     OW25351   6.333   4.075   1.670
 8151SOL    HW125352   6.413   4.015   1.658
 8151SOL    HW225353   6.305   4.075   1.766
 8152SOL     OW25354   5.015   2.271   3.934
 8152SOL    HW125355   4.920   2.255   3.962
 8152SOL    HW225356   5.023   2.263   3.835
 8153SOL     OW25357   0.281   1.531   1.010
 8153SOL    HW125358   0.257   1.583   1.092
 8153SOL    HW225359   0.239   1.574   0.930
 8154SOL     OW25360   0.746   1.027   3.731
 8154SOL    HW125361   0.826   1.064   3.684
 8154SOL    HW225362   0.719   0.940   3.689
 8155SOL     OW25363   0.965   4.769   4.490
 8155SOL    HW125364   1.039   4.741   4.428
 8155SOL    HW225365   0.931   4.688   4.537
 8156SOL     OW25366   1.356   3.989   0.454
 8156SOL    HW125367   1.347   3.975   0.356
 8156SOL    HW225368   1.439   3.943   0.486
 8157SOL     OW25369   5.936   4.409   4.619
 8157SOL    HW125370   5.945   4.455   4.707
 8157SOL    HW225371   5.856   4.446   4.570
 8158SOL     OW25372   6.295   5.043   6.419
 8158SOL    HW125373   6.213   4.987   6.408
 8158SOL    HW225374   6.345   5.014   6.500
 8159SOL     OW25375   2.417   6.877   5.311
 8159SOL    HW125376   2.488   6.822   5.266
 8159SOL    HW225377   2.446   6.899   5.404
 8160SOL     OW25378   5.373   2.783   2.856
 8160SOL    HW125379   5.312   2.836   2.796
 8160SOL    HW225380   5.385   2.692   2.817
 8161SOL     OW25381   0.512   2.555   1.660
 8161SOL    HW125382   0.515   2.563   1.560
 8161SOL    HW225383   0.603   2.576   1.697
 8162SOL     OW25384   0.324   5.883   5.681
 8162SOL    HW125385   0.280   5.800   5.648
 8162SOL    HW225386   0.411   5.860   5.723
 8163SOL     OW25387   3.173   5.063   5.735
 8163SOL    HW125388   3.084   5.021   5.718
 8163SOL    HW225389   3.181   5.087   5.832
 8164SOL     OW25390   5.175   1.754   0.411
 8164SOL    HW125391   5.104   1.685   0.424
 8164SOL    HW225392   5.219   1.739   0.322
 8165SOL     OW25393   0.681   2.734   6.421
 8165SOL    HW125394   0.677   2.793   6.340
 8165SOL    HW225395   0.614   2.660   6.413
 8166SOL     OW25396   2.850   2.139   4.559
 8166SOL    HW125397   2.871   2.115   4.653
 8166SOL    HW225398   2.806   2.229   4.556
 8167SOL     OW25399   1.604   2.788   3.170
 8167SOL    HW125400   1.648   2.826   3.252
 8167SOL    HW225401   1.607   2.856   3.096
 8168SOL     OW25402   1.456   6.355   2.706
 8168SOL    HW125403   1.464   6.389   2.799
 8168SOL    HW225404   1.508   6.270   2.696
 8169SOL     OW25405   4.651   4.458   0.293
 8169SOL    HW125406   4.690   4.537   0.247
 8169SOL    HW225407   4.691   4.450   0.385
 8170SOL     OW25408   6.986   4.578   3.230
 8170SOL    HW125409   6.913   4.534   3.280
 8170SOL    HW225410   6.949   4.619   3.146
 8171SOL     OW25411   1.724   1.681   1.681
 8171SOL    HW125412   1.748   1.755   1.744
 8171SOL    HW225413   1.701   1.718   1.592
 8172SOL     OW25414   1.353   4.690   0.671
 8172SOL    HW125415   1.374   4.633   0.591
 8172SOL    HW225416   1.314   4.777   0.640
 8173SOL     OW25417   5.599   6.697   1.672
 8173SOL    HW125418   5.648   6.772   1.716
 8173SOL    HW225419   5.502   6.720   1.666
 8174SOL     OW25420   2.565   6.331   4.055
 8174SOL    HW125421   2.628   6.404   4.027
 8174SOL    HW225422   2.486   6.370   4.101
 8175SOL     OW25423   0.533   1.934   5.876
 8175SOL    HW125424   0.490   1.992   5.807
 8175SOL    HW225425   0.464   1.877   5.920
 8176SOL     OW25426   3.103   5.018   6.936
 8176SOL    HW125427   3.055   4.934   6.962
 8176SOL    HW225428   3.049   5.066   6.866
 8177SOL     OW25429   3.371   0.906   2.263
 8177SOL    HW125430   3.396   0.987   2.210
 8177SOL    HW225431   3.383   0.925   2.361
 8178SOL     OW25432   2.631   5.888   1.552
 8178SOL    HW125433   2.686   5.808   1.528
 8178SOL    HW225434   2.685   5.949   1.609
 8179SOL     OW25435   6.696   6.876   3.828
 8179SOL    HW125436   6.693   6.779   3.805
 8179SOL    HW225437   6.663   6.930   3.751
 8180SOL     OW25438   4.949   5.140   0.666
 8180SOL    HW125439   5.015   5.090   0.721
 8180SOL    HW225440   4.902   5.077   0.604
 8181SOL     OW25441   6.425   0.698   6.702
 8181SOL    HW125442   6.495   0.739   6.761
 8181SOL    HW225443   6.339   0.690   6.752
 8182SOL     OW25444   3.339   3.706   3.185
 8182SOL    HW125445   3.287   3.635   3.139
 8182SOL    HW225446   3.394   3.757   3.119
 8183SOL     OW25447   0.351   0.321   5.444
 8183SOL    HW125448   0.421   0.342   5.513
 8183SOL    HW225449   0.275   0.274   5.487
 8184SOL     OW25450   0.269   6.159   5.151
 8184SOL    HW125451   0.366   6.158   5.126
 8184SOL    HW225452   0.219   6.096   5.092
 8185SOL     OW25453   0.500   5.949   4.907
 8185SOL    HW125454   0.423   5.911   4.957
 8185SOL    HW225455   0.476   5.958   4.810
 8186SOL     OW25456   1.457   5.493   0.431
 8186SOL    HW125457   1.555   5.481   0.447
 8186SOL    HW225458   1.419   5.554   0.500
 8187SOL     OW25459   1.389   6.604   4.677
 8187SOL    HW125460   1.355   6.511   4.666
 8187SOL    HW225461   1.477   6.602   4.724
 8188SOL     OW25462   1.391   2.779   2.457
 8188SOL    HW125463   1.317   2.843   2.475
 8188SOL    HW225464   1.358   2.685   2.466
 8189SOL     OW25465   6.607   5.483   4.271
 8189SOL    HW125466   6.673   5.408   4.263
 8189SOL    HW225467   6.612   5.540   4.189
 8190SOL     OW25468   5.761   3.510   2.645
 8190SOL    HW125469   5.666   3.510   2.677
 8190SOL    HW225470   5.821   3.477   2.718
 8191SOL     OW25471   4.817   5.151   0.938
 8191SOL    HW125472   4.819   5.152   0.838
 8191SOL    HW225473   4.723   5.156   0.970
 8192SOL     OW25474   0.091   5.950   3.262
 8192SOL    HW125475   0.026   5.875   3.253
 8192SOL    HW225476   0.040   6.036   3.271
 8193SOL     OW25477   0.134   4.737   4.321
 8193SOL    HW125478   0.211   4.693   4.368
 8193SOL    HW225479   0.164   4.768   4.231
 8194SOL     OW25480   5.272   0.165   2.000
 8194SOL    HW125481   5.217   0.216   2.066
 8194SOL    HW225482   5.214   0.099   1.952
 8195SOL     OW25483   6.811   6.558   3.099
 8195SOL    HW125484   6.729   6.518   3.058
 8195SOL    HW225485   6.788   6.595   3.189
 8196SOL     OW25486   4.971   0.225   2.630
 8196SOL    HW125487   4.981   0.258   2.537
 8196SOL    HW225488   4.934   0.132   2.629
 8197SOL     OW25489   3.928   1.588   3.479
 8197SOL    HW125490   3.963   1.630   3.395
 8197SOL    HW225491   3.995   1.524   3.514
 8198SOL     OW25492   2.173   5.420   0.497
 8198SOL    HW125493   2.089   5.399   0.548
 8198SOL    HW225494   2.242   5.456   0.560
 8199SOL     OW25495   6.016   2.451   0.236
 8199SOL    HW125496   6.033   2.549   0.244
 8199SOL    HW225497   5.918   2.433   0.241
 8200SOL     OW25498   6.180   4.514   0.136
 8200SOL    HW125499   6.081   4.519   0.127
 8200SOL    HW225500   6.224   4.552   0.055
 8201SOL     OW25501   5.519   0.667   5.119
 8201SOL    HW125502   5.592   0.712   5.067
 8201SOL    HW225503   5.430   0.690   5.079
 8202SOL     OW25504   0.779   5.717   1.791
 8202SOL    HW125505   0.705   5.766   1.745
 8202SOL    HW225506   0.832   5.781   1.846
 8203SOL     OW25507   1.447   3.027   0.467
 8203SOL    HW125508   1.419   3.109   0.517
 8203SOL    HW225509   1.501   3.053   0.387
 8204SOL     OW25510   1.509   3.561   0.372
 8204SOL    HW125511   1.589   3.559   0.432
 8204SOL    HW225512   1.430   3.595   0.423
 8205SOL     OW25513   6.999   3.790   6.059
 8205SOL    HW125514   0.020   3.719   6.112
 8205SOL    HW225515   6.992   3.873   6.114
 8206SOL     OW25516   3.383   0.807   1.136
 8206SOL    HW125517   3.422   0.816   1.044
 8206SOL    HW225518   3.415   0.722   1.178
 8207SOL     OW25519   4.097   3.698   4.289
 8207SOL    HW125520   4.054   3.767   4.348
 8207SOL    HW225521   4.129   3.622   4.346
 8208SOL     OW25522   2.719   7.019   6.706
 8208SOL    HW125523   2.681   6.976   6.624
 8208SOL    HW225524   2.816   0.015   6.691
 8209SOL     OW25525   5.916   2.185   3.957
 8209SOL    HW125526   5.828   2.199   4.002
 8209SOL    HW225527   5.990   2.215   4.017
 8210SOL     OW25528   2.260   2.574   6.394
 8210SOL    HW125529   2.256   2.501   6.327
 8210SOL    HW225530   2.223   2.658   6.355
 8211SOL     OW25531   4.037   4.660   1.155
 8211SOL    HW125532   3.982   4.580   1.130
 8211SOL    HW225533   4.072   4.649   1.248
 8212SOL     OW25534   2.029   3.122   3.069
 8212SOL    HW125535   2.056   3.166   2.984
 8212SOL    HW225536   2.078   3.164   3.145
 8213SOL     OW25537   6.241   5.044   0.614
 8213SOL    HW125538   6.283   5.063   0.703
 8213SOL    HW225539   6.142   5.061   0.620
 8214SOL     OW25540   4.915   3.538   3.080
 8214SOL    HW125541   4.891   3.566   2.987
 8214SOL    HW225542   4.913   3.618   3.140
 8215SOL     OW25543   3.737   5.155   2.107
 8215SOL    HW125544   3.832   5.127   2.124
 8215SOL    HW225545   3.699   5.101   2.031
 8216SOL     OW25546   5.545   3.401   3.883
 8216SOL    HW125547   5.512   3.405   3.789
 8216SOL    HW225548   5.580   3.491   3.910
 8217SOL     OW25549   2.207   5.762   0.464
 8217SOL    HW125550   2.177   5.737   0.557
 8217SOL    HW225551   2.301   5.795   0.468
 8218SOL     OW25552   4.909   2.313   6.626
 8218SOL    HW125553   4.990   2.311   6.567
 8218SOL    HW225554   4.936   2.326   6.721
 8219SOL     OW25555   4.997   2.094   0.162
 8219SOL    HW125556   5.007   2.137   0.251
 8219SOL    HW225557   4.976   1.997   0.173
 8220SOL     OW25558   3.955   3.615   1.637
 8220SOL    HW125559   3.902   3.531   1.627
 8220SOL    HW225560   3.904   3.680   1.693
 8221SOL     OW25561   5.943   4.046   3.552
 8221SOL    HW125562   5.977   3.954   3.570
 8221SOL    HW225563   5.844   4.048   3.565
 8222SOL     OW25564   6.280   0.762   3.138
 8222SOL    HW125565   6.247   0.856   3.138
 8222SOL    HW225566   6.328   0.744   3.052
 8223SOL     OW25567   0.460   5.105   6.712
 8223SOL    HW125568   0.445   5.021   6.763
 8223SOL    HW225569   0.398   5.176   6.746
 8224SOL     OW25570   0.904   4.005   2.490
 8224SOL    HW125571   0.951   3.918   2.498
 8224SOL    HW225572   0.807   3.990   2.472
 8225SOL     OW25573   5.191   1.231   1.620
 8225SOL    HW125574   5.256   1.277   1.681
 8225SOL    HW225575   5.195   1.272   1.529
 8226SOL     OW25576   3.944   0.330   6.944
 8226SOL    HW125577   3.955   0.341   0.017
 8226SOL    HW225578   3.900   0.242   6.925
 8227SOL     OW25579   6.532   4.083   3.407
 8227SOL    HW125580   6.513   4.049   3.499
 8227SOL    HW225581   6.472   4.037   3.342
 8228SOL     OW25582   0.113   1.357   4.139
 8228SOL    HW125583   0.074   1.416   4.211
 8228SOL    HW225584   0.066   1.375   4.053
 8229SOL     OW25585   5.437   5.736   0.525
 8229SOL    HW125586   5.419   5.703   0.432
 8229SOL    HW225587   5.371   5.695   0.588
 8230SOL     OW25588   5.289   7.009   2.932
 8230SOL    HW125589   5.278   0.083   2.924
 8230SOL    HW225590   5.212   6.963   2.888
 8231SOL     OW25591   3.978   5.633   1.258
 8231SOL    HW125592   3.918   5.556   1.280
 8231SOL    HW225593   4.053   5.637   1.325
 8232SOL     OW25594   2.687   1.521   7.022
 8232SOL    HW125595   2.659   1.561   0.084
 8232SOL    HW225596   2.612   1.529   6.956
 8233SOL     OW25597   0.512   5.647   5.749
 8233SOL    HW125598   0.598   5.603   5.775
 8233SOL    HW225599   0.439   5.579   5.746
 8234SOL     OW25600   2.524   3.240   6.700
 8234SOL    HW125601   2.548   3.315   6.639
 8234SOL    HW225602   2.514   3.156   6.647
 8235SOL     OW25603   4.698   2.367   6.258
 8235SOL    HW125604   4.795   2.354   6.238
 8235SOL    HW225605   4.644   2.300   6.206
 8236SOL     OW25606   6.107   2.676   1.239
 8236SOL    HW125607   6.036   2.746   1.242
 8236SOL    HW225608   6.168   2.686   1.318
 8237SOL     OW25609   3.833   6.285   5.559
 8237SOL    HW125610   3.801   6.369   5.516
 8237SOL    HW225611   3.755   6.237   5.600
 8238SOL     OW25612   0.997   0.882   6.339
 8238SOL    HW125613   1.040   0.835   6.416
 8238SOL    HW225614   0.932   0.820   6.294
 8239SOL     OW25615   5.866   1.309   0.124
 8239SOL    HW125616   5.892   1.363   0.044
 8239SOL    HW225617   5.767   1.312   0.136
 8240SOL     OW25618   3.720   3.321   3.117
 8240SOL    HW125619   3.740   3.381   3.193
 8240SOL    HW225620   3.798   3.261   3.099
 8241SOL     OW25621   4.823   6.007   1.583
 8241SOL    HW125622   4.776   6.078   1.635
 8241SOL    HW225623   4.784   5.918   1.604
 8242SOL     OW25624   1.331   4.059   5.172
 8242SOL    HW125625   1.306   4.055   5.268
 8242SOL    HW225626   1.250   4.044   5.115
 8243SOL     OW25627   0.338   3.122   4.873
 8243SOL    HW125628   0.351   3.159   4.965
 8243SOL    HW225629   0.393   3.039   4.862
 8244SOL     OW25630   2.535   5.397   5.261
 8244SOL    HW125631   2.511   5.334   5.187
 8244SOL    HW225632   2.606   5.356   5.318
 8245SOL     OW25633   4.433   3.711   1.413
 8245SOL    HW125634   4.468   3.653   1.339
 8245SOL    HW225635   4.339   3.685   1.435
 8246SOL     OW25636   5.501   3.533   5.148
 8246SOL    HW125637   5.427   3.467   5.161
 8246SOL    HW225638   5.470   3.624   5.176
 8247SOL     OW25639   1.011   6.516   6.968
 8247SOL    HW125640   1.022   6.449   0.016
 8247SOL    HW225641   0.961   6.596   7.003
 8248SOL     OW25642   0.142   4.058   3.416
 8248SOL    HW125643   0.205   3.981   3.426
 8248SOL    HW225644   0.152   4.097   3.325
 8249SOL     OW25645   1.034   5.454   2.908
 8249SOL    HW125646   1.120   5.440   2.956
 8249SOL    HW225647   1.049   5.515   2.830
 8250SOL     OW25648   3.385   3.405   2.205
 8250SOL    HW125649   3.338   3.318   2.188
 8250SOL    HW225650   3.335   3.456   2.275
 8251SOL     OW25651   5.983   0.763   4.940
 8251SOL    HW125652   6.049   0.781   4.867
 8251SOL    HW225653   6.010   0.682   4.991
 8252SOL     OW25654   0.950   3.527   4.465
 8252SOL    HW125655   1.047   3.553   4.466
 8252SOL    HW225656   0.895   3.601   4.503
 8253SOL     OW25657   3.040   3.574   5.824
 8253SOL    HW125658   3.007   3.553   5.731
 8253SOL    HW225659   3.126   3.625   5.818
 8254SOL     OW25660   4.956   5.514   2.973
 8254SOL    HW125661   4.969   5.591   2.911
 8254SOL    HW225662   4.987   5.430   2.929
 8255SOL     OW25663   4.040   4.773   3.739
 8255SOL    HW125664   3.966   4.840   3.736
 8255SOL    HW225665   4.048   4.727   3.651
 8256SOL     OW25666   5.510   2.513   3.855
 8256SOL    HW125667   5.475   2.472   3.939
 8256SOL    HW225668   5.534   2.441   3.790
 8257SOL     OW25669   6.271   4.817   3.929
 8257SOL    HW125670   6.217   4.749   3.880
 8257SOL    HW225671   6.367   4.791   3.926
 8258SOL     OW25672   5.443   2.045   6.906
 8258SOL    HW125673   5.459   1.946   6.914
 8258SOL    HW225674   5.367   2.062   6.843
 8259SOL     OW25675   4.688   1.141   0.878
 8259SOL    HW125676   4.651   1.084   0.951
 8259SOL    HW225677   4.643   1.119   0.791
 8260SOL     OW25678   3.506   5.806   6.650
 8260SOL    HW125679   3.603   5.829   6.641
 8260SOL    HW225680   3.455   5.887   6.677
 8261SOL     OW25681   4.936   1.198   1.788
 8261SOL    HW125682   4.986   1.175   1.705
 8261SOL    HW225683   5.000   1.222   1.861
 8262SOL     OW25684   6.774   2.157   1.537
 8262SOL    HW125685   6.756   2.222   1.611
 8262SOL    HW225686   6.858   2.183   1.490
 8263SOL     OW25687   5.359   1.580   0.762
 8263SOL    HW125688   5.277   1.629   0.792
 8263SOL    HW225689   5.407   1.543   0.842
 8264SOL     OW25690   1.744   4.358   1.351
 8264SOL    HW125691   1.749   4.449   1.309
 8264SOL    HW225692   1.666   4.308   1.312
 8265SOL     OW25693   1.866   0.394   2.729
 8265SOL    HW125694   1.822   0.460   2.668
 8265SOL    HW225695   1.883   0.438   2.818
 8266SOL     OW25696   3.502   0.718   3.227
 8266SOL    HW125697   3.436   0.738   3.154
 8266SOL    HW225698   3.458   0.728   3.316
 8267SOL     OW25699   0.168   3.828   0.700
 8267SOL    HW125700   0.183   3.730   0.689
 8267SOL    HW225701   0.074   3.851   0.675
 8268SOL     OW25702   3.076   5.529   6.619
 8268SOL    HW125703   3.172   5.525   6.645
 8268SOL    HW225704   3.031   5.601   6.672
 8269SOL     OW25705   6.266   2.385   0.349
 8269SOL    HW125706   6.177   2.428   0.338
 8269SOL    HW225707   6.267   2.329   0.432
 8270SOL     OW25708   2.611   6.120   4.526
 8270SOL    HW125709   2.513   6.127   4.549
 8270SOL    HW225710   2.633   6.025   4.504
 8271SOL     OW25711   6.654   2.272   2.934
 8271SOL    HW125712   6.571   2.239   2.979
 8271SOL    HW225713   6.723   2.294   3.002
 8272SOL     OW25714   3.454   1.312   4.017
 8272SOL    HW125715   3.421   1.303   4.111
 8272SOL    HW225716   3.404   1.385   3.971
 8273SOL     OW25717   1.969   6.425   2.077
 8273SOL    HW125718   1.933   6.488   2.008
 8273SOL    HW225719   1.904   6.417   2.153
 8274SOL     OW25720   5.372   3.990   3.742
 8274SOL    HW125721   5.373   3.924   3.817
 8274SOL    HW225722   5.383   4.082   3.779
 8275SOL     OW25723   5.501   2.273   0.290
 8275SOL    HW125724   5.537   2.311   0.375
 8275SOL    HW225725   5.556   2.195   0.263
 8276SOL     OW25726   0.606   1.519   2.625
 8276SOL    HW125727   0.596   1.456   2.702
 8276SOL    HW225728   0.701   1.521   2.596
 8277SOL     OW25729   0.178   1.597   6.974
 8277SOL    HW125730   0.247   1.589   0.021
 8277SOL    HW225731   0.162   1.694   6.954
 8278SOL     OW25732   1.187   2.793   0.830
 8278SOL    HW125733   1.282   2.815   0.853
 8278SOL    HW225734   1.157   2.850   0.754
 8279SOL     OW25735   0.447   6.100   3.661
 8279SOL    HW125736   0.470   6.192   3.692
 8279SOL    HW225737   0.424   6.102   3.564
 8280SOL     OW25738   3.645   2.386   5.981
 8280SOL    HW125739   3.581   2.379   5.905
 8280SOL    HW225740   3.599   2.361   6.067
 8281SOL     OW25741   4.798   5.431   2.430
 8281SOL    HW125742   4.790   5.333   2.411
 8281SOL    HW225743   4.895   5.457   2.428
 8282SOL     OW25744   6.124   2.842   6.069
 8282SOL    HW125745   6.181   2.766   6.101
 8282SOL    HW225746   6.030   2.810   6.058
 8283SOL     OW25747   1.921   2.701   6.028
 8283SOL    HW125748   1.867   2.753   5.963
 8283SOL    HW225749   2.019   2.715   6.009
 8284SOL     OW25750   6.032   4.437   1.802
 8284SOL    HW125751   6.121   4.405   1.768
 8284SOL    HW225752   5.965   4.433   1.728
 8285SOL     OW25753   4.133   3.375   3.860
 8285SOL    HW125754   4.169   3.450   3.915
 8285SOL    HW225755   4.097   3.304   3.920
 8286SOL     OW25756   0.676   2.688   6.708
 8286SOL    HW125757   0.678   2.712   6.611
 8286SOL    HW225758   0.585   2.653   6.732
 8287SOL     OW25759   1.595   6.544   4.142
 8287SOL    HW125760   1.613   6.453   4.180
 8287SOL    HW225761   1.510   6.541   4.089
 8288SOL     OW25762   2.701   1.737   3.429
 8288SOL    HW125763   2.757   1.752   3.347
 8288SOL    HW225764   2.746   1.670   3.488
 8289SOL     OW25765   0.240   6.032   0.023
 8289SOL    HW125766   0.158   6.089   0.028
 8289SOL    HW225767   0.234   5.972   6.968
 8290SOL     OW25768   5.911   2.408   1.133
 8290SOL    HW125769   5.933   2.454   1.047
 8290SOL    HW225770   5.995   2.393   1.185
 8291SOL     OW25771   4.219   0.853   0.759
 8291SOL    HW125772   4.168   0.782   0.711
 8291SOL    HW225773   4.157   0.929   0.781
 8292SOL     OW25774   3.068   0.223   6.044
 8292SOL    HW125775   3.043   0.313   6.010
 8292SOL    HW225776   3.040   0.153   5.978
 8293SOL     OW25777   5.857   5.085   4.913
 8293SOL    HW125778   5.917   5.007   4.927
 8293SOL    HW225779   5.827   5.087   4.818
 8294SOL     OW25780   6.202   3.236   6.935
 8294SOL    HW125781   6.206   3.153   6.879
 8294SOL    HW225782   6.258   3.223   7.017
 8295SOL     OW25783   4.906   3.396   6.862
 8295SOL    HW125784   4.944   3.347   6.940
 8295SOL    HW225785   4.959   3.373   6.780
 8296SOL     OW25786   1.175   5.171   5.832
 8296SOL    HW125787   1.162   5.130   5.741
 8296SOL    HW225788   1.171   5.271   5.824
 8297SOL     OW25789   1.530   2.990   4.060
 8297SOL    HW125790   1.484   3.043   3.988
 8297SOL    HW225791   1.606   3.043   4.097
 8298SOL     OW25792   4.629   1.682   1.854
 8298SOL    HW125793   4.617   1.750   1.783
 8298SOL    HW225794   4.658   1.595   1.813
 8299SOL     OW25795   6.077   2.435   1.629
 8299SOL    HW125796   6.159   2.477   1.666
 8299SOL    HW225797   6.097   2.393   1.540
 8300SOL     OW25798   1.408   5.588   3.265
 8300SOL    HW125799   1.454   5.580   3.354
 8300SOL    HW225800   1.387   5.497   3.230
 8301SOL     OW25801   2.747   2.047   6.478
 8301SOL    HW125802   2.804   2.122   6.510
 8301SOL    HW225803   2.766   2.031   6.381
 8302SOL     OW25804   5.824   5.699   5.462
 8302SOL    HW125805   5.775   5.637   5.400
 8302SOL    HW225806   5.921   5.699   5.439
 8303SOL     OW25807   6.970   0.139   6.509
 8303SOL    HW125808   0.039   0.172   6.515
 8303SOL    HW225809   6.924   0.152   6.596
 8304SOL     OW25810   0.227   3.534   0.704
 8304SOL    HW125811   0.242   3.436   0.687
 8304SOL    HW225812   0.314   3.576   0.730
 8305SOL     OW25813   3.511   5.370   2.951
 8305SOL    HW125814   3.519   5.315   3.034
 8305SOL    HW225815   3.503   5.467   2.976
 8306SOL     OW25816   1.726   3.153   4.154
 8306SOL    HW125817   1.785   3.077   4.129
 8306SOL    HW225818   1.779   3.238   4.152
 8307SOL     OW25819   4.170   5.567   0.816
 8307SOL    HW125820   4.270   5.570   0.809
 8307SOL    HW225821   4.132   5.528   0.731
 8308SOL     OW25822   3.122   0.518   2.309
 8308SOL    HW125823   3.219   0.522   2.332
 8308SOL    HW225824   3.101   0.428   2.271
 8309SOL     OW25825   5.799   6.800   2.241
 8309SOL    HW125826   5.800   6.746   2.157
 8309SOL    HW225827   5.884   6.853   2.247
 8310SOL     OW25828   6.349   4.637   6.672
 8310SOL    HW125829   6.273   4.700   6.654
 8310SOL    HW225830   6.396   4.616   6.587
 8311SOL     OW25831   5.970   0.230   6.267
 8311SOL    HW125832   5.977   0.130   6.272
 8311SOL    HW225833   6.051   0.271   6.310
 8312SOL     OW25834   4.980   6.208   1.434
 8312SOL    HW125835   4.943   6.120   1.465
 8312SOL    HW225836   4.909   6.278   1.438
 8313SOL     OW25837   3.825   1.490   2.731
 8313SOL    HW125838   3.884   1.530   2.662
 8313SOL    HW225839   3.735   1.533   2.727
 8314SOL     OW25840   0.020   6.445   3.225
 8314SOL    HW125841   6.969   6.473   3.168
 8314SOL    HW225842   0.080   6.523   3.242
 8315SOL     OW25843   5.019   4.528   6.325
 8315SOL    HW125844   4.975   4.497   6.241
 8315SOL    HW225845   5.011   4.627   6.333
 8316SOL     OW25846   2.750   5.581   6.424
 8316SOL    HW125847   2.687   5.521   6.375
 8316SOL    HW225848   2.703   5.621   6.503
 8317SOL     OW25849   2.101   4.221   1.551
 8317SOL    HW125850   2.072   4.168   1.471
 8317SOL    HW225851   2.196   4.200   1.571
 8318SOL     OW25852   3.100   1.070   5.703
 8318SOL    HW125853   3.046   1.010   5.763
 8318SOL    HW225854   3.166   1.015   5.652
 8319SOL     OW25855   3.240   0.524   5.427
 8319SOL    HW125856   3.303   0.580   5.373
 8319SOL    HW225857   3.265   0.529   5.524
 8320SOL     OW25858   4.457   4.970   1.173
 8320SOL    HW125859   4.366   5.012   1.175
 8320SOL    HW225860   4.485   4.948   1.267
 8321SOL     OW25861   6.767   1.002   0.887
 8321SOL    HW125862   6.707   1.036   0.958
 8321SOL    HW225863   6.789   0.906   0.905
 8322SOL     OW25864   5.685   6.938   6.928
 8322SOL    HW125865   5.711   6.989   7.010
 8322SOL    HW225866   5.669   6.843   6.951
 8323SOL     OW25867   1.970   1.000   1.570
 8323SOL    HW125868   1.893   0.973   1.628
 8323SOL    HW225869   2.037   1.050   1.624
 8324SOL     OW25870   6.762   1.274   2.363
 8324SOL    HW125871   6.790   1.231   2.449
 8324SOL    HW225872   6.843   1.298   2.310
 8325SOL     OW25873   4.086   3.749   4.901
 8325SOL    HW125874   4.078   3.817   4.828
 8325SOL    HW225875   4.123   3.664   4.864
 8326SOL     OW25876   4.204   2.694   6.521
 8326SOL    HW125877   4.213   2.709   6.423
 8326SOL    HW225878   4.110   2.666   6.542
 8327SOL     OW25879   5.588   2.378   6.220
 8327SOL    HW125880   5.513   2.313   6.213
 8327SOL    HW225881   5.557   2.460   6.267
 8328SOL     OW25882   2.262   2.835   4.040
 8328SOL    HW125883   2.218   2.745   4.040
 8328SOL    HW225884   2.277   2.864   4.135
 8329SOL     OW25885   0.544   2.456   4.871
 8329SOL    HW125886   0.563   2.509   4.788
 8329SOL    HW225887   0.628   2.450   4.926
 8330SOL     OW25888   2.393   6.715   0.656
 8330SOL    HW125889   2.447   6.632   0.672
 8330SOL    HW225890   2.420   6.785   0.722
 8331SOL     OW25891   2.924   6.856   0.973
 8331SOL    HW125892   2.933   6.797   0.893
 8331SOL    HW225893   3.012   6.863   1.019
 8332SOL     OW25894   5.032   6.311   3.597
 8332SOL    HW125895   5.000   6.289   3.505
 8332SOL    HW225896   4.999   6.402   3.623
 8333SOL     OW25897   1.669   4.993   5.810
 8333SOL    HW125898   1.668   5.077   5.866
 8333SOL    HW225899   1.577   4.954   5.807
 8334SOL     OW25900   6.399   6.916   4.272
 8334SOL    HW125901   6.446   7.004   4.269
 8334SOL    HW225902   6.397   6.883   4.366
 8335SOL     OW25903   6.149   6.335   5.504
 8335SOL    HW125904   6.074   6.323   5.439
 8335SOL    HW225905   6.122   6.298   5.593
 8336SOL     OW25906   1.033   1.930   3.126
 8336SOL    HW125907   0.978   1.895   3.050
 8336SOL    HW225908   0.973   1.960   3.200
 8337SOL     OW25909   0.526   6.388   2.374
 8337SOL    HW125910   0.444   6.342   2.409
 8337SOL    HW225911   0.583   6.321   2.325
 8338SOL     OW25912   1.881   4.818   0.705
 8338SOL    HW125913   1.799   4.799   0.651
 8338SOL    HW225914   1.962   4.800   0.650
 8339SOL     OW25915   5.824   0.906   3.226
 8339SOL    HW125916   5.735   0.861   3.216
 8339SOL    HW225917   5.841   0.964   3.146
 8340SOL     OW25918   4.640   3.922   1.701
 8340SOL    HW125919   4.545   3.900   1.720
 8340SOL    HW225920   4.699   3.874   1.766
 8341SOL     OW25921   2.464   6.994   0.791
 8341SOL    HW125922   2.390   0.016   0.743
 8341SOL    HW225923   2.520   0.034   0.841
 8342SOL     OW25924   5.260   6.829   1.269
 8342SOL    HW125925   5.269   6.803   1.365
 8342SOL    HW225926   5.164   6.841   1.246
 8343SOL     OW25927   0.474   5.084   5.721
 8343SOL    HW125928   0.476   5.168   5.775
 8343SOL    HW225929   0.526   5.013   5.768
 8344SOL     OW25930   4.049   6.970   5.095
 8344SOL    HW125931   4.090   6.938   5.009
 8344SOL    HW225932   3.980   0.015   5.075
 8345SOL     OW25933   6.324   1.417   3.127
 8345SOL    HW125934   6.271   1.443   3.208
 8345SOL    HW225935   6.284   1.460   3.047
 8346SOL     OW25936   3.592   5.365   2.212
 8346SOL    HW125937   3.642   5.279   2.218
 8346SOL    HW225938   3.640   5.428   2.151
 8347SOL     OW25939   3.352   5.129   4.432
 8347SOL    HW125940   3.410   5.083   4.500
 8347SOL    HW225941   3.304   5.060   4.378
 8348SOL     OW25942   1.871   0.544   0.731
 8348SOL    HW125943   1.803   0.616   0.737
 8348SOL    HW225944   1.952   0.578   0.683
 8349SOL     OW25945   6.266   5.534   1.749
 8349SOL    HW125946   6.195   5.476   1.790
 8349SOL    HW225947   6.233   5.570   1.661
 8350SOL     OW25948   6.534   0.726   4.803
 8350SOL    HW125949   6.539   0.683   4.893
 8350SOL    HW225950   6.456   0.689   4.752
 8351SOL     OW25951   3.138   6.269   1.838
 8351SOL    HW125952   3.072   6.313   1.777
 8351SOL    HW225953   3.143   6.172   1.817
 8352SOL     OW25954   6.510   6.142   2.106
 8352SOL    HW125955   6.483   6.063   2.052
 8352SOL    HW225956   6.443   6.157   2.179
 8353SOL     OW25957   1.577   3.344   2.017
 8353SOL    HW125958   1.607   3.427   2.065
 8353SOL    HW225959   1.644   3.271   2.031
 8354SOL     OW25960   2.827   0.589   0.324
 8354SOL    HW125961   2.879   0.503   0.314
 8354SOL    HW225962   2.790   0.616   0.236
 8355SOL     OW25963   3.170   1.070   0.615
 8355SOL    HW125964   3.144   0.989   0.667
 8355SOL    HW225965   3.092   1.133   0.613
 8356SOL     OW25966   2.844   5.454   0.625
 8356SOL    HW125967   2.819   5.469   0.720
 8356SOL    HW225968   2.809   5.529   0.569
 8357SOL     OW25969   4.555   6.178   3.298
 8357SOL    HW125970   4.487   6.248   3.319
 8357SOL    HW225971   4.547   6.103   3.363
 8358SOL     OW25972   3.048   2.072   5.098
 8358SOL    HW125973   2.979   2.076   5.026
 8358SOL    HW225974   3.114   2.147   5.085
 8359SOL     OW25975   4.310   4.654   3.777
 8359SOL    HW125976   4.326   4.640   3.679
 8359SOL    HW225977   4.216   4.683   3.792
 8360SOL     OW25978   4.057   0.271   2.771
 8360SOL    HW125979   4.052   0.190   2.829
 8360SOL    HW225980   4.104   0.248   2.686
 8361SOL     OW25981   1.408   0.210   2.771
 8361SOL    HW125982   1.401   0.306   2.741
 8361SOL    HW225983   1.387   0.150   2.694
 8362SOL     OW25984   2.015   3.075   0.473
 8362SOL    HW125985   1.927   3.056   0.516
 8362SOL    HW225986   2.075   3.123   0.537
 8363SOL     OW25987   0.493   3.440   1.131
 8363SOL    HW125988   0.511   3.363   1.070
 8363SOL    HW225989   0.472   3.407   1.223
 8364SOL     OW25990   6.761   4.423   5.184
 8364SOL    HW125991   6.679   4.382   5.144
 8364SOL    HW225992   6.742   4.452   5.278
 8365SOL     OW25993   1.196   3.705   5.967
 8365SOL    HW125994   1.101   3.679   5.951
 8365SOL    HW225995   1.227   3.765   5.894
 8366SOL     OW25996   2.421   6.964   2.679
 8366SOL    HW125997   2.477   0.020   2.662
 8366SOL    HW225998   2.414   6.949   2.778
 8367SOL     OW25999   5.101   5.683   3.675
 8367SOL    HW126000   5.063   5.775   3.669
 8367SOL    HW226001   5.073   5.642   3.762
 8368SOL     OW26002   3.677   5.662   6.378
 8368SOL    HW126003   3.601   5.726   6.367
 8368SOL    HW226004   3.697   5.619   6.290
 8369SOL     OW26005   2.635   1.471   1.447
 8369SOL    HW126006   2.591   1.533   1.383
 8369SOL    HW226007   2.672   1.392   1.397
 8370SOL     OW26008   1.897   1.200   0.102
 8370SOL    HW126009   1.885   1.295   0.071
 8370SOL    HW226010   1.829   1.180   0.173
 8371SOL     OW26011   1.961   2.422   0.238
 8371SOL    HW126012   2.016   2.431   0.321
 8371SOL    HW226013   1.993   2.489   0.170
 8372SOL     OW26014   6.627   0.431   1.183
 8372SOL    HW126015   6.707   0.465   1.132
 8372SOL    HW226016   6.553   0.412   1.119
 8373SOL     OW26017   1.590   6.349   4.507
 8373SOL    HW126018   1.620   6.314   4.418
 8373SOL    HW226019   1.497   6.384   4.499
 8374SOL     OW26020   6.843   0.879   5.912
 8374SOL    HW126021   6.882   0.802   5.860
 8374SOL    HW226022   6.777   0.844   5.978
 8375SOL     OW26023   3.994   0.636   6.349
 8375SOL    HW126024   4.011   0.701   6.275
 8375SOL    HW226025   4.065   0.647   6.419
 8376SOL     OW26026   4.406   0.099   4.396
 8376SOL    HW126027   4.411   0.196   4.373
 8376SOL    HW226028   4.483   0.075   4.456
 8377SOL     OW26029   5.832   5.085   1.198
 8377SOL    HW126030   5.829   5.140   1.282
 8377SOL    HW226031   5.828   5.146   1.119
 8378SOL     OW26032   4.720   2.880   3.599
 8378SOL    HW126033   4.776   2.905   3.678
 8378SOL    HW226034   4.759   2.923   3.517
 8379SOL     OW26035   5.079   2.760   2.123
 8379SOL    HW126036   5.073   2.668   2.086
 8379SOL    HW226037   5.164   2.771   2.174
 8380SOL     OW26038   5.465   1.455   3.550
 8380SOL    HW126039   5.514   1.466   3.637
 8380SOL    HW226040   5.518   1.496   3.476
 8381SOL     OW26041   1.957   5.355   4.205
 8381SOL    HW126042   1.985   5.367   4.110
 8381SOL    HW226043   1.885   5.285   4.210
 8382SOL     OW26044   0.743   4.696   2.077
 8382SOL    HW126045   0.818   4.725   2.018
 8382SOL    HW226046   0.701   4.614   2.039
 8383SOL     OW26047   3.441   1.167   5.277
 8383SOL    HW126048   3.504   1.110   5.330
 8383SOL    HW226049   3.358   1.183   5.331
 8384SOL     OW26050   0.863   6.626   1.593
 8384SOL    HW126051   0.785   6.666   1.640
 8384SOL    HW226052   0.902   6.552   1.648
 8385SOL     OW26053   4.622   2.007   0.984
 8385SOL    HW126054   4.547   2.067   1.010
 8385SOL    HW226055   4.652   1.954   1.063
 8386SOL     OW26056   0.457   3.670   2.490
 8386SOL    HW126057   0.549   3.639   2.467
 8386SOL    HW226058   0.413   3.708   2.409
 8387SOL     OW26059   1.005   2.161   1.864
 8387SOL    HW126060   0.981   2.160   1.961
 8387SOL    HW226061   1.065   2.084   1.843
 8388SOL     OW26062   0.954   6.512   2.744
 8388SOL    HW126063   0.923   6.450   2.816
 8388SOL    HW226064   0.893   6.503   2.665
 8389SOL     OW26065   6.195   3.013   3.243
 8389SOL    HW126066   6.197   3.066   3.158
 8389SOL    HW226067   6.103   2.978   3.258
 8390SOL     OW26068   5.850   1.966   6.825
 8390SOL    HW126069   5.930   1.996   6.877
 8390SOL    HW226070   5.877   1.899   6.757
 8391SOL     OW26071   6.674   6.895   1.220
 8391SOL    HW126072   6.737   6.969   1.240
 8391SOL    HW226073   6.598   6.897   1.285
 8392SOL     OW26074   3.307   3.114   5.332
 8392SOL    HW126075   3.372   3.074   5.396
 8392SOL    HW226076   3.246   3.043   5.298
 8393SOL     OW26077   5.634   6.869   1.050
 8393SOL    HW126078   5.676   6.781   1.072
 8393SOL    HW226079   5.589   6.906   1.132
 8394SOL     OW26080   5.979   2.863   2.139
 8394SOL    HW126081   6.051   2.824   2.082
 8394SOL    HW226082   6.020   2.922   2.209
 8395SOL     OW26083   2.463   1.055   4.789
 8395SOL    HW126084   2.423   0.966   4.767
 8395SOL    HW226085   2.432   1.084   4.880
 8396SOL     OW26086   5.104   5.266   4.106
 8396SOL    HW126087   5.054   5.189   4.146
 8396SOL    HW226088   5.202   5.253   4.122
 8397SOL     OW26089   6.481   6.833   2.899
 8397SOL    HW126090   6.392   6.790   2.883
 8397SOL    HW226091   6.553   6.765   2.888
 8398SOL     OW26092   6.062   2.121   6.606
 8398SOL    HW126093   6.086   2.115   6.703
 8398SOL    HW226094   6.008   2.041   6.580
 8399SOL     OW26095   0.390   4.455   2.137
 8399SOL    HW126096   0.365   4.546   2.170
 8399SOL    HW226097   0.337   4.435   2.054
 8400SOL     OW26098   1.328   1.096   4.839
 8400SOL    HW126099   1.410   1.128   4.791
 8400SOL    HW226100   1.256   1.165   4.831
 8401SOL     OW26101   2.436   0.452   5.476
 8401SOL    HW126102   2.344   0.443   5.516
 8401SOL    HW226103   2.486   0.367   5.488
 8402SOL     OW26104   3.185   0.385   6.642
 8402SOL    HW126105   3.192   0.286   6.632
 8402SOL    HW226106   3.209   0.429   6.555
 8403SOL     OW26107   5.593   4.665   5.141
 8403SOL    HW126108   5.525   4.734   5.117
 8403SOL    HW226109   5.590   4.591   5.074
 8404SOL     OW26110   1.153   1.502   0.277
 8404SOL    HW126111   1.111   1.591   0.258
 8404SOL    HW226112   1.148   1.444   0.196
 8405SOL     OW26113   3.912   6.878   5.434
 8405SOL    HW126114   3.952   6.969   5.446
 8405SOL    HW226115   3.839   6.882   5.366
 8406SOL     OW26116   5.575   0.312   5.966
 8406SOL    HW126117   5.588   0.260   6.050
 8406SOL    HW226118   5.632   0.395   5.970
 8407SOL     OW26119   4.263   0.582   4.441
 8407SOL    HW126120   4.302   0.610   4.529
 8407SOL    HW226121   4.164   0.593   4.443
 8408SOL     OW26122   4.124   1.999   1.284
 8408SOL    HW126123   4.186   1.928   1.253
 8408SOL    HW226124   4.166   2.050   1.359
 8409SOL     OW26125   4.514   2.341   1.992
 8409SOL    HW126126   4.443   2.331   2.062
 8409SOL    HW226127   4.604   2.342   2.036
 8410SOL     OW26128   6.932   1.436   1.299
 8410SOL    HW126129   6.953   1.531   1.324
 8410SOL    HW226130   6.973   1.415   1.210
 8411SOL     OW26131   1.076   5.950   1.100
 8411SOL    HW126132   1.044   5.909   1.015
 8411SOL    HW226133   1.158   6.004   1.082
 8412SOL     OW26134   2.780   2.866   6.674
 8412SOL    HW126135   2.792   2.945   6.734
 8412SOL    HW226136   2.799   2.892   6.579
 8413SOL     OW26137   3.505   5.620   4.671
 8413SOL    HW126138   3.441   5.682   4.717
 8413SOL    HW226139   3.568   5.674   4.615
 8414SOL     OW26140   1.808   6.694   0.746
 8414SOL    HW126141   1.779   6.790   0.747
 8414SOL    HW226142   1.883   6.681   0.811
 8415SOL     OW26143   3.379   1.644   6.084
 8415SOL    HW126144   3.280   1.647   6.099
 8415SOL    HW226145   3.416   1.558   6.119
 8416SOL     OW26146   0.602   2.279   5.246
 8416SOL    HW126147   0.656   2.322   5.173
 8416SOL    HW226148   0.526   2.340   5.270
 8417SOL     OW26149   1.776   3.391   6.024
 8417SOL    HW126150   1.831   3.414   6.104
 8417SOL    HW226151   1.781   3.293   6.007
 8418SOL     OW26152   0.553   5.940   2.471
 8418SOL    HW126153   0.640   5.895   2.491
 8418SOL    HW226154   0.477   5.883   2.504
 8419SOL     OW26155   3.472   1.665   4.587
 8419SOL    HW126156   3.378   1.639   4.610
 8419SOL    HW226157   3.536   1.614   4.645
 8420SOL     OW26158   3.443   1.159   2.166
 8420SOL    HW126159   3.515   1.128   2.104
 8420SOL    HW226160   3.434   1.258   2.160
 8421SOL     OW26161   4.723   6.755   6.645
 8421SOL    HW126162   4.725   6.800   6.556
 8421SOL    HW226163   4.768   6.666   6.639
 8422SOL     OW26164   5.301   2.234   3.940
 8422SOL    HW126165   5.203   2.256   3.944
 8422SOL    HW226166   5.317   2.147   3.986
 8423SOL     OW26167   6.402   5.821   0.184
 8423SOL    HW126168   6.455   5.802   0.102
 8423SOL    HW226169   6.380   5.919   0.188
 8424SOL     OW26170   3.502   0.751   5.177
 8424SOL    HW126171   3.570   0.730   5.107
 8424SOL    HW226172   3.518   0.844   5.212
 8425SOL     OW26173   3.828   3.509   2.144
 8425SOL    HW126174   3.852   3.488   2.239
 8425SOL    HW226175   3.759   3.582   2.143
 8426SOL     OW26176   3.648   3.459   1.742
 8426SOL    HW126177   3.556   3.427   1.716
 8426SOL    HW226178   3.640   3.532   1.810
 8427SOL     OW26179   3.964   3.177   3.100
 8427SOL    HW126180   4.023   3.217   3.029
 8427SOL    HW226181   4.001   3.199   3.190
 8428SOL     OW26182   5.800   0.282   2.026
 8428SOL    HW126183   5.723   0.244   1.976
 8428SOL    HW226184   5.831   0.366   1.980
 8429SOL     OW26185   2.999   6.141   5.432
 8429SOL    HW126186   3.054   6.067   5.470
 8429SOL    HW226187   2.902   6.124   5.452
 8430SOL     OW26188   4.866   6.396   5.239
 8430SOL    HW126189   4.939   6.464   5.227
 8430SOL    HW226190   4.804   6.400   5.162
 8431SOL     OW26191   2.178   3.351   5.958
 8431SOL    HW126192   2.210   3.327   5.866
 8431SOL    HW226193   2.225   3.434   5.989
 8432SOL     OW26194   6.496   5.352   6.021
 8432SOL    HW126195   6.594   5.364   6.036
 8432SOL    HW226196   6.454   5.440   6.003
 8433SOL     OW26197   5.150   2.199   1.042
 8433SOL    HW126198   5.187   2.110   1.069
 8433SOL    HW226199   5.133   2.254   1.124
 8434SOL     OW26200   2.909   6.058   5.090
 8434SOL    HW126201   2.896   6.046   5.189
 8434SOL    HW226202   2.981   6.125   5.074
 8435SOL     OW26203   6.314   1.805   2.990
 8435SOL    HW126204   6.215   1.822   2.998
 8435SOL    HW226205   6.333   1.758   2.905
 8436SOL     OW26206   1.802   5.775   2.406
 8436SOL    HW126207   1.831   5.689   2.447
 8436SOL    HW226208   1.870   5.846   2.425
 8437SOL     OW26209   1.469   6.127   0.823
 8437SOL    HW126210   1.546   6.093   0.878
 8437SOL    HW226211   1.441   6.056   0.759
 8438SOL     OW26212   1.370   4.273   2.469
 8438SOL    HW126213   1.282   4.229   2.488
 8438SOL    HW226214   1.442   4.203   2.466
 8439SOL     OW26215   6.308   4.417   2.385
 8439SOL    HW126216   6.353   4.499   2.421
 8439SOL    HW226217   6.294   4.352   2.460
 8440SOL     OW26218   1.887   1.965   2.332
 8440SOL    HW126219   1.951   1.889   2.345
 8440SOL    HW226220   1.938   2.049   2.316
 8441SOL     OW26221   6.736   2.264   5.856
 8441SOL    HW126222   6.702   2.324   5.928
 8441SOL    HW226223   6.814   2.308   5.810
 8442SOL     OW26224   3.824   2.469   0.092
 8442SOL    HW126225   3.900   2.416   0.130
 8442SOL    HW226226   3.781   2.418   0.018
 8443SOL     OW26227   1.990   4.416   2.803
 8443SOL    HW126228   2.087   4.421   2.829
 8443SOL    HW226229   1.955   4.324   2.820
 8444SOL     OW26230   5.732   5.391   4.710
 8444SOL    HW126231   5.713   5.462   4.642
 8444SOL    HW226232   5.645   5.357   4.747
 8445SOL     OW26233   4.606   6.543   6.930
 8445SOL    HW126234   4.657   6.543   6.844
 8445SOL    HW226235   4.525   6.484   6.921
 8446SOL     OW26236   6.741   5.772   4.666
 8446SOL    HW126237   6.670   5.731   4.609
 8446SOL    HW226238   6.786   5.700   4.720
 8447SOL     OW26239   3.726   1.643   4.209
 8447SOL    HW126240   3.707   1.709   4.281
 8447SOL    HW226241   3.653   1.575   4.205
 8448SOL     OW26242   3.429   5.873   2.960
 8448SOL    HW126243   3.374   5.915   3.032
 8448SOL    HW226244   3.414   5.922   2.874
 8449SOL     OW26245   1.578   2.362   3.940
 8449SOL    HW126246   1.559   2.448   3.892
 8449SOL    HW226247   1.548   2.369   4.035
 8450SOL     OW26248   6.760   1.088   0.405
 8450SOL    HW126249   6.673   1.085   0.455
 8450SOL    HW226250   6.811   1.169   0.432
 8451SOL     OW26251   3.966   2.733   1.311
 8451SOL    HW126252   3.919   2.808   1.358
 8451SOL    HW226253   3.903   2.688   1.248
 8452SOL     OW26254   4.998   1.271   5.702
 8452SOL    HW126255   5.060   1.344   5.675
 8452SOL    HW226256   4.907   1.309   5.718
 8453SOL     OW26257   6.857   0.415   0.024
 8453SOL    HW126258   6.807   0.485   0.075
 8453SOL    HW226259   6.809   0.328   0.030
 8454SOL     OW26260   6.094   5.885   6.528
 8454SOL    HW126261   6.038   5.881   6.445
 8454SOL    HW226262   6.191   5.879   6.503
 8455SOL     OW26263   6.567   1.019   2.522
 8455SOL    HW126264   6.509   1.089   2.479
 8455SOL    HW226265   6.541   0.929   2.486
 8456SOL     OW26266   0.040   0.403   2.004
 8456SOL    HW126267   7.006   0.466   1.954
 8456SOL    HW226268   0.032   0.421   2.102
 8457SOL     OW26269   7.002   0.287   4.958
 8457SOL    HW126270   0.076   0.298   4.954
 8457SOL    HW226271   6.980   0.189   4.955
 8458SOL     OW26272   1.096   6.834   6.750
 8458SOL    HW126273   1.065   6.765   6.685
 8458SOL    HW226274   1.025   6.849   6.819
 8459SOL     OW26275   1.252   6.052   3.026
 8459SOL    HW126276   1.348   6.064   3.048
 8459SOL    HW226277   1.206   6.141   3.029
 8460SOL     OW26278   4.065   3.776   3.000
 8460SOL    HW126279   4.148   3.807   2.954
 8460SOL    HW226280   4.054   3.678   2.987
 8461SOL     OW26281   6.236   3.296   3.769
 8461SOL    HW126282   6.167   3.344   3.823
 8461SOL    HW226283   6.200   3.207   3.740
 8462SOL     OW26284   2.858   2.688   1.748
 8462SOL    HW126285   2.850   2.603   1.800
 8462SOL    HW226286   2.815   2.677   1.659
 8463SOL     OW26287   6.349   0.548   1.703
 8463SOL    HW126288   6.301   0.635   1.688
 8463SOL    HW226289   6.282   0.477   1.726
 8464SOL     OW26290   6.751   1.174   4.539
 8464SOL    HW126291   6.679   1.120   4.582
 8464SOL    HW226292   6.832   1.175   4.598
 8465SOL     OW26293   1.783   1.757   0.341
 8465SOL    HW126294   1.700   1.703   0.331
 8465SOL    HW226295   1.846   1.711   0.404
 8466SOL     OW26296   0.843   6.995   4.451
 8466SOL    HW126297   0.793   6.927   4.504
 8466SOL    HW226298   0.928   6.954   4.417
 8467SOL     OW26299   4.329   5.445   0.470
 8467SOL    HW126300   4.322   5.525   0.410
 8467SOL    HW226301   4.420   5.404   0.461
 8468SOL     OW26302   3.376   2.510   0.417
 8468SOL    HW126303   3.324   2.562   0.349
 8468SOL    HW226304   3.471   2.500   0.386
 8469SOL     OW26305   4.155   2.431   5.781
 8469SOL    HW126306   4.057   2.416   5.793
 8469SOL    HW226307   4.196   2.457   5.869
 8470SOL     OW26308   2.079   2.955   6.712
 8470SOL    HW126309   2.028   2.921   6.791
 8470SOL    HW226310   2.173   2.976   6.738
 8471SOL     OW26311   4.613   1.896   4.632
 8471SOL    HW126312   4.519   1.888   4.598
 8471SOL    HW226313   4.633   1.992   4.653
 8472SOL     OW26314   1.227   6.536   2.884
 8472SOL    HW126315   1.218   6.629   2.850
 8472SOL    HW226316   1.313   6.527   2.935
 8473SOL     OW26317   6.573   6.027   6.492
 8473SOL    HW126318   6.533   6.113   6.521
 8473SOL    HW226319   6.541   6.004   6.400
 8474SOL     OW26320   4.090   5.635   0.363
 8474SOL    HW126321   4.061   5.592   0.448
 8474SOL    HW226322   4.152   5.711   0.383
 8475SOL     OW26323   4.620   2.181   2.852
 8475SOL    HW126324   4.559   2.134   2.915
 8475SOL    HW226325   4.572   2.197   2.765
 8476SOL     OW26326   4.396   0.575   2.823
 8476SOL    HW126327   4.459   0.617   2.888
 8476SOL    HW226328   4.327   0.521   2.872
 8477SOL     OW26329   2.935   0.002   3.101
 8477SOL    HW126330   2.920   6.930   3.116
 8477SOL    HW226331   3.029   0.017   3.069
 8478SOL     OW26332   1.706   0.428   5.682
 8478SOL    HW126333   1.708   0.453   5.585
 8478SOL    HW226334   1.620   0.462   5.723
 8479SOL     OW26335   5.537   0.941   2.555
 8479SOL    HW126336   5.613   0.991   2.596
 8479SOL    HW226337   5.455   0.953   2.612
 8480SOL     OW26338   1.811   1.531   1.159
 8480SOL    HW126339   1.803   1.456   1.094
 8480SOL    HW226340   1.906   1.543   1.186
 8481SOL     OW26341   4.371   0.290   5.806
 8481SOL    HW126342   4.392   0.314   5.712
 8481SOL    HW226343   4.350   0.192   5.811
 8482SOL     OW26344   0.167   0.381   1.645
 8482SOL    HW126345   0.122   0.459   1.690
 8482SOL    HW226346   0.264   0.402   1.633
 8483SOL     OW26347   5.519   6.186   1.746
 8483SOL    HW126348   5.569   6.200   1.660
 8483SOL    HW226349   5.500   6.275   1.788
 8484SOL     OW26350   6.811   4.750   5.486
 8484SOL    HW126351   6.833   4.727   5.391
 8484SOL    HW226352   6.873   4.702   5.548
 8485SOL     OW26353   1.944   3.439   6.232
 8485SOL    HW126354   1.960   3.537   6.224
 8485SOL    HW226355   2.008   3.400   6.299
 8486SOL     OW26356   4.132   0.851   2.539
 8486SOL    HW126357   4.084   0.894   2.462
 8486SOL    HW226358   4.230   0.872   2.533
 8487SOL     OW26359   4.435   0.700   0.838
 8487SOL    HW126360   4.369   0.764   0.799
 8487SOL    HW226361   4.450   0.720   0.934
 8488SOL     OW26362   6.288   3.634   5.069
 8488SOL    HW126363   6.350   3.708   5.095
 8488SOL    HW226364   6.244   3.596   5.151
 8489SOL     OW26365   3.390   6.608   2.598
 8489SOL    HW126366   3.296   6.579   2.584
 8489SOL    HW226367   3.452   6.545   2.550
 8490SOL     OW26368   3.916   5.096   2.629
 8490SOL    HW126369   3.995   5.124   2.683
 8490SOL    HW226370   3.892   5.169   2.565
 8491SOL     OW26371   1.096   1.097   1.376
 8491SOL    HW126372   1.033   1.161   1.420
 8491SOL    HW226373   1.155   1.148   1.313
 8492SOL     OW26374   5.710   3.984   4.485
 8492SOL    HW126375   5.748   3.896   4.512
 8492SOL    HW226376   5.717   3.995   4.386
 8493SOL     OW26377   3.742   2.662   1.168
 8493SOL    HW126378   3.728   2.702   1.078
 8493SOL    HW226379   3.655   2.624   1.202
 8494SOL     OW26380   3.617   6.197   6.745
 8494SOL    HW126381   3.681   6.269   6.774
 8494SOL    HW226382   3.638   6.170   6.651
 8495SOL     OW26383   0.895   2.732   6.895
 8495SOL    HW126384   0.985   2.716   6.853
 8495SOL    HW226385   0.825   2.731   6.824
 8496SOL     OW26386   0.844   2.068   3.716
 8496SOL    HW126387   0.850   1.976   3.755
 8496SOL    HW226388   0.916   2.080   3.647
 8497SOL     OW26389   5.571   3.992   3.267
 8497SOL    HW126390   5.622   4.074   3.241
 8497SOL    HW226391   5.497   4.018   3.329
 8498SOL     OW26392   6.629   0.824   1.433
 8498SOL    HW126393   6.611   0.814   1.336
 8498SOL    HW226394   6.662   0.917   1.451
 8499SOL     OW26395   0.640   3.998   0.222
 8499SOL    HW126396   0.631   4.070   0.154
 8499SOL    HW226397   0.576   4.015   0.297
 8500SOL     OW26398   2.993   0.336   5.688
 8500SOL    HW126399   3.048   0.341   5.771
 8500SOL    HW226400   2.897   0.351   5.710
 8501SOL     OW26401   2.710   4.075   5.786
 8501SOL    HW126402   2.745   4.037   5.871
 8501SOL    HW226403   2.771   4.049   5.711
 8502SOL     OW26404   0.620   6.820   1.406
 8502SOL    HW126405   0.689   6.786   1.468
 8502SOL    HW226406   0.649   6.805   1.311
 8503SOL     OW26407   3.789   5.657   3.580
 8503SOL    HW126408   3.714   5.590   3.569
 8503SOL    HW226409   3.861   5.636   3.514
 8504SOL     OW26410   1.322   4.922   3.029
 8504SOL    HW126411   1.236   4.958   3.066
 8504SOL    HW226412   1.369   4.870   3.100
 8505SOL     OW26413   4.612   2.173   3.439
 8505SOL    HW126414   4.662   2.259   3.453
 8505SOL    HW226415   4.615   2.119   3.523
 8506SOL     OW26416   1.171   6.035   6.920
 8506SOL    HW126417   1.076   6.027   6.949
 8506SOL    HW226418   1.174   6.070   6.826
 8507SOL     OW26419   1.842   0.433   4.778
 8507SOL    HW126420   1.889   0.420   4.691
 8507SOL    HW226421   1.833   0.344   4.824
 8508SOL     OW26422   0.263   3.059   5.504
 8508SOL    HW126423   0.363   3.051   5.498
 8508SOL    HW226424   0.240   3.145   5.549
 8509SOL     OW26425   5.961   2.177   4.891
 8509SOL    HW126426   5.982   2.110   4.819
 8509SOL    HW226427   5.886   2.143   4.948
 8510SOL     OW26428   5.111   0.136   2.323
 8510SOL    HW126429   5.046   0.206   2.353
 8510SOL    HW226430   5.196   0.179   2.295
 8511SOL     OW26431   6.493   5.406   1.699
 8511SOL    HW126432   6.552   5.426   1.777
 8511SOL    HW226433   6.409   5.460   1.706
 8512SOL     OW26434   3.847   2.973   1.027
 8512SOL    HW126435   3.902   3.047   1.065
 8512SOL    HW226436   3.758   2.970   1.074
 8513SOL     OW26437   0.990   3.256   0.618
 8513SOL    HW126438   0.936   3.211   0.689
 8513SOL    HW226439   0.991   3.355   0.634
 8514SOL     OW26440   2.362   2.715   4.985
 8514SOL    HW126441   2.277   2.703   4.934
 8514SOL    HW226442   2.370   2.810   5.016
 8515SOL     OW26443   2.837   0.854   0.475
 8515SOL    HW126444   2.816   0.778   0.414
 8515SOL    HW226445   2.784   0.845   0.559
 8516SOL     OW26446   5.921   3.337   4.784
 8516SOL    HW126447   5.955   3.245   4.801
 8516SOL    HW226448   5.976   3.403   4.836
 8517SOL     OW26449   1.790   1.739   5.930
 8517SOL    HW126450   1.753   1.665   5.986
 8517SOL    HW226451   1.787   1.825   5.982
 8518SOL     OW26452   5.280   4.655   7.000
 8518SOL    HW126453   5.256   4.562   6.974
 8518SOL    HW226454   5.379   4.669   6.989
 8519SOL     OW26455   0.518   3.830   0.546
 8519SOL    HW126456   0.523   3.927   0.523
 8519SOL    HW226457   0.606   3.800   0.583
 8520SOL     OW26458   3.227   3.918   5.999
 8520SOL    HW126459   3.263   3.969   6.076
 8520SOL    HW226460   3.301   3.872   5.950
 8521SOL     OW26461   2.005   6.639   4.936
 8521SOL    HW126462   1.990   6.544   4.909
 8521SOL    HW226463   2.076   6.679   4.879
 8522SOL     OW26464   0.546   0.501   6.861
 8522SOL    HW126465   0.475   0.569   6.842
 8522SOL    HW226466   0.569   0.503   6.958
 8523SOL     OW26467   4.096   1.727   1.148
 8523SOL    HW126468   4.087   1.632   1.176
 8523SOL    HW226469   4.033   1.746   1.073
 8524SOL     OW26470   2.581   6.213   5.323
 8524SOL    HW126471   2.580   6.311   5.346
 8524SOL    HW226472   2.638   6.164   5.389
 8525SOL     OW26473   6.156   2.980   2.311
 8525SOL    HW126474   6.239   2.927   2.324
 8525SOL    HW226475   6.117   3.005   2.400
 8526SOL     OW26476   0.369   4.703   6.627
 8526SOL    HW126477   0.385   4.774   6.558
 8526SOL    HW226478   0.435   4.629   6.614
 8527SOL     OW26479   3.063   0.674   6.156
 8527SOL    HW126480   3.139   0.615   6.127
 8527SOL    HW226481   3.095   0.769   6.160
 8528SOL     OW26482   5.609   0.583   1.310
 8528SOL    HW126483   5.556   0.631   1.240
 8528SOL    HW226484   5.706   0.607   1.301
 8529SOL     OW26485   0.718   6.545   6.217
 8529SOL    HW126486   0.725   6.560   6.119
 8529SOL    HW226487   0.667   6.621   6.259
 8530SOL     OW26488   3.836   3.484   2.420
 8530SOL    HW126489   3.742   3.511   2.440
 8530SOL    HW226490   3.863   3.410   2.483
 8531SOL     OW26491   6.412   5.484   3.013
 8531SOL    HW126492   6.415   5.566   2.956
 8531SOL    HW226493   6.317   5.464   3.038
 8532SOL     OW26494   3.317   5.536   6.932
 8532SOL    HW126495   3.362   5.528   6.843
 8532SOL    HW226496   3.345   5.459   6.990
 8533SOL     OW26497   2.296   6.014   5.069
 8533SOL    HW126498   2.326   5.937   5.013
 8533SOL    HW226499   2.331   6.004   5.162
 8534SOL     OW26500   1.820   2.862   2.088
 8534SOL    HW126501   1.888   2.790   2.072
 8534SOL    HW226502   1.754   2.863   2.014
 8535SOL     OW26503   6.144   0.380   1.916
 8535SOL    HW126504   6.182   0.355   2.005
 8535SOL    HW226505   6.086   0.461   1.926
 8536SOL     OW26506   1.394   0.839   3.733
 8536SOL    HW126507   1.442   0.922   3.761
 8536SOL    HW226508   1.438   0.800   3.652
 8537SOL     OW26509   6.076   1.115   3.390
 8537SOL    HW126510   6.137   1.077   3.321
 8537SOL    HW226511   6.037   1.041   3.445
 8538SOL     OW26512   1.019   2.321   6.975
 8538SOL    HW126513   0.952   2.271   6.922
 8538SOL    HW226514   0.980   2.408   7.006
 8539SOL     OW26515   5.150   3.121   1.849
 8539SOL    HW126516   5.100   3.140   1.765
 8539SOL    HW226517   5.107   3.045   1.897
 8540SOL     OW26518   4.109   0.545   1.760
 8540SOL    HW126519   4.185   0.518   1.700
 8540SOL    HW226520   4.142   0.611   1.827
 8541SOL     OW26521   2.179   3.082   3.464
 8541SOL    HW126522   2.159   2.991   3.428
 8541SOL    HW226523   2.224   3.074   3.554
 8542SOL     OW26524   2.851   4.788   6.455
 8542SOL    HW126525   2.814   4.709   6.504
 8542SOL    HW226526   2.806   4.871   6.487
 8543SOL     OW26527   3.870   1.892   6.724
 8543SOL    HW126528   3.780   1.861   6.756
 8543SOL    HW226529   3.858   1.952   6.645
 8544SOL     OW26530   6.464   1.929   4.783
 8544SOL    HW126531   6.482   1.831   4.781
 8544SOL    HW226532   6.393   1.952   4.716
 8545SOL     OW26533   4.276   6.455   5.559
 8545SOL    HW126534   4.349   6.453   5.628
 8545SOL    HW226535   4.228   6.542   5.563
 8546SOL     OW26536   3.537   1.996   0.134
 8546SOL    HW126537   3.566   2.048   0.054
 8546SOL    HW226538   3.531   1.899   0.111
 8547SOL     OW26539   1.966   4.801   2.358
 8547SOL    HW126540   1.930   4.717   2.317
 8547SOL    HW226541   2.060   4.816   2.325
 8548SOL     OW26542   6.219   2.169   5.711
 8548SOL    HW126543   6.169   2.106   5.769
 8548SOL    HW226544   6.313   2.136   5.699
 8549SOL     OW26545   5.166   3.308   5.437
 8549SOL    HW126546   5.227   3.387   5.445
 8549SOL    HW226547   5.200   3.247   5.365
 8550SOL     OW26548   1.523   4.685   5.617
 8550SOL    HW126549   1.530   4.782   5.639
 8550SOL    HW226550   1.593   4.660   5.551
 8551SOL     OW26551   2.389   4.137   1.249
 8551SOL    HW126552   2.333   4.088   1.315
 8551SOL    HW226553   2.331   4.184   1.183
 8552SOL     OW26554   2.817   6.498   4.620
 8552SOL    HW126555   2.895   6.519   4.680
 8552SOL    HW226556   2.824   6.554   4.537
 8553SOL     OW26557   6.265   5.599   6.852
 8553SOL    HW126558   6.239   5.675   6.793
 8553SOL    HW226559   6.344   5.625   6.907
 8554SOL     OW26560   5.879   3.872   0.478
 8554SOL    HW126561   5.823   3.950   0.453
 8554SOL    HW226562   5.888   3.811   0.399
 8555SOL     OW26563   2.302   6.416   4.500
 8555SOL    HW126564   2.346   6.506   4.504
 8555SOL    HW226565   2.203   6.428   4.487
 8556SOL     OW26566   5.946   7.024   4.450
 8556SOL    HW126567   5.877   6.958   4.481
 8556SOL    HW226568   5.931   0.019   4.354
 8557SOL     OW26569   6.969   1.773   0.730
 8557SOL    HW126570   0.003   1.853   0.737
 8557SOL    HW226571   6.895   1.792   0.665
 8558SOL     OW26572   1.723   4.487   2.333
 8558SOL    HW126573   1.783   4.422   2.286
 8558SOL    HW226574   1.632   4.445   2.344
 8559SOL     OW26575   0.809   1.504   5.136
 8559SOL    HW126576   0.779   1.599   5.129
 8559SOL    HW226577   0.734   1.443   5.109
 8560SOL     OW26578   6.551   2.636   6.809
 8560SOL    HW126579   6.526   2.643   6.712
 8560SOL    HW226580   6.534   2.724   6.854
 8561SOL     OW26581   4.723   6.164   6.305
 8561SOL    HW126582   4.642   6.158   6.247
 8561SOL    HW226583   4.706   6.229   6.380
 8562SOL     OW26584   3.903   0.108   4.394
 8562SOL    HW126585   3.848   0.155   4.463
 8562SOL    HW226586   3.924   0.170   4.319
 8563SOL     OW26587   3.001   2.632   6.628
 8563SOL    HW126588   3.087   2.583   6.641
 8563SOL    HW226589   2.987   2.694   6.705
 8564SOL     OW26590   1.354   6.318   3.314
 8564SOL    HW126591   1.420   6.243   3.304
 8564SOL    HW226592   1.262   6.285   3.292
 8565SOL     OW26593   3.413   0.930   1.387
 8565SOL    HW126594   3.496   0.979   1.413
 8565SOL    HW226595   3.416   0.910   1.289
 8566SOL     OW26596   1.894   3.779   4.306
 8566SOL    HW126597   1.886   3.872   4.343
 8566SOL    HW226598   1.833   3.770   4.227
 8567SOL     OW26599   5.165   6.286   6.274
 8567SOL    HW126600   5.212   6.276   6.186
 8567SOL    HW226601   5.067   6.289   6.259
 8568SOL     OW26602   5.429   0.364   0.250
 8568SOL    HW126603   5.471   0.392   0.336
 8568SOL    HW226604   5.339   0.324   0.268
 8569SOL     OW26605   3.770   0.727   5.515
 8569SOL    HW126606   3.860   0.753   5.481
 8569SOL    HW226607   3.767   0.629   5.531
 8570SOL     OW26608   6.332   3.344   6.464
 8570SOL    HW126609   6.356   3.322   6.369
 8570SOL    HW226610   6.414   3.337   6.521
 8571SOL     OW26611   0.210   4.507   5.720
 8571SOL    HW126612   0.215   4.592   5.669
 8571SOL    HW226613   0.300   4.485   5.758
 8572SOL     OW26614   2.834   5.183   5.880
 8572SOL    HW126615   2.837   5.192   5.979
 8572SOL    HW226616   2.773   5.252   5.842
 8573SOL     OW26617   3.346   5.772   4.156
 8573SOL    HW126618   3.445   5.770   4.167
 8573SOL    HW226619   3.314   5.866   4.155
 8574SOL     OW26620   0.782   4.263   4.299
 8574SOL    HW126621   0.778   4.183   4.239
 8574SOL    HW226622   0.787   4.346   4.243
 8575SOL     OW26623   2.931   3.450   6.560
 8575SOL    HW126624   2.943   3.504   6.477
 8575SOL    HW226625   2.834   3.427   6.571
 8576SOL     OW26626   2.134   0.033   0.777
 8576SOL    HW126627   2.209   0.085   0.736
 8576SOL    HW226628   2.065   0.097   0.812
 8577SOL     OW26629   6.315   5.721   4.563
 8577SOL    HW126630   6.276   5.812   4.577
 8577SOL    HW226631   6.246   5.660   4.525
 8578SOL     OW26632   4.485   0.824   3.336
 8578SOL    HW126633   4.389   0.795   3.334
 8578SOL    HW226634   4.510   0.864   3.248
 8579SOL     OW26635   0.731   4.889   2.327
 8579SOL    HW126636   0.736   4.826   2.249
 8579SOL    HW226637   0.639   4.927   2.333
 8580SOL     OW26638   2.579   5.713   5.879
 8580SOL    HW126639   2.598   5.719   5.977
 8580SOL    HW226640   2.483   5.689   5.865
 8581SOL     OW26641   3.225   3.440   0.426
 8581SOL    HW126642   3.147   3.425   0.364
 8581SOL    HW226643   3.200   3.409   0.518
 8582SOL     OW26644   3.802   5.084   0.110
 8582SOL    HW126645   3.834   5.008   0.054
 8582SOL    HW226646   3.880   5.143   0.135
 8583SOL     OW26647   5.506   6.765   4.948
 8583SOL    HW126648   5.497   6.708   4.866
 8583SOL    HW226649   5.545   6.853   4.923
 8584SOL     OW26650   0.405   5.622   6.257
 8584SOL    HW126651   0.333   5.660   6.315
 8584SOL    HW226652   0.465   5.696   6.225
 8585SOL     OW26653   1.644   1.920   1.107
 8585SOL    HW126654   1.719   1.862   1.075
 8585SOL    HW226655   1.657   2.013   1.074
 8586SOL     OW26656   3.991   5.071   3.844
 8586SOL    HW126657   3.938   5.024   3.773
 8586SOL    HW226658   3.935   5.086   3.924
 8587SOL     OW26659   6.464   1.781   1.438
 8587SOL    HW126660   6.405   1.818   1.367
 8587SOL    HW226661   6.426   1.802   1.528
 8588SOL     OW26662   3.520   2.792   6.272
 8588SOL    HW126663   3.471   2.751   6.195
 8588SOL    HW226664   3.535   2.890   6.253
 8589SOL     OW26665   2.543   1.706   4.734
 8589SOL    HW126666   2.536   1.644   4.812
 8589SOL    HW226667   2.505   1.663   4.653
 8590SOL     OW26668   5.567   5.102   5.243
 8590SOL    HW126669   5.524   5.101   5.333
 8590SOL    HW226670   5.666   5.111   5.253
 8591SOL     OW26671   0.882   2.990   0.287
 8591SOL    HW126672   0.849   3.041   0.366
 8591SOL    HW226673   0.930   2.908   0.317
 8592SOL     OW26674   6.315   6.295   6.830
 8592SOL    HW126675   6.397   6.351   6.842
 8592SOL    HW226676   6.342   6.200   6.816
 8593SOL     OW26677   0.542   5.665   3.280
 8593SOL    HW126678   0.591   5.751   3.267
 8593SOL    HW226679   0.473   5.677   3.352
 8594SOL     OW26680   3.813   3.925   2.945
 8594SOL    HW126681   3.767   3.932   3.033
 8594SOL    HW226682   3.896   3.871   2.955
 8595SOL     OW26683   1.579   2.749   1.661
 8595SOL    HW126684   1.524   2.672   1.692
 8595SOL    HW226685   1.676   2.730   1.679
 8596SOL     OW26686   6.764   4.112   2.330
 8596SOL    HW126687   6.751   4.142   2.425
 8596SOL    HW226688   6.820   4.179   2.282
 8597SOL     OW26689   2.101   1.460   0.720
 8597SOL    HW126690   2.137   1.368   0.708
 8597SOL    HW226691   2.120   1.515   0.639
 8598SOL     OW26692   6.320   3.343   1.795
 8598SOL    HW126693   6.386   3.309   1.728
 8598SOL    HW226694   6.276   3.265   1.841
 8599SOL     OW26695   0.890   2.856   0.719
 8599SOL    HW126696   0.879   2.935   0.779
 8599SOL    HW226697   0.959   2.875   0.650
 8600SOL     OW26698   6.606   2.440   6.064
 8600SOL    HW126699   6.619   2.538   6.078
 8600SOL    HW226700   6.554   2.402   6.141
 8601SOL     OW26701   0.771   0.247   5.010
 8601SOL    HW126702   0.717   0.312   4.956
 8601SOL    HW226703   0.772   0.276   5.106
 8602SOL     OW26704   1.536   6.461   1.870
 8602SOL    HW126705   1.579   6.372   1.886
 8602SOL    HW226706   1.484   6.459   1.785
 8603SOL     OW26707   4.726   3.569   1.427
 8603SOL    HW126708   4.640   3.578   1.376
 8603SOL    HW226709   4.706   3.553   1.524
 8604SOL     OW26710   6.007   2.869   2.921
 8604SOL    HW126711   5.979   2.897   3.013
 8604SOL    HW226712   6.073   2.935   2.885
 8605SOL     OW26713   3.077   5.029   1.764
 8605SOL    HW126714   2.998   5.081   1.798
 8605SOL    HW226715   3.082   4.942   1.812
 8606SOL     OW26716   3.996   5.353   4.672
 8606SOL    HW126717   3.961   5.378   4.762
 8606SOL    HW226718   3.924   5.363   4.604
 8607SOL     OW26719   2.624   6.427   0.790
 8607SOL    HW126720   2.536   6.442   0.835
 8607SOL    HW226721   2.649   6.331   0.796
 8608SOL     OW26722   5.632   6.813   2.462
 8608SOL    HW126723   5.669   6.826   2.370
 8608SOL    HW226724   5.698   6.845   2.529
 8609SOL     OW26725   5.316   0.206   5.789
 8609SOL    HW126726   5.396   0.232   5.844
 8609SOL    HW226727   5.236   0.255   5.822
 8610SOL     OW26728   6.395   6.312   5.436
 8610SOL    HW126729   6.429   6.297   5.343
 8610SOL    HW226730   6.298   6.336   5.432
 8611SOL     OW26731   1.629   2.068   3.016
 8611SOL    HW126732   1.536   2.070   3.051
 8611SOL    HW226733   1.673   2.157   3.032
 8612SOL     OW26734   5.053   3.191   4.493
 8612SOL    HW126735   4.972   3.151   4.536
 8612SOL    HW226736   5.031   3.218   4.399
 8613SOL     OW26737   1.166   0.676   0.420
 8613SOL    HW126738   1.204   0.662   0.512
 8613SOL    HW226739   1.072   0.641   0.417
 8614SOL     OW26740   1.620   2.496   3.486
 8614SOL    HW126741   1.684   2.558   3.530
 8614SOL    HW226742   1.666   2.410   3.465
 8615SOL     OW26743   4.872   1.627   5.751
 8615SOL    HW126744   4.817   1.701   5.789
 8615SOL    HW226745   4.925   1.661   5.673
 8616SOL     OW26746   1.144   3.030   0.175
 8616SOL    HW126747   1.067   3.065   0.229
 8616SOL    HW226748   1.118   2.943   0.132
 8617SOL     OW26749   5.984   3.194   0.668
 8617SOL    HW126750   5.890   3.198   0.701
 8617SOL    HW226751   6.047   3.221   0.741
 8618SOL     OW26752   3.434   1.504   2.852
 8618SOL    HW126753   3.493   1.510   2.933
 8618SOL    HW226754   3.340   1.489   2.880
 8619SOL     OW26755   4.112   6.635   0.916
 8619SOL    HW126756   4.015   6.626   0.896
 8619SOL    HW226757   4.129   6.611   1.012
 8620SOL     OW26758   6.270   6.094   3.593
 8620SOL    HW126759   6.253   6.055   3.502
 8620SOL    HW226760   6.188   6.084   3.649
 8621SOL     OW26761   5.156   1.031   3.748
 8621SOL    HW126762   5.123   0.960   3.811
 8621SOL    HW226763   5.094   1.037   3.670
 8622SOL     OW26764   4.919   5.461   6.183
 8622SOL    HW126765   4.854   5.516   6.130
 8622SOL    HW226766   4.937   5.375   6.136
 8623SOL     OW26767   6.215   1.907   4.202
 8623SOL    HW126768   6.294   1.933   4.146
 8623SOL    HW226769   6.246   1.853   4.280
 8624SOL     OW26770   6.158   3.032   3.867
 8624SOL    HW126771   6.067   3.045   3.829
 8624SOL    HW226772   6.172   2.935   3.887
 8625SOL     OW26773   3.662   1.238   6.172
 8625SOL    HW126774   3.741   1.291   6.140
 8625SOL    HW226775   3.684   1.195   6.259
 8626SOL     OW26776   2.957   3.441   2.558
 8626SOL    HW126777   2.923   3.462   2.466
 8626SOL    HW226778   2.884   3.457   2.624
 8627SOL     OW26779   2.656   0.285   0.062
 8627SOL    HW126780   2.700   0.284   0.152
 8627SOL    HW226781   2.713   0.235   7.023
 8628SOL     OW26782   5.935   1.737   1.001
 8628SOL    HW126783   5.991   1.663   1.040
 8628SOL    HW226784   5.953   1.743   0.902
 8629SOL     OW26785   1.532   6.015   3.430
 8629SOL    HW126786   1.490   5.975   3.349
 8629SOL    HW226787   1.631   6.019   3.417
 8630SOL     OW26788   5.325   5.032   3.937
 8630SOL    HW126789   5.281   5.060   4.022
 8630SOL    HW226790   5.395   5.099   3.912
 8631SOL     OW26791   4.310   6.435   3.557
 8631SOL    HW126792   4.311   6.352   3.500
 8631SOL    HW226793   4.285   6.514   3.500
 8632SOL     OW26794   3.473   1.073   2.768
 8632SOL    HW126795   3.426   1.054   2.855
 8632SOL    HW226796   3.569   1.045   2.776
 8633SOL     OW26797   6.576   6.491   2.472
 8633SOL    HW126798   6.595   6.477   2.569
 8633SOL    HW226799   6.511   6.422   2.441
 8634SOL     OW26800   6.406   5.973   1.875
 8634SOL    HW126801   6.365   5.882   1.877
 8634SOL    HW226802   6.339   6.039   1.841
 8635SOL     OW26803   6.201   3.497   5.771
 8635SOL    HW126804   6.178   3.424   5.834
 8635SOL    HW226805   6.288   3.539   5.798
 8636SOL     OW26806   6.086   5.176   0.847
 8636SOL    HW126807   6.011   5.191   0.911
 8636SOL    HW226808   6.049   5.168   0.754
 8637SOL     OW26809   1.180   0.922   1.589
 8637SOL    HW126810   1.275   0.935   1.615
 8637SOL    HW226811   1.166   0.953   1.495
 8638SOL     OW26812   5.445   4.695   1.178
 8638SOL    HW126813   5.447   4.684   1.079
 8638SOL    HW226814   5.442   4.793   1.201
 8639SOL     OW26815   6.130   2.544   2.043
 8639SOL    HW126816   6.056   2.572   1.982
 8639SOL    HW226817   6.092   2.513   2.130
 8640SOL     OW26818   5.064   6.029   1.701
 8640SOL    HW126819   4.970   6.013   1.671
 8640SOL    HW226820   5.081   5.980   1.787
 8641SOL     OW26821   4.848   4.627   3.485
 8641SOL    HW126822   4.918   4.693   3.458
 8641SOL    HW226823   4.780   4.620   3.412
 8642SOL     OW26824   4.153   1.121   2.100
 8642SOL    HW126825   4.244   1.092   2.130
 8642SOL    HW226826   4.160   1.208   2.052
 8643SOL     OW26827   4.788   0.243   0.063
 8643SOL    HW126828   4.714   0.224   7.024
 8643SOL    HW226829   4.815   0.338   0.056
 8644SOL     OW26830   6.494   3.319   5.274
 8644SOL    HW126831   6.446   3.309   5.187
 8644SOL    HW226832   6.576   3.375   5.261
 8645SOL     OW26833   6.492   3.836   1.648
 8645SOL    HW126834   6.439   3.752   1.638
 8645SOL    HW226835   6.535   3.838   1.738
 8646SOL     OW26836   4.894   6.195   0.753
 8646SOL    HW126837   4.895   6.139   0.670
 8646SOL    HW226838   4.984   6.237   0.765
 8647SOL     OW26839   4.608   5.006   2.133
 8647SOL    HW126840   4.687   4.959   2.095
 8647SOL    HW226841   4.525   4.980   2.083
 8648SOL     OW26842   5.799   0.774   3.911
 8648SOL    HW126843   5.809   0.714   3.991
 8648SOL    HW226844   5.708   0.761   3.872
 8649SOL     OW26845   6.148   4.333   5.745
 8649SOL    HW126846   6.094   4.255   5.713
 8649SOL    HW226847   6.243   4.321   5.717
 8650SOL     OW26848   0.416   5.749   1.573
 8650SOL    HW126849   0.403   5.673   1.637
 8650SOL    HW226850   0.361   5.827   1.602
 8651SOL     OW26851   4.202   3.192   0.958
 8651SOL    HW126852   4.269   3.227   0.893
 8651SOL    HW226853   4.190   3.259   1.032
 8652SOL     OW26854   0.637   2.851   4.408
 8652SOL    HW126855   0.681   2.926   4.456
 8652SOL    HW226856   0.550   2.829   4.451
 8653SOL     OW26857   5.302   2.985   6.332
 8653SOL    HW126858   5.382   2.973   6.273
 8653SOL    HW226859   5.317   2.935   6.418
 8654SOL     OW26860   1.442   5.034   1.609
 8654SOL    HW126861   1.497   5.041   1.692
 8654SOL    HW226862   1.402   5.123   1.587
 8655SOL     OW26863   5.763   6.300   2.591
 8655SOL    HW126864   5.776   6.342   2.502
 8655SOL    HW226865   5.708   6.217   2.581
 8656SOL     OW26866   6.489   2.419   1.804
 8656SOL    HW126867   6.449   2.442   1.893
 8656SOL    HW226868   6.457   2.328   1.775
 8657SOL     OW26869   2.998   4.687   0.821
 8657SOL    HW126870   3.000   4.780   0.784
 8657SOL    HW226871   3.059   4.681   0.899
 8658SOL     OW26872   1.260   5.621   6.231
 8658SOL    HW126873   1.278   5.529   6.264
 8658SOL    HW226874   1.227   5.618   6.137
 8659SOL     OW26875   4.443   6.796   4.673
 8659SOL    HW126876   4.443   6.746   4.759
 8659SOL    HW226877   4.494   6.882   4.684
 8660SOL     OW26878   5.214   4.400   6.961
 8660SOL    HW126879   5.193   4.322   6.902
 8660SOL    HW226880   5.264   4.369   0.016
 8661SOL     OW26881   6.358   3.596   1.719
 8661SOL    HW126882   6.287   3.641   1.773
 8661SOL    HW226883   6.351   3.497   1.730
 8662SOL     OW26884   0.481   0.885   6.842
 8662SOL    HW126885   0.462   0.934   6.756
 8662SOL    HW226886   0.577   0.861   6.846
 8663SOL     OW26887   2.585   5.015   1.244
 8663SOL    HW126888   2.610   4.965   1.327
 8663SOL    HW226889   2.638   4.980   1.167
 8664SOL     OW26890   4.476   4.788   1.430
 8664SOL    HW126891   4.554   4.851   1.430
 8664SOL    HW226892   4.501   4.704   1.476
 8665SOL     OW26893   5.106   5.058   4.447
 8665SOL    HW126894   5.101   5.135   4.511
 8665SOL    HW226895   5.066   4.977   4.490
 8666SOL     OW26896   6.635   4.318   4.074
 8666SOL    HW126897   6.559   4.260   4.045
 8666SOL    HW226898   6.697   4.265   4.132
 8667SOL     OW26899   5.770   2.184   3.426
 8667SOL    HW126900   5.860   2.189   3.382
 8667SOL    HW226901   5.780   2.202   3.524
 8668SOL     OW26902   3.420   0.871   4.818
 8668SOL    HW126903   3.407   0.961   4.777
 8668SOL    HW226904   3.332   0.837   4.852
 8669SOL     OW26905   4.249   6.591   6.337
 8669SOL    HW126906   4.167   6.535   6.349
 8669SOL    HW226907   4.241   6.644   6.253
 8670SOL     OW26908   4.382   4.744   2.684
 8670SOL    HW126909   4.380   4.844   2.684
 8670SOL    HW226910   4.449   4.712   2.617
 8671SOL     OW26911   6.300   6.351   2.495
 8671SOL    HW126912   6.301   6.295   2.578
 8671SOL    HW226913   6.288   6.292   2.415
 8672SOL     OW26914   3.684   5.304   4.961
 8672SOL    HW126915   3.683   5.215   4.915
 8672SOL    HW226916   3.611   5.361   4.924
 8673SOL     OW26917   4.782   2.247   0.202
 8673SOL    HW126918   4.847   2.188   0.154
 8673SOL    HW226919   4.762   2.207   0.291
 8674SOL     OW26920   0.711   0.073   2.909
 8674SOL    HW126921   0.760   7.015   2.935
 8674SOL    HW226922   0.775   0.149   2.906
 8675SOL     OW26923   2.540   1.951   3.030
 8675SOL    HW126924   2.597   1.980   2.954
 8675SOL    HW226925   2.444   1.955   3.003
 8676SOL     OW26926   4.537   1.342   4.391
 8676SOL    HW126927   4.579   1.317   4.304
 8676SOL    HW226928   4.438   1.348   4.380
 8677SOL     OW26929   2.056   3.635   5.572
 8677SOL    HW126930   1.968   3.642   5.524
 8677SOL    HW226931   2.039   3.617   5.669
 8678SOL     OW26932   1.743   0.654   6.022
 8678SOL    HW126933   1.695   0.618   6.103
 8678SOL    HW226934   1.835   0.617   6.019
 8679SOL     OW26935   5.971   1.972   4.701
 8679SOL    HW126936   6.061   1.985   4.659
 8679SOL    HW226937   5.946   1.875   4.697
 8680SOL     OW26938   0.795   3.770   0.681
 8680SOL    HW126939   0.834   3.714   0.754
 8680SOL    HW226940   0.864   3.786   0.610
 8681SOL     OW26941   4.150   3.650   1.441
 8681SOL    HW126942   4.119   3.641   1.346
 8681SOL    HW226943   4.072   3.645   1.502
 8682SOL     OW26944   1.361   5.717   2.639
 8682SOL    HW126945   1.330   5.792   2.698
 8682SOL    HW226946   1.284   5.686   2.583
 8683SOL     OW26947   4.847   2.924   6.542
 8683SOL    HW126948   4.878   2.886   6.455
 8683SOL    HW226949   4.813   2.851   6.601
 8684SOL     OW26950   6.384   2.983   3.432
 8684SOL    HW126951   6.334   2.942   3.508
 8684SOL    HW226952   6.319   3.010   3.361
 8685SOL     OW26953   0.027   1.390   5.728
 8685SOL    HW126954   0.015   1.356   5.821
 8685SOL    HW226955   6.965   1.384   5.679
 8686SOL     OW26956   6.307   1.487   4.204
 8686SOL    HW126957   6.400   1.503   4.236
 8686SOL    HW226958   6.300   1.516   4.108
 8687SOL     OW26959   3.503   0.809   2.675
 8687SOL    HW126960   3.437   0.738   2.648
 8687SOL    HW226961   3.454   0.895   2.690
 8688SOL     OW26962   1.215   6.824   1.944
 8688SOL    HW126963   1.265   6.738   1.955
 8688SOL    HW226964   1.251   6.874   1.865
 8689SOL     OW26965   5.241   4.869   0.959
 8689SOL    HW126966   5.265   4.841   0.866
 8689SOL    HW226967   5.142   4.864   0.970
 8690SOL     OW26968   1.569   0.997   2.559
 8690SOL    HW126969   1.524   1.075   2.515
 8690SOL    HW226970   1.537   0.989   2.653
 8691SOL     OW26971   6.004   1.530   0.377
 8691SOL    HW126972   5.952   1.556   0.296
 8691SOL    HW226973   6.039   1.612   0.423
 8692SOL     OW26974   1.576   1.063   3.749
 8692SOL    HW126975   1.509   1.121   3.794
 8692SOL    HW226976   1.632   1.016   3.817
 8693SOL     OW26977   5.137   2.087   6.958
 8693SOL    HW126978   5.222   2.133   6.982
 8693SOL    HW226979   5.078   2.082   0.014
 8694SOL     OW26980   3.843   0.077   6.922
 8694SOL    HW126981   3.761   0.026   6.892
 8694SOL    HW226982   3.906   0.014   6.966
 8695SOL     OW26983   4.628   4.354   5.469
 8695SOL    HW126984   4.604   4.311   5.382
 8695SOL    HW226985   4.546   4.365   5.524
 8696SOL     OW26986   2.471   5.199   0.792
 8696SOL    HW126987   2.459   5.189   0.694
 8696SOL    HW226988   2.468   5.110   0.836
 8697SOL     OW26989   5.013   5.154   6.721
 8697SOL    HW126990   4.954   5.190   6.649
 8697SOL    HW226991   5.108   5.157   6.690
 8698SOL     OW26992   5.751   5.838   4.757
 8698SOL    HW126993   5.805   5.769   4.805
 8698SOL    HW226994   5.667   5.856   4.807
 8699SOL     OW26995   1.476   1.555   5.023
 8699SOL    HW126996   1.540   1.481   5.001
 8699SOL    HW226997   1.482   1.577   5.120
 8700SOL     OW26998   2.942   2.367   6.113
 8700SOL    HW126999   2.971   2.374   6.017
 8700SOL    HW227000   2.848   2.335   6.116
 8701SOL     OW27001   1.317   1.223   3.449
 8701SOL    HW127002   1.229   1.269   3.456
 8701SOL    HW227003   1.313   1.151   3.381
 8702SOL     OW27004   5.134   6.528   6.978
 8702SOL    HW127005   5.179   6.565   0.034
 8702SOL    HW227006   5.071   6.456   7.005
 8703SOL     OW27007   1.569   5.083   1.365
 8703SOL    HW127008   1.531   5.039   1.284
 8703SOL    HW227009   1.515   5.056   1.445
 8704SOL     OW27010   0.926   4.455   1.904
 8704SOL    HW127011   0.972   4.424   1.987
 8704SOL    HW227012   0.837   4.410   1.896
 8705SOL     OW27013   4.923   6.491   4.165
 8705SOL    HW127014   5.020   6.470   4.178
 8705SOL    HW227015   4.895   6.461   4.074
 8706SOL     OW27016   4.988   1.018   5.616
 8706SOL    HW127017   5.005   1.111   5.647
 8706SOL    HW227018   4.984   1.016   5.516
 8707SOL     OW27019   4.401   2.054   5.517
 8707SOL    HW127020   4.463   1.975   5.523
 8707SOL    HW227021   4.449   2.136   5.547
 8708SOL     OW27022   4.065   1.592   0.624
 8708SOL    HW127023   4.004   1.535   0.680
 8708SOL    HW227024   4.048   1.574   0.527
 8709SOL     OW27025   5.643   3.308   0.511
 8709SOL    HW127026   5.726   3.283   0.561
 8709SOL    HW227027   5.664   3.310   0.413
 8710SOL     OW27028   6.447   3.013   3.976
 8710SOL    HW127029   6.373   3.056   3.924
 8710SOL    HW227030   6.534   3.056   3.951
 8711SOL     OW27031   1.240   1.155   4.555
 8711SOL    HW127032   1.295   1.196   4.482
 8711SOL    HW227033   1.293   1.082   4.600
 8712SOL     OW27034   3.540   0.353   6.990
 8712SOL    HW127035   3.620   0.340   0.023
 8712SOL    HW227036   3.486   0.430   7.024
 8713SOL     OW27037   6.171   4.705   2.362
 8713SOL    HW127038   6.156   4.802   2.342
 8713SOL    HW227039   6.269   4.686   2.357
 8714SOL     OW27040   1.659   1.605   4.303
 8714SOL    HW127041   1.577   1.626   4.251
 8714SOL    HW227042   1.682   1.682   4.362
 8715SOL     OW27043   6.085   1.135   2.765
 8715SOL    HW127044   6.073   1.224   2.722
 8715SOL    HW227045   6.018   1.071   2.728
 8716SOL     OW27046   0.567   1.173   2.093
 8716SOL    HW127047   0.580   1.212   2.184
 8716SOL    HW227048   0.501   1.099   2.097
 8717SOL     OW27049   4.416   3.497   0.831
 8717SOL    HW127050   4.411   3.480   0.733
 8717SOL    HW227051   4.508   3.478   0.864
 8718SOL     OW27052   6.942   2.871   5.868
 8718SOL    HW127053   6.987   2.870   5.779
 8718SOL    HW227054   6.958   2.960   5.911
 8719SOL     OW27055   6.137   1.149   5.899
 8719SOL    HW127056   6.042   1.152   5.869
 8719SOL    HW227057   6.192   1.211   5.843
 8720SOL     OW27058   4.926   3.437   5.459
 8720SOL    HW127059   5.019   3.404   5.477
 8720SOL    HW227060   4.864   3.403   5.529
 8721SOL     OW27061   6.629   0.921   5.251
 8721SOL    HW127062   6.558   0.883   5.310
 8721SOL    HW227063   6.679   0.846   5.206
 8722SOL     OW27064   3.205   2.975   1.139
 8722SOL    HW127065   3.284   2.920   1.167
 8722SOL    HW227066   3.134   2.969   1.209
 8723SOL     OW27067   0.108   5.655   0.438
 8723SOL    HW127068   0.153   5.581   0.489
 8723SOL    HW227069   0.178   5.717   0.402
 8724SOL     OW27070   4.857   6.211   6.855
 8724SOL    HW127071   4.836   6.128   6.907
 8724SOL    HW227072   4.890   6.186   6.764
 8725SOL     OW27073   2.131   6.123   1.124
 8725SOL    HW127074   2.086   6.192   1.181
 8725SOL    HW227075   2.226   6.150   1.108
 8726SOL     OW27076   6.924   0.852   1.223
 8726SOL    HW127077   6.889   0.768   1.265
 8726SOL    HW227078   7.024   0.852   1.227
 8727SOL     OW27079   5.825   6.640   1.150
 8727SOL    HW127080   5.794   6.609   1.060
 8727SOL    HW227081   5.762   6.607   1.220
 8728SOL     OW27082   2.201   6.160   5.409
 8728SOL    HW127083   2.295   6.128   5.399
 8728SOL    HW227084   2.140   6.106   5.351
 8729SOL     OW27085   4.660   6.057   4.701
 8729SOL    HW127086   4.564   6.084   4.700
 8729SOL    HW227087   4.716   6.129   4.660
 8730SOL     OW27088   6.530   6.014   0.906
 8730SOL    HW127089   6.626   6.015   0.877
 8730SOL    HW227090   6.472   6.047   0.832
 8731SOL     OW27091   0.677   1.339   2.333
 8731SOL    HW127092   0.647   1.377   2.420
 8731SOL    HW227093   0.737   1.404   2.287
 8732SOL     OW27094   6.767   6.186   2.366
 8732SOL    HW127095   6.778   6.099   2.318
 8732SOL    HW227096   6.761   6.261   2.300
 8733SOL     OW27097   0.002   0.154   0.775
 8733SOL    HW127098   6.931   0.168   0.754
 8733SOL    HW227099   0.040   0.083   0.716
 8734SOL     OW27100   6.651   6.317   0.747
 8734SOL    HW127101   6.646   6.237   0.807
 8734SOL    HW227102   6.746   6.334   0.722
 8735SOL     OW27103   0.423   2.978   6.377
 8735SOL    HW127104   0.504   2.942   6.330
 8735SOL    HW227105   0.442   3.071   6.409
 8736SOL     OW27106   0.257   4.753   5.992
 8736SOL    HW127107   0.219   4.788   6.078
 8736SOL    HW227108   0.254   4.653   5.993
 8737SOL     OW27109   4.070   6.312   6.900
 8737SOL    HW127110   4.145   6.271   6.850
 8737SOL    HW227111   4.088   6.307   6.999
 8738SOL     OW27112   0.589   3.797   5.799
 8738SOL    HW127113   0.621   3.888   5.825
 8738SOL    HW227114   0.628   3.729   5.861
 8739SOL     OW27115   0.983   3.703   5.751
 8739SOL    HW127116   0.952   3.620   5.704
 8739SOL    HW227117   1.071   3.732   5.714
 8740SOL     OW27118   1.593   6.339   0.645
 8740SOL    HW127119   1.517   6.403   0.635
 8740SOL    HW227120   1.563   6.261   0.701
 8741SOL     OW27121   1.672   3.542   2.197
 8741SOL    HW127122   1.614   3.575   2.272
 8741SOL    HW227123   1.745   3.609   2.179
 8742SOL     OW27124   4.610   5.741   2.373
 8742SOL    HW127125   4.630   5.717   2.468
 8742SOL    HW227126   4.639   5.668   2.313
 8743SOL     OW27127   2.375   4.921   2.568
 8743SOL    HW127128   2.468   4.922   2.530
 8743SOL    HW227129   2.324   4.845   2.527
 8744SOL     OW27130   3.039   3.514   5.545
 8744SOL    HW127131   3.084   3.455   5.479
 8744SOL    HW227132   3.020   3.603   5.504
 8745SOL     OW27133   5.992   1.645   6.848
 8745SOL    HW127134   5.947   1.725   6.807
 8745SOL    HW227135   5.924   1.573   6.864
 8746SOL     OW27136   5.237   3.441   4.915
 8746SOL    HW127137   5.139   3.423   4.930
 8746SOL    HW227138   5.248   3.534   4.882
 8747SOL     OW27139   0.354   2.188   4.074
 8747SOL    HW127140   0.263   2.150   4.086
 8747SOL    HW227141   0.419   2.115   4.053
 8748SOL     OW27142   3.013   0.073   0.165
 8748SOL    HW127143   3.068   0.034   0.091
 8748SOL    HW227144   2.932   0.015   0.179
 8749SOL     OW27145   3.675   1.639   3.620
 8749SOL    HW127146   3.618   1.674   3.545
 8749SOL    HW227147   3.767   1.620   3.586
 8750SOL     OW27148   2.162   0.524   5.136
 8750SOL    HW127149   2.197   0.531   5.229
 8750SOL    HW227150   2.108   0.606   5.115
 8751SOL     OW27151   1.919   6.438   3.233
 8751SOL    HW127152   1.970   6.427   3.318
 8751SOL    HW227153   1.972   6.492   3.169
 8752SOL     OW27154   2.471   0.715   6.022
 8752SOL    HW127155   2.512   0.737   6.110
 8752SOL    HW227156   2.472   0.797   5.964
 8753SOL     OW27157   5.484   1.261   5.046
 8753SOL    HW127158   5.448   1.353   5.027
 8753SOL    HW227159   5.542   1.265   5.127
 8754SOL     OW27160   2.017   1.173   5.697
 8754SOL    HW127161   1.972   1.116   5.765
 8754SOL    HW227162   2.054   1.116   5.624
 8755SOL     OW27163   2.326   2.092   0.398
 8755SOL    HW127164   2.411   2.111   0.447
 8755SOL    HW227165   2.325   2.143   0.312
 8756SOL     OW27166   2.116   4.621   4.423
 8756SOL    HW127167   2.050   4.632   4.498
 8756SOL    HW227168   2.087   4.677   4.345
 8757SOL     OW27169   3.594   5.273   4.228
 8757SOL    HW127170   3.540   5.230   4.300
 8757SOL    HW227171   3.594   5.372   4.240
 8758SOL     OW27172   5.039   6.510   2.543
 8758SOL    HW127173   4.944   6.514   2.573
 8758SOL    HW227174   5.080   6.601   2.550
 8759SOL     OW27175   5.365   0.605   5.892
 8759SOL    HW127176   5.384   0.516   5.934
 8759SOL    HW227177   5.448   0.640   5.848
 8760SOL     OW27178   2.209   3.182   3.733
 8760SOL    HW127179   2.308   3.194   3.743
 8760SOL    HW227180   2.170   3.154   3.821
 8761SOL     OW27181   5.294   6.157   1.501
 8761SOL    HW127182   5.220   6.103   1.543
 8761SOL    HW227183   5.365   6.095   1.469
 8762SOL     OW27184   0.921   4.637   1.005
 8762SOL    HW127185   0.967   4.551   0.980
 8762SOL    HW227186   0.989   4.708   1.020
 8763SOL     OW27187   0.461   6.306   6.734
 8763SOL    HW127188   0.472   6.397   6.694
 8763SOL    HW227189   0.364   6.288   6.751
 8764SOL     OW27190   3.474   1.907   6.017
 8764SOL    HW127191   3.434   1.818   5.996
 8764SOL    HW227192   3.555   1.922   5.960
 8765SOL     OW27193   6.471   0.427   4.629
 8765SOL    HW127194   6.529   0.348   4.611
 8765SOL    HW227195   6.445   0.428   4.726
 8766SOL     OW27196   2.026   4.331   2.287
 8766SOL    HW127197   2.032   4.412   2.228
 8766SOL    HW227198   1.953   4.271   2.254
 8767SOL     OW27199   4.959   0.572   5.600
 8767SOL    HW127200   4.991   0.613   5.514
 8767SOL    HW227201   4.861   0.590   5.610
 8768SOL     OW27202   1.041   3.996   6.936
 8768SOL    HW127203   0.991   3.977   7.021
 8768SOL    HW227204   1.128   4.039   6.957
 8769SOL     OW27205   1.946   0.832   6.221
 8769SOL    HW127206   1.928   0.791   6.311
 8769SOL    HW227207   1.951   0.759   6.153
 8770SOL     OW27208   5.389   1.494   3.012
 8770SOL    HW127209   5.473   1.444   3.033
 8770SOL    HW227210   5.403   1.592   3.029
 8771SOL     OW27211   2.833   3.002   5.458
 8771SOL    HW127212   2.867   3.052   5.378
 8771SOL    HW227213   2.779   3.064   5.515
 8772SOL     OW27214   6.641   6.892   6.668
 8772SOL    HW127215   6.568   6.917   6.732
 8772SOL    HW227216   6.641   6.956   6.591
 8773SOL     OW27217   2.616   2.069   3.269
 8773SOL    HW127218   2.628   2.168   3.257
 8773SOL    HW227219   2.613   2.024   3.180
 8774SOL     OW27220   1.147   0.790   6.784
 8774SOL    HW127221   1.227   0.735   6.808
 8774SOL    HW227222   1.107   0.829   6.867
 8775SOL     OW27223   6.195   6.053   4.283
 8775SOL    HW127224   6.187   6.052   4.383
 8775SOL    HW227225   6.125   5.993   4.243
 8776SOL     OW27226   3.364   3.952   5.265
 8776SOL    HW127227   3.443   3.933   5.208
 8776SOL    HW227228   3.353   3.880   5.333
 8777SOL     OW27229   6.138   5.945   2.728
 8777SOL    HW127230   6.075   5.918   2.801
 8777SOL    HW227231   6.209   5.874   2.717
 8778SOL     OW27232   1.224   2.971   2.495
 8778SOL    HW127233   1.158   3.034   2.453
 8778SOL    HW227234   1.298   3.023   2.538
 8779SOL     OW27235   1.741   4.615   1.249
 8779SOL    HW127236   1.840   4.628   1.241
 8779SOL    HW227237   1.694   4.698   1.216
 8780SOL     OW27238   1.939   5.458   5.102
 8780SOL    HW127239   1.851   5.411   5.090
 8780SOL    HW227240   2.013   5.392   5.093
 8781SOL     OW27241   1.053   2.288   2.957
 8781SOL    HW127242   1.079   2.312   3.050
 8781SOL    HW227243   0.957   2.261   2.956
 8782SOL     OW27244   5.052   1.312   3.638
 8782SOL    HW127245   5.090   1.355   3.556
 8782SOL    HW227246   5.127   1.274   3.693
 8783SOL     OW27247   6.397   2.753   5.458
 8783SOL    HW127248   6.394   2.750   5.358
 8783SOL    HW227249   6.431   2.842   5.488
 8784SOL     OW27250   6.137   4.258   6.017
 8784SOL    HW127251   6.059   4.284   6.074
 8784SOL    HW227252   6.121   4.287   5.923
 8785SOL     OW27253   5.293   4.156   5.693
 8785SOL    HW127254   5.206   4.189   5.655
 8785SOL    HW227255   5.333   4.226   5.751
 8786SOL     OW27256   1.683   6.009   0.246
 8786SOL    HW127257   1.651   6.069   0.173
 8786SOL    HW227258   1.690   6.061   0.331
 8787SOL     OW27259   1.316   2.563   6.786
 8787SOL    HW127260   1.409   2.546   6.753
 8787SOL    HW227261   1.267   2.476   6.791
 8788SOL     OW27262   1.503   2.161   5.541
 8788SOL    HW127263   1.455   2.137   5.457
 8788SOL    HW227264   1.445   2.222   5.596
 8789SOL     OW27265   0.493   1.115   0.352
 8789SOL    HW127266   0.418   1.088   0.413
 8789SOL    HW227267   0.544   1.190   0.394
 8790SOL     OW27268   3.952   1.110   6.089
 8790SOL    HW127269   3.881   1.178   6.108
 8790SOL    HW227270   4.041   1.146   6.119
 8791SOL     OW27271   5.095   6.165   5.132
 8791SOL    HW127272   5.034   6.235   5.168
 8791SOL    HW227273   5.100   6.088   5.197
 8792SOL     OW27274   5.245   6.731   2.589
 8792SOL    HW127275   5.268   6.797   2.517
 8792SOL    HW227276   5.318   6.664   2.598
 8793SOL     OW27277   1.014   4.556   3.373
 8793SOL    HW127278   1.002   4.458   3.359
 8793SOL    HW227279   0.952   4.587   3.446
 8794SOL     OW27280   2.626   5.836   2.741
 8794SOL    HW127281   2.699   5.897   2.709
 8794SOL    HW227282   2.620   5.842   2.841
 8795SOL     OW27283   3.275   6.271   4.734
 8795SOL    HW127284   3.238   6.358   4.701
 8795SOL    HW227285   3.205   6.222   4.785
 8796SOL     OW27286   4.974   2.257   4.833
 8796SOL    HW127287   4.962   2.356   4.832
 8796SOL    HW227288   4.884   2.212   4.839
 8797SOL     OW27289   0.831   6.014   6.644
 8797SOL    HW127290   0.744   6.016   6.692
 8797SOL    HW227291   0.837   6.092   6.581
 8798SOL     OW27292   3.113   3.292   5.346
 8798SOL    HW127293   3.173   3.217   5.373
 8798SOL    HW227294   3.026   3.255   5.313
 8799SOL     OW27295   3.131   0.781   2.202
 8799SOL    HW127296   3.132   0.688   2.240
 8799SOL    HW227297   3.222   0.822   2.213
 8800SOL     OW27298   4.053   4.266   0.743
 8800SOL    HW127299   3.969   4.215   0.761
 8800SOL    HW227300   4.041   4.361   0.771
 8801SOL     OW27301   3.184   6.525   5.698
 8801SOL    HW127302   3.195   6.623   5.685
 8801SOL    HW227303   3.090   6.499   5.675
 8802SOL     OW27304   2.229   6.101   1.413
 8802SOL    HW127305   2.193   6.111   1.506
 8802SOL    HW227306   2.328   6.089   1.417
 8803SOL     OW27307   4.029   5.970   2.141
 8803SOL    HW127308   4.039   5.990   2.044
 8803SOL    HW227309   3.950   6.020   2.177
 8804SOL     OW27310   2.630   0.808   1.853
 8804SOL    HW127311   2.700   0.755   1.900
 8804SOL    HW227312   2.568   0.746   1.804
 8805SOL     OW27313   0.707   0.321   3.630
 8805SOL    HW127314   0.772   0.262   3.678
 8805SOL    HW227315   0.715   0.307   3.531
 8806SOL     OW27316   1.584   4.857   0.010
 8806SOL    HW127317   1.568   4.886   6.941
 8806SOL    HW227318   1.655   4.786   0.012
 8807SOL     OW27319   2.534   5.421   6.350
 8807SOL    HW127320   2.484   5.504   6.325
 8807SOL    HW227321   2.526   5.354   6.276
 8808SOL     OW27322   5.631   2.523   0.923
 8808SOL    HW127323   5.599   2.436   0.961
 8808SOL    HW227324   5.559   2.563   0.867
 8809SOL     OW27325   6.203   4.927   0.025
 8809SOL    HW127326   6.277   4.967   0.079
 8809SOL    HW227327   6.227   4.833   7.025
 8810SOL     OW27328   4.887   1.685   3.963
 8810SOL    HW127329   4.896   1.602   4.018
 8810SOL    HW227330   4.886   1.661   3.866
 8811SOL     OW27331   1.085   0.938   3.362
 8811SOL    HW127332   1.180   0.913   3.344
 8811SOL    HW227333   1.025   0.869   3.320
 8812SOL     OW27334   2.697   0.958   6.937
 8812SOL    HW127335   2.778   0.940   6.881
 8812SOL    HW227336   2.710   1.045   6.985
 8813SOL     OW27337   1.119   5.605   1.103
 8813SOL    HW127338   1.056   5.664   1.154
 8813SOL    HW227339   1.197   5.659   1.071
 8814SOL     OW27340   5.690   6.941   5.532
 8814SOL    HW127341   5.661   6.949   5.437
 8814SOL    HW227342   5.734   0.001   5.561
 8815SOL     OW27343   5.828   5.448   3.015
 8815SOL    HW127344   5.814   5.384   2.939
 8815SOL    HW227345   5.782   5.414   3.097
 8816SOL     OW27346   0.609   5.236   2.268
 8816SOL    HW127347   0.637   5.267   2.177
 8816SOL    HW227348   0.686   5.242   2.331
 8817SOL     OW27349   2.137   3.852   5.279
 8817SOL    HW127350   2.192   3.901   5.211
 8817SOL    HW227351   2.140   3.754   5.258
 8818SOL     OW27352   6.973   4.701   5.191
 8818SOL    HW127353   7.001   4.616   5.146
 8818SOL    HW227354   0.029   4.754   5.216
 8819SOL     OW27355   6.797   0.533   4.148
 8819SOL    HW127356   6.855   0.559   4.225
 8819SOL    HW227357   6.794   0.433   4.140
 8820SOL     OW27358   1.215   2.652   3.102
 8820SOL    HW127359   1.116   2.666   3.098
 8820SOL    HW227360   1.245   2.657   3.197
 8821SOL     OW27361   1.633   6.850   6.553
 8821SOL    HW127362   1.654   6.768   6.607
 8821SOL    HW227363   1.654   6.832   6.457
 8822SOL     OW27364   1.493   2.723   4.043
 8822SOL    HW127365   1.492   2.822   4.032
 8822SOL    HW227366   1.538   2.680   3.965
 8823SOL     OW27367   2.366   5.128   1.345
 8823SOL    HW127368   2.397   5.166   1.432
 8823SOL    HW227369   2.443   5.085   1.298
 8824SOL     OW27370   4.757   4.402   1.082
 8824SOL    HW127371   4.731   4.470   1.151
 8824SOL    HW227372   4.677   4.349   1.055
 8825SOL     OW27373   2.403   2.240   0.166
 8825SOL    HW127374   2.340   2.250   0.088
 8825SOL    HW227375   2.491   2.280   0.142
 8826SOL     OW27376   5.912   0.495   1.598
 8826SOL    HW127377   5.959   0.412   1.630
 8826SOL    HW227378   5.814   0.482   1.607
 8827SOL     OW27379   6.201   1.746   3.583
 8827SOL    HW127380   6.142   1.712   3.657
 8827SOL    HW227381   6.291   1.704   3.590
 8828SOL     OW27382   1.281   6.199   3.857
 8828SOL    HW127383   1.342   6.176   3.933
 8828SOL    HW227384   1.299   6.293   3.828
 8829SOL     OW27385   1.587   0.826   1.347
 8829SOL    HW127386   1.628   0.778   1.424
 8829SOL    HW227387   1.592   0.925   1.363
 8830SOL     OW27388   1.369   1.203   0.576
 8830SOL    HW127389   1.398   1.165   0.488
 8830SOL    HW227390   1.281   1.249   0.565
 8831SOL     OW27391   6.473   0.844   1.777
 8831SOL    HW127392   6.478   0.909   1.701
 8831SOL    HW227393   6.379   0.838   1.810
 8832SOL     OW27394   5.953   1.518   2.124
 8832SOL    HW127395   6.045   1.555   2.111
 8832SOL    HW227396   5.943   1.434   2.070
 8833SOL     OW27397   1.097   5.414   2.311
 8833SOL    HW127398   1.165   5.474   2.268
 8833SOL    HW227399   1.043   5.369   2.240
 8834SOL     OW27400   5.970   4.251   3.725
 8834SOL    HW127401   5.950   4.161   3.687
 8834SOL    HW227402   5.960   4.320   3.653
 8835SOL     OW27403   0.627   1.303   0.492
 8835SOL    HW127404   0.709   1.358   0.481
 8835SOL    HW227405   0.615   1.281   0.589
 8836SOL     OW27406   4.730   1.832   2.081
 8836SOL    HW127407   4.722   1.794   1.989
 8836SOL    HW227408   4.754   1.928   2.076
 8837SOL     OW27409   0.341   2.380   2.230
 8837SOL    HW127410   0.426   2.333   2.209
 8837SOL    HW227411   0.276   2.366   2.154
 8838SOL     OW27412   1.615   6.286   4.241
 8838SOL    HW127413   1.709   6.273   4.210
 8838SOL    HW227414   1.552   6.256   4.169
 8839SOL     OW27415   5.201   5.867   4.526
 8839SOL    HW127416   5.214   5.772   4.495
 8839SOL    HW227417   5.288   5.904   4.558
 8840SOL     OW27418   3.885   0.878   1.979
 8840SOL    HW127419   3.816   0.943   2.010
 8840SOL    HW227420   3.947   0.856   2.055
 8841SOL     OW27421   3.842   0.030   3.821
 8841SOL    HW127422   3.849   0.047   3.920
 8841SOL    HW227423   3.754   0.062   3.788
 8842SOL     OW27424   1.565   2.231   1.701
 8842SOL    HW127425   1.583   2.161   1.633
 8842SOL    HW227426   1.643   2.237   1.764
 8843SOL     OW27427   0.083   2.843   4.197
 8843SOL    HW127428   0.160   2.785   4.227
 8843SOL    HW227429   0.068   2.914   4.265
 8844SOL     OW27430   5.975   1.688   0.150
 8844SOL    HW127431   5.931   1.774   0.127
 8844SOL    HW227432   5.994   1.637   0.067
 8845SOL     OW27433   4.961   2.503   0.139
 8845SOL    HW127434   4.932   2.435   0.207
 8845SOL    HW227435   5.014   2.574   0.184
 8846SOL     OW27436   3.134   4.847   3.882
 8846SOL    HW127437   3.175   4.768   3.927
 8846SOL    HW227438   3.158   4.930   3.932
 8847SOL     OW27439   1.083   1.359   3.438
 8847SOL    HW127440   1.046   1.402   3.356
 8847SOL    HW227441   1.066   1.418   3.517
 8848SOL     OW27442   0.545   1.311   3.657
 8848SOL    HW127443   0.513   1.400   3.626
 8848SOL    HW227444   0.546   1.247   3.579
 8849SOL     OW27445   3.066   7.018   1.371
 8849SOL    HW127446   3.016   6.945   1.325
 8849SOL    HW227447   3.010   0.030   1.445
 8850SOL     OW27448   3.216   2.414   0.070
 8850SOL    HW127449   3.190   2.348   0.140
 8850SOL    HW227450   3.156   2.406   7.017
 8851SOL     OW27451   2.166   3.745   2.144
 8851SOL    HW127452   2.246   3.762   2.203
 8851SOL    HW227453   2.194   3.688   2.067
 8852SOL     OW27454   0.515   2.212   4.732
 8852SOL    HW127455   0.529   2.291   4.793
 8852SOL    HW227456   0.517   2.128   4.786
 8853SOL     OW27457   4.559   0.541   1.692
 8853SOL    HW127458   4.649   0.584   1.687
 8853SOL    HW227459   4.562   0.464   1.756
 8854SOL     OW27460   6.880   2.686   4.991
 8854SOL    HW127461   6.970   2.655   5.022
 8854SOL    HW227462   6.890   2.764   4.930
 8855SOL     OW27463   4.830   4.867   1.174
 8855SOL    HW127464   4.888   4.902   1.102
 8855SOL    HW227465   4.872   4.785   1.214
 8856SOL     OW27466   5.743   0.558   6.009
 8856SOL    HW127467   5.824   0.500   6.001
 8856SOL    HW227468   5.695   0.537   6.094
 8857SOL     OW27469   6.643   2.098   6.729
 8857SOL    HW127470   6.559   2.154   6.729
 8857SOL    HW227471   6.657   2.060   6.820
 8858SOL     OW27472   6.517   5.452   4.778
 8858SOL    HW127473   6.588   5.460   4.849
 8858SOL    HW227474   6.524   5.530   4.715
 8859SOL     OW27475   1.138   5.654   3.236
 8859SOL    HW127476   1.234   5.637   3.256
 8859SOL    HW227477   1.083   5.576   3.265
 8860SOL     OW27478   6.471   2.724   1.871
 8860SOL    HW127479   6.554   2.683   1.834
 8860SOL    HW227480   6.494   2.810   1.917
 8861SOL     OW27481   3.199   2.544   1.418
 8861SOL    HW127482   3.208   2.643   1.425
 8861SOL    HW227483   3.258   2.500   1.486
 8862SOL     OW27484   4.449   4.686   4.721
 8862SOL    HW127485   4.420   4.634   4.801
 8862SOL    HW227486   4.479   4.624   4.649
 8863SOL     OW27487   1.668   3.310   1.678
 8863SOL    HW127488   1.604   3.342   1.608
 8863SOL    HW227489   1.696   3.388   1.734
 8864SOL     OW27490   6.152   1.752   5.046
 8864SOL    HW127491   6.160   1.852   5.046
 8864SOL    HW227492   6.164   1.718   4.953
 8865SOL     OW27493   2.973   1.359   0.941
 8865SOL    HW127494   2.900   1.291   0.950
 8865SOL    HW227495   3.055   1.315   0.905
 8866SOL     OW27496   6.030   6.723   1.954
 8866SOL    HW127497   6.039   6.633   1.998
 8866SOL    HW227498   6.120   6.756   1.928
 8867SOL     OW27499   5.791   2.671   2.967
 8867SOL    HW127500   5.815   2.598   3.031
 8867SOL    HW227501   5.871   2.697   2.915
 8868SOL     OW27502   0.332   2.797   3.337
 8868SOL    HW127503   0.374   2.868   3.280
 8868SOL    HW227504   0.328   2.829   3.432
 8869SOL     OW27505   4.643   0.115   3.428
 8869SOL    HW127506   4.625   0.091   3.332
 8869SOL    HW227507   4.557   0.128   3.476
 8870SOL     OW27508   0.832   0.717   1.887
 8870SOL    HW127509   0.835   0.784   1.961
 8870SOL    HW227510   0.879   0.633   1.916
 8871SOL     OW27511   0.107   6.705   1.273
 8871SOL    HW127512   0.083   6.648   1.352
 8871SOL    HW227513   0.201   6.738   1.283
 8872SOL     OW27514   6.795   4.680   3.515
 8872SOL    HW127515   6.846   4.748   3.569
 8872SOL    HW227516   6.697   4.691   3.532
 8873SOL     OW27517   1.825   1.517   3.632
 8873SOL    HW127518   1.878   1.596   3.604
 8873SOL    HW227519   1.740   1.512   3.578
 8874SOL     OW27520   2.886   5.811   0.664
 8874SOL    HW127521   2.978   5.847   0.654
 8874SOL    HW227522   2.844   5.849   0.746
 8875SOL     OW27523   6.273   2.895   4.464
 8875SOL    HW127524   6.269   2.868   4.561
 8875SOL    HW227525   6.284   2.813   4.408
 8876SOL     OW27526   4.429   0.529   0.615
 8876SOL    HW127527   4.359   0.591   0.581
 8876SOL    HW227528   4.474   0.570   0.695
 8877SOL     OW27529   0.550   4.323   1.299
 8877SOL    HW127530   0.574   4.272   1.216
 8877SOL    HW227531   0.600   4.286   1.377
 8878SOL     OW27532   5.001   3.913   1.983
 8878SOL    HW127533   5.095   3.943   1.966
 8878SOL    HW227534   4.991   3.818   1.954
 8879SOL     OW27535   6.909   4.113   4.026
 8879SOL    HW127536   6.935   4.016   4.032
 8879SOL    HW227537   6.895   4.149   4.118
 8880SOL     OW27538   4.142   1.990   2.974
 8880SOL    HW127539   4.105   1.897   2.981
 8880SOL    HW227540   4.240   1.986   2.953
 8881SOL     OW27541   3.913   5.197   3.048
 8881SOL    HW127542   3.857   5.215   2.967
 8881SOL    HW227543   3.887   5.108   3.087
 8882SOL     OW27544   3.747   1.299   0.436
 8882SOL    HW127545   3.788   1.390   0.443
 8882SOL    HW227546   3.684   1.285   0.513
 8883SOL     OW27547   0.829   6.405   2.956
 8883SOL    HW127548   0.836   6.493   3.003
 8883SOL    HW227549   0.842   6.331   3.022
 8884SOL     OW27550   4.380   2.391   6.016
 8884SOL    HW127551   4.408   2.448   5.940
 8884SOL    HW227552   4.445   2.315   6.026
 8885SOL     OW27553   6.020   4.895   1.248
 8885SOL    HW127554   5.960   4.975   1.246
 8885SOL    HW227555   5.972   4.815   1.212
 8886SOL     OW27556   5.009   6.821   0.286
 8886SOL    HW127557   5.041   6.909   0.322
 8886SOL    HW227558   4.984   6.762   0.363
 8887SOL     OW27559   3.694   0.270   1.617
 8887SOL    HW127560   3.609   0.322   1.613
 8887SOL    HW227561   3.771   0.334   1.620
 8888SOL     OW27562   3.853   2.060   2.155
 8888SOL    HW127563   3.798   2.036   2.235
 8888SOL    HW227564   3.806   2.129   2.100
 8889SOL     OW27565   1.507   4.564   6.746
 8889SOL    HW127566   1.442   4.508   6.695
 8889SOL    HW227567   1.599   4.524   6.738
 8890SOL     OW27568   1.677   5.732   0.268
 8890SOL    HW127569   1.640   5.682   0.190
 8890SOL    HW227570   1.667   5.831   0.252
 8891SOL     OW27571   6.200   3.530   5.317
 8891SOL    HW127572   6.132   3.457   5.308
 8891SOL    HW227573   6.270   3.503   5.382
 8892SOL     OW27574   2.249   5.209   4.797
 8892SOL    HW127575   2.237   5.113   4.824
 8892SOL    HW227576   2.248   5.216   4.697
 8893SOL     OW27577   0.351   4.640   5.274
 8893SOL    HW127578   0.284   4.714   5.260
 8893SOL    HW227579   0.325   4.587   5.354
 8894SOL     OW27580   5.366   2.580   1.698
 8894SOL    HW127581   5.341   2.655   1.637
 8894SOL    HW227582   5.459   2.550   1.677
 8895SOL     OW27583   0.120   3.632   1.562
 8895SOL    HW127584   0.021   3.637   1.572
 8895SOL    HW227585   0.152   3.705   1.502
 8896SOL     OW27586   0.743   1.421   3.965
 8896SOL    HW127587   0.779   1.329   3.952
 8896SOL    HW227588   0.643   1.417   3.973
 8897SOL     OW27589   1.628   5.310   4.412
 8897SOL    HW127590   1.591   5.390   4.460
 8897SOL    HW227591   1.607   5.227   4.464
 8898SOL     OW27592   5.508   4.906   2.527
 8898SOL    HW127593   5.536   4.865   2.440
 8898SOL    HW227594   5.498   4.835   2.596
 8899SOL     OW27595   2.151   4.350   1.874
 8899SOL    HW127596   2.151   4.411   1.795
 8899SOL    HW227597   2.084   4.276   1.858
 8900SOL     OW27598   3.888   1.781   4.574
 8900SOL    HW127599   3.830   1.842   4.520
 8900SOL    HW227600   3.855   1.779   4.668
 8901SOL     OW27601   1.335   5.032   5.186
 8901SOL    HW127602   1.283   4.954   5.152
 8901SOL    HW227603   1.420   5.001   5.228
 8902SOL     OW27604   0.543   5.172   6.459
 8902SOL    HW127605   0.498   5.141   6.543
 8902SOL    HW227606   0.474   5.207   6.396
 8903SOL     OW27607   0.678   0.438   4.833
 8903SOL    HW127608   0.614   0.513   4.848
 8903SOL    HW227609   0.741   0.462   4.759
 8904SOL     OW27610   0.105   1.297   3.220
 8904SOL    HW127611   0.128   1.386   3.258
 8904SOL    HW227612   0.148   1.225   3.274
 8905SOL     OW27613   2.057   4.587   1.553
 8905SOL    HW127614   2.111   4.564   1.471
 8905SOL    HW227615   1.994   4.512   1.573
 8906SOL     OW27616   6.164   0.694   6.762
 8906SOL    HW127617   6.170   0.794   6.766
 8906SOL    HW227618   6.117   0.661   6.844
 8907SOL     OW27619   2.628   3.202   5.347
 8907SOL    HW127620   2.569   3.181   5.269
 8907SOL    HW227621   2.580   3.178   5.432
 8908SOL     OW27622   1.588   5.799   5.967
 8908SOL    HW127623   1.555   5.888   5.935
 8908SOL    HW227624   1.685   5.805   5.988
 8909SOL     OW27625   2.548   6.051   2.008
 8909SOL    HW127626   2.510   6.141   2.028
 8909SOL    HW227627   2.578   6.007   2.093
 8910SOL     OW27628   1.176   0.999   3.782
 8910SOL    HW127629   1.096   0.951   3.819
 8910SOL    HW227630   1.249   0.933   3.764
 8911SOL     OW27631   5.295   2.901   4.380
 8911SOL    HW127632   5.353   2.894   4.299
 8911SOL    HW227633   5.204   2.865   4.360
 8912SOL     OW27634   3.648   2.856   3.633
 8912SOL    HW127635   3.554   2.869   3.665
 8912SOL    HW227636   3.646   2.831   3.536
 8913SOL     OW27637   5.144   5.547   1.221
 8913SOL    HW127638   5.121   5.514   1.129
 8913SOL    HW227639   5.075   5.611   1.252
 8914SOL     OW27640   4.854   5.598   5.238
 8914SOL    HW127641   4.934   5.558   5.192
 8914SOL    HW227642   4.853   5.570   5.334
 8915SOL     OW27643   2.486   0.803   3.822
 8915SOL    HW127644   2.424   0.725   3.830
 8915SOL    HW227645   2.531   0.802   3.733
 8916SOL     OW27646   6.102   0.716   2.258
 8916SOL    HW127647   6.178   0.679   2.203
 8916SOL    HW227648   6.126   0.808   2.290
 8917SOL     OW27649   5.623   2.369   0.550
 8917SOL    HW127650   5.719   2.352   0.576
 8917SOL    HW227651   5.619   2.448   0.489
 8918SOL     OW27652   1.414   3.363   2.837
 8918SOL    HW127653   1.469   3.432   2.884
 8918SOL    HW227654   1.389   3.291   2.901
 8919SOL     OW27655   6.302   2.948   2.641
 8919SOL    HW127656   6.301   2.877   2.711
 8919SOL    HW227657   6.209   2.964   2.608
 8920SOL     OW27658   0.946   1.965   0.732
 8920SOL    HW127659   0.946   2.021   0.649
 8920SOL    HW227660   0.858   1.918   0.740
 8921SOL     OW27661   0.883   2.606   1.327
 8921SOL    HW127662   0.946   2.684   1.327
 8921SOL    HW227663   0.936   2.522   1.342
 8922SOL     OW27664   3.000   4.903   3.382
 8922SOL    HW127665   3.000   4.933   3.478
 8922SOL    HW227666   2.909   4.871   3.357
 8923SOL     OW27667   2.492   1.468   3.602
 8923SOL    HW127668   2.468   1.477   3.699
 8923SOL    HW227669   2.410   1.447   3.549
 8924SOL     OW27670   6.241   4.974   4.786
 8924SOL    HW127671   6.277   5.067   4.779
 8924SOL    HW227672   6.291   4.914   4.723
 8925SOL     OW27673   0.456   6.778   3.818
 8925SOL    HW127674   0.422   6.793   3.725
 8925SOL    HW227675   0.484   6.682   3.829
 8926SOL     OW27676   5.856   2.231   0.051
 8926SOL    HW127677   5.828   2.325   0.071
 8926SOL    HW227678   5.949   2.230   0.013
 8927SOL     OW27679   1.147   1.465   6.608
 8927SOL    HW127680   1.161   1.475   6.509
 8927SOL    HW227681   1.050   1.480   6.629
 8928SOL     OW27682   1.693   6.844   5.631
 8928SOL    HW127683   1.727   6.823   5.540
 8928SOL    HW227684   1.712   6.940   5.653
 8929SOL     OW27685   0.023   1.511   3.545
 8929SOL    HW127686   0.001   1.557   3.459
 8929SOL    HW227687   6.972   1.523   3.609
 8930SOL     OW27688   2.340   5.700   2.934
 8930SOL    HW127689   2.378   5.614   2.899
 8930SOL    HW227690   2.269   5.732   2.871
 8931SOL     OW27691   4.186   3.154   6.994
 8931SOL    HW127692   4.256   3.191   0.030
 8931SOL    HW227693   4.113   3.222   6.982
 8932SOL     OW27694   0.234   4.005   2.620
 8932SOL    HW127695   0.282   3.977   2.702
 8932SOL    HW227696   0.294   3.995   2.540
 8933SOL     OW27697   5.085   1.855   6.091
 8933SOL    HW127698   5.144   1.804   6.028
 8933SOL    HW227699   5.122   1.849   6.183
 8934SOL     OW27700   2.336   6.061   3.019
 8934SOL    HW127701   2.376   6.149   3.044
 8934SOL    HW227702   2.255   6.076   2.963
 8935SOL     OW27703   0.142   5.602   6.841
 8935SOL    HW127704   0.103   5.542   6.911
 8935SOL    HW227705   0.100   5.581   6.752
 8936SOL     OW27706   4.363   2.901   1.031
 8936SOL    HW127707   4.337   2.850   1.112
 8936SOL    HW227708   4.282   2.943   0.991
 8937SOL     OW27709   0.465   1.408   6.422
 8937SOL    HW127710   0.428   1.463   6.497
 8937SOL    HW227711   0.556   1.442   6.396
 8938SOL     OW27712   4.543   5.944   1.939
 8938SOL    HW127713   4.603   5.896   2.004
 8938SOL    HW227714   4.564   5.913   1.846
 8939SOL     OW27715   5.605   2.110   4.342
 8939SOL    HW127716   5.524   2.124   4.398
 8939SOL    HW227717   5.682   2.087   4.401
 8940SOL     OW27718   5.382   6.906   2.427
 8940SOL    HW127719   5.384   6.957   2.341
 8940SOL    HW227720   5.470   6.859   2.440
 8941SOL     OW27721   3.763   1.609   0.007
 8941SOL    HW127722   3.845   1.648   0.050
 8941SOL    HW227723   3.789   1.567   6.945
 8942SOL     OW27724   1.285   2.264   5.994
 8942SOL    HW127725   1.228   2.236   5.917
 8942SOL    HW227726   1.357   2.326   5.961
 8943SOL     OW27727   5.240   3.869   0.696
 8943SOL    HW127728   5.234   3.810   0.777
 8943SOL    HW227729   5.164   3.935   0.698
 8944SOL     OW27730   4.202   5.679   1.419
 8944SOL    HW127731   4.176   5.748   1.487
 8944SOL    HW227732   4.266   5.614   1.461
 8945SOL     OW27733   2.313   0.997   3.964
 8945SOL    HW127734   2.223   1.037   3.947
 8945SOL    HW227735   2.331   0.925   3.897
 8946SOL     OW27736   3.752   0.732   4.584
 8946SOL    HW127737   3.799   0.806   4.631
 8946SOL    HW227738   3.786   0.644   4.618
 8947SOL     OW27739   3.875   3.576   5.102
 8947SOL    HW127740   3.926   3.641   5.046
 8947SOL    HW227741   3.937   3.505   5.137
 8948SOL     OW27742   5.487   4.700   3.535
 8948SOL    HW127743   5.507   4.702   3.437
 8948SOL    HW227744   5.456   4.791   3.564
 8949SOL     OW27745   1.466   5.609   5.788
 8949SOL    HW127746   1.378   5.564   5.807
 8949SOL    HW227747   1.479   5.684   5.851
 8950SOL     OW27748   4.724   2.791   4.560
 8950SOL    HW127749   4.656   2.728   4.523
 8950SOL    HW227750   4.764   2.753   4.643
 8951SOL     OW27751   3.061   2.517   5.493
 8951SOL    HW127752   3.087   2.430   5.451
 8951SOL    HW227753   2.965   2.537   5.472
 8952SOL     OW27754   6.291   6.657   3.374
 8952SOL    HW127755   6.282   6.732   3.307
 8952SOL    HW227756   6.379   6.611   3.361
 8953SOL     OW27757   1.319   5.015   5.554
 8953SOL    HW127758   1.332   4.982   5.648
 8953SOL    HW227759   1.221   5.017   5.533
 8954SOL     OW27760   2.757   6.259   6.187
 8954SOL    HW127761   2.842   6.295   6.149
 8954SOL    HW227762   2.775   6.218   6.276
 8955SOL     OW27763   6.800   3.863   4.351
 8955SOL    HW127764   6.723   3.855   4.288
 8955SOL    HW227765   6.836   3.772   4.371
 8956SOL     OW27766   0.835   0.543   4.598
 8956SOL    HW127767   0.904   0.564   4.528
 8956SOL    HW227768   0.815   0.445   4.597
 8957SOL     OW27769   3.522   6.072   1.868
 8957SOL    HW127770   3.503   6.013   1.789
 8957SOL    HW227771   3.492   6.165   1.848
 8958SOL     OW27772   3.099   0.367   4.367
 8958SOL    HW127773   3.074   0.304   4.441
 8958SOL    HW227774   3.019   0.390   4.313
 8959SOL     OW27775   3.868   5.430   6.962
 8959SOL    HW127776   3.880   5.449   0.034
 8959SOL    HW227777   3.837   5.513   6.916
 8960SOL     OW27778   4.322   5.886   0.749
 8960SOL    HW127779   4.239   5.941   0.760
 8960SOL    HW227780   4.348   5.847   0.837
 8961SOL     OW27781   0.743   2.995   3.982
 8961SOL    HW127782   0.750   3.086   4.021
 8961SOL    HW227783   0.700   3.000   3.892
 8962SOL     OW27784   4.790   0.586   3.939
 8962SOL    HW127785   4.843   0.611   3.858
 8962SOL    HW227786   4.705   0.638   3.940
 8963SOL     OW27787   0.640   1.011   4.287
 8963SOL    HW127788   0.644   0.972   4.195
 8963SOL    HW227789   0.629   1.110   4.282
 8964SOL     OW27790   0.045   3.230   2.858
 8964SOL    HW127791   0.132   3.189   2.885
 8964SOL    HW227792   7.019   3.254   2.941
 8965SOL     OW27793   1.993   4.934   1.138
 8965SOL    HW127794   1.942   4.966   1.058
 8965SOL    HW227795   1.946   4.964   1.221
 8966SOL     OW27796   3.967   1.899   5.167
 8966SOL    HW127797   3.993   1.991   5.140
 8966SOL    HW227798   3.874   1.900   5.205
 8967SOL     OW27799   5.271   6.459   0.626
 8967SOL    HW127800   5.203   6.386   0.628
 8967SOL    HW227801   5.345   6.433   0.564
 8968SOL     OW27802   5.693   4.110   3.543
 8968SOL    HW127803   5.634   4.040   3.505
 8968SOL    HW227804   5.666   4.200   3.508
 8969SOL     OW27805   6.751   0.026   4.011
 8969SOL    HW127806   6.729   6.991   3.935
 8969SOL    HW227807   6.792   6.999   4.085
 8970SOL     OW27808   3.180   2.811   1.420
 8970SOL    HW127809   3.083   2.815   1.443
 8970SOL    HW227810   3.227   2.890   1.459
 8971SOL     OW27811   3.861   6.033   2.965
 8971SOL    HW127812   3.812   5.948   2.985
 8971SOL    HW227813   3.823   6.107   3.019
 8972SOL     OW27814   4.740   0.165   4.806
 8972SOL    HW127815   4.823   0.142   4.755
 8972SOL    HW227816   4.756   0.249   4.859
 8973SOL     OW27817   2.060   4.910   6.382
 8973SOL    HW127818   1.964   4.940   6.385
 8973SOL    HW227819   2.099   4.933   6.293
 8974SOL     OW27820   0.458   3.091   3.856
 8974SOL    HW127821   0.492   3.174   3.899
 8974SOL    HW227822   0.363   3.103   3.830
 8975SOL     OW27823   3.480   0.926   5.847
 8975SOL    HW127824   3.577   0.943   5.862
 8975SOL    HW227825   3.434   1.011   5.824
 8976SOL     OW27826   1.574   5.724   4.092
 8976SOL    HW127827   1.556   5.777   4.009
 8976SOL    HW227828   1.669   5.692   4.091
 8977SOL     OW27829   5.356   1.733   0.184
 8977SOL    HW127830   5.445   1.763   0.219
 8977SOL    HW227831   5.357   1.737   0.084
 8978SOL     OW27832   5.832   5.415   1.262
 8978SOL    HW127833   5.734   5.414   1.243
 8978SOL    HW227834   5.863   5.323   1.285
 8979SOL     OW27835   0.896   4.581   4.686
 8979SOL    HW127836   0.816   4.589   4.745
 8979SOL    HW227837   0.935   4.489   4.695
 8980SOL     OW27838   3.480   3.009   4.186
 8980SOL    HW127839   3.579   2.993   4.189
 8980SOL    HW227840   3.445   3.021   4.279
 8981SOL     OW27841   2.665   1.728   5.300
 8981SOL    HW127842   2.720   1.657   5.255
 8981SOL    HW227843   2.583   1.746   5.246
 8982SOL     OW27844   3.338   4.912   0.252
 8982SOL    HW127845   3.403   4.970   0.300
 8982SOL    HW227846   3.387   4.852   0.189
 8983SOL     OW27847   4.793   4.466   0.805
 8983SOL    HW127848   4.735   4.548   0.801
 8983SOL    HW227849   4.787   4.426   0.897
 8984SOL     OW27850   1.472   6.694   3.623
 8984SOL    HW127851   1.472   6.658   3.530
 8984SOL    HW227852   1.566   6.714   3.651
 8985SOL     OW27853   3.014   3.332   6.224
 8985SOL    HW127854   3.073   3.311   6.146
 8985SOL    HW227855   3.061   3.395   6.286
 8986SOL     OW27856   2.853   6.259   2.172
 8986SOL    HW127857   2.924   6.326   2.149
 8986SOL    HW227858   2.895   6.170   2.185
 8987SOL     OW27859   5.283   6.622   2.249
 8987SOL    HW127860   5.370   6.625   2.199
 8987SOL    HW227861   5.241   6.712   2.248
 8988SOL     OW27862   0.429   4.469   4.805
 8988SOL    HW127863   0.418   4.448   4.902
 8988SOL    HW227864   0.382   4.400   4.750
 8989SOL     OW27865   2.344   2.366   6.716
 8989SOL    HW127866   2.409   2.379   6.641
 8989SOL    HW227867   2.262   2.421   6.699
 8990SOL     OW27868   6.943   4.879   3.656
 8990SOL    HW127869   7.022   4.851   3.601
 8990SOL    HW227870   6.970   4.952   3.719
 8991SOL     OW27871   1.274   2.371   5.612
 8991SOL    HW127872   1.215   2.405   5.539
 8991SOL    HW227873   1.225   2.300   5.664
 8992SOL     OW27874   6.334   2.367   1.430
 8992SOL    HW127875   6.384   2.290   1.469
 8992SOL    HW227876   6.399   2.437   1.400
 8993SOL     OW27877   4.360   2.167   0.733
 8993SOL    HW127878   4.341   2.253   0.686
 8993SOL    HW227879   4.417   2.109   0.675
 8994SOL     OW27880   1.535   5.772   2.440
 8994SOL    HW127881   1.496   5.743   2.528
 8994SOL    HW227882   1.633   5.754   2.440
 8995SOL     OW27883   0.625   0.193   1.687
 8995SOL    HW127884   0.586   0.141   1.611
 8995SOL    HW227885   0.658   0.281   1.654
 8996SOL     OW27886   4.298   5.979   5.734
 8996SOL    HW127887   4.279   6.054   5.670
 8996SOL    HW227888   4.213   5.935   5.760
 8997SOL     OW27889   6.424   0.423   4.894
 8997SOL    HW127890   6.390   0.331   4.913
 8997SOL    HW227891   6.487   0.450   4.967
 8998SOL     OW27892   6.862   4.184   4.798
 8998SOL    HW127893   6.781   4.241   4.818
 8998SOL    HW227894   6.847   4.135   4.713
 8999SOL     OW27895   4.335   5.930   6.175
 8999SOL    HW127896   4.340   5.881   6.262
 8999SOL    HW227897   4.241   5.933   6.144
 9000SOL     OW27898   0.896   3.882   1.542
 9000SOL    HW127899   0.916   3.979   1.554
 9000SOL    HW227900   0.982   3.830   1.542
 9001SOL     OW27901   1.577   5.651   0.960
 9001SOL    HW127902   1.594   5.595   1.041
 9001SOL    HW227903   1.658   5.707   0.941
 9002SOL     OW27904   6.800   5.339   6.067
 9002SOL    HW127905   6.841   5.426   6.037
 9002SOL    HW227906   6.870   5.268   6.067
 9003SOL     OW27907   5.261   0.074   0.830
 9003SOL    HW127908   5.168   0.104   0.809
 9003SOL    HW227909   5.268   0.055   0.928
 9004SOL     OW27910   6.106   5.265   1.573
 9004SOL    HW127911   6.095   5.300   1.666
 9004SOL    HW227912   6.018   5.234   1.538
 9005SOL     OW27913   4.896   0.818   5.012
 9005SOL    HW127914   4.972   0.868   5.054
 9005SOL    HW227915   4.811   0.841   5.059
 9006SOL     OW27916   4.024   6.079   0.489
 9006SOL    HW127917   3.961   6.139   0.441
 9006SOL    HW227918   4.106   6.130   0.515
 9007SOL     OW27919   0.932   1.175   3.139
 9007SOL    HW127920   1.007   1.114   3.110
 9007SOL    HW227921   0.939   1.262   3.090
 9008SOL     OW27922   0.234   5.145   2.578
 9008SOL    HW127923   0.195   5.075   2.518
 9008SOL    HW227924   0.213   5.122   2.673
 9009SOL     OW27925   3.093   6.593   2.061
 9009SOL    HW127926   3.120   6.505   2.101
 9009SOL    HW227927   3.027   6.638   2.121
 9010SOL     OW27928   1.527   5.695   4.466
 9010SOL    HW127929   1.541   5.631   4.542
 9010SOL    HW227930   1.502   5.785   4.502
 9011SOL     OW27931   2.028   2.241   2.259
 9011SOL    HW127932   2.017   2.310   2.330
 9011SOL    HW227933   2.123   2.209   2.258
 9012SOL     OW27934   2.419   5.881   6.910
 9012SOL    HW127935   2.328   5.898   6.949
 9012SOL    HW227936   2.441   5.784   6.919
 9013SOL     OW27937   2.197   0.543   4.722
 9013SOL    HW127938   2.200   0.460   4.778
 9013SOL    HW227939   2.279   0.548   4.666
 9014SOL     OW27940   5.163   3.056   3.314
 9014SOL    HW127941   5.212   3.117   3.252
 9014SOL    HW227942   5.114   3.111   3.382
 9015SOL     OW27943   4.626   0.041   6.125
 9015SOL    HW127944   4.561   0.112   6.148
 9015SOL    HW227945   4.593   7.014   6.047
 9016SOL     OW27946   5.004   4.650   5.911
 9016SOL    HW127947   4.937   4.636   5.839
 9016SOL    HW227948   5.046   4.740   5.901
 9017SOL     OW27949   3.361   0.257   5.305
 9017SOL    HW127950   3.298   0.335   5.307
 9017SOL    HW227951   3.310   0.173   5.294
 9018SOL     OW27952   3.556   5.054   0.375
 9018SOL    HW127953   3.551   5.118   0.451
 9018SOL    HW227954   3.593   5.100   0.294
 9019SOL     OW27955   0.486   3.389   3.667
 9019SOL    HW127956   0.528   3.471   3.627
 9019SOL    HW227957   0.548   3.349   3.734
 9020SOL     OW27958   5.790   4.640   3.345
 9020SOL    HW127959   5.738   4.609   3.265
 9020SOL    HW227960   5.786   4.740   3.350
 9021SOL     OW27961   7.017   1.513   4.341
 9021SOL    HW127962   7.015   1.551   4.434
 9021SOL    HW227963   0.004   1.586   4.275
 9022SOL     OW27964   4.615   3.618   6.854
 9022SOL    HW127965   4.691   3.608   6.791
 9022SOL    HW227966   4.625   3.703   6.905
 9023SOL     OW27967   0.416   4.736   0.389
 9023SOL    HW127968   0.393   4.833   0.379
 9023SOL    HW227969   0.421   4.713   0.486
 9024SOL     OW27970   2.351   5.171   6.347
 9024SOL    HW127971   2.282   5.240   6.369
 9024SOL    HW227972   2.311   5.103   6.286
 9025SOL     OW27973   0.886   6.159   1.044
 9025SOL    HW127974   0.959   6.092   1.054
 9025SOL    HW227975   0.798   6.111   1.035
 9026SOL     OW27976   5.463   0.831   0.566
 9026SOL    HW127977   5.553   0.787   0.574
 9026SOL    HW227978   5.475   0.922   0.526
 9027SOL     OW27979   0.209   3.773   3.159
 9027SOL    HW127980   0.241   3.791   3.252
 9027SOL    HW227981   0.273   3.711   3.114
 9028SOL     OW27982   3.283   4.943   6.383
 9028SOL    HW127983   3.233   4.930   6.297
 9028SOL    HW227984   3.256   5.030   6.425
 9029SOL     OW27985   4.383   6.486   4.632
 9029SOL    HW127986   4.411   6.518   4.722
 9029SOL    HW227987   4.414   6.551   4.563
 9030SOL     OW27988   2.786   2.280   2.313
 9030SOL    HW127989   2.769   2.306   2.218
 9030SOL    HW227990   2.875   2.237   2.321
 9031SOL     OW27991   4.870   6.884   4.980
 9031SOL    HW127992   4.841   6.962   5.036
 9031SOL    HW227993   4.903   6.917   4.892
 9032SOL     OW27994   5.378   2.641   1.025
 9032SOL    HW127995   5.424   2.580   1.089
 9032SOL    HW227996   5.408   2.735   1.041
 9033SOL     OW27997   1.453   6.413   2.980
 9033SOL    HW127998   1.421   6.335   3.034
 9033SOL    HW227999   1.528   6.457   3.027
 9034SOL     OW28000   4.765   6.575   4.346
 9034SOL    HW128001   4.826   6.559   4.268
 9034SOL    HW228002   4.818   6.614   4.422
 9035SOL     OW28003   3.420   4.834   5.914
 9035SOL    HW128004   3.376   4.866   5.830
 9035SOL    HW228005   3.519   4.836   5.903
 9036SOL     OW28006   0.577   4.911   5.503
 9036SOL    HW128007   0.556   4.919   5.405
 9036SOL    HW228008   0.561   5.000   5.547
 9037SOL     OW28009   0.205   0.666   2.018
 9037SOL    HW128010   0.210   0.659   2.118
 9037SOL    HW228011   0.234   0.579   1.977
 9038SOL     OW28012   3.996   3.290   5.959
 9038SOL    HW128013   3.914   3.304   6.015
 9038SOL    HW228014   3.984   3.335   5.870
 9039SOL     OW28015   4.371   6.433   6.912
 9039SOL    HW128016   4.339   6.527   6.896
 9039SOL    HW228017   4.299   6.369   6.885
 9040SOL     OW28018   1.991   2.298   1.549
 9040SOL    HW128019   1.972   2.214   1.601
 9040SOL    HW228020   2.056   2.354   1.600
 9041SOL     OW28021   6.116   2.260   2.819
 9041SOL    HW128022   6.174   2.340   2.804
 9041SOL    HW228023   6.038   2.284   2.876
 9042SOL     OW28024   5.352   5.681   6.807
 9042SOL    HW128025   5.254   5.670   6.824
 9042SOL    HW228026   5.370   5.775   6.776
 9043SOL     OW28027   2.781   3.167   1.794
 9043SOL    HW128028   2.687   3.196   1.776
 9043SOL    HW228029   2.792   3.072   1.766
 9044SOL     OW28030   1.507   0.474   0.344
 9044SOL    HW128031   1.479   0.541   0.413
 9044SOL    HW228032   1.536   0.522   0.261
 9045SOL     OW28033   3.796   0.697   3.887
 9045SOL    HW128034   3.870   0.695   3.820
 9045SOL    HW228035   3.710   0.671   3.842
 9046SOL     OW28036   4.081   3.235   2.281
 9046SOL    HW128037   4.154   3.294   2.247
 9046SOL    HW228038   4.046   3.178   2.206
 9047SOL     OW28039   0.501   4.478   5.723
 9047SOL    HW128040   0.498   4.504   5.820
 9047SOL    HW228041   0.515   4.559   5.666
 9048SOL     OW28042   6.886   1.626   5.237
 9048SOL    HW128043   6.864   1.687   5.313
 9048SOL    HW228044   6.985   1.615   5.231
 9049SOL     OW28045   2.204   6.552   5.441
 9049SOL    HW128046   2.134   6.485   5.466
 9049SOL    HW228047   2.186   6.585   5.348
 9050SOL     OW28048   1.034   4.331   0.660
 9050SOL    HW128049   0.979   4.347   0.742
 9050SOL    HW228050   1.063   4.419   0.622
 9051SOL     OW28051   2.257   0.738   1.810
 9051SOL    HW128052   2.170   0.724   1.858
 9051SOL    HW228053   2.267   0.834   1.786
 9052SOL     OW28054   2.380   3.704   6.438
 9052SOL    HW128055   2.318   3.775   6.470
 9052SOL    HW228056   2.347   3.614   6.468
 9053SOL     OW28057   0.408   1.163   6.898
 9053SOL    HW128058   0.484   1.104   6.926
 9053SOL    HW228059   0.443   1.253   6.873
 9054SOL     OW28060   1.506   5.542   2.814
 9054SOL    HW128061   1.476   5.624   2.766
 9054SOL    HW228062   1.432   5.475   2.817
 9055SOL     OW28063   0.531   2.355   6.164
 9055SOL    HW128064   0.587   2.422   6.114
 9055SOL    HW228065   0.559   2.263   6.137
 9056SOL     OW28066   5.776   1.654   4.108
 9056SOL    HW128067   5.680   1.626   4.114
 9056SOL    HW228068   5.783   1.753   4.123
 9057SOL     OW28069   4.863   1.852   3.672
 9057SOL    HW128070   4.926   1.802   3.732
 9057SOL    HW228071   4.898   1.851   3.579
 9058SOL     OW28072   2.264   0.199   6.065
 9058SOL    HW128073   2.290   0.289   6.098
 9058SOL    HW228074   2.277   0.194   5.966
 9059SOL     OW28075   1.255   2.359   3.783
 9059SOL    HW128076   1.330   2.292   3.780
 9059SOL    HW228077   1.172   2.315   3.816
 9060SOL     OW28078   5.253   3.141   5.222
 9060SOL    HW128079   5.332   3.185   5.180
 9060SOL    HW228080   5.271   3.042   5.230
 9061SOL     OW28081   1.795   4.663   3.431
 9061SOL    HW128082   1.764   4.755   3.453
 9061SOL    HW228083   1.869   4.667   3.363
 9062SOL     OW28084   1.752   6.100   1.609
 9062SOL    HW128085   1.664   6.071   1.570
 9062SOL    HW228086   1.768   6.051   1.694
 9063SOL     OW28087   2.953   1.872   2.591
 9063SOL    HW128088   2.993   1.790   2.632
 9063SOL    HW228089   3.021   1.945   2.587
 9064SOL     OW28090   4.954   4.154   0.031
 9064SOL    HW128091   4.942   4.145   6.958
 9064SOL    HW228092   4.888   4.220   0.066
 9065SOL     OW28093   2.774   0.966   1.623
 9065SOL    HW128094   2.720   0.935   1.701
 9065SOL    HW228095   2.827   1.047   1.649
 9066SOL     OW28096   5.320   7.023   0.225
 9066SOL    HW128097   5.351   6.990   0.314
 9066SOL    HW228098   5.343   6.956   0.155
 9067SOL     OW28099   1.097   0.249   1.533
 9067SOL    HW128100   1.079   0.154   1.559
 9067SOL    HW228101   1.153   0.293   1.603
 9068SOL     OW28102   1.368   6.241   5.939
 9068SOL    HW128103   1.315   6.280   6.015
 9068SOL    HW228104   1.312   6.238   5.857
 9069SOL     OW28105   1.301   2.275   6.266
 9069SOL    HW128106   1.283   2.293   6.169
 9069SOL    HW228107   1.232   2.321   6.321
 9070SOL     OW28108   1.532   4.640   4.119
 9070SOL    HW128109   1.559   4.735   4.136
 9070SOL    HW228110   1.443   4.638   4.075
 9071SOL     OW28111   5.085   5.732   6.837
 9071SOL    HW128112   5.040   5.705   6.922
 9071SOL    HW228113   5.107   5.829   6.841
 9072SOL     OW28114   4.871   4.696   0.460
 9072SOL    HW128115   4.871   4.791   0.429
 9072SOL    HW228116   4.797   4.682   0.525
 9073SOL     OW28117   2.311   0.163   1.189
 9073SOL    HW128118   2.297   0.138   1.285
 9073SOL    HW228119   2.326   0.080   1.135
 9074SOL     OW28120   0.555   0.320   2.292
 9074SOL    HW128121   0.565   0.409   2.248
 9074SOL    HW228122   0.507   0.258   2.231
 9075SOL     OW28123   7.018   0.299   1.421
 9075SOL    HW128124   0.041   0.315   1.507
 9075SOL    HW228125   0.039   0.226   1.370
 9076SOL     OW28126   1.140   2.180   5.769
 9076SOL    HW128127   1.049   2.169   5.728
 9076SOL    HW228128   1.196   2.100   5.749
 9077SOL     OW28129   5.788   6.367   2.316
 9077SOL    HW128130   5.769   6.284   2.263
 9077SOL    HW228131   5.704   6.420   2.326
 9078SOL     OW28132   4.353   3.231   5.780
 9078SOL    HW128133   4.303   3.208   5.864
 9078SOL    HW228134   4.399   3.318   5.792
 9079SOL     OW28135   3.028   0.297   5.416
 9079SOL    HW128136   3.067   0.389   5.417
 9079SOL    HW228137   2.989   0.277   5.506
 9080SOL     OW28138   4.501   1.036   6.823
 9080SOL    HW128139   4.438   1.073   6.754
 9080SOL    HW228140   4.452   0.973   6.883
 9081SOL     OW28141   5.538   0.233   3.534
 9081SOL    HW128142   5.497   0.143   3.550
 9081SOL    HW228143   5.471   0.304   3.555
 9082SOL     OW28144   2.125   0.759   2.143
 9082SOL    HW128145   2.084   0.750   2.053
 9082SOL    HW228146   2.108   0.676   2.196
 9083SOL     OW28147   4.540   4.810   3.639
 9083SOL    HW128148   4.597   4.748   3.692
 9083SOL    HW228149   4.448   4.811   3.675
 9084SOL     OW28150   3.874   3.837   2.472
 9084SOL    HW128151   3.936   3.841   2.394
 9084SOL    HW228152   3.881   3.748   2.516
 9085SOL     OW28153   0.767   2.341   0.999
 9085SOL    HW128154   0.847   2.377   1.048
 9085SOL    HW228155   0.772   2.368   0.903
 9086SOL     OW28156   6.749   3.840   6.823
 9086SOL    HW128157   6.655   3.873   6.828
 9086SOL    HW228158   6.811   3.918   6.812
 9087SOL     OW28159   5.505   3.609   2.032
 9087SOL    HW128160   5.414   3.599   2.073
 9087SOL    HW228161   5.532   3.522   1.990
 9088SOL     OW28162   5.165   4.870   2.046
 9088SOL    HW128163   5.175   4.800   2.117
 9088SOL    HW228164   5.137   4.956   2.087
 9089SOL     OW28165   4.175   0.951   5.754
 9089SOL    HW128166   4.153   0.878   5.819
 9089SOL    HW228167   4.165   1.040   5.798
 9090SOL     OW28168   6.157   1.613   3.827
 9090SOL    HW128169   6.254   1.597   3.847
 9090SOL    HW228170   6.113   1.656   3.906
 9091SOL     OW28171   4.205   2.751   5.818
 9091SOL    HW128172   4.189   2.746   5.917
 9091SOL    HW228173   4.242   2.664   5.786
 9092SOL     OW28174   6.667   3.319   6.324
 9092SOL    HW128175   6.724   3.277   6.395
 9092SOL    HW228176   6.708   3.405   6.294
 9093SOL     OW28177   2.466   6.233   4.997
 9093SOL    HW128178   2.498   6.313   5.048
 9093SOL    HW228179   2.386   6.195   5.041
 9094SOL     OW28180   1.740   3.625   0.523
 9094SOL    HW128181   1.802   3.564   0.572
 9094SOL    HW228182   1.782   3.653   0.436
 9095SOL     OW28183   0.412   0.091   6.429
 9095SOL    HW128184   0.511   0.100   6.418
 9095SOL    HW228185   0.393   0.020   6.496
 9096SOL     OW28186   6.429   5.336   3.930
 9096SOL    HW128187   6.404   5.307   3.838
 9096SOL    HW228188   6.366   5.295   3.996
 9097SOL     OW28189   1.278   3.449   6.664
 9097SOL    HW128190   1.237   3.360   6.644
 9097SOL    HW228191   1.375   3.446   6.641
 9098SOL     OW28192   1.885   5.123   3.934
 9098SOL    HW128193   1.877   5.033   3.891
 9098SOL    HW228194   1.813   5.183   3.899
 9099SOL     OW28195   2.545   1.651   6.319
 9099SOL    HW128196   2.477   1.710   6.362
 9099SOL    HW228197   2.624   1.642   6.380
 9100SOL     OW28198   1.478   4.762   4.437
 9100SOL    HW128199   1.568   4.770   4.480
 9100SOL    HW228200   1.474   4.820   4.356
 9101SOL     OW28201   0.215   2.151   0.977
 9101SOL    HW128202   0.224   2.211   0.898
 9101SOL    HW228203   0.239   2.201   1.060
 9102SOL     OW28204   3.701   0.945   2.949
 9102SOL    HW128205   3.699   0.846   2.941
 9102SOL    HW228206   3.796   0.976   2.960
 9103SOL     OW28207   6.643   0.073   1.484
 9103SOL    HW128208   6.625   0.168   1.512
 9103SOL    HW228209   6.563   0.039   1.434
 9104SOL     OW28210   5.773   2.307   6.028
 9104SOL    HW128211   5.708   2.349   6.091
 9104SOL    HW228212   5.723   2.268   5.951
 9105SOL     OW28213   2.829   0.524   0.036
 9105SOL    HW128214   2.794   0.433   0.016
 9105SOL    HW228215   2.928   0.519   0.053
 9106SOL     OW28216   2.563   2.922   6.224
 9106SOL    HW128217   2.530   3.013   6.201
 9106SOL    HW228218   2.638   2.898   6.163
 9107SOL     OW28219   3.464   0.855   0.869
 9107SOL    HW128220   3.382   0.800   0.851
 9107SOL    HW228221   3.438   0.942   0.910
 9108SOL     OW28222   6.313   6.309   5.984
 9108SOL    HW128223   6.318   6.384   5.919
 9108SOL    HW228224   6.218   6.295   6.013
 9109SOL     OW28225   5.615   4.383   3.456
 9109SOL    HW128226   5.528   4.413   3.495
 9109SOL    HW228227   5.681   4.459   3.458
 9110SOL     OW28228   1.274   6.826   2.247
 9110SOL    HW128229   1.371   6.845   2.265
 9110SOL    HW228230   1.257   6.832   2.149
 9111SOL     OW28231   4.136   3.001   5.663
 9111SOL    HW128232   4.180   3.081   5.705
 9111SOL    HW228233   4.159   2.920   5.716
 9112SOL     OW28234   0.610   4.363   1.882
 9112SOL    HW128235   0.635   4.266   1.882
 9112SOL    HW228236   0.514   4.373   1.910
 9113SOL     OW28237   5.537   0.221   4.336
 9113SOL    HW128238   5.632   0.202   4.311
 9113SOL    HW228239   5.484   0.136   4.329
 9114SOL     OW28240   0.738   1.478   6.339
 9114SOL    HW128241   0.730   1.573   6.372
 9114SOL    HW228242   0.809   1.431   6.392
 9115SOL     OW28243   4.869   3.677   4.511
 9115SOL    HW128244   4.920   3.596   4.542
 9115SOL    HW228245   4.830   3.659   4.421
 9116SOL     OW28246   0.799   5.119   3.811
 9116SOL    HW128247   0.727   5.187   3.822
 9116SOL    HW228248   0.823   5.081   3.900
 9117SOL     OW28249   2.183   6.703   0.261
 9117SOL    HW128250   2.135   6.680   0.345
 9117SOL    HW228251   2.218   6.796   0.267
 9118SOL     OW28252   6.802   5.062   1.443
 9118SOL    HW128253   6.795   5.159   1.416
 9118SOL    HW228254   6.789   5.054   1.541
 9119SOL     OW28255   3.375   1.072   1.009
 9119SOL    HW128256   3.370   1.155   0.953
 9119SOL    HW228257   3.409   1.095   1.100
 9120SOL     OW28258   6.238   4.326   4.777
 9120SOL    HW128259   6.148   4.346   4.815
 9120SOL    HW228260   6.290   4.270   4.841
 9121SOL     OW28261   4.077   1.337   4.564
 9121SOL    HW128262   4.154   1.308   4.506
 9121SOL    HW228263   4.039   1.422   4.529
 9122SOL     OW28264   0.109   1.706   1.901
 9122SOL    HW128265   0.149   1.797   1.888
 9122SOL    HW228266   0.157   1.658   1.974
 9123SOL     OW28267   0.852   6.541   4.931
 9123SOL    HW128268   0.922   6.527   5.001
 9123SOL    HW228269   0.884   6.506   4.843
 9124SOL     OW28270   3.645   5.829   0.437
 9124SOL    HW128271   3.709   5.886   0.488
 9124SOL    HW228272   3.692   5.784   0.361
 9125SOL     OW28273   5.181   6.442   1.591
 9125SOL    HW128274   5.216   6.368   1.650
 9125SOL    HW228275   5.124   6.503   1.646
 9126SOL     OW28276   3.671   5.331   0.468
 9126SOL    HW128277   3.644   5.353   0.375
 9126SOL    HW228278   3.643   5.405   0.529
 9127SOL     OW28279   6.720   4.430   5.452
 9127SOL    HW128280   6.636   4.414   5.504
 9127SOL    HW228281   6.800   4.418   5.512
 9128SOL     OW28282   5.419   3.629   6.581
 9128SOL    HW128283   5.441   3.636   6.484
 9128SOL    HW228284   5.445   3.713   6.628
 9129SOL     OW28285   0.276   2.788   0.951
 9129SOL    HW128286   0.217   2.869   0.959
 9129SOL    HW228287   0.293   2.750   1.042
 9130SOL     OW28288   2.775   3.347   6.091
 9130SOL    HW128289   2.775   3.250   6.068
 9130SOL    HW228290   2.863   3.371   6.133
 9131SOL     OW28291   6.282   3.241   0.587
 9131SOL    HW128292   6.349   3.172   0.618
 9131SOL    HW228293   6.200   3.195   0.554
 9132SOL     OW28294   0.917   3.958   3.912
 9132SOL    HW128295   0.874   4.048   3.917
 9132SOL    HW228296   1.016   3.969   3.907
 9133SOL     OW28297   5.491   0.291   0.873
 9133SOL    HW128298   5.564   0.223   0.880
 9133SOL    HW228299   5.406   0.253   0.910
 9134SOL     OW28300   5.010   4.345   6.556
 9134SOL    HW128301   4.998   4.406   6.477
 9134SOL    HW228302   5.040   4.255   6.524
 9135SOL     OW28303   6.956   5.356   2.411
 9135SOL    HW128304   6.969   5.441   2.360
 9135SOL    HW228305   0.004   5.345   2.478
 9136SOL     OW28306   0.888   5.488   6.558
 9136SOL    HW128307   0.915   5.397   6.589
 9136SOL    HW228308   0.951   5.556   6.596
 9137SOL     OW28309   5.880   5.419   6.011
 9137SOL    HW128310   5.841   5.478   6.082
 9137SOL    HW228311   5.811   5.352   5.981
 9138SOL     OW28312   1.438   4.310   6.361
 9138SOL    HW128313   1.391   4.243   6.304
 9138SOL    HW228314   1.485   4.376   6.304
 9139SOL     OW28315   0.333   7.004   1.321
 9139SOL    HW128316   0.326   6.905   1.325
 9139SOL    HW228317   0.401   0.010   1.387
 9140SOL     OW28318   0.998   4.284   2.771
 9140SOL    HW128319   0.924   4.256   2.711
 9140SOL    HW228320   0.972   4.265   2.866
 9141SOL     OW28321   0.406   6.019   4.661
 9141SOL    HW128322   0.392   5.963   4.580
 9141SOL    HW228323   0.370   6.111   4.645
 9142SOL     OW28324   1.000   5.152   3.519
 9142SOL    HW128325   0.905   5.181   3.510
 9142SOL    HW228326   1.020   5.081   3.451
 9143SOL     OW28327   5.656   3.715   2.253
 9143SOL    HW128328   5.637   3.651   2.328
 9143SOL    HW228329   5.622   3.676   2.167
 9144SOL     OW28330   2.791   4.291   5.330
 9144SOL    HW128331   2.813   4.308   5.426
 9144SOL    HW228332   2.833   4.362   5.274
 9145SOL     OW28333   2.981   6.424   6.466
 9145SOL    HW128334   3.045   6.441   6.540
 9145SOL    HW228335   3.015   6.350   6.407
 9146SOL     OW28336   5.557   1.865   4.522
 9146SOL    HW128337   5.618   1.941   4.547
 9146SOL    HW228338   5.467   1.881   4.562
 9147SOL     OW28339   4.395   0.486   6.437
 9147SOL    HW128340   4.363   0.413   6.497
 9147SOL    HW228341   4.434   0.560   6.492
 9148SOL     OW28342   4.039   5.458   2.380
 9148SOL    HW128343   3.998   5.510   2.304
 9148SOL    HW228344   4.001   5.366   2.381
 9149SOL     OW28345   1.037   4.116   1.423
 9149SOL    HW128346   1.114   4.130   1.485
 9149SOL    HW228347   1.006   4.204   1.387
 9150SOL     OW28348   3.771   3.556   6.780
 9150SOL    HW128349   3.695   3.566   6.717
 9150SOL    HW228350   3.741   3.507   6.862
 9151SOL     OW28351   2.158   3.533   4.202
 9151SOL    HW128352   2.240   3.480   4.183
 9151SOL    HW228353   2.096   3.529   4.124
 9152SOL     OW28354   2.131   5.271   1.752
 9152SOL    HW128355   2.135   5.286   1.653
 9152SOL    HW228356   2.146   5.174   1.772
 9153SOL     OW28357   0.900   3.883   0.134
 9153SOL    HW128358   0.817   3.905   0.185
 9153SOL    HW228359   0.887   3.799   0.082
 9154SOL     OW28360   4.682   5.480   2.997
 9154SOL    HW128361   4.778   5.503   2.982
 9154SOL    HW228362   4.636   5.464   2.910
 9155SOL     OW28363   0.984   6.307   2.485
 9155SOL    HW128364   1.058   6.364   2.520
 9155SOL    HW228365   0.896   6.343   2.515
 9156SOL     OW28366   6.979   4.548   5.612
 9156SOL    HW128367   0.014   4.523   5.687
 9156SOL    HW228368   6.992   4.484   5.536
 9157SOL     OW28369   1.908   4.612   5.105
 9157SOL    HW128370   1.868   4.521   5.116
 9157SOL    HW228371   1.976   4.611   5.032
 9158SOL     OW28372   6.520   2.198   3.830
 9158SOL    HW128373   6.461   2.169   3.755
 9158SOL    HW228374   6.509   2.296   3.846
 9159SOL     OW28375   2.147   0.623   3.688
 9159SOL    HW128376   2.103   0.534   3.683
 9159SOL    HW228377   2.154   0.651   3.783
 9160SOL     OW28378   0.846   3.570   6.650
 9160SOL    HW128379   0.938   3.605   6.669
 9160SOL    HW228380   0.809   3.617   6.570
 9161SOL     OW28381   5.766   3.130   2.609
 9161SOL    HW128382   5.735   3.067   2.538
 9161SOL    HW228383   5.690   3.188   2.638
 9162SOL     OW28384   4.851   2.029   2.286
 9162SOL    HW128385   4.936   2.081   2.295
 9162SOL    HW228386   4.806   2.052   2.200
 9163SOL     OW28387   2.180   3.630   3.348
 9163SOL    HW128388   2.192   3.680   3.262
 9163SOL    HW228389   2.196   3.692   3.424
 9164SOL     OW28390   3.525   0.356   0.557
 9164SOL    HW128391   3.459   0.420   0.595
 9164SOL    HW228392   3.616   0.375   0.595
 9165SOL     OW28393   6.133   0.872   6.341
 9165SOL    HW128394   6.080   0.790   6.361
 9165SOL    HW228395   6.229   0.857   6.367
 9166SOL     OW28396   4.325   5.867   1.610
 9166SOL    HW128397   4.397   5.890   1.545
 9166SOL    HW228398   4.259   5.942   1.615
 9167SOL     OW28399   1.184   2.996   5.167
 9167SOL    HW128400   1.262   2.967   5.222
 9167SOL    HW228401   1.201   2.975   5.070
 9168SOL     OW28402   6.137   5.910   4.648
 9168SOL    HW128403   6.121   5.830   4.705
 9168SOL    HW228404   6.050   5.955   4.628
 9169SOL     OW28405   6.179   5.903   0.414
 9169SOL    HW128406   6.268   5.940   0.441
 9169SOL    HW228407   6.156   5.825   0.473
 9170SOL     OW28408   1.696   0.379   5.190
 9170SOL    HW128409   1.659   0.432   5.266
 9170SOL    HW228410   1.707   0.438   5.110
 9171SOL     OW28411   4.482   5.975   0.083
 9171SOL    HW128412   4.514   5.899   0.026
 9171SOL    HW228413   4.517   6.061   0.047
 9172SOL     OW28414   5.242   0.851   6.026
 9172SOL    HW128415   5.156   0.892   5.995
 9172SOL    HW228416   5.260   0.767   5.973
 9173SOL     OW28417   5.864   4.585   6.028
 9173SOL    HW128418   5.913   4.667   5.997
 9173SOL    HW228419   5.920   4.504   6.010
 9174SOL     OW28420   5.988   5.049   6.898
 9174SOL    HW128421   6.005   5.073   6.802
 9174SOL    HW228422   6.075   5.028   6.943
 9175SOL     OW28423   1.972   1.092   1.309
 9175SOL    HW128424   1.998   1.012   1.254
 9175SOL    HW228425   1.985   1.072   1.406
 9176SOL     OW28426   1.406   0.160   2.267
 9176SOL    HW128427   1.357   0.247   2.260
 9176SOL    HW228428   1.402   0.113   2.178
 9177SOL     OW28429   0.447   5.768   3.685
 9177SOL    HW128430   0.445   5.808   3.777
 9177SOL    HW228431   0.482   5.675   3.690
 9178SOL     OW28432   1.021   3.416   1.048
 9178SOL    HW128433   1.058   3.506   1.070
 9178SOL    HW228434   1.096   3.357   1.018
 9179SOL     OW28435   4.005   5.397   2.635
 9179SOL    HW128436   4.023   5.454   2.554
 9179SOL    HW228437   3.906   5.396   2.652
 9180SOL     OW28438   7.018   1.015   5.301
 9180SOL    HW128439   6.930   0.971   5.282
 9180SOL    HW228440   0.064   0.973   5.245
 9181SOL     OW28441   2.957   2.242   3.300
 9181SOL    HW128442   2.918   2.253   3.392
 9181SOL    HW228443   3.053   2.218   3.307
 9182SOL     OW28444   6.877   1.431   3.183
 9182SOL    HW128445   6.954   1.371   3.204
 9182SOL    HW228446   6.797   1.401   3.236
 9183SOL     OW28447   3.125   1.998   5.357
 9183SOL    HW128448   3.067   1.929   5.400
 9183SOL    HW228449   3.100   2.007   5.260
 9184SOL     OW28450   2.988   5.062   1.181
 9184SOL    HW128451   3.054   5.002   1.226
 9184SOL    HW228452   2.954   5.129   1.247
 9185SOL     OW28453   0.502   0.859   5.224
 9185SOL    HW128454   0.534   0.768   5.199
 9185SOL    HW228455   0.476   0.859   5.321
 9186SOL     OW28456   5.391   6.697   5.851
 9186SOL    HW128457   5.412   6.609   5.893
 9186SOL    HW228458   5.457   6.715   5.778
 9187SOL     OW28459   5.161   3.470   1.083
 9187SOL    HW128460   5.156   3.401   1.011
 9187SOL    HW228461   5.068   3.501   1.106
 9188SOL     OW28462   0.868   0.849   2.774
 9188SOL    HW128463   0.769   0.833   2.772
 9188SOL    HW228464   0.914   0.769   2.812
 9189SOL     OW28465   2.907   0.430   6.635
 9189SOL    HW128466   2.891   0.523   6.668
 9189SOL    HW228467   3.000   0.402   6.659
 9190SOL     OW28468   3.833   0.745   6.033
 9190SOL    HW128469   3.825   0.806   5.954
 9190SOL    HW228470   3.909   0.774   6.090
 9191SOL     OW28471   5.409   0.102   1.407
 9191SOL    HW128472   5.406   0.041   1.486
 9191SOL    HW228473   5.324   0.155   1.401
 9192SOL     OW28474   4.475   4.804   4.303
 9192SOL    HW128475   4.405   4.767   4.363
 9192SOL    HW228476   4.516   4.884   4.345
 9193SOL     OW28477   3.914   3.198   2.467
 9193SOL    HW128478   3.875   3.108   2.449
 9193SOL    HW228479   3.988   3.217   2.403
 9194SOL     OW28480   2.851   5.108   3.302
 9194SOL    HW128481   2.904   5.024   3.307
 9194SOL    HW228482   2.757   5.087   3.274
 9195SOL     OW28483   0.194   3.095   3.801
 9195SOL    HW128484   0.141   3.179   3.805
 9195SOL    HW228485   0.145   3.022   3.847
 9196SOL     OW28486   5.561   5.684   3.551
 9196SOL    HW128487   5.509   5.610   3.594
 9196SOL    HW228488   5.657   5.676   3.576
 9197SOL     OW28489   4.350   2.156   6.883
 9197SOL    HW128490   4.340   2.139   6.785
 9197SOL    HW228491   4.321   2.250   6.904
 9198SOL     OW28492   6.247   2.490   4.799
 9198SOL    HW128493   6.292   2.568   4.756
 9198SOL    HW228494   6.157   2.477   4.758
 9199SOL     OW28495   1.101   3.635   6.591
 9199SOL    HW128496   1.131   3.724   6.625
 9199SOL    HW228497   1.172   3.567   6.608
 9200SOL     OW28498   4.553   6.226   2.006
 9200SOL    HW128499   4.550   6.137   1.960
 9200SOL    HW228500   4.628   6.227   2.072
 9201SOL     OW28501   6.963   2.886   2.456
 9201SOL    HW128502   6.974   2.915   2.551
 9201SOL    HW228503   0.027   2.880   2.412
 9202SOL     OW28504   1.711   5.861   3.612
 9202SOL    HW128505   1.699   5.934   3.545
 9202SOL    HW228506   1.802   5.868   3.652
 9203SOL     OW28507   5.139   2.183   0.751
 9203SOL    HW128508   5.129   2.093   0.709
 9203SOL    HW228509   5.146   2.173   0.851
 9204SOL     OW28510   4.695   4.730   1.820
 9204SOL    HW128511   4.769   4.675   1.859
 9204SOL    HW228512   4.611   4.676   1.821
 9205SOL     OW28513   4.404   2.185   0.998
 9205SOL    HW128514   4.407   2.181   0.898
 9205SOL    HW228515   4.310   2.200   1.029
 9206SOL     OW28516   6.926   0.054   5.325
 9206SOL    HW128517   6.916   6.986   5.291
 9206SOL    HW228518   6.872   0.064   5.409
 9207SOL     OW28519   5.752   6.631   0.307
 9207SOL    HW128520   5.750   6.694   0.384
 9207SOL    HW228521   5.659   6.608   0.279
 9208SOL     OW28522   5.548   4.976   1.211
 9208SOL    HW128523   5.492   5.057   1.229
 9208SOL    HW228524   5.641   4.994   1.243
 9209SOL     OW28525   5.108   0.522   4.551
 9209SOL    HW128526   5.116   0.431   4.509
 9209SOL    HW228527   5.013   0.539   4.575
 9210SOL     OW28528   1.414   6.705   0.150
 9210SOL    HW128529   1.412   6.609   0.177
 9210SOL    HW228530   1.373   6.760   0.223
 9211SOL     OW28531   5.280   1.375   6.044
 9211SOL    HW128532   5.301   1.395   5.948
 9211SOL    HW228533   5.183   1.392   6.061
 9212SOL     OW28534   6.205   3.716   6.257
 9212SOL    HW128535   6.122   3.660   6.249
 9212SOL    HW228536   6.180   3.808   6.288
 9213SOL     OW28537   0.175   5.505   3.052
 9213SOL    HW128538   0.184   5.486   3.150
 9213SOL    HW228539   0.079   5.504   3.025
 9214SOL     OW28540   1.932   1.034   5.924
 9214SOL    HW128541   2.008   0.986   5.968
 9214SOL    HW228542   1.901   1.109   5.983
 9215SOL     OW28543   6.653   3.723   3.762
 9215SOL    HW128544   6.658   3.822   3.765
 9215SOL    HW228545   6.698   3.690   3.679
 9216SOL     OW28546   1.989   6.764   3.920
 9216SOL    HW128547   2.054   6.806   3.983
 9216SOL    HW228548   1.904   6.742   3.968
 9217SOL     OW28549   2.976   2.721   0.275
 9217SOL    HW128550   2.983   2.814   0.309
 9217SOL    HW228551   3.067   2.679   0.273
 9218SOL     OW28552   4.611   5.677   5.749
 9218SOL    HW128553   4.608   5.583   5.783
 9218SOL    HW228554   4.548   5.734   5.802
 9219SOL     OW28555   3.905   3.100   6.646
 9219SOL    HW128556   3.840   3.057   6.584
 9219SOL    HW228557   3.886   3.198   6.652
 9220SOL     OW28558   0.872   6.584   3.576
 9220SOL    HW128559   0.862   6.680   3.548
 9220SOL    HW228560   0.944   6.540   3.523
 9221SOL     OW28561   2.459   1.664   2.161
 9221SOL    HW128562   2.377   1.719   2.178
 9221SOL    HW228563   2.466   1.593   2.231
 9222SOL     OW28564   1.961   5.864   3.725
 9222SOL    HW128565   1.963   5.879   3.824
 9222SOL    HW228566   2.054   5.868   3.688
 9223SOL     OW28567   6.378   2.251   4.756
 9223SOL    HW128568   6.326   2.336   4.753
 9223SOL    HW228569   6.464   2.266   4.806
 9224SOL     OW28570   1.649   5.725   3.006
 9224SOL    HW128571   1.724   5.663   3.027
 9224SOL    HW228572   1.574   5.675   2.963
 9225SOL     OW28573   0.206   5.968   5.921
 9225SOL    HW128574   0.278   5.957   5.989
 9225SOL    HW228575   0.242   5.948   5.830
 9226SOL     OW28576   0.938   6.820   4.823
 9226SOL    HW128577   0.921   6.775   4.911
 9226SOL    HW228578   0.854   6.822   4.769
 9227SOL     OW28579   4.214   3.185   0.641
 9227SOL    HW128580   4.171   3.127   0.571
 9227SOL    HW228581   4.294   3.138   0.678
 9228SOL     OW28582   3.752   3.266   4.572
 9228SOL    HW128583   3.676   3.311   4.619
 9228SOL    HW228584   3.740   3.167   4.578
 9229SOL     OW28585   0.441   5.761   1.055
 9229SOL    HW128586   0.367   5.696   1.068
 9229SOL    HW228587   0.420   5.847   1.102
 9230SOL     OW28588   3.409   6.896   6.241
 9230SOL    HW128589   3.508   6.908   6.233
 9230SOL    HW228590   3.363   6.955   6.175
 9231SOL     OW28591   6.072   6.454   1.620
 9231SOL    HW128592   6.034   6.516   1.689
 9231SOL    HW228593   6.055   6.492   1.529
 9232SOL     OW28594   0.899   5.302   1.747
 9232SOL    HW128595   0.938   5.388   1.778
 9232SOL    HW228596   0.969   5.231   1.749
 9233SOL     OW28597   1.869   0.032   6.192
 9233SOL    HW128598   1.905   6.971   6.226
 9233SOL    HW228599   1.836   0.087   6.268
 9234SOL     OW28600   3.144   3.877   6.511
 9234SOL    HW128601   3.045   3.865   6.495
 9234SOL    HW228602   3.166   3.849   6.605
 9235SOL     OW28603   2.069   2.426   3.329
 9235SOL    HW128604   2.143   2.452   3.267
 9235SOL    HW228605   2.001   2.372   3.280
 9236SOL     OW28606   1.853   4.175   6.290
 9236SOL    HW128607   1.899   4.246   6.236
 9236SOL    HW228608   1.920   4.111   6.325
 9237SOL     OW28609   6.960   5.337   3.729
 9237SOL    HW128610   6.957   5.395   3.811
 9237SOL    HW228611   6.879   5.354   3.673
 9238SOL     OW28612   1.609   2.558   5.585
 9238SOL    HW128613   1.669   2.540   5.663
 9238SOL    HW228614   1.663   2.557   5.501
 9239SOL     OW28615   1.903   6.112   6.417
 9239SOL    HW128616   1.840   6.143   6.489
 9239SOL    HW228617   1.940   6.023   6.442
 9240SOL     OW28618   3.719   1.476   4.606
 9240SOL    HW128619   3.795   1.520   4.559
 9240SOL    HW228620   3.734   1.377   4.609
 9241SOL     OW28621   5.858   6.404   0.408
 9241SOL    HW128622   5.798   6.385   0.486
 9241SOL    HW228623   5.827   6.486   0.361
 9242SOL     OW28624   2.578   2.439   6.874
 9242SOL    HW128625   2.495   2.422   6.820
 9242SOL    HW228626   2.625   2.520   6.839
 9243SOL     OW28627   2.051   0.088   0.169
 9243SOL    HW128628   1.962   0.109   0.210
 9243SOL    HW228629   2.040   0.073   0.071
 9244SOL     OW28630   2.944   6.287   6.899
 9244SOL    HW128631   2.920   6.353   6.827
 9244SOL    HW228632   3.036   6.306   6.932
 9245SOL     OW28633   0.770   4.195   2.657
 9245SOL    HW128634   0.800   4.132   2.586
 9245SOL    HW228635   0.715   4.146   2.724
 9246SOL     OW28636   5.022   0.676   6.779
 9246SOL    HW128637   4.981   0.586   6.787
 9246SOL    HW228638   4.953   0.746   6.798
 9247SOL     OW28639   3.036   6.385   2.898
 9247SOL    HW128640   2.964   6.324   2.865
 9247SOL    HW228641   2.995   6.472   2.926
 9248SOL     OW28642   3.035   6.849   6.679
 9248SOL    HW128643   2.996   6.837   6.770
 9248SOL    HW228644   3.105   6.779   6.664
 9249SOL     OW28645   3.788   1.074   0.777
 9249SOL    HW128646   3.710   1.130   0.750
 9249SOL    HW228647   3.759   0.978   0.784
 9250SOL     OW28648   0.650   3.276   2.178
 9250SOL    HW128649   0.565   3.326   2.159
 9250SOL    HW228650   0.677   3.224   2.098
 9251SOL     OW28651   4.379   1.407   0.834
 9251SOL    HW128652   4.396   1.500   0.800
 9251SOL    HW228653   4.408   1.341   0.765
 9252SOL     OW28654   5.647   1.584   4.585
 9252SOL    HW128655   5.601   1.672   4.572
 9252SOL    HW228656   5.592   1.511   4.543
 9253SOL     OW28657   2.747   4.972   3.769
 9253SOL    HW128658   2.842   4.973   3.739
 9253SOL    HW228659   2.741   5.003   3.864
 9254SOL     OW28660   6.747   6.174   2.668
 9254SOL    HW128661   6.813   6.240   2.705
 9254SOL    HW228662   6.768   6.156   2.572
 9255SOL     OW28663   0.076   2.968   0.986
 9255SOL    HW128664   0.045   2.953   1.079
 9255SOL    HW228665   0.057   3.063   0.959
 9256SOL     OW28666   2.054   6.306   1.368
 9256SOL    HW128667   1.988   6.358   1.422
 9256SOL    HW228668   2.143   6.308   1.414
 9257SOL     OW28669   6.254   6.093   5.218
 9257SOL    HW128670   6.324   6.042   5.268
 9257SOL    HW228671   6.197   6.029   5.166
 9258SOL     OW28672   5.087   3.862   2.751
 9258SOL    HW128673   5.132   3.947   2.725
 9258SOL    HW228674   5.156   3.791   2.765
 9259SOL     OW28675   1.050   2.793   6.644
 9259SOL    HW128676   1.146   2.803   6.618
 9259SOL    HW228677   0.993   2.849   6.585
 9260SOL     OW28678   5.057   4.191   4.904
 9260SOL    HW128679   5.032   4.147   4.818
 9260SOL    HW228680   4.999   4.156   4.977
 9261SOL     OW28681   1.891   3.128   1.195
 9261SOL    HW128682   1.848   3.052   1.148
 9261SOL    HW228683   1.876   3.212   1.143
 9262SOL     OW28684   0.034   6.621   5.889
 9262SOL    HW128685   0.013   6.701   5.832
 9262SOL    HW228686   0.097   6.561   5.840
 9263SOL     OW28687   2.593   4.635   2.923
 9263SOL    HW128688   2.566   4.709   2.861
 9263SOL    HW228689   2.582   4.548   2.876
 9264SOL     OW28690   5.757   3.583   5.175
 9264SOL    HW128691   5.767   3.560   5.272
 9264SOL    HW228692   5.663   3.563   5.146
 9265SOL     OW28693   4.534   0.377   1.917
 9265SOL    HW128694   4.525   0.281   1.889
 9265SOL    HW228695   4.470   0.396   1.991
 9266SOL     OW28696   0.333   4.395   1.133
 9266SOL    HW128697   0.385   4.362   1.212
 9266SOL    HW228698   0.235   4.391   1.153
 9267SOL     OW28699   6.999   1.136   3.522
 9267SOL    HW128700   6.968   1.232   3.525
 9267SOL    HW228701   6.922   1.077   3.498
 9268SOL     OW28702   0.150   0.257   0.978
 9268SOL    HW128703   0.094   0.229   0.900
 9268SOL    HW228704   0.138   0.355   0.995
 9269SOL     OW28705   3.215   6.170   1.053
 9269SOL    HW128706   3.140   6.225   1.015
 9269SOL    HW228707   3.301   6.194   1.008
 9270SOL     OW28708   2.079   1.210   5.254
 9270SOL    HW128709   2.133   1.186   5.334
 9270SOL    HW228710   2.022   1.133   5.227
 9271SOL     OW28711   1.518   4.929   5.420
 9271SOL    HW128712   1.444   4.967   5.475
 9271SOL    HW228713   1.606   4.962   5.454
 9272SOL     OW28714   6.206   6.877   5.903
 9272SOL    HW128715   6.197   6.890   5.804
 9272SOL    HW228716   6.180   6.783   5.927
 9273SOL     OW28717   6.488   3.570   3.439
 9273SOL    HW128718   6.566   3.631   3.449
 9273SOL    HW228719   6.520   3.475   3.433
 9274SOL     OW28720   6.916   3.192   0.452
 9274SOL    HW128721   6.852   3.267   0.433
 9274SOL    HW228722   6.987   3.190   0.381
 9275SOL     OW28723   4.733   1.461   0.730
 9275SOL    HW128724   4.650   1.516   0.734
 9275SOL    HW228725   4.780   1.467   0.818
 9276SOL     OW28726   1.683   4.281   0.239
 9276SOL    HW128727   1.686   4.188   0.274
 9276SOL    HW228728   1.760   4.333   0.274
 9277SOL     OW28729   3.429   6.004   2.716
 9277SOL    HW128730   3.520   6.044   2.712
 9277SOL    HW228731   3.362   6.069   2.680
 9278SOL     OW28732   1.785   6.792   5.050
 9278SOL    HW128733   1.843   6.721   5.009
 9278SOL    HW228734   1.819   6.814   5.141
 9279SOL     OW28735   3.392   6.318   1.835
 9279SOL    HW128736   3.292   6.311   1.838
 9279SOL    HW228737   3.421   6.392   1.895
 9280SOL     OW28738   1.340   4.759   1.579
 9280SOL    HW128739   1.304   4.718   1.662
 9280SOL    HW228740   1.375   4.850   1.599
 9281SOL     OW28741   1.318   5.355   0.877
 9281SOL    HW128742   1.327   5.393   0.969
 9281SOL    HW228743   1.309   5.429   0.811
 9282SOL     OW28744   1.944   0.434   3.952
 9282SOL    HW128745   1.973   0.367   4.021
 9282SOL    HW228746   1.896   0.509   3.998
 9283SOL     OW28747   5.547   5.103   6.622
 9283SOL    HW128748   5.615   5.174   6.637
 9283SOL    HW228749   5.593   5.018   6.594
 9284SOL     OW28750   4.038   6.380   1.467
 9284SOL    HW128751   3.986   6.360   1.385
 9284SOL    HW228752   3.976   6.390   1.545
 9285SOL     OW28753   6.794   5.771   3.444
 9285SOL    HW128754   6.874   5.823   3.414
 9285SOL    HW228755   6.719   5.834   3.464
 9286SOL     OW28756   5.499   6.004   1.343
 9286SOL    HW128757   5.584   5.980   1.391
 9286SOL    HW228758   5.479   5.935   1.273
 9287SOL     OW28759   4.301   4.640   0.391
 9287SOL    HW128760   4.242   4.688   0.326
 9287SOL    HW228761   4.332   4.554   0.350
 9288SOL     OW28762   4.072   1.047   3.261
 9288SOL    HW128763   4.060   1.048   3.360
 9288SOL    HW228764   4.034   1.132   3.222
 9289SOL     OW28765   4.423   6.233   2.449
 9289SOL    HW128766   4.358   6.254   2.523
 9289SOL    HW228767   4.461   6.142   2.464
 9290SOL     OW28768   5.412   0.578   3.462
 9290SOL    HW128769   5.368   0.651   3.515
 9290SOL    HW228770   5.379   0.581   3.367
 9291SOL     OW28771   0.325   4.774   5.577
 9291SOL    HW128772   0.303   4.869   5.599
 9291SOL    HW228773   0.400   4.771   5.511
 9292SOL     OW28774   1.933   2.207   6.958
 9292SOL    HW128775   1.982   2.239   0.014
 9292SOL    HW228776   1.973   2.122   6.926
 9293SOL     OW28777   4.136   0.749   5.913
 9293SOL    HW128778   4.104   0.755   6.008
 9293SOL    HW228779   4.205   0.677   5.906
 9294SOL     OW28780   5.460   6.117   6.046
 9294SOL    HW128781   5.556   6.097   6.030
 9294SOL    HW228782   5.433   6.084   6.136
 9295SOL     OW28783   6.477   0.535   3.106
 9295SOL    HW128784   6.398   0.526   3.046
 9295SOL    HW228785   6.501   0.632   3.115
 9296SOL     OW28786   2.272   3.251   5.716
 9296SOL    HW128787   2.212   3.286   5.644
 9296SOL    HW228788   2.365   3.281   5.699
 9297SOL     OW28789   6.844   5.750   2.036
 9297SOL    HW128790   6.757   5.712   2.003
 9297SOL    HW228791   6.888   5.801   1.963
 9298SOL     OW28792   6.876   5.084   6.817
 9298SOL    HW128793   6.810   5.123   6.753
 9298SOL    HW228794   6.864   5.126   6.907
 9299SOL     OW28795   3.177   2.166   4.078
 9299SOL    HW128796   3.104   2.145   4.142
 9299SOL    HW228797   3.265   2.157   4.124
 9300SOL     OW28798   3.031   5.897   6.211
 9300SOL    HW128799   3.106   5.960   6.233
 9300SOL    HW228800   3.041   5.813   6.265
 9301SOL     OW28801   0.306   3.524   4.747
 9301SOL    HW128802   0.209   3.545   4.734
 9301SOL    HW228803   0.332   3.448   4.687
 9302SOL     OW28804   2.852   5.822   3.807
 9302SOL    HW128805   2.940   5.870   3.806
 9302SOL    HW228806   2.839   5.776   3.719
 9303SOL     OW28807   2.672   4.526   6.684
 9303SOL    HW128808   2.627   4.440   6.704
 9303SOL    HW228809   2.655   4.551   6.588
 9304SOL     OW28810   5.870   5.819   6.295
 9304SOL    HW128811   5.828   5.735   6.259
 9304SOL    HW228812   5.967   5.819   6.274
 9305SOL     OW28813   2.173   1.652   0.897
 9305SOL    HW128814   2.138   1.578   0.840
 9305SOL    HW228815   2.130   1.738   0.870
 9306SOL     OW28816   6.775   6.139   4.162
 9306SOL    HW128817   6.738   6.142   4.069
 9306SOL    HW228818   6.702   6.153   4.228
 9307SOL     OW28819   1.938   4.360   0.973
 9307SOL    HW128820   1.953   4.455   0.948
 9307SOL    HW228821   1.853   4.352   1.025
 9308SOL     OW28822   2.409   3.292   1.083
 9308SOL    HW128823   2.441   3.386   1.079
 9308SOL    HW228824   2.311   3.290   1.063
 9309SOL     OW28825   3.638   5.062   5.739
 9309SOL    HW128826   3.623   4.979   5.684
 9309SOL    HW228827   3.626   5.040   5.836
 9310SOL     OW28828   6.466   6.618   5.817
 9310SOL    HW128829   6.474   6.660   5.907
 9310SOL    HW228830   6.512   6.675   5.750
 9311SOL     OW28831   5.723   4.544   6.843
 9311SOL    HW128832   5.807   4.591   6.815
 9311SOL    HW228833   5.686   4.493   6.765
 9312SOL     OW28834   5.775   3.259   3.883
 9312SOL    HW128835   5.682   3.296   3.888
 9312SOL    HW228836   5.829   3.293   3.960
 9313SOL     OW28837   0.472   0.519   1.922
 9313SOL    HW128838   0.450   0.424   1.898
 9313SOL    HW228839   0.526   0.560   1.849
 9314SOL     OW28840   5.025   5.053   1.411
 9314SOL    HW128841   4.947   5.025   1.355
 9314SOL    HW228842   5.107   5.002   1.381
 9315SOL     OW28843   5.574   5.336   5.605
 9315SOL    HW128844   5.556   5.434   5.596
 9315SOL    HW228845   5.643   5.309   5.537
 9316SOL     OW28846   5.378   5.729   0.234
 9316SOL    HW128847   5.429   5.668   0.173
 9316SOL    HW228848   5.377   5.821   0.195
 9317SOL     OW28849   2.867   6.664   3.414
 9317SOL    HW128850   2.893   6.757   3.441
 9317SOL    HW228851   2.949   6.612   3.390
 9318SOL     OW28852   3.177   0.360   3.379
 9318SOL    HW128853   3.101   0.392   3.322
 9318SOL    HW228854   3.165   0.263   3.398
 9319SOL     OW28855   3.839   2.354   0.770
 9319SOL    HW128856   3.744   2.381   0.783
 9319SOL    HW228857   3.854   2.327   0.675
 9320SOL     OW28858   6.425   0.200   6.825
 9320SOL    HW128859   6.512   0.242   6.802
 9320SOL    HW228860   6.415   0.197   6.925
 9321SOL     OW28861   1.003   2.482   4.272
 9321SOL    HW128862   0.995   2.521   4.363
 9321SOL    HW228863   1.075   2.530   4.221
 9322SOL     OW28864   5.385   3.238   0.190
 9322SOL    HW128865   5.333   3.324   0.188
 9322SOL    HW228866   5.479   3.256   0.218
 9323SOL     OW28867   0.978   2.840   4.809
 9323SOL    HW128868   1.073   2.871   4.808
 9323SOL    HW228869   0.920   2.914   4.844
 9324SOL     OW28870   0.621   4.156   1.088
 9324SOL    HW128871   0.672   4.073   1.115
 9324SOL    HW228872   0.524   4.133   1.078
 9325SOL     OW28873   0.470   4.144   3.110
 9325SOL    HW128874   0.375   4.133   3.140
 9325SOL    HW228875   0.508   4.228   3.149
 9326SOL     OW28876   4.611   4.824   1.009
 9326SOL    HW128877   4.695   4.833   1.063
 9326SOL    HW228878   4.543   4.888   1.042
 9327SOL     OW28879   1.884   1.309   3.303
 9327SOL    HW128880   1.921   1.402   3.308
 9327SOL    HW228881   1.787   1.313   3.279
 9328SOL     OW28882   1.325   0.124   3.674
 9328SOL    HW128883   1.420   0.113   3.703
 9328SOL    HW228884   1.311   0.077   3.587
 9329SOL     OW28885   1.644   5.171   6.052
 9329SOL    HW128886   1.597   5.259   6.060
 9329SOL    HW228887   1.586   5.099   6.092
 9330SOL     OW28888   0.902   6.623   0.972
 9330SOL    HW128889   0.959   6.543   0.953
 9330SOL    HW228890   0.885   6.672   0.887
 9331SOL     OW28891   1.688   4.772   4.874
 9331SOL    HW128892   1.633   4.761   4.791
 9331SOL    HW228893   1.662   4.703   4.940
 9332SOL     OW28894   6.331   5.370   0.506
 9332SOL    HW128895   6.294   5.314   0.580
 9332SOL    HW228896   6.429   5.351   0.495
 9333SOL     OW28897   1.631   5.028   0.751
 9333SOL    HW128898   1.567   5.003   0.823
 9333SOL    HW228899   1.632   4.957   0.681
 9334SOL     OW28900   6.875   5.542   0.450
 9334SOL    HW128901   6.902   5.448   0.472
 9334SOL    HW228902   6.956   5.597   0.429
 9335SOL     OW28903   0.039   3.766   1.007
 9335SOL    HW128904   6.997   3.693   1.015
 9335SOL    HW228905   0.120   3.731   0.959
 9336SOL     OW28906   4.194   5.086   5.269
 9336SOL    HW128907   4.115   5.107   5.212
 9336SOL    HW228908   4.165   5.034   5.349
 9337SOL     OW28909   3.190   1.751   4.566
 9337SOL    HW128910   3.097   1.752   4.602
 9337SOL    HW228911   3.189   1.718   4.472
 9338SOL     OW28912   4.596   6.902   1.590
 9338SOL    HW128913   4.536   6.869   1.663
 9338SOL    HW228914   4.606   7.002   1.598
 9339SOL     OW28915   0.003   3.572   5.200
 9339SOL    HW128916   6.939   3.527   5.209
 9339SOL    HW228917   0.014   3.604   5.106
 9340SOL     OW28918   2.437   4.871   2.259
 9340SOL    HW128919   2.395   4.962   2.270
 9340SOL    HW228920   2.366   4.801   2.267
 9341SOL     OW28921   6.207   5.606   1.194
 9341SOL    HW128922   6.195   5.529   1.256
 9341SOL    HW228923   6.295   5.650   1.210
 9342SOL     OW28924   2.819   0.315   4.717
 9342SOL    HW128925   2.808   0.400   4.769
 9342SOL    HW228926   2.875   0.251   4.769
 9343SOL     OW28927   5.450   3.671   1.401
 9343SOL    HW128928   5.411   3.660   1.492
 9343SOL    HW228929   5.533   3.727   1.408
 9344SOL     OW28930   5.796   6.849   4.764
 9344SOL    HW128931   5.744   6.923   4.806
 9344SOL    HW228932   5.834   6.790   4.835
 9345SOL     OW28933   6.862   4.531   6.271
 9345SOL    HW128934   6.794   4.475   6.223
 9345SOL    HW228935   6.841   4.628   6.257
 9346SOL     OW28936   5.148   0.731   1.990
 9346SOL    HW128937   5.144   0.635   2.020
 9346SOL    HW228938   5.219   0.740   1.920
 9347SOL     OW28939   4.645   6.902   2.189
 9347SOL    HW128940   4.669   6.918   2.285
 9347SOL    HW228941   4.559   6.949   2.168
 9348SOL     OW28942   2.548   5.319   1.813
 9348SOL    HW128943   2.510   5.410   1.799
 9348SOL    HW228944   2.488   5.268   1.876
 9349SOL     OW28945   0.117   5.404   1.486
 9349SOL    HW128946   0.088   5.387   1.580
 9349SOL    HW228947   0.045   5.375   1.423
 9350SOL     OW28948   6.434   0.721   0.033
 9350SOL    HW128949   6.338   0.693   0.031
 9350SOL    HW228950   6.448   0.786   0.108
 9351SOL     OW28951   4.847   3.979   6.416
 9351SOL    HW128952   4.857   4.046   6.342
 9351SOL    HW228953   4.779   4.012   6.482
 9352SOL     OW28954   2.698   1.776   6.780
 9352SOL    HW128955   2.624   1.726   6.826
 9352SOL    HW228956   2.735   1.845   6.841
 9353SOL     OW28957   1.259   3.040   2.109
 9353SOL    HW128958   1.240   3.108   2.181
 9353SOL    HW228959   1.300   2.959   2.150
 9354SOL     OW28960   5.867   2.151   2.494
 9354SOL    HW128961   5.812   2.092   2.435
 9354SOL    HW228962   5.878   2.241   2.450
 9355SOL     OW28963   0.276   1.593   2.121
 9355SOL    HW128964   0.298   1.587   2.218
 9355SOL    HW228965   0.328   1.525   2.070
 9356SOL     OW28966   4.686   2.544   2.297
 9356SOL    HW128967   4.751   2.473   2.324
 9356SOL    HW228968   4.611   2.547   2.363
 9357SOL     OW28969   2.283   4.825   6.533
 9357SOL    HW128970   2.284   4.913   6.581
 9357SOL    HW228971   2.199   4.817   6.479
 9358SOL     OW28972   5.274   4.347   2.738
 9358SOL    HW128973   5.311   4.399   2.661
 9358SOL    HW228974   5.175   4.334   2.725
 9359SOL     OW28975   4.812   5.081   5.880
 9359SOL    HW128976   4.793   5.081   5.979
 9359SOL    HW228977   4.772   4.999   5.839
 9360SOL     OW28978   1.357   0.877   5.235
 9360SOL    HW128979   1.416   0.867   5.155
 9360SOL    HW228980   1.346   0.975   5.255
 9361SOL     OW28981   1.671   1.159   2.258
 9361SOL    HW128982   1.722   1.207   2.187
 9361SOL    HW228983   1.707   1.066   2.267
 9362SOL     OW28984   1.443   1.659   3.143
 9362SOL    HW128985   1.419   1.695   3.053
 9362SOL    HW228986   1.500   1.725   3.191
 9363SOL     OW28987   1.226   6.274   1.842
 9363SOL    HW128988   1.256   6.276   1.937
 9363SOL    HW228989   1.298   6.312   1.784
 9364SOL     OW28990   5.397   4.034   1.156
 9364SOL    HW128991   5.379   4.103   1.226
 9364SOL    HW228992   5.496   4.026   1.143
 9365SOL     OW28993   1.923   1.767   3.889
 9365SOL    HW128994   1.850   1.710   3.853
 9365SOL    HW228995   2.004   1.759   3.830
 9366SOL     OW28996   2.716   1.259   1.718
 9366SOL    HW128997   2.805   1.262   1.674
 9366SOL    HW228998   2.662   1.338   1.688
 9367SOL     OW28999   5.591   6.558   3.656
 9367SOL    HW129000   5.645   6.542   3.738
 9367SOL    HW229001   5.519   6.625   3.675
 9368SOL     OW29002   5.495   3.092   0.665
 9368SOL    HW129003   5.468   3.100   0.569
 9368SOL    HW229004   5.419   3.052   0.717
 9369SOL     OW29005   0.462   1.589   5.189
 9369SOL    HW129006   0.518   1.666   5.220
 9369SOL    HW229007   0.416   1.548   5.268
 9370SOL     OW29008   5.780   5.335   2.305
 9370SOL    HW129009   5.869   5.350   2.347
 9370SOL    HW229010   5.716   5.301   2.374
 9371SOL     OW29011   2.036   6.634   0.518
 9371SOL    HW129012   2.029   6.733   0.528
 9371SOL    HW229013   1.945   6.596   0.504
 9372SOL     OW29014   5.698   5.782   0.410
 9372SOL    HW129015   5.608   5.755   0.442
 9372SOL    HW229016   5.737   5.710   0.353
 9373SOL     OW29017   5.357   2.914   3.982
 9373SOL    HW129018   5.390   2.851   4.053
 9373SOL    HW229019   5.266   2.886   3.952
 9374SOL     OW29020   5.320   3.976   6.616
 9374SOL    HW129021   5.228   3.945   6.590
 9374SOL    HW229022   5.378   3.982   6.535
 9375SOL     OW29023   6.375   0.158   4.026
 9375SOL    HW129024   6.340   0.251   4.023
 9375SOL    HW229025   6.410   0.132   3.936
 9376SOL     OW29026   2.619   3.438   1.767
 9376SOL    HW129027   2.665   3.467   1.851
 9376SOL    HW229028   2.525   3.413   1.787
 9377SOL     OW29029   6.529   4.484   3.653
 9377SOL    HW129030   6.598   4.454   3.720
 9377SOL    HW229031   6.503   4.578   3.671
 9378SOL     OW29032   4.080   6.005   0.810
 9378SOL    HW129033   3.995   6.050   0.780
 9378SOL    HW229034   4.095   6.026   0.906
 9379SOL     OW29035   4.758   5.073   5.323
 9379SOL    HW129036   4.768   4.997   5.260
 9379SOL    HW229037   4.836   5.136   5.313
 9380SOL     OW29038   6.483   5.892   5.477
 9380SOL    HW129039   6.486   5.912   5.380
 9380SOL    HW229040   6.467   5.976   5.529
 9381SOL     OW29041   0.748   1.008   6.973
 9381SOL    HW129042   0.836   1.057   6.978
 9381SOL    HW229043   0.718   0.984   0.039
 9382SOL     OW29044   5.375   1.760   3.061
 9382SOL    HW129045   5.300   1.825   3.074
 9382SOL    HW229046   5.462   1.810   3.053
 9383SOL     OW29047   6.735   5.336   6.349
 9383SOL    HW129048   6.663   5.272   6.372
 9383SOL    HW229049   6.747   5.340   6.250
 9384SOL     OW29050   3.659   0.012   2.814
 9384SOL    HW129051   3.747   6.996   2.791
 9384SOL    HW229052   3.637   7.018   2.909
 9385SOL     OW29053   3.865   6.962   3.488
 9385SOL    HW129054   3.930   6.971   3.564
 9385SOL    HW229055   3.782   7.013   3.510
 9386SOL     OW29056   3.795   0.264   5.458
 9386SOL    HW129057   3.830   0.198   5.524
 9386SOL    HW229058   3.847   0.350   5.467
 9387SOL     OW29059   4.887   5.434   0.493
 9387SOL    HW129060   4.871   5.397   0.585
 9387SOL    HW229061   4.927   5.362   0.436
 9388SOL     OW29062   6.835   0.334   1.644
 9388SOL    HW129063   6.736   0.325   1.632
 9388SOL    HW229064   6.879   0.346   1.555
 9389SOL     OW29065   2.668   0.806   0.687
 9389SOL    HW129066   2.612   0.880   0.725
 9389SOL    HW229067   2.730   0.771   0.757
 9390SOL     OW29068   3.786   5.444   0.853
 9390SOL    HW129069   3.744   5.490   0.775
 9390SOL    HW229070   3.763   5.346   0.851
 9391SOL     OW29071   5.979   1.119   3.690
 9391SOL    HW129072   6.031   1.197   3.723
 9391SOL    HW229073   5.914   1.150   3.620
 9392SOL     OW29074   0.988   6.806   5.174
 9392SOL    HW129075   1.075   6.773   5.137
 9392SOL    HW229076   0.973   6.768   5.265
 9393SOL     OW29077   4.667   1.695   5.428
 9393SOL    HW129078   4.638   1.600   5.414
 9393SOL    HW229079   4.757   1.708   5.387
 9394SOL     OW29080   6.109   1.950   2.232
 9394SOL    HW129081   6.166   1.999   2.298
 9394SOL    HW229082   6.044   2.014   2.191
 9395SOL     OW29083   2.014   2.923   6.448
 9395SOL    HW129084   2.042   2.957   6.538
 9395SOL    HW229085   1.927   2.874   6.456
 9396SOL     OW29086   0.154   1.182   6.187
 9396SOL    HW129087   0.216   1.260   6.189
 9396SOL    HW229088   0.201   1.102   6.150
 9397SOL     OW29089   1.818   1.901   0.109
 9397SOL    HW129090   1.822   1.827   0.176
 9397SOL    HW229091   1.820   1.989   0.156
 9398SOL     OW29092   2.582   1.486   1.700
 9398SOL    HW129093   2.573   1.486   1.601
 9398SOL    HW229094   2.538   1.567   1.739
 9399SOL     OW29095   0.296   0.627   6.091
 9399SOL    HW129096   0.251   0.681   6.021
 9399SOL    HW229097   0.366   0.683   6.137
 9400SOL     OW29098   3.545   1.712   3.861
 9400SOL    HW129099   3.575   1.800   3.896
 9400SOL    HW229100   3.606   1.683   3.787
 9401SOL     OW29101   4.611   6.280   4.086
 9401SOL    HW129102   4.702   6.277   4.044
 9401SOL    HW229103   4.586   6.376   4.103
 9402SOL     OW29104   2.974   4.948   6.250
 9402SOL    HW129105   2.932   4.889   6.318
 9402SOL    HW229106   2.950   5.044   6.269
 9403SOL     OW29107   6.173   0.108   4.212
 9403SOL    HW129108   6.245   0.111   4.143
 9403SOL    HW229109   6.128   0.018   4.210
 9404SOL     OW29110   1.261   4.050   5.454
 9404SOL    HW129111   1.168   4.058   5.490
 9404SOL    HW229112   1.325   4.034   5.529
 9405SOL     OW29113   0.676   0.482   1.015
 9405SOL    HW129114   0.651   0.436   1.099
 9405SOL    HW229115   0.611   0.556   0.996
 9406SOL     OW29116   6.697   1.174   5.367
 9406SOL    HW129117   6.777   1.215   5.324
 9406SOL    HW229118   6.684   1.081   5.332
 9407SOL     OW29119   4.025   5.589   2.855
 9407SOL    HW129120   3.943   5.642   2.834
 9407SOL    HW229121   4.032   5.511   2.793
 9408SOL     OW29122   3.818   2.056   6.506
 9408SOL    HW129123   3.750   2.130   6.514
 9408SOL    HW229124   3.824   2.027   6.411
 9409SOL     OW29125   6.039   3.598   3.241
 9409SOL    HW129126   6.037   3.668   3.169
 9409SOL    HW229127   6.084   3.516   3.206
 9410SOL     OW29128   4.499   6.636   1.589
 9410SOL    HW129129   4.449   6.575   1.651
 9410SOL    HW229130   4.569   6.684   1.640
 9411SOL     OW29131   4.978   5.319   2.121
 9411SOL    HW129132   5.021   5.233   2.148
 9411SOL    HW229133   5.005   5.343   2.028
 9412SOL     OW29134   5.875   2.362   2.941
 9412SOL    HW129135   5.886   2.389   3.036
 9412SOL    HW229136   5.795   2.302   2.933
 9413SOL     OW29137   4.215   5.203   3.564
 9413SOL    HW129138   4.196   5.298   3.539
 9413SOL    HW229139   4.309   5.196   3.597
 9414SOL     OW29140   2.506   0.453   2.389
 9414SOL    HW129141   2.473   0.372   2.341
 9414SOL    HW229142   2.542   0.519   2.323
 9415SOL     OW29143   1.670   0.572   2.071
 9415SOL    HW129144   1.615   0.601   2.149
 9415SOL    HW229145   1.611   0.546   1.995
 9416SOL     OW29146   1.381   2.141   1.376
 9416SOL    HW129147   1.466   2.113   1.420
 9416SOL    HW229148   1.320   2.061   1.369
 9417SOL     OW29149   1.417   0.498   4.862
 9417SOL    HW129150   1.405   0.560   4.940
 9417SOL    HW229151   1.328   0.478   4.822
 9418SOL     OW29152   4.446   4.327   1.177
 9418SOL    HW129153   4.467   4.291   1.086
 9418SOL    HW229154   4.364   4.283   1.213
 9419SOL     OW29155   2.702   5.273   3.663
 9419SOL    HW129156   2.668   5.194   3.611
 9419SOL    HW229157   2.656   5.356   3.633
 9420SOL     OW29158   1.805   0.485   3.605
 9420SOL    HW129159   1.795   0.570   3.657
 9420SOL    HW229160   1.815   0.506   3.508
 9421SOL     OW29161   1.814   5.111   5.125
 9421SOL    HW129162   1.766   5.179   5.180
 9421SOL    HW229163   1.774   5.021   5.141
 9422SOL     OW29164   3.983   1.255   3.096
 9422SOL    HW129165   4.029   1.330   3.048
 9422SOL    HW229166   3.999   1.169   3.047
 9423SOL     OW29167   4.160   0.103   4.541
 9423SOL    HW129168   4.244   0.090   4.487
 9423SOL    HW229169   4.083   0.063   4.491
 9424SOL     OW29170   3.702   5.643   3.195
 9424SOL    HW129171   3.610   5.610   3.177
 9424SOL    HW229172   3.749   5.580   3.257
 9425SOL     OW29173   0.799   5.313   2.898
 9425SOL    HW129174   0.742   5.377   2.847
 9425SOL    HW229175   0.888   5.355   2.917
 9426SOL     OW29176   3.849   5.788   0.823
 9426SOL    HW129177   3.914   5.780   0.899
 9426SOL    HW229178   3.853   5.706   0.767
 9427SOL     OW29179   2.738   5.045   4.030
 9427SOL    HW129180   2.645   5.016   4.054
 9427SOL    HW229181   2.802   5.009   4.098
 9428SOL     OW29182   4.748   6.556   2.587
 9428SOL    HW129183   4.745   6.521   2.681
 9428SOL    HW229184   4.737   6.480   2.523
 9429SOL     OW29185   0.558   3.379   2.699
 9429SOL    HW129186   0.461   3.353   2.699
 9429SOL    HW229187   0.591   3.383   2.793
 9430SOL     OW29188   6.549   6.530   1.561
 9430SOL    HW129189   6.467   6.577   1.595
 9430SOL    HW229190   6.533   6.500   1.467
 9431SOL     OW29191   6.809   4.500   0.193
 9431SOL    HW129192   6.784   4.552   0.275
 9431SOL    HW229193   6.727   4.461   0.153
 9432SOL     OW29194   6.734   6.840   4.431
 9432SOL    HW129195   6.765   6.801   4.344
 9432SOL    HW229196   6.643   6.803   4.452
 9433SOL     OW29197   2.319   5.634   3.957
 9433SOL    HW129198   2.376   5.570   4.008
 9433SOL    HW229199   2.228   5.595   3.944
 9434SOL     OW29200   6.074   4.256   3.394
 9434SOL    HW129201   6.030   4.175   3.433
 9434SOL    HW229202   6.094   4.239   3.297
 9435SOL     OW29203   2.398   2.162   5.403
 9435SOL    HW129204   2.388   2.242   5.344
 9435SOL    HW229205   2.480   2.172   5.459
 9436SOL     OW29206   3.057   1.721   5.455
 9436SOL    HW129207   2.982   1.684   5.509
 9436SOL    HW229208   3.119   1.772   5.515
 9437SOL     OW29209   0.074   5.777   4.585
 9437SOL    HW129210   0.117   5.709   4.645
 9437SOL    HW229211   0.143   5.817   4.524
 9438SOL     OW29212   0.504   6.211   1.791
 9438SOL    HW129213   0.419   6.244   1.831
 9438SOL    HW229214   0.495   6.209   1.691
 9439SOL     OW29215   1.905   3.378   1.052
 9439SOL    HW129216   1.823   3.436   1.048
 9439SOL    HW229217   1.983   3.428   1.016
 9440SOL     OW29218   3.216   5.516   4.192
 9440SOL    HW129219   3.271   5.592   4.158
 9440SOL    HW229220   3.261   5.475   4.272
 9441SOL     OW29221   2.058   5.629   5.517
 9441SOL    HW129222   2.157   5.626   5.525
 9441SOL    HW229223   2.020   5.689   5.588
 9442SOL     OW29224   0.657   3.533   0.921
 9442SOL    HW129225   0.729   3.592   0.960
 9442SOL    HW229226   0.621   3.473   0.992
 9443SOL     OW29227   1.345   2.338   1.589
 9443SOL    HW129228   1.345   2.263   1.523
 9443SOL    HW229229   1.422   2.327   1.651
 9444SOL     OW29230   1.311   4.315   5.810
 9444SOL    HW129231   1.236   4.297   5.873
 9444SOL    HW229232   1.356   4.229   5.786
 9445SOL     OW29233   6.231   2.643   1.737
 9445SOL    HW129234   6.318   2.679   1.770
 9445SOL    HW229235   6.157   2.678   1.793
 9446SOL     OW29236   5.898   4.070   0.121
 9446SOL    HW129237   5.874   4.142   0.056
 9446SOL    HW229238   5.986   4.091   0.164
 9447SOL     OW29239   5.707   1.258   1.718
 9447SOL    HW129240   5.653   1.191   1.667
 9447SOL    HW229241   5.733   1.219   1.806
 9448SOL     OW29242   6.121   6.247   0.675
 9448SOL    HW129243   6.147   6.338   0.643
 9448SOL    HW229244   6.072   6.199   0.602
 9449SOL     OW29245   5.685   5.527   5.272
 9449SOL    HW129246   5.588   5.506   5.281
 9449SOL    HW229247   5.719   5.490   5.186
 9450SOL     OW29248   2.250   6.042   3.955
 9450SOL    HW129249   2.345   6.038   3.986
 9450SOL    HW229250   2.246   6.080   3.863
 9451SOL     OW29251   3.785   3.360   5.375
 9451SOL    HW129252   3.873   3.407   5.383
 9451SOL    HW229253   3.794   3.284   5.311
 9452SOL     OW29254   3.381   3.954   0.898
 9452SOL    HW129255   3.443   3.876   0.908
 9452SOL    HW229256   3.419   4.018   0.831
 9453SOL     OW29257   3.393   5.501   1.308
 9453SOL    HW129258   3.459   5.560   1.262
 9453SOL    HW229259   3.318   5.478   1.245
 9454SOL     OW29260   2.241   2.205   5.981
 9454SOL    HW129261   2.311   2.248   5.925
 9454SOL    HW229262   2.284   2.141   6.045
 9455SOL     OW29263   1.789   2.109   2.613
 9455SOL    HW129264   1.731   2.040   2.657
 9455SOL    HW229265   1.856   2.063   2.555
 9456SOL     OW29266   1.221   3.199   0.489
 9456SOL    HW129267   1.229   3.205   0.390
 9456SOL    HW229268   1.132   3.235   0.518
 9457SOL     OW29269   6.301   4.008   0.045
 9457SOL    HW129270   6.294   4.073   6.994
 9457SOL    HW229271   6.394   4.009   0.081
 9458SOL     OW29272   1.302   6.124   4.482
 9458SOL    HW129273   1.231   6.089   4.543
 9458SOL    HW229274   1.277   6.216   4.451
 9459SOL     OW29275   4.455   6.129   1.019
 9459SOL    HW129276   4.526   6.059   1.029
 9459SOL    HW229277   4.497   6.220   1.027
 9460SOL     OW29278   1.217   3.839   5.688
 9460SOL    HW129279   1.277   3.777   5.638
 9460SOL    HW229280   1.269   3.921   5.714
 9461SOL     OW29281   1.486   0.450   2.578
 9461SOL    HW129282   1.504   0.352   2.563
 9461SOL    HW229283   1.452   0.490   2.493
 9462SOL     OW29284   0.441   3.122   3.539
 9462SOL    HW129285   0.352   3.082   3.514
 9462SOL    HW229286   0.431   3.174   3.624
 9463SOL     OW29287   5.750   2.368   6.584
 9463SOL    HW129288   5.797   2.407   6.505
 9463SOL    HW229289   5.817   2.341   6.653
 9464SOL     OW29290   4.467   6.162   5.883
 9464SOL    HW129291   4.501   6.239   5.829
 9464SOL    HW229292   4.425   6.094   5.823
 9465SOL     OW29293   5.150   6.419   4.309
 9465SOL    HW129294   5.147   6.446   4.405
 9465SOL    HW229295   5.244   6.398   4.283
 9466SOL     OW29296   3.385   1.699   0.162
 9466SOL    HW129297   3.451   1.623   0.158
 9466SOL    HW229298   3.320   1.681   0.235
 9467SOL     OW29299   1.934   3.107   2.061
 9467SOL    HW129300   1.912   3.129   1.966
 9467SOL    HW229301   1.886   3.023   2.087
 9468SOL     OW29302   0.713   2.288   5.865
 9468SOL    HW129303   0.776   2.225   5.820
 9468SOL    HW229304   0.623   2.246   5.871
 9469SOL     OW29305   6.976   4.111   2.697
 9469SOL    HW129306   0.043   4.073   2.692
 9469SOL    HW229307   6.975   4.200   2.652
 9470SOL     OW29308   6.767   3.377   0.804
 9470SOL    HW129309   6.803   3.444   0.738
 9470SOL    HW229310   6.804   3.287   0.784
 9471SOL     OW29311   0.271   2.445   6.187
 9471SOL    HW129312   0.370   2.431   6.190
 9471SOL    HW229313   0.251   2.543   6.183
 9472SOL     OW29314   6.663   2.255   5.329
 9472SOL    HW129315   6.617   2.291   5.248
 9472SOL    HW229316   6.663   2.325   5.401
 9473SOL     OW29317   2.808   5.075   5.150
 9473SOL    HW129318   2.759   5.129   5.082
 9473SOL    HW229319   2.906   5.085   5.136
 9474SOL     OW29320   3.726   5.300   3.867
 9474SOL    HW129321   3.761   5.295   3.960
 9474SOL    HW229322   3.803   5.310   3.803
 9475SOL     OW29323   2.086   3.472   1.263
 9475SOL    HW129324   2.003   3.437   1.219
 9475SOL    HW229325   2.116   3.409   1.335
 9476SOL     OW29326   2.462   3.984   5.569
 9476SOL    HW129327   2.519   3.912   5.530
 9476SOL    HW229328   2.478   4.070   5.520
 9477SOL     OW29329   0.630   1.990   0.459
 9477SOL    HW129330   0.634   2.066   0.394
 9477SOL    HW229331   0.584   2.020   0.543
 9478SOL     OW29332   5.572   4.120   5.938
 9478SOL    HW129333   5.658   4.157   5.975
 9478SOL    HW229334   5.508   4.195   5.923
 9479SOL     OW29335   5.441   4.912   5.098
 9479SOL    HW129336   5.344   4.921   5.118
 9479SOL    HW229337   5.491   4.987   5.142
 9480SOL     OW29338   6.496   3.877   6.337
 9480SOL    HW129339   6.472   3.937   6.413
 9480SOL    HW229340   6.468   3.784   6.358
 9481SOL     OW29341   0.273   2.460   2.855
 9481SOL    HW129342   0.180   2.497   2.847
 9481SOL    HW229343   0.313   2.490   2.942
 9482SOL     OW29344   4.665   0.279   2.291
 9482SOL    HW129345   4.586   0.310   2.239
 9482SOL    HW229346   4.638   0.264   2.387
 9483SOL     OW29347   1.066   1.244   0.640
 9483SOL    HW129348   0.969   1.218   0.640
 9483SOL    HW229349   1.087   1.294   0.724
 9484SOL     OW29350   6.123   0.448   3.393
 9484SOL    HW129351   6.111   0.432   3.295
 9484SOL    HW229352   6.070   0.381   3.444
 9485SOL     OW29353   0.883   6.953   2.288
 9485SOL    HW129354   0.827   0.010   2.300
 9485SOL    HW229355   0.849   6.900   2.210
 9486SOL     OW29356   2.471   6.582   2.102
 9486SOL    HW129357   2.535   6.658   2.093
 9486SOL    HW229358   2.439   6.575   2.196
 9487SOL     OW29359   3.752   3.604   3.977
 9487SOL    HW129360   3.831   3.661   3.952
 9487SOL    HW229361   3.728   3.621   4.073
 9488SOL     OW29362   1.454   0.981   1.631
 9488SOL    HW129363   1.499   1.063   1.667
 9488SOL    HW229364   1.509   0.901   1.652
 9489SOL     OW29365   2.716   4.715   0.481
 9489SOL    HW129366   2.705   4.754   0.572
 9489SOL    HW229367   2.644   4.751   0.421
 9490SOL     OW29368   4.852   1.364   6.870
 9490SOL    HW129369   4.947   1.338   6.850
 9490SOL    HW229370   4.808   1.393   6.785
 9491SOL     OW29371   6.264   5.829   5.997
 9491SOL    HW129372   6.333   5.902   5.994
 9491SOL    HW229373   6.185   5.856   5.941
 9492SOL     OW29374   2.401   4.790   1.493
 9492SOL    HW129375   2.394   4.741   1.407
 9492SOL    HW229376   2.320   4.848   1.506
 9493SOL     OW29377   5.301   6.349   2.581
 9493SOL    HW129378   5.375   6.397   2.626
 9493SOL    HW229379   5.224   6.411   2.567
 9494SOL     OW29380   3.741   3.363   6.439
 9494SOL    HW129381   3.793   3.372   6.524
 9494SOL    HW229382   3.696   3.450   6.418
 9495SOL     OW29383   5.130   2.312   4.302
 9495SOL    HW129384   5.051   2.293   4.243
 9495SOL    HW229385   5.202   2.356   4.248
 9496SOL     OW29386   6.372   4.286   0.565
 9496SOL    HW129387   6.335   4.194   0.575
 9496SOL    HW229388   6.472   4.283   0.569
 9497SOL     OW29389   0.801   6.026   6.161
 9497SOL    HW129390   0.896   6.043   6.135
 9497SOL    HW229391   0.774   6.090   6.233
 9498SOL     OW29392   4.007   6.918   6.655
 9498SOL    HW129393   3.931   6.979   6.673
 9498SOL    HW229394   4.002   6.886   6.560
 9499SOL     OW29395   4.589   3.854   5.552
 9499SOL    HW129396   4.621   3.943   5.586
 9499SOL    HW229397   4.489   3.855   5.548
 9500SOL     OW29398   4.703   5.488   1.285
 9500SOL    HW129399   4.797   5.522   1.288
 9500SOL    HW229400   4.642   5.554   1.330
 9501SOL     OW29401   3.548   1.959   4.945
 9501SOL    HW129402   3.504   1.938   4.857
 9501SOL    HW229403   3.485   2.010   5.003
 9502SOL     OW29404   3.449   3.307   5.672
 9502SOL    HW129405   3.352   3.287   5.657
 9502SOL    HW229406   3.488   3.348   5.589
 9503SOL     OW29407   1.280   6.689   1.458
 9503SOL    HW129408   1.202   6.751   1.457
 9503SOL    HW229409   1.365   6.743   1.457
 9504SOL     OW29410   0.751   3.153   0.455
 9504SOL    HW129411   0.714   3.220   0.390
 9504SOL    HW229412   0.795   3.201   0.531
 9505SOL     OW29413   5.144   3.172   2.710
 9505SOL    HW129414   5.073   3.155   2.642
 9505SOL    HW229415   5.184   3.262   2.693
 9506SOL     OW29416   6.631   2.092   1.323
 9506SOL    HW129417   6.682   2.008   1.342
 9506SOL    HW229418   6.658   2.163   1.387
 9507SOL     OW29419   1.441   2.645   5.344
 9507SOL    HW129420   1.377   2.619   5.271
 9507SOL    HW229421   1.460   2.565   5.401
 9508SOL     OW29422   4.771   1.092   6.010
 9508SOL    HW129423   4.678   1.124   6.029
 9508SOL    HW229424   4.831   1.119   6.085
 9509SOL     OW29425   3.500   0.137   6.195
 9509SOL    HW129426   3.476   0.194   6.274
 9509SOL    HW229427   3.420   0.125   6.137
 9510SOL     OW29428   6.114   4.288   2.734
 9510SOL    HW129429   6.059   4.362   2.695
 9510SOL    HW229430   6.056   4.229   2.791
 9511SOL     OW29431   2.194   1.439   1.106
 9511SOL    HW129432   2.112   1.384   1.096
 9511SOL    HW229433   2.270   1.381   1.135
 9512SOL     OW29434   1.329   3.726   5.262
 9512SOL    HW129435   1.358   3.658   5.196
 9512SOL    HW229436   1.364   3.816   5.235
 9513SOL     OW29437   2.260   4.212   4.662
 9513SOL    HW129438   2.284   4.291   4.605
 9513SOL    HW229439   2.266   4.128   4.608
 9514SOL     OW29440   3.024   2.943   6.090
 9514SOL    HW129441   3.107   2.954   6.036
 9514SOL    HW229442   2.983   2.853   6.070
 9515SOL     OW29443   2.145   5.656   6.135
 9515SOL    HW129444   2.245   5.663   6.132
 9515SOL    HW229445   2.111   5.701   6.218
 9516SOL     OW29446   5.524   4.498   4.935
 9516SOL    HW129447   5.439   4.453   4.962
 9516SOL    HW229448   5.601   4.438   4.954
 9517SOL     OW29449   0.604   5.684   2.808
 9517SOL    HW129450   0.553   5.660   2.891
 9517SOL    HW229451   0.698   5.652   2.817
 9518SOL     OW29452   0.730   2.816   5.734
 9518SOL    HW129453   0.737   2.915   5.741
 9518SOL    HW229454   0.820   2.777   5.714
 9519SOL     OW29455   3.341   3.250   3.375
 9519SOL    HW129456   3.373   3.230   3.283
 9519SOL    HW229457   3.380   3.337   3.406
 9520SOL     OW29458   5.376   0.997   6.653
 9520SOL    HW129459   5.454   0.961   6.603
 9520SOL    HW229460   5.345   0.929   6.720
 9521SOL     OW29461   3.489   1.216   1.222
 9521SOL    HW129462   3.564   1.221   1.288
 9521SOL    HW229463   3.457   1.309   1.202
 9522SOL     OW29464   3.650   6.153   1.248
 9522SOL    HW129465   3.692   6.216   1.314
 9522SOL    HW229466   3.679   6.178   1.155
 9523SOL     OW29467   2.214   4.853   4.852
 9523SOL    HW129468   2.141   4.922   4.847
 9523SOL    HW229469   2.244   4.844   4.947
 9524SOL     OW29470   1.880   4.432   0.437
 9524SOL    HW129471   1.958   4.370   0.440
 9524SOL    HW229472   1.904   4.513   0.382
 9525SOL     OW29473   2.456   3.363   6.143
 9525SOL    HW129474   2.542   3.409   6.162
 9525SOL    HW229475   2.385   3.397   6.206
 9526SOL     OW29476   5.392   5.292   6.239
 9526SOL    HW129477   5.417   5.333   6.327
 9526SOL    HW229478   5.408   5.193   6.242
 9527SOL     OW29479   3.867   6.790   4.712
 9527SOL    HW129480   3.834   6.721   4.775
 9527SOL    HW229481   3.790   6.850   4.685
 9528SOL     OW29482   5.070   2.249   0.455
 9528SOL    HW129483   5.146   2.224   0.515
 9528SOL    HW229484   4.985   2.251   0.509
 9529SOL     OW29485   5.621   0.832   1.807
 9529SOL    HW129486   5.596   0.872   1.718
 9529SOL    HW229487   5.715   0.857   1.829
 9530SOL     OW29488   0.758   5.990   4.150
 9530SOL    HW129489   0.855   5.968   4.140
 9530SOL    HW229490   0.727   6.041   4.070
 9531SOL     OW29491   3.319   5.180   1.918
 9531SOL    HW129492   3.411   5.214   1.897
 9531SOL    HW229493   3.275   5.151   1.833
 9532SOL     OW29494   6.890   4.913   4.263
 9532SOL    HW129495   6.959   4.943   4.329
 9532SOL    HW229496   6.925   4.835   4.211
 9533SOL     OW29497   1.272   3.948   3.639
 9533SOL    HW129498   1.319   3.861   3.652
 9533SOL    HW229499   1.253   3.990   3.727
 9534SOL     OW29500   4.461   5.817   4.217
 9534SOL    HW129501   4.381   5.826   4.277
 9534SOL    HW229502   4.466   5.896   4.156
 9535SOL     OW29503   0.228   1.347   4.565
 9535SOL    HW129504   0.308   1.325   4.622
 9535SOL    HW229505   0.159   1.275   4.576
 9536SOL     OW29506   3.524   3.422   5.442
 9536SOL    HW129507   3.467   3.455   5.367
 9536SOL    HW229508   3.614   3.397   5.408
 9537SOL     OW29509   7.003   1.066   4.148
 9537SOL    HW129510   6.932   1.043   4.083
 9537SOL    HW229511   6.976   1.147   4.200
 9538SOL     OW29512   5.402   0.435   4.817
 9538SOL    HW129513   5.382   0.441   4.915
 9538SOL    HW229514   5.497   0.405   4.805
 9539SOL     OW29515   3.653   4.127   2.828
 9539SOL    HW129516   3.706   4.057   2.877
 9539SOL    HW229517   3.681   4.129   2.732
 9540SOL     OW29518   4.357   4.629   3.502
 9540SOL    HW129519   4.292   4.662   3.435
 9540SOL    HW229520   4.446   4.673   3.488
 9541SOL     OW29521   1.485   5.977   5.500
 9541SOL    HW129522   1.454   5.890   5.539
 9541SOL    HW229523   1.577   5.998   5.534
 9542SOL     OW29524   6.138   4.191   3.131
 9542SOL    HW129525   6.156   4.284   3.100
 9542SOL    HW229526   6.081   4.143   3.063
 9543SOL     OW29527   2.446   0.489   5.888
 9543SOL    HW129528   2.435   0.411   5.950
 9543SOL    HW229529   2.435   0.574   5.940
 9544SOL     OW29530   6.022   3.409   4.384
 9544SOL    HW129531   5.983   3.482   4.327
 9544SOL    HW229532   5.949   3.366   4.438
 9545SOL     OW29533   6.552   4.210   1.921
 9545SOL    HW129534   6.632   4.203   1.982
 9545SOL    HW229535   6.475   4.249   1.972
 9546SOL     OW29536   2.867   2.846   1.256
 9546SOL    HW129537   2.773   2.881   1.263
 9546SOL    HW229538   2.864   2.747   1.247
 9547SOL     OW29539   4.333   0.342   3.697
 9547SOL    HW129540   4.340   0.440   3.718
 9547SOL    HW229541   4.416   0.296   3.726
 9548SOL     OW29542   0.696   5.224   6.103
 9548SOL    HW129543   0.752   5.165   6.045
 9548SOL    HW229544   0.735   5.226   6.196
 9549SOL     OW29545   4.050   1.689   1.745
 9549SOL    HW129546   4.122   1.633   1.706
 9549SOL    HW229547   4.047   1.676   1.844
 9550SOL     OW29548   6.259   2.696   1.457
 9550SOL    HW129549   6.267   2.659   1.550
 9550SOL    HW229550   6.343   2.675   1.406
 9551SOL     OW29551   5.749   2.898   6.571
 9551SOL    HW129552   5.715   2.940   6.655
 9551SOL    HW229553   5.836   2.851   6.590
 9552SOL     OW29554   2.908   1.652   0.080
 9552SOL    HW129555   2.848   1.595   0.024
 9552SOL    HW229556   3.000   1.650   0.041
 9553SOL     OW29557   5.598   1.323   0.134
 9553SOL    HW129558   5.506   1.289   0.158
 9553SOL    HW229559   5.608   1.417   0.165
 9554SOL     OW29560   2.997   1.101   4.320
 9554SOL    HW129561   3.065   1.082   4.391
 9554SOL    HW229562   2.920   1.150   4.361
 9555SOL     OW29563   0.300   6.039   3.420
 9555SOL    HW129564   0.319   6.117   3.360
 9555SOL    HW229565   0.210   6.002   3.399
 9556SOL     OW29566   2.327   4.787   6.102
 9556SOL    HW129567   2.375   4.833   6.177
 9556SOL    HW229568   2.394   4.745   6.041
 9557SOL     OW29569   5.872   0.673   1.276
 9557SOL    HW129570   5.882   0.770   1.253
 9557SOL    HW229571   5.958   0.638   1.311
 9558SOL     OW29572   4.881   6.455   6.426
 9558SOL    HW129573   4.958   6.404   6.466
 9558SOL    HW229574   4.886   6.450   6.327
 9559SOL     OW29575   2.269   4.955   6.948
 9559SOL    HW129576   2.301   4.959   0.017
 9559SOL    HW229577   2.184   5.006   6.939
 9560SOL     OW29578   2.602   0.131   2.694
 9560SOL    HW129579   2.686   0.077   2.681
 9560SOL    HW229580   2.620   0.226   2.671
 9561SOL     OW29581   0.067   0.421   6.710
 9561SOL    HW129582   0.026   0.384   6.794
 9561SOL    HW229583   0.114   0.347   6.661
 9562SOL     OW29584   2.035   5.827   2.802
 9562SOL    HW129585   2.054   5.925   2.811
 9562SOL    HW229586   1.999   5.792   2.888
 9563SOL     OW29587   1.096   6.029   6.196
 9563SOL    HW129588   1.189   5.993   6.197
 9563SOL    HW229589   1.099   6.129   6.197
 9564SOL     OW29590   1.590   1.144   0.744
 9564SOL    HW129591   1.506   1.148   0.689
 9564SOL    HW229592   1.669   1.158   0.684
 9565SOL     OW29593   2.392   1.843   4.443
 9565SOL    HW129594   2.319   1.835   4.374
 9565SOL    HW229595   2.427   1.751   4.464
 9566SOL     OW29596   3.128   7.022   0.419
 9566SOL    HW129597   3.091   0.021   0.329
 9566SOL    HW229598   3.133   6.923   0.427
 9567SOL     OW29599   0.265   4.119   1.310
 9567SOL    HW129600   0.237   4.127   1.214
 9567SOL    HW229601   0.362   4.096   1.314
 9568SOL     OW29602   4.355   1.880   6.168
 9568SOL    HW129603   4.312   1.874   6.258
 9568SOL    HW229604   4.445   1.837   6.171
 9569SOL     OW29605   5.563   0.168   1.919
 9569SOL    HW129606   5.475   0.183   1.965
 9569SOL    HW229607   5.557   0.199   1.824
 9570SOL     OW29608   0.713   3.289   1.488
 9570SOL    HW129609   0.748   3.380   1.512
 9570SOL    HW229610   0.773   3.246   1.421
 9571SOL     OW29611   1.467   1.189   6.815
 9571SOL    HW129612   1.460   1.280   6.774
 9571SOL    HW229613   1.388   1.134   6.789
 9572SOL     OW29614   2.036   4.755   4.216
 9572SOL    HW129615   2.082   4.722   4.134
 9572SOL    HW229616   1.995   4.845   4.197
 9573SOL     OW29617   6.068   0.351   4.311
 9573SOL    HW129618   6.084   0.269   4.255
 9573SOL    HW229619   6.146   0.412   4.305
 9574SOL     OW29620   4.248   3.004   0.280
 9574SOL    HW129621   4.323   2.942   0.306
 9574SOL    HW229622   4.285   3.093   0.255
 9575SOL     OW29623   5.453   0.005   2.166
 9575SOL    HW129624   5.534   0.053   2.200
 9575SOL    HW229625   5.408   0.061   2.096
 9576SOL     OW29626   1.325   1.124   6.443
 9576SOL    HW129627   1.311   1.097   6.539
 9576SOL    HW229628   1.255   1.081   6.386
 9577SOL     OW29629   6.484   4.941   3.367
 9577SOL    HW129630   6.511   4.920   3.273
 9577SOL    HW229631   6.563   4.979   3.416
 9578SOL     OW29632   1.936   3.310   2.245
 9578SOL    HW129633   1.928   3.221   2.201
 9578SOL    HW229634   1.845   3.350   2.257
 9579SOL     OW29635   6.179   5.894   2.402
 9579SOL    HW129636   6.248   5.869   2.471
 9579SOL    HW229637   6.089   5.898   2.445
 9580SOL     OW29638   4.917   3.996   3.299
 9580SOL    HW129639   4.841   4.044   3.343
 9580SOL    HW229640   4.998   4.002   3.358
 9581SOL     OW29641   5.234   1.977   6.490
 9581SOL    HW129642   5.330   1.974   6.464
 9581SOL    HW229643   5.181   2.019   6.416
 9582SOL     OW29644   5.154   6.739   4.553
 9582SOL    HW129645   5.165   6.647   4.593
 9582SOL    HW229646   5.224   6.800   4.590
 9583SOL     OW29647   3.646   5.036   1.896
 9583SOL    HW129648   3.631   4.941   1.924
 9583SOL    HW229649   3.717   5.039   1.826
 9584SOL     OW29650   2.612   4.931   4.363
 9584SOL    HW129651   2.686   4.864   4.365
 9584SOL    HW229652   2.648   5.018   4.327
 9585SOL     OW29653   4.551   6.535   0.811
 9585SOL    HW129654   4.537   6.633   0.800
 9585SOL    HW229655   4.550   6.511   0.908
 9586SOL     OW29656   3.332   5.422   2.742
 9586SOL    HW129657   3.274   5.341   2.730
 9586SOL    HW229658   3.391   5.409   2.822
 9587SOL     OW29659   3.455   6.282   0.859
 9587SOL    HW129660   3.439   6.378   0.837
 9587SOL    HW229661   3.485   6.233   0.777
 9588SOL     OW29662   6.556   6.062   6.943
 9588SOL    HW129663   6.591   5.974   6.976
 9588SOL    HW229664   6.629   6.130   6.946
 9589SOL     OW29665   1.648   2.138   6.283
 9589SOL    HW129666   1.705   2.210   6.243
 9589SOL    HW229667   1.573   2.116   6.220
 9590SOL     OW29668   6.518   0.179   1.113
 9590SOL    HW129669   6.480   0.119   1.185
 9590SOL    HW229670   6.569   0.254   1.155
 9591SOL     OW29671   5.103   0.999   0.328
 9591SOL    HW129672   5.067   1.044   0.246
 9591SOL    HW229673   5.196   1.031   0.346
 9592SOL     OW29674   2.336   6.284   5.611
 9592SOL    HW129675   2.430   6.264   5.583
 9592SOL    HW229676   2.275   6.270   5.533
 9593SOL     OW29677   2.150   2.592   4.012
 9593SOL    HW129678   2.102   2.552   4.091
 9593SOL    HW229679   2.086   2.601   3.936
 9594SOL     OW29680   0.242   6.357   3.361
 9594SOL    HW129681   0.171   6.346   3.292
 9594SOL    HW229682   0.331   6.371   3.316
 9595SOL     OW29683   0.335   3.664   3.695
 9595SOL    HW129684   0.350   3.683   3.598
 9595SOL    HW229685   0.237   3.667   3.714
 9596SOL     OW29686   1.556   6.777   0.465
 9596SOL    HW129687   1.519   6.689   0.497
 9596SOL    HW229688   1.498   6.851   0.497
 9597SOL     OW29689   1.310   3.340   1.884
 9597SOL    HW129690   1.278   3.393   1.805
 9597SOL    HW229691   1.394   3.381   1.919
 9598SOL     OW29692   2.224   4.221   4.274
 9598SOL    HW129693   2.131   4.257   4.278
 9598SOL    HW229694   2.281   4.279   4.216
 9599SOL     OW29695   4.659   6.896   4.375
 9599SOL    HW129696   4.657   6.982   4.426
 9599SOL    HW229697   4.742   6.845   4.400
 9600SOL     OW29698   3.737   1.367   1.384
 9600SOL    HW129699   3.747   1.268   1.374
 9600SOL    HW229700   3.788   1.398   1.464
 9601SOL     OW29701   0.978   3.502   0.735
 9601SOL    HW129702   1.075   3.517   0.751
 9601SOL    HW229703   0.927   3.519   0.819
 9602SOL     OW29704   4.381   4.445   5.571
 9602SOL    HW129705   4.337   4.535   5.577
 9602SOL    HW229706   4.356   4.402   5.484
 9603SOL     OW29707   4.991   6.835   5.437
 9603SOL    HW129708   5.086   6.819   5.464
 9603SOL    HW229709   4.951   6.906   5.495
 9604SOL     OW29710   4.664   7.010   1.139
 9604SOL    HW129711   4.697   7.025   1.045
 9604SOL    HW229712   4.679   0.068   1.193
 9605SOL     OW29713   5.301   5.504   1.802
 9605SOL    HW129714   5.382   5.553   1.834
 9605SOL    HW229715   5.329   5.423   1.750
 9606SOL     OW29716   1.005   1.206   6.637
 9606SOL    HW129717   0.952   1.168   6.560
 9606SOL    HW229718   1.036   1.298   6.614
 9607SOL     OW29719   1.826   2.212   6.522
 9607SOL    HW129720   1.763   2.277   6.565
 9607SOL    HW229721   1.800   2.199   6.426
 9608SOL     OW29722   5.994   2.454   4.605
 9608SOL    HW129723   5.979   2.551   4.622
 9608SOL    HW229724   5.906   2.408   4.596
 9609SOL     OW29725   4.566   2.949   0.290
 9609SOL    HW129726   4.640   2.963   0.355
 9609SOL    HW229727   4.582   3.004   0.208
 9610SOL     OW29728   0.978   4.862   2.810
 9610SOL    HW129729   0.919   4.894   2.735
 9610SOL    HW229730   1.004   4.940   2.867
 9611SOL     OW29731   2.178   0.833   0.199
 9611SOL    HW129732   2.170   0.741   0.159
 9611SOL    HW229733   2.187   0.825   0.298
 9612SOL     OW29734   0.279   2.187   3.798
 9612SOL    HW129735   0.276   2.089   3.778
 9612SOL    HW229736   0.325   2.202   3.885
 9613SOL     OW29737   6.245   4.704   3.464
 9613SOL    HW129738   6.340   4.733   3.476
 9613SOL    HW229739   6.240   4.604   3.474
 9614SOL     OW29740   4.420   2.245   3.263
 9614SOL    HW129741   4.462   2.197   3.340
 9614SOL    HW229742   4.480   2.319   3.233
 9615SOL     OW29743   1.733   4.404   1.834
 9615SOL    HW129744   1.721   4.306   1.848
 9615SOL    HW229745   1.802   4.419   1.762
 9616SOL     OW29746   4.156   3.558   6.473
 9616SOL    HW129747   4.059   3.576   6.454
 9616SOL    HW229748   4.165   3.469   6.519
 9617SOL     OW29749   1.976   2.914   2.574
 9617SOL    HW129750   1.931   2.874   2.494
 9617SOL    HW229751   2.012   3.004   2.551
 9618SOL     OW29752   2.554   2.045   0.560
 9618SOL    HW129753   2.614   1.980   0.606
 9618SOL    HW229754   2.496   2.090   0.628
 9619SOL     OW29755   2.331   0.525   6.732
 9619SOL    HW129756   2.381   0.439   6.727
 9619SOL    HW229757   2.376   0.593   6.674
 9620SOL     OW29758   5.334   0.634   5.346
 9620SOL    HW129759   5.368   0.637   5.441
 9620SOL    HW229760   5.411   0.625   5.284
 9621SOL     OW29761   1.860   3.638   3.185
 9621SOL    HW129762   1.778   3.695   3.180
 9621SOL    HW229763   1.861   3.573   3.109
 9622SOL     OW29764   4.904   0.087   0.246
 9622SOL    HW129765   5.000   0.101   0.223
 9622SOL    HW229766   4.847   0.129   0.175
 9623SOL     OW29767   2.118   4.126   6.818
 9623SOL    HW129768   2.167   4.130   6.731
 9623SOL    HW229769   2.158   4.055   6.875
 9624SOL     OW29770   6.454   2.858   4.202
 9624SOL    HW129771   6.466   2.928   4.132
 9624SOL    HW229772   6.531   2.861   4.265
 9625SOL     OW29773   5.777   6.006   1.415
 9625SOL    HW129774   5.855   6.058   1.451
 9625SOL    HW229775   5.800   5.970   1.325
 9626SOL     OW29776   3.680   6.864   0.585
 9626SOL    HW129777   3.624   6.897   0.509
 9626SOL    HW229778   3.777   6.872   0.561
 9627SOL     OW29779   0.900   0.148   6.951
 9627SOL    HW129780   0.965   0.212   6.908
 9627SOL    HW229781   0.857   0.192   0.004
 9628SOL     OW29782   2.947   6.945   1.933
 9628SOL    HW129783   2.998   6.871   1.889
 9628SOL    HW229784   2.927   7.016   1.865
 9629SOL     OW29785   2.647   6.998   1.135
 9629SOL    HW129786   2.621   0.002   1.042
 9629SOL    HW229787   2.565   6.987   1.190
 9630SOL     OW29788   6.711   2.080   6.489
 9630SOL    HW129789   6.780   2.008   6.481
 9630SOL    HW229790   6.677   2.084   6.583
 9631SOL     OW29791   6.652   6.501   0.092
 9631SOL    HW129792   6.748   6.526   0.103
 9631SOL    HW229793   6.612   6.484   0.182
 9632SOL     OW29794   1.128   5.658   2.506
 9632SOL    HW129795   1.099   5.563   2.521
 9632SOL    HW229796   1.074   5.697   2.431
 9633SOL     OW29797   7.017   5.307   6.412
 9633SOL    HW129798   6.931   5.346   6.380
 9633SOL    HW229799   0.045   5.277   6.333
 9634SOL     OW29800   0.707   6.242   5.924
 9634SOL    HW129801   0.612   6.268   5.943
 9634SOL    HW229802   0.735   6.170   5.987
 9635SOL     OW29803   0.071   6.337   5.487
 9635SOL    HW129804   0.134   6.357   5.412
 9635SOL    HW229805   0.070   6.238   5.503
 9636SOL     OW29806   3.973   1.710   0.181
 9636SOL    HW129807   3.967   1.800   0.224
 9636SOL    HW229808   4.054   1.707   0.122
 9637SOL     OW29809   2.501   0.991   6.539
 9637SOL    HW129810   2.601   0.986   6.538
 9637SOL    HW229811   2.470   1.040   6.458
 9638SOL     OW29812   6.802   2.549   6.818
 9638SOL    HW129813   6.710   2.575   6.789
 9638SOL    HW229814   6.828   2.463   6.774
 9639SOL     OW29815   3.483   0.215   2.706
 9639SOL    HW129816   3.516   0.309   2.715
 9639SOL    HW229817   3.558   0.151   2.724
 9640SOL     OW29818   0.921   1.052   2.606
 9640SOL    HW129819   0.899   0.968   2.654
 9640SOL    HW229820   0.845   1.077   2.546
 9641SOL     OW29821   5.301   5.822   6.449
 9641SOL    HW129822   5.217   5.769   6.444
 9641SOL    HW229823   5.313   5.857   6.543
 9642SOL     OW29824   3.540   6.664   3.714
 9642SOL    HW129825   3.638   6.676   3.731
 9642SOL    HW229826   3.496   6.754   3.709
 9643SOL     OW29827   4.144   4.756   3.147
 9643SOL    HW129828   4.225   4.795   3.191
 9643SOL    HW229829   4.166   4.665   3.111
 9644SOL     OW29830   2.980   1.256   0.611
 9644SOL    HW129831   2.973   1.345   0.564
 9644SOL    HW229832   2.896   1.204   0.595
 9645SOL     OW29833   2.601   5.439   4.828
 9645SOL    HW129834   2.655   5.355   4.820
 9645SOL    HW229835   2.563   5.445   4.921
 9646SOL     OW29836   3.820   5.191   4.112
 9646SOL    HW129837   3.740   5.217   4.166
 9646SOL    HW229838   3.883   5.139   4.169
 9647SOL     OW29839   6.505   3.152   5.965
 9647SOL    HW129840   6.600   3.153   5.936
 9647SOL    HW229841   6.478   3.058   5.988
 9648SOL     OW29842   4.257   4.039   1.002
 9648SOL    HW129843   4.262   4.049   0.902
 9648SOL    HW229844   4.329   3.978   1.033
 9649SOL     OW29845   2.219   5.310   2.230
 9649SOL    HW129846   2.240   5.230   2.286
 9649SOL    HW229847   2.120   5.327   2.233
 9650SOL     OW29848   1.088   0.385   1.149
 9650SOL    HW129849   1.010   0.446   1.155
 9650SOL    HW229850   1.172   0.438   1.136
 9651SOL     OW29851   0.631   1.903   0.056
 9651SOL    HW129852   0.629   1.804   0.065
 9651SOL    HW229853   0.541   1.941   0.078
 9652SOL     OW29854   1.354   5.085   1.946
 9652SOL    HW129855   1.315   5.121   2.030
 9652SOL    HW229856   1.279   5.060   1.884
 9653SOL     OW29857   5.886   6.076   4.320
 9653SOL    HW129858   5.871   6.082   4.419
 9653SOL    HW229859   5.891   6.168   4.282
 9654SOL     OW29860   2.033   3.237   2.803
 9654SOL    HW129861   1.941   3.252   2.839
 9654SOL    HW229862   2.027   3.191   2.714
 9655SOL     OW29863   6.133   2.058   6.901
 9655SOL    HW129864   6.141   1.979   6.962
 9655SOL    HW229865   6.153   2.141   6.952
 9656SOL     OW29866   2.342   1.648   3.261
 9656SOL    HW129867   2.406   1.633   3.186
 9656SOL    HW229868   2.360   1.736   3.303
 9657SOL     OW29869   6.882   0.569   4.950
 9657SOL    HW129870   6.839   0.577   4.861
 9657SOL    HW229871   6.936   0.485   4.954
 9658SOL     OW29872   5.826   1.923   2.815
 9658SOL    HW129873   5.747   1.880   2.771
 9658SOL    HW229874   5.889   1.958   2.746
 9659SOL     OW29875   1.113   5.063   6.772
 9659SOL    HW129876   1.127   5.060   6.871
 9659SOL    HW229877   1.161   4.986   6.730
 9660SOL     OW29878   1.005   5.241   0.263
 9660SOL    HW129879   0.967   5.204   0.348
 9660SOL    HW229880   1.079   5.304   0.284
 9661SOL     OW29881   3.990   0.492   0.452
 9661SOL    HW129882   3.990   0.466   0.355
 9661SOL    HW229883   3.952   0.417   0.507
 9662SOL     OW29884   5.440   1.766   4.278
 9662SOL    HW129885   5.501   1.813   4.341
 9662SOL    HW229886   5.345   1.782   4.305
 9663SOL     OW29887   2.113   5.787   3.342
 9663SOL    HW129888   2.129   5.857   3.412
 9663SOL    HW229889   2.089   5.832   3.255
 9664SOL     OW29890   2.385   5.729   1.631
 9664SOL    HW129891   2.420   5.818   1.601
 9664SOL    HW229892   2.303   5.705   1.579
 9665SOL     OW29893   5.148   4.419   3.716
 9665SOL    HW129894   5.053   4.447   3.721
 9665SOL    HW229895   5.153   4.322   3.690
 9666SOL     OW29896   5.406   4.842   4.640
 9666SOL    HW129897   5.312   4.864   4.613
 9666SOL    HW229898   5.410   4.747   4.671
 9667SOL     OW29899   3.092   3.171   3.830
 9667SOL    HW129900   3.143   3.119   3.898
 9667SOL    HW229901   3.106   3.130   3.739
 9668SOL     OW29902   0.143   1.297   5.502
 9668SOL    HW129903   0.118   1.312   5.597
 9668SOL    HW229904   0.084   1.228   5.461
 9669SOL     OW29905   1.641   6.313   0.240
 9669SOL    HW129906   1.640   6.386   0.172
 9669SOL    HW229907   1.566   6.326   0.304
 9670SOL     OW29908   5.802   4.461   6.534
 9670SOL    HW129909   5.718   4.461   6.587
 9670SOL    HW229910   5.782   4.491   6.441
 9671SOL     OW29911   0.001   0.734   0.174
 9671SOL    HW129912   6.948   0.677   0.201
 9671SOL    HW229913   0.076   0.675   0.144
 9672SOL     OW29914   1.421   6.427   5.429
 9672SOL    HW129915   1.482   6.434   5.508
 9672SOL    HW229916   1.430   6.508   5.371
 9673SOL     OW29917   2.502   2.734   6.439
 9673SOL    HW129918   2.539   2.778   6.358
 9673SOL    HW229919   2.452   2.651   6.413
 9674SOL     OW29920   2.449   6.549   2.384
 9674SOL    HW129921   2.426   6.572   2.479
 9674SOL    HW229922   2.507   6.467   2.382
 9675SOL     OW29923   0.073   2.187   2.729
 9675SOL    HW129924   7.011   2.231   2.750
 9675SOL    HW229925   0.128   2.248   2.671
 9676SOL     OW29926   0.030   2.403   4.671
 9676SOL    HW129927   0.101   2.456   4.716
 9676SOL    HW229928   6.965   2.440   4.694
 9677SOL     OW29929   1.615   3.341   5.763
 9677SOL    HW129930   1.686   3.326   5.832
 9677SOL    HW229931   1.560   3.258   5.753
 9678SOL     OW29932   3.551   3.562   3.320
 9678SOL    HW129933   3.630   3.604   3.274
 9678SOL    HW229934   3.467   3.591   3.276
 9679SOL     OW29935   0.874   3.743   0.969
 9679SOL    HW129936   0.955   3.712   1.019
 9679SOL    HW229937   0.835   3.822   1.016
 9680SOL     OW29938   4.858   5.221   2.873
 9680SOL    HW129939   4.864   5.169   2.958
 9680SOL    HW229940   4.772   5.271   2.871
 9681SOL     OW29941   0.998   0.668   4.386
 9681SOL    HW129942   0.983   0.749   4.329
 9681SOL    HW229943   1.043   0.696   4.471
 9682SOL     OW29944   0.396   4.491   2.771
 9682SOL    HW129945   0.476   4.444   2.734
 9682SOL    HW229946   0.379   4.575   2.719
 9683SOL     OW29947   4.950   0.008   5.611
 9683SOL    HW129948   5.022   7.002   5.672
 9683SOL    HW229949   4.973   0.098   5.575
 9684SOL     OW29950   0.652   4.170   3.594
 9684SOL    HW129951   0.663   4.078   3.558
 9684SOL    HW229952   0.645   4.166   3.694
 9685SOL     OW29953   2.269   1.604   6.723
 9685SOL    HW129954   2.196   1.594   6.655
 9685SOL    HW229955   2.357   1.584   6.680
 9686SOL     OW29956   5.583   2.676   2.000
 9686SOL    HW129957   5.564   2.709   1.907
 9686SOL    HW229958   5.497   2.670   2.051
 9687SOL     OW29959   3.498   1.022   4.270
 9687SOL    HW129960   3.420   0.986   4.321
 9687SOL    HW229961   3.500   0.980   4.179
 9688SOL     OW29962   6.055   1.732   4.434
 9688SOL    HW129963   6.016   1.640   4.440
 9688SOL    HW229964   5.982   1.799   4.447
 9689SOL     OW29965   2.440   5.235   5.533
 9689SOL    HW129966   2.461   5.215   5.437
 9689SOL    HW229967   2.341   5.236   5.546
 9690SOL     OW29968   6.259   4.029   0.438
 9690SOL    HW129969   6.218   4.063   0.354
 9690SOL    HW229970   6.201   3.956   0.476
 9691SOL     OW29971   1.391   4.541   0.466
 9691SOL    HW129972   1.483   4.542   0.428
 9691SOL    HW229973   1.369   4.449   0.498
 9692SOL     OW29974   3.039   5.141   0.625
 9692SOL    HW129975   3.033   5.241   0.621
 9692SOL    HW229976   3.086   5.114   0.709
 9693SOL     OW29977   6.079   5.893   1.675
 9693SOL    HW129978   6.108   5.854   1.762
 9693SOL    HW229979   6.153   5.949   1.638
 9694SOL     OW29980   0.865   1.521   0.856
 9694SOL    HW129981   0.804   1.538   0.779
 9694SOL    HW229982   0.954   1.561   0.837
 9695SOL     OW29983   6.766   4.609   0.465
 9695SOL    HW129984   6.779   4.518   0.505
 9695SOL    HW229985   6.670   4.622   0.441
 9696SOL     OW29986   3.714   4.479   0.373
 9696SOL    HW129987   3.667   4.393   0.354
 9696SOL    HW229988   3.764   4.509   0.291
 9697SOL     OW29989   0.250   6.319   6.250
 9697SOL    HW129990   0.266   6.229   6.290
 9697SOL    HW229991   0.177   6.312   6.182
 9698SOL     OW29992   4.620   1.258   5.026
 9698SOL    HW129993   4.575   1.344   5.005
 9698SOL    HW229994   4.655   1.217   4.941
 9699SOL     OW29995   1.755   2.521   6.449
 9699SOL    HW129996   1.730   2.466   6.530
 9699SOL    HW229997   1.812   2.598   6.478
 9700SOL     OW29998   4.162   3.502   3.408
 9700SOL    HW129999   4.224   3.574   3.441
 9700SOL    HW230000   4.118   3.457   3.486
 9701SOL     OW30001   4.283   4.644   4.436
 9701SOL    HW130002   4.290   4.684   4.528
 9701SOL    HW230003   4.318   4.550   4.439
 9702SOL     OW30004   5.580   0.523   0.967
 9702SOL    HW130005   5.532   0.449   0.921
 9702SOL    HW230006   5.664   0.487   1.009
 9703SOL     OW30007   2.360   5.678   4.312
 9703SOL    HW130008   2.315   5.742   4.374
 9703SOL    HW230009   2.423   5.727   4.252
 9704SOL     OW30010   2.172   1.453   3.754
 9704SOL    HW130011   2.260   1.420   3.788
 9704SOL    HW230012   2.147   1.399   3.673
 9705SOL     OW30013   3.820   4.111   0.745
 9705SOL    HW130014   3.763   4.093   0.825
 9705SOL    HW230015   3.831   4.027   0.693
 9706SOL     OW30016   6.838   2.362   3.746
 9706SOL    HW130017   6.866   2.309   3.666
 9706SOL    HW230018   6.876   2.321   3.829
 9707SOL     OW30019   2.654   5.484   2.308
 9707SOL    HW130020   2.705   5.421   2.365
 9707SOL    HW230021   2.692   5.485   2.215
 9708SOL     OW30022   2.029   2.194   1.997
 9708SOL    HW130023   2.003   2.244   2.080
 9708SOL    HW230024   2.029   2.096   2.016
 9709SOL     OW30025   1.664   6.268   3.386
 9709SOL    HW130026   1.613   6.183   3.402
 9709SOL    HW230027   1.704   6.299   3.472
 9710SOL     OW30028   0.877   6.896   3.984
 9710SOL    HW130029   0.888   6.924   3.888
 9710SOL    HW230030   0.947   6.942   4.040
 9711SOL     OW30031   1.465   3.022   6.537
 9711SOL    HW130032   1.500   3.104   6.583
 9711SOL    HW230033   1.407   3.049   6.461
 9712SOL     OW30034   4.865   3.861   4.750
 9712SOL    HW130035   4.863   3.798   4.827
 9712SOL    HW230036   4.856   3.809   4.664
 9713SOL     OW30037   6.901   4.922   2.826
 9713SOL    HW130038   6.914   5.008   2.876
 9713SOL    HW230039   6.983   4.866   2.834
 9714SOL     OW30040   2.279   1.894   2.727
 9714SOL    HW130041   2.254   1.943   2.811
 9714SOL    HW230042   2.250   1.799   2.734
 9715SOL     OW30043   6.076   5.488   5.806
 9715SOL    HW130044   6.108   5.573   5.764
 9715SOL    HW230045   5.990   5.504   5.853
 9716SOL     OW30046   3.326   1.234   5.961
 9716SOL    HW130047   3.354   1.240   5.865
 9716SOL    HW230048   3.231   1.265   5.970
 9717SOL     OW30049   5.543   4.939   3.317
 9717SOL    HW130050   5.641   4.938   3.337
 9717SOL    HW230051   5.528   4.981   3.228
 9718SOL     OW30052   4.998   2.814   1.686
 9718SOL    HW130053   4.909   2.852   1.660
 9718SOL    HW230054   5.018   2.839   1.781
 9719SOL     OW30055   0.087   1.293   0.320
 9719SOL    HW130056   0.159   1.250   0.265
 9719SOL    HW230057   0.043   1.365   0.265
 9720SOL     OW30058   0.686   0.350   0.590
 9720SOL    HW130059   0.685   0.287   0.667
 9720SOL    HW230060   0.623   0.426   0.607
 9721SOL     OW30061   0.484   2.575   3.359
 9721SOL    HW130062   0.507   2.570   3.457
 9721SOL    HW230063   0.431   2.658   3.342
 9722SOL     OW30064   0.363   6.947   4.381
 9722SOL    HW130065   0.362   6.973   4.478
 9722SOL    HW230066   0.449   6.977   4.340
 9723SOL     OW30067   6.790   0.238   4.174
 9723SOL    HW130068   6.888   0.235   4.197
 9723SOL    HW230069   6.773   0.182   4.093
 9724SOL     OW30070   4.002   2.600   1.559
 9724SOL    HW130071   3.959   2.665   1.622
 9724SOL    HW230072   3.999   2.638   1.466
 9725SOL     OW30073   3.687   3.201   5.782
 9725SOL    HW130074   3.589   3.215   5.764
 9725SOL    HW230075   3.735   3.187   5.695
 9726SOL     OW30076   5.507   5.882   4.617
 9726SOL    HW130077   5.600   5.853   4.638
 9726SOL    HW230078   5.443   5.808   4.641
 9727SOL     OW30079   1.147   0.313   6.914
 9727SOL    HW130080   1.218   0.373   6.877
 9727SOL    HW230081   1.167   0.218   6.887
 9728SOL     OW30082   3.695   6.023   6.279
 9728SOL    HW130083   3.636   5.942   6.287
 9728SOL    HW230084   3.699   6.070   6.366
 9729SOL     OW30085   3.095   5.411   2.426
 9729SOL    HW130086   2.996   5.393   2.432
 9729SOL    HW230087   3.144   5.324   2.426
 9730SOL     OW30088   5.743   3.495   3.100
 9730SOL    HW130089   5.662   3.436   3.109
 9730SOL    HW230090   5.766   3.534   3.189
 9731SOL     OW30091   5.268   5.406   1.422
 9731SOL    HW130092   5.315   5.319   1.405
 9731SOL    HW230093   5.238   5.445   1.335
 9732SOL     OW30094   4.895   6.800   4.495
 9732SOL    HW130095   4.993   6.794   4.514
 9732SOL    HW230096   4.843   6.769   4.574
 9733SOL     OW30097   5.334   4.760   5.433
 9733SOL    HW130098   5.277   4.719   5.504
 9733SOL    HW230099   5.430   4.753   5.460
 9734SOL     OW30100   6.118   1.682   5.811
 9734SOL    HW130101   6.200   1.705   5.758
 9734SOL    HW230102   6.071   1.605   5.768
 9735SOL     OW30103   3.226   4.723   0.966
 9735SOL    HW130104   3.258   4.813   0.995
 9735SOL    HW230105   3.293   4.654   0.992
 9736SOL     OW30106   2.793   1.874   2.212
 9736SOL    HW130107   2.845   1.953   2.180
 9736SOL    HW230108   2.829   1.791   2.169
 9737SOL     OW30109   4.009   2.204   4.286
 9737SOL    HW130110   4.093   2.149   4.279
 9737SOL    HW230111   3.939   2.164   4.227
 9738SOL     OW30112   2.266   1.166   1.925
 9738SOL    HW130113   2.363   1.148   1.912
 9738SOL    HW230114   2.233   1.118   2.007
 9739SOL     OW30115   5.455   4.278   1.948
 9739SOL    HW130116   5.494   4.302   2.037
 9739SOL    HW230117   5.434   4.180   1.946
 9740SOL     OW30118   6.839   2.727   2.669
 9740SOL    HW130119   6.867   2.817   2.635
 9740SOL    HW230120   6.896   2.657   2.626
 9741SOL     OW30121   3.830   1.901   2.453
 9741SOL    HW130122   3.752   1.926   2.397
 9741SOL    HW230123   3.844   1.971   2.524
 9742SOL     OW30124   3.960   1.463   3.824
 9742SOL    HW130125   4.018   1.422   3.754
 9742SOL    HW230126   3.867   1.426   3.816
 9743SOL     OW30127   1.631   1.311   4.942
 9743SOL    HW130128   1.710   1.283   4.886
 9743SOL    HW230129   1.645   1.281   5.036
 9744SOL     OW30130   2.721   0.180   1.371
 9744SOL    HW130131   2.779   0.258   1.347
 9744SOL    HW230132   2.717   0.117   1.293
 9745SOL     OW30133   0.540   0.666   4.896
 9745SOL    HW130134   0.605   0.708   4.834
 9745SOL    HW230135   0.450   0.708   4.885
 9746SOL     OW30136   6.281   0.433   4.057
 9746SOL    HW130137   6.337   0.442   3.974
 9746SOL    HW230138   6.334   0.463   4.136
 9747SOL     OW30139   0.211   0.154   6.234
 9747SOL    HW130140   0.222   0.244   6.192
 9747SOL    HW230141   0.289   0.135   6.293
 9748SOL     OW30142   1.177   3.857   4.325
 9748SOL    HW130143   1.231   3.928   4.281
 9748SOL    HW230144   1.181   3.773   4.270
 9749SOL     OW30145   0.464   4.997   4.556
 9749SOL    HW130146   0.377   4.951   4.575
 9749SOL    HW230147   0.469   5.021   4.459
 9750SOL     OW30148   2.597   5.592   2.614
 9750SOL    HW130149   2.612   5.582   2.516
 9750SOL    HW230150   2.627   5.683   2.643
 9751SOL     OW30151   1.245   2.530   0.556
 9751SOL    HW130152   1.267   2.568   0.467
 9751SOL    HW230153   1.321   2.473   0.588
 9752SOL     OW30154   3.794   0.254   6.224
 9752SOL    HW130155   3.882   0.221   6.259
 9752SOL    HW230156   3.770   0.339   6.271
 9753SOL     OW30157   6.994   6.868   0.020
 9753SOL    HW130158   6.949   6.843   6.960
 9753SOL    HW230159   6.926   6.878   0.092
 9754SOL     OW30160   0.158   3.226   6.540
 9754SOL    HW130161   0.110   3.311   6.561
 9754SOL    HW230162   0.140   3.159   6.612
 9755SOL     OW30163   3.784   5.681   5.095
 9755SOL    HW130164   3.787   5.698   5.194
 9755SOL    HW230165   3.839   5.601   5.073
 9756SOL     OW30166   5.043   2.841   6.314
 9756SOL    HW130167   5.018   2.788   6.233
 9756SOL    HW230168   5.139   2.869   6.307
 9757SOL     OW30169   6.412   0.811   4.104
 9757SOL    HW130170   6.378   0.759   4.025
 9757SOL    HW230171   6.370   0.902   4.105
 9758SOL     OW30172   3.503   0.762   0.514
 9758SOL    HW130173   3.430   0.732   0.453
 9758SOL    HW230174   3.590   0.760   0.466
 9759SOL     OW30175   2.915   5.817   1.803
 9759SOL    HW130176   2.905   5.748   1.875
 9759SOL    HW230177   2.856   5.896   1.824
 9760SOL     OW30178   5.387   4.343   5.883
 9760SOL    HW130179   5.451   4.408   5.842
 9760SOL    HW230180   5.310   4.392   5.924
 9761SOL     OW30181   5.502   5.398   2.680
 9761SOL    HW130182   5.415   5.415   2.634
 9761SOL    HW230183   5.532   5.481   2.727
 9762SOL     OW30184   3.398   0.154   2.410
 9762SOL    HW130185   3.398   0.166   2.509
 9762SOL    HW230186   3.306   0.166   2.374
 9763SOL     OW30187   2.208   1.993   1.813
 9763SOL    HW130188   2.186   1.919   1.876
 9763SOL    HW230189   2.307   1.998   1.800
 9764SOL     OW30190   0.907   2.642   3.679
 9764SOL    HW130191   0.983   2.627   3.742
 9764SOL    HW230192   0.878   2.554   3.640
 9765SOL     OW30193   0.533   0.624   5.884
 9765SOL    HW130194   0.595   0.599   5.958
 9765SOL    HW230195   0.557   0.715   5.850
 9766SOL     OW30196   2.250   0.908   2.917
 9766SOL    HW130197   2.322   0.975   2.934
 9766SOL    HW230198   2.223   0.867   3.004
 9767SOL     OW30199   4.965   0.401   5.295
 9767SOL    HW130200   4.871   0.380   5.324
 9767SOL    HW230201   4.997   0.328   5.235
 9768SOL     OW30202   4.782   2.111   3.691
 9768SOL    HW130203   4.840   2.036   3.662
 9768SOL    HW230204   4.695   2.075   3.724
 9769SOL     OW30205   0.297   1.906   1.105
 9769SOL    HW130206   0.345   1.952   1.179
 9769SOL    HW230207   0.249   1.974   1.049
 9770SOL     OW30208   0.593   2.680   5.520
 9770SOL    HW130209   0.561   2.600   5.571
 9770SOL    HW230210   0.630   2.748   5.584
 9771SOL     OW30211   2.530   6.040   4.001
 9771SOL    HW130212   2.561   6.031   3.906
 9771SOL    HW230213   2.540   6.135   4.031
 9772SOL     OW30214   5.894   0.018   1.133
 9772SOL    HW130215   5.821   0.035   1.199
 9772SOL    HW230216   5.865   6.974   1.067
 9773SOL     OW30217   4.939   5.497   3.831
 9773SOL    HW130218   4.885   5.510   3.913
 9773SOL    HW230219   4.885   5.451   3.761
 9774SOL     OW30220   0.008   5.058   4.543
 9774SOL    HW130221   7.007   4.962   4.540
 9774SOL    HW230222   0.060   5.081   4.460
 9775SOL     OW30223   2.862   1.598   5.139
 9775SOL    HW130224   2.940   1.660   5.148
 9775SOL    HW230225   2.862   1.558   5.048
 9776SOL     OW30226   6.973   4.790   4.536
 9776SOL    HW130227   0.018   4.727   4.505
 9776SOL    HW230228   6.884   4.762   4.499
 9777SOL     OW30229   5.112   6.030   6.381
 9777SOL    HW130230   5.177   5.957   6.357
 9777SOL    HW230231   5.132   6.111   6.327
 9778SOL     OW30232   3.987   0.622   4.446
 9778SOL    HW130233   3.984   0.720   4.462
 9778SOL    HW230234   3.962   0.574   4.530
 9779SOL     OW30235   3.360   2.417   6.831
 9779SOL    HW130236   3.345   2.457   6.921
 9779SOL    HW230237   3.447   2.450   6.794
 9780SOL     OW30238   2.084   3.772   1.177
 9780SOL    HW130239   2.098   3.689   1.123
 9780SOL    HW230240   2.105   3.753   1.273
 9781SOL     OW30241   1.155   6.774   4.657
 9781SOL    HW130242   1.085   6.779   4.728
 9781SOL    HW230243   1.236   6.727   4.693
 9782SOL     OW30244   5.999   0.215   0.967
 9782SOL    HW130245   6.082   0.239   1.018
 9782SOL    HW230246   5.961   0.129   1.003
 9783SOL     OW30247   6.110   6.921   3.684
 9783SOL    HW130248   6.017   6.886   3.692
 9783SOL    HW230249   6.152   6.886   3.600
 9784SOL     OW30250   5.291   0.352   4.265
 9784SOL    HW130251   5.275   0.447   4.237
 9784SOL    HW230252   5.384   0.342   4.299
 9785SOL     OW30253   0.946   2.208   1.269
 9785SOL    HW130254   1.000   2.124   1.270
 9785SOL    HW230255   0.976   2.266   1.194
 9786SOL     OW30256   2.291   0.100   4.186
 9786SOL    HW130257   2.283   0.188   4.138
 9786SOL    HW230258   2.200   0.061   4.200
 9787SOL     OW30259   5.398   4.248   1.374
 9787SOL    HW130260   5.336   4.322   1.349
 9787SOL    HW230261   5.349   4.180   1.428
 9788SOL     OW30262   6.771   0.509   6.090
 9788SOL    HW130263   6.681   0.470   6.069
 9788SOL    HW230264   6.842   0.445   6.059
 9789SOL     OW30265   1.591   4.247   4.699
 9789SOL    HW130266   1.690   4.250   4.690
 9789SOL    HW230267   1.566   4.249   4.796
 9790SOL     OW30268   0.053   1.355   3.846
 9790SOL    HW130269   0.087   1.281   3.788
 9790SOL    HW230270   6.980   1.367   3.832
 9791SOL     OW30271   1.339   2.618   1.254
 9791SOL    HW130272   1.335   2.520   1.236
 9791SOL    HW230273   1.266   2.664   1.203
 9792SOL     OW30274   3.592   5.672   2.313
 9792SOL    HW130275   3.640   5.661   2.226
 9792SOL    HW230276   3.592   5.584   2.362
 9793SOL     OW30277   5.234   6.362   2.301
 9793SOL    HW130278   5.269   6.322   2.386
 9793SOL    HW230279   5.237   6.461   2.306
 9794SOL     OW30280   3.710   3.184   6.920
 9794SOL    HW130281   3.628   3.238   6.901
 9794SOL    HW230282   3.781   3.244   6.956
 9795SOL     OW30283   1.522   4.765   3.177
 9795SOL    HW130284   1.596   4.832   3.176
 9795SOL    HW230285   1.537   4.698   3.103
 9796SOL     OW30286   3.582   5.224   6.823
 9796SOL    HW130287   3.525   5.188   6.896
 9796SOL    HW230288   3.678   5.215   6.848
 9797SOL     OW30289   5.804   2.987   5.150
 9797SOL    HW130290   5.826   2.896   5.116
 9797SOL    HW230291   5.771   2.980   5.244
 9798SOL     OW30292   2.823   1.623   2.079
 9798SOL    HW130293   2.731   1.651   2.050
 9798SOL    HW230294   2.850   1.541   2.030
 9799SOL     OW30295   3.759   3.668   3.134
 9799SOL    HW130296   3.827   3.610   3.179
 9799SOL    HW230297   3.723   3.621   3.053
 9800SOL     OW30298   3.658   6.213   0.318
 9800SOL    HW130299   3.750   6.243   0.343
 9800SOL    HW230300   3.595   6.290   0.328
 9801SOL     OW30301   5.357   5.170   1.376
 9801SOL    HW130302   5.381   5.097   1.439
 9801SOL    HW230303   5.302   5.133   1.301
 9802SOL     OW30304   0.783   5.774   2.093
 9802SOL    HW130305   0.837   5.734   2.167
 9802SOL    HW230306   0.725   5.847   2.128
 9803SOL     OW30307   5.378   6.974   6.453
 9803SOL    HW130308   5.409   6.881   6.471
 9803SOL    HW230309   5.291   6.990   6.501
 9804SOL     OW30310   5.021   5.205   4.676
 9804SOL    HW130311   4.993   5.156   4.758
 9804SOL    HW230312   5.036   5.301   4.699
 9805SOL     OW30313   3.621   3.800   0.908
 9805SOL    HW130314   3.661   3.819   0.997
 9805SOL    HW230315   3.687   3.820   0.836
 9806SOL     OW30316   6.895   1.702   2.415
 9806SOL    HW130317   6.938   1.639   2.350
 9806SOL    HW230318   6.957   1.779   2.431
 9807SOL     OW30319   2.160   3.287   0.894
 9807SOL    HW130320   2.163   3.279   0.794
 9807SOL    HW230321   2.145   3.196   0.934
 9808SOL     OW30322   2.026   2.310   3.568
 9808SOL    HW130323   2.047   2.358   3.653
 9808SOL    HW230324   2.079   2.350   3.493
 9809SOL     OW30325   0.805   0.301   4.280
 9809SOL    HW130326   0.893   0.325   4.322
 9809SOL    HW230327   0.739   0.374   4.300
 9810SOL     OW30328   4.306   1.758   2.480
 9810SOL    HW130329   4.296   1.746   2.381
 9810SOL    HW230330   4.332   1.670   2.521
 9811SOL     OW30331   1.484   0.692   3.215
 9811SOL    HW130332   1.573   0.736   3.200
 9811SOL    HW230333   1.484   0.644   3.303
 9812SOL     OW30334   5.770   3.433   6.321
 9812SOL    HW130335   5.702   3.378   6.273
 9812SOL    HW230336   5.788   3.393   6.411
 9813SOL     OW30337   6.241   4.763   0.506
 9813SOL    HW130338   6.221   4.840   0.566
 9813SOL    HW230339   6.215   4.677   0.551
 9814SOL     OW30340   6.277   0.899   5.976
 9814SOL    HW130341   6.251   0.995   5.976
 9814SOL    HW230342   6.376   0.891   5.986
 9815SOL     OW30343   0.020   4.675   2.053
 9815SOL    HW130344   6.973   4.622   2.098
 9815SOL    HW230345   7.006   4.758   2.013
 9816SOL     OW30346   6.474   1.749   5.123
 9816SOL    HW130347   6.408   1.733   5.197
 9816SOL    HW230348   6.556   1.695   5.140
 9817SOL     OW30349   2.479   1.225   0.693
 9817SOL    HW130350   2.507   1.304   0.746
 9817SOL    HW230351   2.431   1.160   0.752
 9818SOL     OW30352   0.704   0.146   2.427
 9818SOL    HW130353   0.701   0.153   2.527
 9818SOL    HW230354   0.642   0.215   2.387
 9819SOL     OW30355   5.841   1.559   4.375
 9819SOL    HW130356   5.834   1.580   4.277
 9819SOL    HW230357   5.753   1.580   4.419
 9820SOL     OW30358   3.475   0.567   6.620
 9820SOL    HW130359   3.408   0.524   6.681
 9820SOL    HW230360   3.503   0.501   6.550
 9821SOL     OW30361   4.786   3.854   6.893
 9821SOL    HW130362   4.853   3.928   6.879
 9821SOL    HW230363   4.830   3.766   6.877
 9822SOL     OW30364   3.126   5.434   3.824
 9822SOL    HW130365   3.091   5.407   3.914
 9822SOL    HW230366   3.217   5.473   3.834
 9823SOL     OW30367   4.685   6.136   3.066
 9823SOL    HW130368   4.775   6.117   3.104
 9823SOL    HW230369   4.624   6.167   3.138
 9824SOL     OW30370   1.425   5.714   5.554
 9824SOL    HW130371   1.420   5.690   5.651
 9824SOL    HW230372   1.341   5.684   5.507
 9825SOL     OW30373   1.289   6.252   4.999
 9825SOL    HW130374   1.319   6.161   4.970
 9825SOL    HW230375   1.265   6.250   5.096
 9826SOL     OW30376   1.900   6.017   6.138
 9826SOL    HW130377   1.893   5.917   6.135
 9826SOL    HW230378   1.907   6.048   6.233
 9827SOL     OW30379   2.040   4.782   1.961
 9827SOL    HW130380   1.958   4.831   1.931
 9827SOL    HW230381   2.097   4.761   1.881
 9828SOL     OW30382   4.749   2.197   4.039
 9828SOL    HW130383   4.732   2.106   4.001
 9828SOL    HW230384   4.791   2.189   4.129
 9829SOL     OW30385   5.567   4.517   5.714
 9829SOL    HW130386   5.649   4.464   5.735
 9829SOL    HW230387   5.586   4.580   5.639
 9830SOL     OW30388   6.319   1.112   2.925
 9830SOL    HW130389   6.240   1.143   2.872
 9830SOL    HW230390   6.398   1.102   2.865
 9831SOL     OW30391   0.947   5.001   1.419
 9831SOL    HW130392   0.945   4.904   1.440
 9831SOL    HW230393   0.894   5.052   1.487
 9832SOL     OW30394   5.122   5.827   5.323
 9832SOL    HW130395   5.181   5.746   5.320
 9832SOL    HW230396   5.027   5.799   5.334
 9833SOL     OW30397   3.952   3.022   4.410
 9833SOL    HW130398   3.935   2.987   4.317
 9833SOL    HW230399   3.892   2.975   4.474
 9834SOL     OW30400   3.904   5.859   6.220
 9834SOL    HW130401   3.818   5.910   6.225
 9834SOL    HW230402   3.976   5.920   6.187
 9835SOL     OW30403   3.787   3.390   3.806
 9835SOL    HW130404   3.796   3.471   3.864
 9835SOL    HW230405   3.747   3.315   3.859
 9836SOL     OW30406   6.393   2.881   6.011
 9836SOL    HW130407   6.404   2.837   5.922
 9836SOL    HW230408   6.296   2.894   6.030
 9837SOL     OW30409   6.751   0.751   3.977
 9837SOL    HW130410   6.806   0.680   4.022
 9837SOL    HW230411   6.656   0.742   4.006
 9838SOL     OW30412   0.661   5.992   1.051
 9838SOL    HW130413   0.581   6.013   0.995
 9838SOL    HW230414   0.691   5.899   1.034
 9839SOL     OW30415   3.951   6.502   3.739
 9839SOL    HW130416   4.023   6.571   3.729
 9839SOL    HW230417   3.978   6.419   3.690
 9840SOL     OW30418   6.430   2.276   6.671
 9840SOL    HW130419   6.338   2.277   6.632
 9840SOL    HW230420   6.478   2.360   6.647
 9841SOL     OW30421   0.227   5.730   2.233
 9841SOL    HW130422   0.294   5.733   2.159
 9841SOL    HW230423   0.273   5.742   2.321
 9842SOL     OW30424   3.898   0.212   0.485
 9842SOL    HW130425   3.816   0.178   0.439
 9842SOL    HW230426   3.979   0.169   0.445
 9843SOL     OW30427   0.641   0.101   0.442
 9843SOL    HW130428   0.685   0.125   0.529
 9843SOL    HW230429   0.710   0.081   0.373
 9844SOL     OW30430   4.891   0.871   4.733
 9844SOL    HW130431   4.965   0.933   4.758
 9844SOL    HW230432   4.838   0.847   4.814
 9845SOL     OW30433   0.950   3.584   2.114
 9845SOL    HW130434   1.014   3.507   2.105
 9845SOL    HW230435   0.857   3.549   2.127
 9846SOL     OW30436   5.769   2.076   2.236
 9846SOL    HW130437   5.819   2.074   2.149
 9846SOL    HW230438   5.698   2.147   2.231
 9847SOL     OW30439   4.055   4.313   7.007
 9847SOL    HW130440   4.130   4.350   6.953
 9847SOL    HW230441   4.091   4.244   0.046
 9848SOL     OW30442   2.899   3.969   5.606
 9848SOL    HW130443   2.952   4.007   5.682
 9848SOL    HW230444   2.945   3.991   5.520
 9849SOL     OW30445   1.636   2.199   2.176
 9849SOL    HW130446   1.652   2.109   2.135
 9849SOL    HW230447   1.716   2.257   2.161
 9850SOL     OW30448   1.870   0.544   4.347
 9850SOL    HW130449   1.793   0.584   4.296
 9850SOL    HW230450   1.842   0.530   4.442
 9851SOL     OW30451   3.727   5.425   3.345
 9851SOL    HW130452   3.647   5.434   3.404
 9851SOL    HW230453   3.809   5.414   3.402
 9852SOL     OW30454   2.539   0.230   0.476
 9852SOL    HW130455   2.580   0.140   0.491
 9852SOL    HW230456   2.594   0.300   0.521
 9853SOL     OW30457   0.261   3.720   4.224
 9853SOL    HW130458   0.321   3.800   4.227
 9853SOL    HW230459   0.284   3.664   4.144
 9854SOL     OW30460   6.002   4.283   6.866
 9854SOL    HW130461   6.060   4.220   6.814
 9854SOL    HW230462   6.040   4.376   6.860
 9855SOL     OW30463   1.307   5.898   0.749
 9855SOL    HW130464   1.326   5.877   0.845
 9855SOL    HW230465   1.235   5.967   0.743
 9856SOL     OW30466   4.861   4.283   3.016
 9856SOL    HW130467   4.895   4.279   3.110
 9856SOL    HW230468   4.768   4.320   3.016
 9857SOL     OW30469   5.341   0.514   5.632
 9857SOL    HW130470   5.278   0.440   5.655
 9857SOL    HW230471   5.320   0.594   5.687
 9858SOL     OW30472   0.170   5.108   2.825
 9858SOL    HW130473   0.160   5.011   2.846
 9858SOL    HW230474   0.093   5.159   2.865
 9859SOL     OW30475   0.718   5.328   2.510
 9859SOL    HW130476   0.812   5.356   2.529
 9859SOL    HW230477   0.663   5.335   2.594
 9860SOL     OW30478   1.687   3.394   3.614
 9860SOL    HW130479   1.699   3.399   3.514
 9860SOL    HW230480   1.739   3.317   3.650
 9861SOL     OW30481   3.633   2.138   4.300
 9861SOL    HW130482   3.701   2.154   4.371
 9861SOL    HW230483   3.671   2.163   4.211
 9862SOL     OW30484   1.889   2.686   6.644
 9862SOL    HW130485   1.916   2.769   6.692
 9862SOL    HW230486   1.957   2.614   6.658
 9863SOL     OW30487   3.743   6.119   1.701
 9863SOL    HW130488   3.701   6.095   1.789
 9863SOL    HW230489   3.795   6.204   1.712
 9864SOL     OW30490   3.023   5.595   4.933
 9864SOL    HW130491   2.941   5.587   4.876
 9864SOL    HW230492   3.085   5.664   4.894
 9865SOL     OW30493   2.503   6.363   6.149
 9865SOL    HW130494   2.424   6.308   6.178
 9865SOL    HW230495   2.587   6.317   6.177
 9866SOL     OW30496   6.742   5.625   6.013
 9866SOL    HW130497   6.803   5.705   6.021
 9866SOL    HW230498   6.719   5.611   5.917
 9867SOL     OW30499   4.878   1.024   2.695
 9867SOL    HW130500   4.970   0.999   2.724
 9867SOL    HW230501   4.872   1.019   2.595
 9868SOL     OW30502   2.330   4.318   3.162
 9868SOL    HW130503   2.283   4.231   3.173
 9868SOL    HW230504   2.414   4.305   3.109
 9869SOL     OW30505   5.494   2.047   2.823
 9869SOL    HW130506   5.580   2.096   2.809
 9869SOL    HW230507   5.505   1.981   2.897
 9870SOL     OW30508   1.734   2.911   2.780
 9870SOL    HW130509   1.713   2.879   2.688
 9870SOL    HW230510   1.825   2.954   2.781
 9871SOL     OW30511   5.903   5.350   3.468
 9871SOL    HW130512   5.810   5.386   3.454
 9871SOL    HW230513   5.928   5.291   3.391
 9872SOL     OW30514   0.958   6.528   5.765
 9872SOL    HW130515   1.005   6.612   5.737
 9872SOL    HW230516   0.873   6.519   5.713
 9873SOL     OW30517   0.234   0.319   4.968
 9873SOL    HW130518   0.279   0.369   5.042
 9873SOL    HW230519   0.258   0.360   4.880
 9874SOL     OW30520   6.411   1.568   3.900
 9874SOL    HW130521   6.488   1.626   3.925
 9874SOL    HW230522   6.445   1.482   3.863
 9875SOL     OW30523   6.301   5.919   1.048
 9875SOL    HW130524   6.377   5.954   0.993
 9875SOL    HW230525   6.257   5.843   1.000
 9876SOL     OW30526   0.421   0.390   3.562
 9876SOL    HW130527   0.517   0.381   3.589
 9876SOL    HW230528   0.375   0.302   3.571
 9877SOL     OW30529   1.555   5.699   4.978
 9877SOL    HW130530   1.572   5.792   5.011
 9877SOL    HW230531   1.565   5.635   5.054
 9878SOL     OW30532   4.561   3.498   0.196
 9878SOL    HW130533   4.614   3.570   0.152
 9878SOL    HW230534   4.623   3.429   0.233
 9879SOL     OW30535   5.211   5.623   4.481
 9879SOL    HW130536   5.185   5.564   4.558
 9879SOL    HW230537   5.217   5.568   4.398
 9880SOL     OW30538   2.773   1.145   0.865
 9880SOL    HW130539   2.695   1.141   0.803
 9880SOL    HW230540   2.805   1.051   0.885
 9881SOL     OW30541   6.723   6.658   2.731
 9881SOL    HW130542   6.741   6.740   2.786
 9881SOL    HW230543   6.743   6.678   2.635
 9882SOL     OW30544   3.257   4.031   4.481
 9882SOL    HW130545   3.292   3.938   4.466
 9882SOL    HW230546   3.213   4.064   4.398
 9883SOL     OW30547   1.816   6.329   2.604
 9883SOL    HW130548   1.890   6.282   2.556
 9883SOL    HW230549   1.813   6.425   2.575
 9884SOL     OW30550   3.260   2.661   5.305
 9884SOL    HW130551   3.171   2.703   5.322
 9884SOL    HW230552   3.248   2.579   5.249
 9885SOL     OW30553   5.186   2.135   5.111
 9885SOL    HW130554   5.279   2.173   5.112
 9885SOL    HW230555   5.129   2.187   5.175
 9886SOL     OW30556   2.673   6.352   1.489
 9886SOL    HW130557   2.747   6.341   1.424
 9886SOL    HW230558   2.644   6.448   1.491
 9887SOL     OW30559   3.735   1.266   0.152
 9887SOL    HW130560   3.722   1.271   0.251
 9887SOL    HW230561   3.833   1.267   0.131
 9888SOL     OW30562   6.212   6.702   4.178
 9888SOL    HW130563   6.118   6.684   4.206
 9888SOL    HW230564   6.236   6.796   4.200
 9889SOL     OW30565   6.760   5.932   2.206
 9889SOL    HW130566   6.666   5.962   2.195
 9889SOL    HW230567   6.780   5.860   2.139
 9890SOL     OW30568   1.575   3.050   2.936
 9890SOL    HW130569   1.637   2.998   2.877
 9890SOL    HW230570   1.481   3.022   2.918
 9891SOL     OW30571   3.807   6.913   1.757
 9891SOL    HW130572   3.861   6.990   1.791
 9891SOL    HW230573   3.710   6.936   1.760
 9892SOL     OW30574   2.069   6.004   3.177
 9892SOL    HW130575   2.047   6.068   3.251
 9892SOL    HW230576   1.985   5.982   3.126
 9893SOL     OW30577   5.872   4.780   5.169
 9893SOL    HW130578   5.936   4.775   5.093
 9893SOL    HW230579   5.781   4.752   5.138
 9894SOL     OW30580   4.327   3.895   5.617
 9894SOL    HW130581   4.324   3.952   5.699
 9894SOL    HW230582   4.239   3.848   5.605
 9895SOL     OW30583   5.198   2.228   5.559
 9895SOL    HW130584   5.165   2.237   5.653
 9895SOL    HW230585   5.272   2.161   5.556
 9896SOL     OW30586   4.245   3.921   0.141
 9896SOL    HW130587   4.153   3.959   0.151
 9896SOL    HW230588   4.248   3.862   0.060
 9897SOL     OW30589   1.243   1.421   2.514
 9897SOL    HW130590   1.234   1.432   2.613
 9897SOL    HW230591   1.154   1.397   2.475
 9898SOL     OW30592   0.423   5.527   0.310
 9898SOL    HW130593   0.364   5.551   0.233
 9898SOL    HW230594   0.513   5.569   0.297
 9899SOL     OW30595   4.391   5.580   1.208
 9899SOL    HW130596   4.369   5.483   1.208
 9899SOL    HW230597   4.327   5.629   1.267
 9900SOL     OW30598   1.779   5.983   3.338
 9900SOL    HW130599   1.788   5.893   3.295
 9900SOL    HW230600   1.796   6.054   3.271
 9901SOL     OW30601   2.841   1.459   5.938
 9901SOL    HW130602   2.888   1.545   5.956
 9901SOL    HW230603   2.896   1.404   5.875
 9902SOL     OW30604   3.961   4.224   0.449
 9902SOL    HW130605   3.901   4.179   0.382
 9902SOL    HW230606   3.931   4.318   0.463
 9903SOL     OW30607   2.244   1.144   1.185
 9903SOL    HW130608   2.231   1.082   1.108
 9903SOL    HW230609   2.338   1.180   1.183
 9904SOL     OW30610   6.679   6.362   2.128
 9904SOL    HW130611   6.639   6.453   2.131
 9904SOL    HW230612   6.607   6.294   2.112
 9905SOL     OW30613   2.452   7.005   0.067
 9905SOL    HW130614   2.415   0.063   0.027
 9905SOL    HW230615   2.489   6.947   7.019
 9906SOL     OW30616   3.631   3.752   5.991
 9906SOL    HW130617   3.623   3.685   5.917
 9906SOL    HW230618   3.551   3.742   6.052
 9907SOL     OW30619   1.109   6.326   3.008
 9907SOL    HW130620   1.084   6.326   3.105
 9907SOL    HW230621   1.126   6.420   2.978
 9908SOL     OW30622   6.828   3.128   5.063
 9908SOL    HW130623   6.887   3.209   5.060
 9908SOL    HW230624   6.884   3.047   5.078
 9909SOL     OW30625   2.352   6.012   3.295
 9909SOL    HW130626   2.269   6.020   3.350
 9909SOL    HW230627   2.327   6.006   3.199
 9910SOL     OW30628   0.979   5.528   0.879
 9910SOL    HW130629   1.027   5.535   0.966
 9910SOL    HW230630   1.008   5.446   0.831
 9911SOL     OW30631   3.726   4.902   2.704
 9911SOL    HW130632   3.788   4.972   2.667
 9911SOL    HW230633   3.773   4.813   2.705
 9912SOL     OW30634   5.768   6.581   6.875
 9912SOL    HW130635   5.818   6.632   6.946
 9912SOL    HW230636   5.812   6.596   6.787
 9913SOL     OW30637   6.031   1.787   2.965
 9913SOL    HW130638   5.956   1.823   2.910
 9913SOL    HW230639   6.080   1.717   2.914
 9914SOL     OW30640   1.679   5.244   3.807
 9914SOL    HW130641   1.636   5.267   3.894
 9914SOL    HW230642   1.625   5.280   3.732
 9915SOL     OW30643   6.039   5.035   4.600
 9915SOL    HW130644   5.972   5.109   4.589
 9915SOL    HW230645   6.101   5.058   4.676
 9916SOL     OW30646   1.886   3.401   0.635
 9916SOL    HW130647   1.866   3.312   0.676
 9916SOL    HW230648   1.884   3.471   0.707
 9917SOL     OW30649   1.657   3.636   4.704
 9917SOL    HW130650   1.723   3.693   4.754
 9917SOL    HW230651   1.645   3.550   4.753
 9918SOL     OW30652   2.041   1.935   4.799
 9918SOL    HW130653   1.972   1.975   4.858
 9918SOL    HW230654   2.131   1.974   4.821
 9919SOL     OW30655   0.682   6.074   1.318
 9919SOL    HW130656   0.777   6.106   1.317
 9919SOL    HW230657   0.646   6.076   1.224
 9920SOL     OW30658   2.883   0.685   3.208
 9920SOL    HW130659   2.942   0.734   3.143
 9920SOL    HW230660   2.788   0.694   3.179
 9921SOL     OW30661   4.879   0.601   2.308
 9921SOL    HW130662   4.819   0.673   2.274
 9921SOL    HW230663   4.974   0.630   2.303
 9922SOL     OW30664   6.152   3.208   2.124
 9922SOL    HW130665   6.158   3.134   2.190
 9922SOL    HW230666   6.180   3.176   2.033
 9923SOL     OW30667   5.576   0.274   6.427
 9923SOL    HW130668   5.580   0.208   6.503
 9923SOL    HW230669   5.631   0.240   6.351
 9924SOL     OW30670   5.607   0.360   3.285
 9924SOL    HW130671   5.675   0.418   3.328
 9924SOL    HW230672   5.581   0.287   3.348
 9925SOL     OW30673   4.074   2.141   5.160
 9925SOL    HW130674   4.093   2.219   5.101
 9925SOL    HW230675   4.122   2.152   5.247
 9926SOL     OW30676   2.207   0.820   5.889
 9926SOL    HW130677   2.185   0.751   5.957
 9926SOL    HW230678   2.287   0.873   5.919
 9927SOL     OW30679   1.389   3.696   3.657
 9927SOL    HW130680   1.317   3.627   3.644
 9927SOL    HW230681   1.435   3.679   3.744
 9928SOL     OW30682   6.539   2.824   2.517
 9928SOL    HW130683   6.621   2.881   2.508
 9928SOL    HW230684   6.481   2.861   2.590
 9929SOL     OW30685   1.165   5.177   4.693
 9929SOL    HW130686   1.198   5.186   4.787
 9929SOL    HW230687   1.079   5.228   4.683
 9930SOL     OW30688   0.016   5.515   6.607
 9930SOL    HW130689   0.014   5.415   6.611
 9930SOL    HW230690   0.053   5.543   6.518
 9931SOL     OW30691   1.979   4.535   7.022
 9931SOL    HW130692   1.995   4.437   0.002
 9931SOL    HW230693   2.066   4.583   7.005
 9932SOL     OW30694   2.139   2.269   1.300
 9932SOL    HW130695   2.072   2.316   1.356
 9932SOL    HW230696   2.214   2.237   1.358
 9933SOL     OW30697   1.223   1.729   3.635
 9933SOL    HW130698   1.272   1.763   3.555
 9933SOL    HW230699   1.126   1.747   3.625
 9934SOL     OW30700   5.076   0.396   5.752
 9934SOL    HW130701   5.035   0.473   5.702
 9934SOL    HW230702   5.006   0.354   5.810
 9935SOL     OW30703   2.964   2.949   0.426
 9935SOL    HW130704   2.984   3.029   0.370
 9935SOL    HW230705   2.867   2.926   0.419
 9936SOL     OW30706   4.591   6.221   7.016
 9936SOL    HW130707   4.610   6.318   0.006
 9936SOL    HW230708   4.596   6.202   6.918
 9937SOL     OW30709   1.751   6.864   4.722
 9937SOL    HW130710   1.736   6.873   4.820
 9937SOL    HW230711   1.663   6.850   4.676
 9938SOL     OW30712   0.463   1.445   3.138
 9938SOL    HW130713   0.407   1.518   3.177
 9938SOL    HW230714   0.416   1.404   3.060
 9939SOL     OW30715   2.962   3.785   1.084
 9939SOL    HW130716   3.042   3.725   1.078
 9939SOL    HW230717   2.990   3.880   1.072
 9940SOL     OW30718   0.079   0.870   3.200
 9940SOL    HW130719   0.012   0.910   3.262
 9940SOL    HW230720   0.169   0.910   3.218
 9941SOL     OW30721   5.919   3.609   0.313
 9941SOL    HW130722   5.820   3.598   0.312
 9941SOL    HW230723   5.959   3.549   0.383
 9942SOL     OW30724   6.018   5.406   2.422
 9942SOL    HW130725   6.092   5.383   2.359
 9942SOL    HW230726   6.057   5.436   2.510
 9943SOL     OW30727   1.007   4.689   4.928
 9943SOL    HW130728   0.987   4.684   4.830
 9943SOL    HW230729   0.929   4.728   4.977
 9944SOL     OW30730   2.585   5.938   6.501
 9944SOL    HW130731   2.583   5.849   6.548
 9944SOL    HW230732   2.663   5.941   6.438
 9945SOL     OW30733   6.296   3.074   5.797
 9945SOL    HW130734   6.300   2.974   5.798
 9945SOL    HW230735   6.378   3.111   5.841
 9946SOL     OW30736   5.631   1.822   0.877
 9946SOL    HW130737   5.632   1.769   0.962
 9946SOL    HW230738   5.696   1.898   0.886
 9947SOL     OW30739   0.773   0.246   3.365
 9947SOL    HW130740   0.870   0.271   3.369
 9947SOL    HW230741   0.730   0.290   3.286
 9948SOL     OW30742   5.033   0.662   5.361
 9948SOL    HW130743   5.011   0.566   5.349
 9948SOL    HW230744   5.132   0.673   5.367
 9949SOL     OW30745   6.795   3.002   2.674
 9949SOL    HW130746   6.736   3.069   2.629
 9949SOL    HW230747   6.789   3.013   2.773
 9950SOL     OW30748   5.286   4.961   6.533
 9950SOL    HW130749   5.277   5.058   6.556
 9950SOL    HW230750   5.321   4.911   6.613
 9951SOL     OW30751   0.104   1.844   2.589
 9951SOL    HW130752   0.190   1.867   2.636
 9951SOL    HW230753   0.034   1.912   2.612
 9952SOL     OW30754   1.460   4.775   1.977
 9952SOL    HW130755   1.487   4.870   1.992
 9952SOL    HW230756   1.541   4.717   1.982
 9953SOL     OW30757   5.947   4.593   4.836
 9953SOL    HW130758   5.907   4.529   4.901
 9953SOL    HW230759   6.042   4.613   4.863
 9954SOL     OW30760   4.444   1.767   1.433
 9954SOL    HW130761   4.409   1.677   1.457
 9954SOL    HW230762   4.424   1.786   1.337
 9955SOL     OW30763   6.388   5.182   1.572
 9955SOL    HW130764   6.290   5.202   1.570
 9955SOL    HW230765   6.436   5.253   1.623
 9956SOL     OW30766   1.740   4.125   3.354
 9956SOL    HW130767   1.662   4.140   3.414
 9956SOL    HW230768   1.793   4.047   3.387
 9957SOL     OW30769   5.868   6.767   0.072
 9957SOL    HW130770   5.846   6.864   0.082
 9957SOL    HW230771   5.840   6.717   0.154
 9958SOL     OW30772   6.427   6.121   5.642
 9958SOL    HW130773   6.424   6.193   5.573
 9958SOL    HW230774   6.363   6.143   5.715
 9959SOL     OW30775   6.420   5.801   6.607
 9959SOL    HW130776   6.515   5.795   6.578
 9959SOL    HW230777   6.360   5.790   6.527
 9960SOL     OW30778   6.651   0.213   6.356
 9960SOL    HW130779   6.652   0.125   6.404
 9960SOL    HW230780   6.583   0.211   6.283
 9961SOL     OW30781   3.319   6.476   0.639
 9961SOL    HW130782   3.271   6.510   0.719
 9961SOL    HW230783   3.291   6.382   0.620
 9962SOL     OW30784   3.424   0.489   1.297
 9962SOL    HW130785   3.465   0.398   1.299
 9962SOL    HW230786   3.401   0.518   1.390
 9963SOL     OW30787   1.054   0.132   6.527
 9963SOL    HW130788   1.049   0.228   6.500
 9963SOL    HW230789   1.099   0.125   6.616
 9964SOL     OW30790   4.448   5.407   5.443
 9964SOL    HW130791   4.466   5.424   5.347
 9964SOL    HW230792   4.477   5.314   5.466
 9965SOL     OW30793   1.874   5.314   4.698
 9965SOL    HW130794   1.859   5.251   4.775
 9965SOL    HW230795   1.877   5.262   4.613
 9966SOL     OW30796   2.183   5.016   1.826
 9966SOL    HW130797   2.101   4.967   1.856
 9966SOL    HW230798   2.229   4.963   1.755
 9967SOL     OW30799   6.931   0.297   2.513
 9967SOL    HW130800   6.979   0.347   2.585
 9967SOL    HW230801   6.836   0.328   2.508
 9968SOL     OW30802   4.930   6.610   0.428
 9968SOL    HW130803   4.845   6.582   0.473
 9968SOL    HW230804   4.969   6.532   0.380
 9969SOL     OW30805   0.461   6.314   3.213
 9969SOL    HW130806   0.464   6.379   3.136
 9969SOL    HW230807   0.495   6.225   3.183
 9970SOL     OW30808   0.061   2.954   1.261
 9970SOL    HW130809   0.020   2.902   1.335
 9970SOL    HW230810   0.136   3.010   1.297
 9971SOL     OW30811   6.560   5.191   5.802
 9971SOL    HW130812   6.598   5.099   5.809
 9971SOL    HW230813   6.529   5.222   5.893
 9972SOL     OW30814   2.885   4.712   5.822
 9972SOL    HW130815   2.969   4.689   5.774
 9972SOL    HW230816   2.858   4.805   5.800
 9973SOL     OW30817   2.624   2.330   2.955
 9973SOL    HW130818   2.710   2.289   2.925
 9973SOL    HW230819   2.607   2.413   2.903
 9974SOL     OW30820   0.834   3.249   3.506
 9974SOL    HW130821   0.871   3.206   3.424
 9974SOL    HW230822   0.782   3.182   3.558
 9975SOL     OW30823   0.969   4.570   0.029
 9975SOL    HW130824   0.940   4.652   0.077
 9975SOL    HW230825   1.066   4.552   0.050
 9976SOL     OW30826   4.302   5.966   5.200
 9976SOL    HW130827   4.268   5.890   5.145
 9976SOL    HW230828   4.353   6.029   5.141
 9977SOL     OW30829   4.646   0.066   5.552
 9977SOL    HW130830   4.591   0.008   5.491
 9977SOL    HW230831   4.693   0.008   5.619
 9978SOL     OW30832   6.785   2.856   0.326
 9978SOL    HW130833   6.834   2.851   0.412
 9978SOL    HW230834   6.834   2.803   0.256
 9979SOL     OW30835   3.908   4.033   3.682
 9979SOL    HW130836   3.997   4.076   3.695
 9979SOL    HW230837   3.854   4.041   3.767
 9980SOL     OW30838   0.571   0.305   6.685
 9980SOL    HW130839   0.547   0.383   6.744
 9980SOL    HW230840   0.570   0.221   6.739
 9981SOL     OW30841   5.543   1.348   1.162
 9981SOL    HW130842   5.595   1.398   1.231
 9981SOL    HW230843   5.570   1.251   1.163
 9982SOL     OW30844   2.795   2.002   5.245
 9982SOL    HW130845   2.761   1.924   5.298
 9982SOL    HW230846   2.870   1.972   5.186
 9983SOL     OW30847   0.147   3.004   2.101
 9983SOL    HW130848   0.095   3.025   2.018
 9983SOL    HW230849   0.242   3.031   2.089
 9984SOL     OW30850   1.059   4.373   1.356
 9984SOL    HW130851   1.097   4.417   1.437
 9984SOL    HW230852   1.133   4.328   1.306
 9985SOL     OW30853   4.815   4.204   6.247
 9985SOL    HW130854   4.788   4.283   6.302
 9985SOL    HW230855   4.735   4.168   6.199
 9986SOL     OW30856   5.723   4.090   6.687
 9986SOL    HW130857   5.727   4.092   6.787
 9986SOL    HW230858   5.633   4.122   6.657
 9987SOL     OW30859   5.085   2.459   0.746
 9987SOL    HW130860   5.070   2.490   0.652
 9987SOL    HW230861   5.088   2.359   0.749
 9988SOL     OW30862   5.659   6.383   3.466
 9988SOL    HW130863   5.751   6.362   3.499
 9988SOL    HW230864   5.604   6.421   3.540
 9989SOL     OW30865   6.012   5.693   2.052
 9989SOL    HW130866   5.962   5.753   2.115
 9989SOL    HW230867   5.947   5.632   2.006
 9990SOL     OW30868   0.306   5.921   3.116
 9990SOL    HW130869   0.221   5.955   3.156
 9990SOL    HW230870   0.313   5.822   3.133
 9991SOL     OW30871   1.981   3.481   2.035
 9991SOL    HW130872   1.988   3.401   2.094
 9991SOL    HW230873   2.069   3.499   1.992
 9992SOL     OW30874   1.916   4.661   0.260
 9992SOL    HW130875   1.861   4.638   0.180
 9992SOL    HW230876   2.000   4.708   0.231
 9993SOL     OW30877   3.397   0.039   4.298
 9993SOL    HW130878   3.360   6.993   4.357
 9993SOL    HW230879   3.480   0.007   4.253
 9994SOL     OW30880   5.847   5.046   5.218
 9994SOL    HW130881   5.830   4.949   5.200
 9994SOL    HW230882   5.880   5.090   5.134
 9995SOL     OW30883   4.264   1.170   5.893
 9995SOL    HW130884   4.244   1.268   5.882
 9995SOL    HW230885   4.235   1.140   5.983
 9996SOL     OW30886   2.487   4.671   1.008
 9996SOL    HW130887   2.485   4.598   1.077
 9996SOL    HW230888   2.561   4.654   0.943
 9997SOL     OW30889   6.277   0.920   2.690
 9997SOL    HW130890   6.277   0.925   2.789
 9997SOL    HW230891   6.352   0.976   2.654
 9998SOL     OW30892   5.278   3.707   1.873
 9998SOL    HW130893   5.201   3.648   1.898
 9998SOL    HW230894   5.287   3.780   1.941
 9999SOL     OW30895   0.491   6.776   5.175
 9999SOL    HW130896   0.526   6.738   5.090
 9999SOL    HW230897   0.402   6.820   5.158
10000SOL     OW30898   4.549   3.277   1.190
10000SOL    HW130899   4.572   3.222   1.271
10000SOL    HW230900   4.550   3.218   1.109
10001SOL     OW30901   3.869   6.657   1.660
10001SOL    HW130902   3.825   6.741   1.693
10001SOL    HW230903   3.966   6.659   1.684
10002SOL     OW30904   2.149   6.637   2.611
10002SOL    HW130905   2.240   6.653   2.573
10002SOL    HW230906   2.151   6.652   2.710
10003SOL     OW30907   0.515   1.032   2.641
10003SOL    HW130908   0.476   1.108   2.693
10003SOL    HW230909   0.441   0.973   2.607
10004SOL     OW30910   6.984   3.204   3.149
10004SOL    HW130911   6.961   3.300   3.134
10004SOL    HW230912   0.048   3.198   3.194
10005SOL     OW30913   2.047   5.889   2.508
10005SOL    HW130914   2.055   5.867   2.605
10005SOL    HW230915   2.118   5.841   2.457
10006SOL     OW30916   5.448   1.900   5.919
10006SOL    HW130917   5.452   1.999   5.925
10006SOL    HW230918   5.487   1.860   6.002
10007SOL     OW30919   1.154   4.716   3.786
10007SOL    HW130920   1.064   4.758   3.788
10007SOL    HW230921   1.178   4.691   3.692
10008SOL     OW30922   3.898   0.544   5.757
10008SOL    HW130923   3.903   0.504   5.848
10008SOL    HW230924   3.830   0.618   5.757
10009SOL     OW30925   1.602   5.052   1.854
10009SOL    HW130926   1.660   5.098   1.921
10009SOL    HW230927   1.506   5.070   1.874
10010SOL     OW30928   1.976   4.616   0.878
10010SOL    HW130929   1.911   4.668   0.822
10010SOL    HW230930   1.978   4.654   0.971
10011SOL     OW30931   3.313   3.846   0.159
10011SOL    HW130932   3.310   3.783   0.236
10011SOL    HW230933   3.355   3.801   0.080
10012SOL     OW30934   5.633   1.911   3.027
10012SOL    HW130935   5.650   1.914   3.126
10012SOL    HW230936   5.708   1.957   2.979
10013SOL     OW30937   0.418   6.162   5.547
10013SOL    HW130938   0.347   6.131   5.483
10013SOL    HW230939   0.466   6.083   5.584
10014SOL     OW30940   1.507   0.968   2.820
10014SOL    HW130941   1.471   1.060   2.806
10014SOL    HW230942   1.465   0.928   2.901
10015SOL     OW30943   4.485   0.368   6.753
10015SOL    HW130944   4.518   0.311   6.678
10015SOL    HW230945   4.393   0.340   6.780
10016SOL     OW30946   3.150   1.052   4.528
10016SOL    HW130947   3.193   1.124   4.582
10016SOL    HW230948   3.222   0.994   4.487
10017SOL     OW30949   2.950   1.166   2.712
10017SOL    HW130950   2.936   1.178   2.810
10017SOL    HW230951   2.874   1.208   2.662
10018SOL     OW30952   0.109   4.940   5.826
10018SOL    HW130953   0.109   4.865   5.892
10018SOL    HW230954   0.068   4.909   5.740
10019SOL     OW30955   6.883   1.775   2.868
10019SOL    HW130956   6.819   1.852   2.865
10019SOL    HW230957   6.863   1.711   2.793
10020SOL     OW30958   6.687   0.644   2.398
10020SOL    HW130959   6.617   0.690   2.343
10020SOL    HW230960   6.774   0.691   2.387
10021SOL     OW30961   1.128   3.108   1.748
10021SOL    HW130962   1.106   3.154   1.835
10021SOL    HW230963   1.100   3.166   1.672
10022SOL     OW30964   1.202   6.636   5.844
10022SOL    HW130965   1.243   6.651   5.935
10022SOL    HW230966   1.266   6.668   5.774
10023SOL     OW30967   1.103   1.689   5.503
10023SOL    HW130968   1.047   1.750   5.448
10023SOL    HW230969   1.108   1.599   5.459
10024SOL     OW30970   2.237   4.148   3.455
10024SOL    HW130971   2.216   4.246   3.460
10024SOL    HW230972   2.202   4.112   3.369
10025SOL     OW30973   0.355   2.734   0.684
10025SOL    HW130974   0.335   2.746   0.781
10025SOL    HW230975   0.454   2.722   0.672
10026SOL     OW30976   6.728   1.057   5.030
10026SOL    HW130977   6.670   1.137   5.015
10026SOL    HW230978   6.684   0.995   5.094
10027SOL     OW30979   3.461   1.207   5.717
10027SOL    HW130980   3.437   1.125   5.664
10027SOL    HW230981   3.433   1.288   5.666
10028SOL     OW30982   3.737   6.824   2.512
10028SOL    HW130983   3.716   6.729   2.533
10028SOL    HW230984   3.651   6.875   2.503
10029SOL     OW30985   6.630   4.925   4.285
10029SOL    HW130986   6.730   4.929   4.285
10029SOL    HW230987   6.596   4.933   4.379
10030SOL     OW30988   2.847   6.875   4.091
10030SOL    HW130989   2.888   6.787   4.116
10030SOL    HW230990   2.828   6.877   3.993
10031SOL     OW30991   1.930   6.322   4.273
10031SOL    HW130992   1.919   6.325   4.373
10031SOL    HW230993   1.990   6.245   4.249
10032SOL     OW30994   2.734   5.694   4.042
10032SOL    HW130995   2.767   5.713   3.949
10032SOL    HW230996   2.656   5.630   4.037
10033SOL     OW30997   2.957   1.236   4.670
10033SOL    HW130998   2.911   1.226   4.582
10033SOL    HW230999   3.053   1.262   4.655
10034SOL     OW31000   2.241   0.980   1.696
10034SOL    HW131001   2.261   1.058   1.754
10034SOL    HW231002   2.261   1.002   1.601
10035SOL     OW31003   0.395   3.212   1.958
10035SOL    HW131004   0.383   3.140   1.890
10035SOL    HW231005   0.455   3.179   2.031
10036SOL     OW31006   0.139   1.368   6.862
10036SOL    HW131007   0.208   1.355   6.790
10036SOL    HW231008   0.148   1.459   6.901
10037SOL     OW31009   6.388   0.478   6.185
10037SOL    HW131010   6.449   0.545   6.226
10037SOL    HW231011   6.345   0.423   6.257
10038SOL     OW31012   5.312   6.865   6.997
10038SOL    HW131013   5.249   6.886   6.921
10038SOL    HW231014   5.400   6.837   6.959
10039SOL     OW31015   0.046   5.323   1.729
10039SOL    HW131016   6.975   5.298   1.718
10039SOL    HW231017   0.061   5.357   1.821
10040SOL     OW31018   2.732   6.971   0.137
10040SOL    HW131019   2.638   6.976   0.103
10040SOL    HW231020   2.733   6.917   0.222
10041SOL     OW31021   5.376   5.180   5.424
10041SOL    HW131022   5.298   5.128   5.458
10041SOL    HW231023   5.424   5.223   5.501
10042SOL     OW31024   6.240   0.892   5.664
10042SOL    HW131025   6.275   0.943   5.585
10042SOL    HW231026   6.284   0.925   5.747
10043SOL     OW31027   0.765   0.612   2.948
10043SOL    HW131028   0.856   0.650   2.932
10043SOL    HW231029   0.705   0.637   2.872
10044SOL     OW31030   2.799   2.304   6.701
10044SOL    HW131031   2.733   2.288   6.774
10044SOL    HW231032   2.767   2.379   6.643
10045SOL     OW31033   4.307   7.013   4.167
10045SOL    HW131034   4.337   0.024   4.255
10045SOL    HW231035   4.260   6.926   4.181
10046SOL     OW31036   6.827   1.895   1.695
10046SOL    HW131037   6.908   1.856   1.650
10046SOL    HW231038   6.833   1.995   1.691
10047SOL     OW31039   1.578   2.603   2.909
10047SOL    HW131040   1.516   2.682   2.907
10047SOL    HW231041   1.588   2.572   3.004
10048SOL     OW31042   3.602   2.570   1.728
10048SOL    HW131043   3.562   2.632   1.796
10048SOL    HW231044   3.614   2.480   1.768
10049SOL     OW31045   1.552   5.555   4.680
10049SOL    HW131046   1.632   5.591   4.727
10049SOL    HW231047   1.514   5.479   4.732
10050SOL     OW31048   5.886   1.714   4.664
10050SOL    HW131049   5.798   1.669   4.647
10050SOL    HW231050   5.960   1.653   4.634
10051SOL     OW31051   6.147   2.116   0.990
10051SOL    HW131052   6.064   2.099   1.042
10051SOL    HW231053   6.226   2.082   1.040
10052SOL     OW31054   1.907   5.010   0.889
10052SOL    HW131055   1.895   4.937   0.821
10052SOL    HW231056   1.925   5.096   0.842
10053SOL     OW31057   3.166   6.254   3.383
10053SOL    HW131058   3.111   6.239   3.300
10053SOL    HW231059   3.207   6.168   3.411
10054SOL     OW31060   4.749   5.352   3.645
10054SOL    HW131061   4.770   5.256   3.668
10054SOL    HW231062   4.800   5.378   3.563
10055SOL     OW31063   5.292   2.980   6.850
10055SOL    HW131064   5.356   3.027   6.911
10055SOL    HW231065   5.214   3.039   6.832
10056SOL     OW31066   5.205   4.160   3.049
10056SOL    HW131067   5.157   4.247   3.040
10056SOL    HW231068   5.145   4.086   3.022
10057SOL     OW31069   2.268   2.479   3.157
10057SOL    HW131070   2.201   2.543   3.120
10057SOL    HW231071   2.299   2.418   3.084
10058SOL     OW31072   0.560   4.955   4.116
10058SOL    HW131073   0.654   4.987   4.107
10058SOL    HW231074   0.509   5.017   4.174
10059SOL     OW31075   5.017   6.842   1.664
10059SOL    HW131076   5.107   6.800   1.661
10059SOL    HW231077   5.006   6.904   1.586
10060SOL     OW31078   2.299   2.783   2.234
10060SOL    HW131079   2.352   2.698   2.234
10060SOL    HW231080   2.297   2.821   2.327
10061SOL     OW31081   6.494   1.835   5.459
10061SOL    HW131082   6.583   1.821   5.416
10061SOL    HW231083   6.448   1.912   5.414
10062SOL     OW31084   5.425   5.955   3.110
10062SOL    HW131085   5.377   6.017   3.172
10062SOL    HW231086   5.522   5.979   3.109
10063SOL     OW31087   0.682   2.355   2.013
10063SOL    HW131088   0.669   2.334   1.916
10063SOL    HW231089   0.664   2.452   2.029
10064SOL     OW31090   4.732   5.438   5.477
10064SOL    HW131091   4.635   5.458   5.490
10064SOL    HW231092   4.763   5.375   5.548
10065SOL     OW31093   0.515   0.010   2.720
10065SOL    HW131094   0.425   0.016   2.764
10065SOL    HW231095   0.584   0.047   2.782
10066SOL     OW31096   0.272   0.802   3.869
10066SOL    HW131097   0.329   0.775   3.791
10066SOL    HW231098   0.293   0.897   3.893
10067SOL     OW31099   4.431   6.764   3.521
10067SOL    HW131100   4.513   6.802   3.478
10067SOL    HW231101   4.457   6.703   3.595
10068SOL     OW31102   5.353   3.498   5.478
10068SOL    HW131103   5.348   3.552   5.563
10068SOL    HW231104   5.335   3.558   5.400
10069SOL     OW31105   5.220   1.223   3.942
10069SOL    HW131106   5.141   1.226   4.004
10069SOL    HW231107   5.216   1.141   3.886
10070SOL     OW31108   1.279   0.253   4.515
10070SOL    HW131109   1.327   0.223   4.432
10070SOL    HW231110   1.202   0.192   4.533
10071SOL     OW31111   5.242   4.462   5.208
10071SOL    HW131112   5.286   4.372   5.209
10071SOL    HW231113   5.241   4.500   5.300
10072SOL     OW31114   1.045   6.595   4.489
10072SOL    HW131115   1.097   6.657   4.547
10072SOL    HW231116   1.019   6.642   4.405
10073SOL     OW31117   6.950   5.761   6.639
10073SOL    HW131118   7.001   5.676   6.651
10073SOL    HW231119   6.856   5.740   6.612
10074SOL     OW31120   2.596   0.019   4.819
10074SOL    HW131121   2.559   0.105   4.855
10074SOL    HW231122   2.543   7.016   4.739
10075SOL     OW31123   1.666   2.665   4.503
10075SOL    HW131124   1.578   2.683   4.546
10075SOL    HW231125   1.728   2.742   4.519
10076SOL     OW31126   5.888   0.035   3.934
10076SOL    HW131127   5.863   0.068   3.843
10076SOL    HW231128   5.981   7.025   3.932
10077SOL     OW31129   3.314   1.757   6.643
10077SOL    HW131130   3.279   1.685   6.583
10077SOL    HW231131   3.305   1.728   6.738
10078SOL     OW31132   5.348   5.972   5.367
10078SOL    HW131133   5.429   5.945   5.315
10078SOL    HW231134   5.269   5.920   5.336
10079SOL     OW31135   0.248   2.725   6.154
10079SOL    HW131136   0.168   2.784   6.165
10079SOL    HW231137   0.299   2.723   6.239
10080SOL     OW31138   1.152   2.868   5.534
10080SOL    HW131139   1.093   2.801   5.579
10080SOL    HW231140   1.247   2.838   5.538
10081SOL     OW31141   0.354   1.469   0.116
10081SOL    HW131142   0.443   1.507   0.091
10081SOL    HW231143   0.357   1.370   0.104
10082SOL     OW31144   6.966   0.452   0.553
10082SOL    HW131145   0.009   0.490   0.615
10082SOL    HW231146   6.997   0.463   0.459
10083SOL     OW31147   5.529   1.555   4.121
10083SOL    HW131148   5.558   1.462   4.144
10083SOL    HW231149   5.478   1.594   4.198
10084SOL     OW31150   2.586   0.649   6.612
10084SOL    HW131151   2.553   0.732   6.567
10084SOL    HW231152   2.665   0.672   6.669
10085SOL     OW31153   0.944   5.155   2.643
10085SOL    HW131154   0.988   5.139   2.732
10085SOL    HW231155   0.857   5.106   2.639
10086SOL     OW31156   6.983   3.309   1.818
10086SOL    HW131157   7.017   3.399   1.848
10086SOL    HW231158   6.899   3.288   1.867
10087SOL     OW31159   1.862   0.599   3.372
10087SOL    HW131160   1.840   0.571   3.279
10087SOL    HW231161   1.891   0.695   3.372
10088SOL     OW31162   5.893   0.563   4.594
10088SOL    HW131163   5.934   0.654   4.583
10088SOL    HW231164   5.964   0.499   4.625
10089SOL     OW31165   2.218   2.305   1.853
10089SOL    HW131166   2.307   2.261   1.866
10089SOL    HW231167   2.154   2.269   1.920
10090SOL     OW31168   0.067   5.430   1.962
10090SOL    HW131169   0.062   5.529   1.956
10090SOL    HW231170   0.107   5.403   2.050
10091SOL     OW31171   0.368   1.913   3.814
10091SOL    HW131172   0.298   1.841   3.809
10091SOL    HW231173   0.454   1.879   3.778
10092SOL     OW31174   1.760   2.830   5.208
10092SOL    HW131175   1.789   2.924   5.225
10092SOL    HW231176   1.668   2.830   5.171
10093SOL     OW31177   6.874   6.402   6.329
10093SOL    HW131178   6.899   6.499   6.330
10093SOL    HW231179   6.792   6.388   6.384
10094SOL     OW31180   1.612   0.547   1.767
10094SOL    HW131181   1.655   0.520   1.681
10094SOL    HW231182   1.580   0.465   1.815
10095SOL     OW31183   7.013   2.195   5.359
10095SOL    HW131184   6.947   2.269   5.373
10095SOL    HW231185   0.032   2.172   5.446
10096SOL     OW31186   0.092   5.516   2.620
10096SOL    HW131187   0.034   5.590   2.587
10096SOL    HW231188   0.160   5.494   2.550
10097SOL     OW31189   1.007   2.696   5.698
10097SOL    HW131190   0.960   2.609   5.685
10097SOL    HW231191   1.097   2.679   5.739
10098SOL     OW31192   3.692   4.847   6.532
10098SOL    HW131193   3.729   4.921   6.476
10098SOL    HW231194   3.615   4.804   6.484
10099SOL     OW31195   7.014   4.657   4.815
10099SOL    HW131196   6.929   4.624   4.857
10099SOL    HW231197   6.992   4.709   4.733
10100SOL     OW31198   5.090   0.251   5.529
10100SOL    HW131199   5.038   0.300   5.459
10100SOL    HW231200   5.097   0.307   5.611
10101SOL     OW31201   6.946   4.626   2.439
10101SOL    HW131202   6.995   4.693   2.384
10101SOL    HW231203   7.008   4.585   2.506
10102SOL     OW31204   3.783   0.335   4.216
10102SOL    HW131205   3.883   0.330   4.207
10102SOL    HW231206   3.758   0.419   4.264
10103SOL     OW31207   0.843   2.349   0.493
10103SOL    HW131208   0.821   2.439   0.455
10103SOL    HW231209   0.763   2.314   0.542
10104SOL     OW31210   2.243   6.084   5.797
10104SOL    HW131211   2.285   6.155   5.740
10104SOL    HW231212   2.161   6.121   5.841
10105SOL     OW31213   3.348   0.500   0.124
10105SOL    HW131214   3.350   0.561   0.203
10105SOL    HW231215   3.368   0.407   0.153
10106SOL     OW31216   4.674   4.992   1.377
10106SOL    HW131217   4.638   5.081   1.350
10106SOL    HW231218   4.743   4.963   1.311
10107SOL     OW31219   5.635   1.131   5.925
10107SOL    HW131220   5.543   1.140   5.888
10107SOL    HW231221   5.646   1.040   5.966
10108SOL     OW31222   5.693   6.266   6.498
10108SOL    HW131223   5.711   6.308   6.587
10108SOL    HW231224   5.595   6.246   6.491
10109SOL     OW31225   4.847   5.735   3.495
10109SOL    HW131226   4.806   5.769   3.410
10109SOL    HW231227   4.886   5.812   3.546
10110SOL     OW31228   3.188   1.218   5.430
10110SOL    HW131229   3.117   1.151   5.451
10110SOL    HW231230   3.145   1.304   5.402
10111SOL     OW31231   6.881   2.334   2.340
10111SOL    HW131232   6.919   2.402   2.402
10111SOL    HW231233   6.923   2.345   2.250
10112SOL     OW31234   4.325   3.201   6.251
10112SOL    HW131235   4.422   3.182   6.242
10112SOL    HW231236   4.293   3.171   6.340
10113SOL     OW31237   4.202   6.891   0.926
10113SOL    HW131238   4.193   6.792   0.928
10113SOL    HW231239   4.277   6.920   0.986
10114SOL     OW31240   4.681   1.312   2.024
10114SOL    HW131241   4.708   1.373   1.950
10114SOL    HW231242   4.634   1.364   2.095
10115SOL     OW31243   0.842   2.016   4.759
10115SOL    HW131244   0.812   1.932   4.713
10115SOL    HW231245   0.919   1.995   4.820
10116SOL     OW31246   0.580   0.578   0.613
10116SOL    HW131247   0.654   0.618   0.667
10116SOL    HW231248   0.506   0.645   0.605
10117SOL     OW31249   4.776   0.315   5.513
10117SOL    HW131250   4.744   0.396   5.563
10117SOL    HW231251   4.731   0.234   5.550
10118SOL     OW31252   6.246   5.715   2.214
10118SOL    HW131253   6.165   5.700   2.158
10118SOL    HW231254   6.228   5.790   2.279
10119SOL     OW31255   2.187   0.038   6.315
10119SOL    HW131256   2.153   0.115   6.369
10119SOL    HW231257   2.227   0.072   6.230
10120SOL     OW31258   5.645   2.895   3.314
10120SOL    HW131259   5.616   2.867   3.222
10120SOL    HW231260   5.743   2.880   3.324
10121SOL     OW31261   5.855   4.572   3.830
10121SOL    HW131262   5.758   4.600   3.829
10121SOL    HW231263   5.863   4.483   3.874
10122SOL     OW31264   5.215   2.815   0.072
10122SOL    HW131265   5.187   2.869   7.018
10122SOL    HW231266   5.219   2.873   0.153
10123SOL     OW31267   0.162   0.093   0.020
10123SOL    HW131268   0.260   0.108   0.033
10123SOL    HW231269   0.137   0.003   0.055
10124SOL     OW31270   3.346   4.492   1.137
10124SOL    HW131271   3.256   4.513   1.175
10124SOL    HW231272   3.365   4.395   1.149
10125SOL     OW31273   2.118   0.150   0.466
10125SOL    HW131274   2.065   0.220   0.513
10125SOL    HW231275   2.120   0.169   0.368
10126SOL     OW31276   5.299   5.054   6.859
10126SOL    HW131277   5.335   5.138   6.817
10126SOL    HW231278   5.372   4.986   6.865
10127SOL     OW31279   3.479   4.916   5.200
10127SOL    HW131280   3.429   4.929   5.114
10127SOL    HW231281   3.574   4.944   5.188
10128SOL     OW31282   0.763   1.545   1.102
10128SOL    HW131283   0.799   1.508   1.017
10128SOL    HW231284   0.769   1.645   1.101
10129SOL     OW31285   5.399   2.483   3.180
10129SOL    HW131286   5.351   2.508   3.095
10129SOL    HW231287   5.463   2.409   3.161
10130SOL     OW31288   6.409   5.886   1.458
10130SOL    HW131289   6.476   5.882   1.384
10130SOL    HW231290   6.353   5.969   1.448
10131SOL     OW31291   0.435   0.293   0.285
10131SOL    HW131292   0.355   0.294   0.344
10131SOL    HW231293   0.515   0.264   0.338
10132SOL     OW31294   2.716   0.069   2.348
10132SOL    HW131295   2.774   0.036   2.273
10132SOL    HW231296   2.764   0.056   2.435
10133SOL     OW31297   6.121   4.962   2.273
10133SOL    HW131298   6.186   5.033   2.244
10133SOL    HW231299   6.029   5.000   2.273
10134SOL     OW31300   0.782   1.514   1.823
10134SOL    HW131301   0.816   1.426   1.857
10134SOL    HW231302   0.705   1.544   1.880
10135SOL     OW31303   2.867   6.135   2.883
10135SOL    HW131304   2.881   6.054   2.827
10135SOL    HW231305   2.785   6.183   2.853
10136SOL     OW31306   6.352   6.887   2.463
10136SOL    HW131307   6.448   6.915   2.460
10136SOL    HW231308   6.344   6.793   2.431
10137SOL     OW31309   5.444   5.264   4.479
10137SOL    HW131310   5.454   5.165   4.466
10137SOL    HW231311   5.462   5.287   4.575
10138SOL     OW31312   5.890   2.675   6.134
10138SOL    HW131313   5.806   2.701   6.180
10138SOL    HW231314   5.939   2.607   6.188
10139SOL     OW31315   3.845   3.123   3.493
10139SOL    HW131316   3.765   3.167   3.534
10139SOL    HW231317   3.861   3.161   3.402
10140SOL     OW31318   1.094   5.171   3.807
10140SOL    HW131319   1.079   5.246   3.872
10140SOL    HW231320   1.015   5.164   3.746
10141SOL     OW31321   2.171   0.600   3.970
10141SOL    HW131322   2.241   0.546   3.923
10141SOL    HW231323   2.091   0.542   3.988
10142SOL     OW31324   5.465   5.754   4.293
10142SOL    HW131325   5.411   5.674   4.317
10142SOL    HW231326   5.475   5.759   4.194
10143SOL     OW31327   4.522   5.950   1.332
10143SOL    HW131328   4.560   5.980   1.244
10143SOL    HW231329   4.524   6.026   1.397
10144SOL     OW31330   2.833   4.754   2.973
10144SOL    HW131331   2.828   4.763   3.072
10144SOL    HW231332   2.762   4.691   2.942
10145SOL     OW31333   2.634   6.935   6.462
10145SOL    HW131334   2.707   6.870   6.441
10145SOL    HW231335   2.545   6.895   6.442
10146SOL     OW31336   4.808   4.850   3.997
10146SOL    HW131337   4.748   4.929   4.017
10146SOL    HW231338   4.891   4.858   4.052
10147SOL     OW31339   4.977   5.754   4.170
10147SOL    HW131340   5.011   5.667   4.132
10147SOL    HW231341   4.963   5.744   4.268
10148SOL     OW31342   6.193   5.432   0.756
10148SOL    HW131343   6.179   5.349   0.809
10148SOL    HW231344   6.104   5.476   0.738
10149SOL     OW31345   4.334   3.421   1.063
10149SOL    HW131346   4.406   3.367   1.106
10149SOL    HW231347   4.367   3.457   0.976
10150SOL     OW31348   5.407   4.190   0.826
10150SOL    HW131349   5.412   4.238   0.738
10150SOL    HW231350   5.364   4.101   0.813
10151SOL     OW31351   0.587   5.871   5.872
10151SOL    HW131352   0.567   5.793   5.813
10151SOL    HW231353   0.590   5.840   5.967
10152SOL     OW31354   0.474   5.608   4.268
10152SOL    HW131355   0.377   5.589   4.256
10152SOL    HW231356   0.500   5.684   4.208
10153SOL     OW31357   5.543   5.786   3.924
10153SOL    HW131358   5.444   5.795   3.924
10153SOL    HW231359   5.584   5.867   3.881
10154SOL     OW31360   6.705   6.151   5.997
10154SOL    HW131361   6.708   6.143   5.897
10154SOL    HW231362   6.763   6.227   6.025
10155SOL     OW31363   3.867   1.375   6.036
10155SOL    HW131364   3.843   1.461   6.082
10155SOL    HW231365   3.799   1.355   5.965
10156SOL     OW31366   6.045   0.236   2.545
10156SOL    HW131367   6.106   0.249   2.467
10156SOL    HW231368   6.001   0.323   2.568
10157SOL     OW31369   5.103   0.817   3.915
10157SOL    HW131370   5.070   0.740   3.861
10157SOL    HW231371   5.186   0.791   3.964
10158SOL     OW31372   4.788   3.160   6.085
10158SOL    HW131373   4.863   3.118   6.035
10158SOL    HW231374   4.744   3.229   6.028
10159SOL     OW31375   1.800   1.212   6.362
10159SOL    HW131376   1.856   1.233   6.441
10159SOL    HW231377   1.729   1.147   6.387
10160SOL     OW31378   0.632   5.993   3.439
10160SOL    HW131379   0.722   5.998   3.482
10160SOL    HW231380   0.570   5.943   3.498
10161SOL     OW31381   2.122   5.766   5.289
10161SOL    HW131382   2.190   5.700   5.256
10161SOL    HW231383   2.070   5.725   5.364
10162SOL     OW31384   3.423   2.778   6.766
10162SOL    HW131385   3.493   2.849   6.767
10162SOL    HW231386   3.389   2.766   6.673
10163SOL     OW31387   0.357   3.135   6.111
10163SOL    HW131388   0.351   3.114   6.208
10163SOL    HW231389   0.274   3.102   6.065
10164SOL     OW31390   1.466   2.398   5.821
10164SOL    HW131391   1.540   2.335   5.797
10164SOL    HW231392   1.400   2.402   5.746
10165SOL     OW31393   0.338   1.937   3.214
10165SOL    HW131394   0.250   1.965   3.175
10165SOL    HW231395   0.323   1.870   3.287
10166SOL     OW31396   0.634   1.081   1.842
10166SOL    HW131397   0.584   1.018   1.782
10166SOL    HW231398   0.602   1.071   1.936
10167SOL     OW31399   5.129   0.740   0.662
10167SOL    HW131400   5.154   0.655   0.617
10167SOL    HW231401   5.150   0.733   0.760
10168SOL     OW31402   6.417   4.506   4.610
10168SOL    HW131403   6.445   4.464   4.696
10168SOL    HW231404   6.367   4.439   4.555
10169SOL     OW31405   6.501   3.870   4.661
10169SOL    HW131406   6.458   3.795   4.712
10169SOL    HW231407   6.436   3.945   4.650
10170SOL     OW31408   1.192   3.932   4.837
10170SOL    HW131409   1.178   3.981   4.923
10170SOL    HW231410   1.108   3.885   4.811
10171SOL     OW31411   5.776   3.251   6.517
10171SOL    HW131412   5.851   3.262   6.582
10171SOL    HW231413   5.794   3.173   6.458
10172SOL     OW31414   4.655   0.870   4.238
10172SOL    HW131415   4.660   0.889   4.336
10172SOL    HW231416   4.747   0.876   4.198
10173SOL     OW31417   2.324   2.242   2.979
10173SOL    HW131418   2.420   2.265   2.964
10173SOL    HW231419   2.296   2.172   2.913
10174SOL     OW31420   6.005   4.378   1.025
10174SOL    HW131421   5.949   4.300   0.995
10174SOL    HW231422   6.047   4.421   0.946
10175SOL     OW31423   5.584   2.692   5.895
10175SOL    HW131424   5.559   2.595   5.903
10175SOL    HW231425   5.532   2.733   5.820
10176SOL     OW31426   2.056   3.415   0.385
10176SOL    HW131427   1.983   3.360   0.426
10176SOL    HW231428   2.107   3.462   0.457
10177SOL     OW31429   2.023   0.226   5.526
10177SOL    HW131430   2.077   0.159   5.476
10177SOL    HW231431   1.985   0.292   5.462
10178SOL     OW31432   5.117   3.069   5.646
10178SOL    HW131433   5.187   3.124   5.692
10178SOL    HW231434   5.109   3.099   5.551
10179SOL     OW31435   7.011   3.392   6.670
10179SOL    HW131436   6.956   3.320   6.628
10179SOL    HW231437   6.950   3.461   6.710
10180SOL     OW31438   2.044   6.897   5.787
10180SOL    HW131439   1.998   6.985   5.803
10180SOL    HW231440   1.989   6.842   5.725
10181SOL     OW31441   6.088   3.457   1.588
10181SOL    HW131442   6.053   3.550   1.599
10181SOL    HW231443   6.034   3.395   1.644
10182SOL     OW31444   4.474   1.206   0.163
10182SOL    HW131445   4.522   1.244   0.242
10182SOL    HW231446   4.540   1.182   0.092
10183SOL     OW31447   2.067   1.605   6.551
10183SOL    HW131448   1.996   1.676   6.552
10183SOL    HW231449   2.029   1.521   6.514
10184SOL     OW31450   4.861   0.166   6.684
10184SOL    HW131451   4.910   0.103   6.624
10184SOL    HW231452   4.772   0.187   6.645
10185SOL     OW31453   4.622   1.288   6.948
10185SOL    HW131454   4.715   1.303   6.915
10185SOL    HW231455   4.575   1.224   6.887
10186SOL     OW31456   4.950   2.157   2.880
10186SOL    HW131457   4.862   2.148   2.927
10186SOL    HW231458   5.005   2.075   2.897
10187SOL     OW31459   0.785   2.127   2.436
10187SOL    HW131460   0.718   2.065   2.395
10187SOL    HW231461   0.876   2.085   2.432
10188SOL     OW31462   3.737   4.931   0.660
10188SOL    HW131463   3.708   4.853   0.604
10188SOL    HW231464   3.837   4.935   0.662
10189SOL     OW31465   1.555   0.021   5.350
10189SOL    HW131466   1.587   0.089   5.416
10189SOL    HW231467   1.461   0.041   5.323
10190SOL     OW31468   4.548   2.454   6.992
10190SOL    HW131469   4.523   2.547   7.017
10190SOL    HW231470   4.622   2.456   6.925
10191SOL     OW31471   6.719   4.970   6.557
10191SOL    HW131472   6.765   4.932   6.476
10191SOL    HW231473   6.737   4.911   6.636
10192SOL     OW31474   3.481   1.673   0.501
10192SOL    HW131475   3.392   1.636   0.475
10192SOL    HW231476   3.541   1.673   0.421
10193SOL     OW31477   4.235   4.142   0.423
10193SOL    HW131478   4.281   4.159   0.336
10193SOL    HW231479   4.154   4.200   0.431
10194SOL     OW31480   4.868   2.887   5.417
10194SOL    HW131481   4.790   2.834   5.450
10194SOL    HW231482   4.922   2.831   5.355
10195SOL     OW31483   5.545   4.376   1.716
10195SOL    HW131484   5.499   4.361   1.629
10195SOL    HW231485   5.482   4.358   1.791
10196SOL     OW31486   0.293   1.870   4.536
10196SOL    HW131487   0.210   1.899   4.489
10196SOL    HW231488   0.373   1.899   4.482
10197SOL     OW31489   5.603   0.564   6.940
10197SOL    HW131490   5.511   0.561   6.979
10197SOL    HW231491   5.611   0.644   6.880
10198SOL     OW31492   4.142   6.684   3.728
10198SOL    HW131493   4.234   6.687   3.766
10198SOL    HW231494   4.112   6.776   3.704
10199SOL     OW31495   0.518   2.192   5.546
10199SOL    HW131496   0.503   2.218   5.450
10199SOL    HW231497   0.464   2.111   5.567
10200SOL     OW31498   4.997   1.748   1.874
10200SOL    HW131499   4.989   1.688   1.794
10200SOL    HW231500   5.086   1.793   1.873
10201SOL     OW31501   1.450   3.690   0.816
10201SOL    HW131502   1.503   3.691   0.731
10201SOL    HW231503   1.419   3.783   0.837
10202SOL     OW31504   5.272   0.723   3.643
10202SOL    HW131505   5.186   0.679   3.672
10202SOL    HW231506   5.311   0.774   3.720
10203SOL     OW31507   7.005   2.817   4.779
10203SOL    HW131508   7.002   2.905   4.827
10203SOL    HW231509   6.932   2.815   4.710
10204SOL     OW31510   5.795   4.915   6.775
10204SOL    HW131511   5.829   4.822   6.759
10204SOL    HW231512   5.863   4.967   6.826
10205SOL     OW31513   0.327   1.575   6.560
10205SOL    HW131514   0.310   1.649   6.625
10205SOL    HW231515   0.239   1.534   6.532
10206SOL     OW31516   2.047   1.652   4.881
10206SOL    HW131517   2.044   1.744   4.842
10206SOL    HW231518   1.986   1.648   4.960
10207SOL     OW31519   2.591   2.585   5.926
10207SOL    HW131520   2.639   2.594   5.838
10207SOL    HW231521   2.523   2.512   5.920
10208SOL     OW31522   6.913   6.685   5.505
10208SOL    HW131523   6.877   6.604   5.552
10208SOL    HW231524   6.957   6.656   5.419
10209SOL     OW31525   6.551   6.766   5.611
10209SOL    HW131526   6.545   6.729   5.518
10209SOL    HW231527   6.577   6.863   5.607
10210SOL     OW31528   3.626   0.565   1.658
10210SOL    HW131529   3.565   0.639   1.630
10210SOL    HW231530   3.680   0.593   1.737
10211SOL     OW31531   5.073   5.663   6.093
10211SOL    HW131532   5.010   5.608   6.149
10211SOL    HW231533   5.111   5.606   6.020
10212SOL     OW31534   0.559   0.571   6.559
10212SOL    HW131535   0.463   0.592   6.577
10212SOL    HW231536   0.578   0.476   6.584
10213SOL     OW31537   6.655   2.472   1.061
10213SOL    HW131538   6.699   2.553   1.099
10213SOL    HW231539   6.724   2.407   1.031
10214SOL     OW31540   1.700   2.634   0.055
10214SOL    HW131541   1.629   2.567   0.035
10214SOL    HW231542   1.744   2.611   0.142
10215SOL     OW31543   3.016   3.865   2.919
10215SOL    HW131544   2.980   3.895   2.831
10215SOL    HW231545   3.071   3.782   2.906
10216SOL     OW31546   0.628   5.961   2.195
10216SOL    HW131547   0.554   5.954   2.127
10216SOL    HW231548   0.589   5.957   2.287
10217SOL     OW31549   4.374   1.871   5.216
10217SOL    HW131550   4.346   1.852   5.310
10217SOL    HW231551   4.361   1.789   5.160
10218SOL     OW31552   0.918   3.369   2.761
10218SOL    HW131553   0.901   3.444   2.826
10218SOL    HW231554   0.845   3.368   2.693
10219SOL     OW31555   0.074   6.233   2.988
10219SOL    HW131556   0.172   6.229   2.971
10219SOL    HW231557   0.054   6.308   3.052
10220SOL     OW31558   3.324   3.097   0.002
10220SOL    HW131559   3.378   3.115   0.085
10220SOL    HW231560   3.347   3.165   6.958
10221SOL     OW31561   1.099   5.057   3.174
10221SOL    HW131562   1.086   4.974   3.228
10221SOL    HW231563   1.159   5.120   3.223
10222SOL     OW31564   2.928   3.684   3.697
10222SOL    HW131565   2.939   3.586   3.685
10222SOL    HW231566   2.928   3.729   3.607
10223SOL     OW31567   2.633   6.643   1.023
10223SOL    HW131568   2.595   6.715   1.081
10223SOL    HW231569   2.563   6.574   1.004
10224SOL     OW31570   6.811   3.503   3.205
10224SOL    HW131571   6.906   3.534   3.198
10224SOL    HW231572   6.786   3.494   3.301
10225SOL     OW31573   1.668   3.715   5.804
10225SOL    HW131574   1.721   3.656   5.744
10225SOL    HW231575   1.587   3.748   5.756
10226SOL     OW31576   4.695   4.272   0.077
10226SOL    HW131577   4.611   4.295   0.027
10226SOL    HW231578   4.713   4.342   0.146
10227SOL     OW31579   5.683   3.807   1.387
10227SOL    HW131580   5.680   3.872   1.311
10227SOL    HW231581   5.703   3.856   1.472
10228SOL     OW31582   5.394   0.362   0.610
10228SOL    HW131583   5.430   0.369   0.703
10228SOL    HW231584   5.431   0.280   0.566
10229SOL     OW31585   0.263   2.318   4.874
10229SOL    HW131586   0.311   2.381   4.813
10229SOL    HW231587   0.237   2.236   4.823
10230SOL     OW31588   6.768   6.156   1.466
10230SOL    HW131589   6.706   6.181   1.541
10230SOL    HW231590   6.834   6.230   1.452
10231SOL     OW31591   0.244   4.304   2.545
10231SOL    HW131592   0.310   4.359   2.493
10231SOL    HW231593   0.270   4.208   2.540
10232SOL     OW31594   4.777   4.787   2.709
10232SOL    HW131595   4.795   4.751   2.800
10232SOL    HW231596   4.864   4.812   2.665
10233SOL     OW31597   2.628   4.272   5.620
10233SOL    HW131598   2.640   4.203   5.691
10233SOL    HW231599   2.615   4.226   5.532
10234SOL     OW31600   0.613   0.573   2.161
10234SOL    HW131601   0.571   0.585   2.071
10234SOL    HW231602   0.593   0.653   2.217
10235SOL     OW31603   1.379   1.496   3.374
10235SOL    HW131604   1.299   1.438   3.387
10235SOL    HW231605   1.374   1.540   3.284
10236SOL     OW31606   0.730   0.339   2.651
10236SOL    HW131607   0.650   0.372   2.701
10236SOL    HW231608   0.792   0.293   2.715
10237SOL     OW31609   6.875   3.225   5.365
10237SOL    HW131610   6.970   3.221   5.335
10237SOL    HW231611   6.830   3.305   5.325
10238SOL     OW31612   2.841   6.509   1.145
10238SOL    HW131613   2.760   6.549   1.103
10238SOL    HW231614   2.888   6.578   1.201
10239SOL     OW31615   1.076   2.486   5.317
10239SOL    HW131616   0.999   2.423   5.314
10239SOL    HW231617   1.043   2.580   5.327
10240SOL     OW31618   2.311   5.823   1.271
10240SOL    HW131619   2.294   5.917   1.301
10240SOL    HW231620   2.408   5.813   1.249
10241SOL     OW31621   4.338   3.830   1.745
10241SOL    HW131622   4.318   3.733   1.736
10241SOL    HW231623   4.281   3.869   1.817
10242SOL     OW31624   6.966   3.508   0.694
10242SOL    HW131625   0.034   3.521   0.726
10242SOL    HW231626   6.955   3.549   0.603
10243SOL     OW31627   3.226   5.789   1.924
10243SOL    HW131628   3.201   5.698   1.893
10243SOL    HW231629   3.281   5.782   2.007
10244SOL     OW31630   2.859   5.165   1.867
10244SOL    HW131631   2.766   5.128   1.877
10244SOL    HW231632   2.858   5.241   1.801
10245SOL     OW31633   5.544   4.348   1.030
10245SOL    HW131634   5.460   4.353   1.084
10245SOL    HW231635   5.527   4.293   0.948
10246SOL     OW31636   3.423   3.590   4.086
10246SOL    HW131637   3.453   3.683   4.109
10246SOL    HW231638   3.495   3.545   4.033
10247SOL     OW31639   0.619   2.589   4.652
10247SOL    HW131640   0.692   2.657   4.656
10247SOL    HW231641   0.612   2.553   4.558
10248SOL     OW31642   0.375   1.425   5.397
10248SOL    HW131643   0.279   1.408   5.416
10248SOL    HW231644   0.429   1.343   5.417
10249SOL     OW31645   2.561   4.677   5.960
10249SOL    HW131646   2.620   4.717   6.030
10249SOL    HW231647   2.610   4.603   5.913
10250SOL     OW31648   2.970   2.625   0.934
10250SOL    HW131649   3.056   2.599   0.890
10250SOL    HW231650   2.974   2.604   1.032
10251SOL     OW31651   1.483   0.939   4.541
10251SOL    HW131652   1.418   0.902   4.475
10251SOL    HW231653   1.490   0.877   4.619
10252SOL     OW31654   4.551   4.522   6.112
10252SOL    HW131655   4.553   4.576   6.196
10252SOL    HW231656   4.508   4.434   6.131
10253SOL     OW31657   3.801   6.382   6.864
10253SOL    HW131658   3.763   6.453   6.923
10253SOL    HW231659   3.884   6.345   6.905
10254SOL     OW31660   6.478   1.571   6.055
10254SOL    HW131661   6.409   1.565   6.127
10254SOL    HW231662   6.444   1.528   5.972
10255SOL     OW31663   3.969   4.588   1.750
10255SOL    HW131664   4.068   4.581   1.759
10255SOL    HW231665   3.931   4.499   1.727
10256SOL     OW31666   3.055   1.573   4.391
10256SOL    HW131667   2.959   1.549   4.405
10256SOL    HW231668   3.065   1.622   4.305
10257SOL     OW31669   4.066   5.650   3.117
10257SOL    HW131670   4.043   5.626   3.022
10257SOL    HW231671   4.146   5.598   3.146
10258SOL     OW31672   2.369   1.653   2.505
10258SOL    HW131673   2.383   1.752   2.498
10258SOL    HW231674   2.440   1.606   2.454
10259SOL     OW31675   1.172   3.600   4.216
10259SOL    HW131676   1.190   3.516   4.164
10259SOL    HW231677   1.089   3.643   4.181
10260SOL     OW31678   0.595   0.075   3.532
10260SOL    HW131679   0.658   0.106   3.461
10260SOL    HW231680   0.501   0.097   3.507
10261SOL     OW31681   0.110   4.179   1.032
10261SOL    HW131682   0.135   4.276   1.024
10261SOL    HW231683   0.018   4.172   1.071
10262SOL     OW31684   3.624   0.784   6.691
10262SOL    HW131685   3.560   0.713   6.663
10262SOL    HW231686   3.586   0.834   6.769
10263SOL     OW31687   5.662   0.297   2.607
10263SOL    HW131688   5.711   0.224   2.561
10263SOL    HW231689   5.628   0.264   2.695
10264SOL     OW31690   6.756   0.481   6.349
10264SOL    HW131691   6.782   0.510   6.257
10264SOL    HW231692   6.723   0.386   6.346
10265SOL     OW31693   2.103   1.532   2.041
10265SOL    HW131694   2.010   1.530   2.078
10265SOL    HW231695   2.108   1.475   1.959
10266SOL     OW31696   2.835   3.632   1.518
10266SOL    HW131697   2.783   3.675   1.592
10266SOL    HW231698   2.874   3.545   1.550
10267SOL     OW31699   6.731   0.078   0.796
10267SOL    HW131700   6.706   0.174   0.814
10267SOL    HW231701   6.678   0.018   0.856
10268SOL     OW31702   2.949   5.663   2.523
10268SOL    HW131703   2.916   5.687   2.432
10268SOL    HW231704   2.900   5.583   2.557
10269SOL     OW31705   2.300   1.250   0.317
10269SOL    HW131706   2.337   1.181   0.254
10269SOL    HW231707   2.258   1.204   0.394
10270SOL     OW31708   2.645   0.097   3.709
10270SOL    HW131709   2.563   0.083   3.764
10270SOL    HW231710   2.673   0.193   3.716
10271SOL     OW31711   2.065   0.913   6.797
10271SOL    HW131712   2.153   0.874   6.768
10271SOL    HW231713   2.077   1.010   6.817
10272SOL     OW31714   6.256   6.657   4.645
10272SOL    HW131715   6.268   6.708   4.731
10272SOL    HW231716   6.164   6.674   4.609
10273SOL     OW31717   1.597   5.348   3.550
10273SOL    HW131718   1.568   5.280   3.483
10273SOL    HW231719   1.590   5.439   3.510
10274SOL     OW31720   0.988   3.929   5.360
10274SOL    HW131721   0.892   3.921   5.334
10274SOL    HW231722   0.996   3.996   5.434
10275SOL     OW31723   6.866   1.425   2.034
10275SOL    HW131724   6.868   1.502   1.971
10275SOL    HW231725   6.779   1.377   2.026
10276SOL     OW31726   3.046   5.498   5.173
10276SOL    HW131727   3.027   5.544   5.086
10276SOL    HW231728   2.978   5.525   5.241
10277SOL     OW31729   1.054   5.374   4.018
10277SOL    HW131730   0.969   5.403   4.061
10277SOL    HW231731   1.125   5.443   4.034
10278SOL     OW31732   6.346   0.396   4.369
10278SOL    HW131733   6.385   0.405   4.460
10278SOL    HW231734   6.392   0.323   4.319
10279SOL     OW31735   0.897   4.730   4.126
10279SOL    HW131736   0.934   4.781   4.204
10279SOL    HW231737   0.939   4.763   4.041
10280SOL     OW31738   6.086   5.541   0.453
10280SOL    HW131739   6.039   5.541   0.541
10280SOL    HW231740   6.181   5.510   0.466
10281SOL     OW31741   6.300   0.679   3.865
10281SOL    HW131742   6.316   0.580   3.862
10281SOL    HW231743   6.320   0.719   3.775
10282SOL     OW31744   4.761   2.816   3.020
10282SOL    HW131745   4.727   2.746   3.082
10282SOL    HW231746   4.715   2.807   2.931
10283SOL     OW31747   0.580   2.390   1.192
10283SOL    HW131748   0.568   2.295   1.219
10283SOL    HW231749   0.641   2.395   1.114
10284SOL     OW31750   0.400   4.607   4.429
10284SOL    HW131751   0.413   4.520   4.476
10284SOL    HW231752   0.485   4.632   4.382
10285SOL     OW31753   0.184   6.775   6.385
10285SOL    HW131754   0.188   6.765   6.285
10285SOL    HW231755   0.101   6.824   6.410
10286SOL     OW31756   2.752   1.336   2.600
10286SOL    HW131757   2.809   1.408   2.559
10286SOL    HW231758   2.661   1.372   2.620
10287SOL     OW31759   0.950   5.791   2.687
10287SOL    HW131760   1.036   5.776   2.639
10287SOL    HW231761   0.967   5.800   2.785
10288SOL     OW31762   3.683   6.045   4.483
10288SOL    HW131763   3.621   6.121   4.500
10288SOL    HW231764   3.768   6.079   4.443
10289SOL     OW31765   4.221   6.096   0.251
10289SOL    HW131766   4.304   6.147   0.273
10289SOL    HW231767   4.244   6.020   0.191
10290SOL     OW31768   2.839   3.459   2.310
10290SOL    HW131769   2.883   3.544   2.280
10290SOL    HW231770   2.745   3.457   2.278
10291SOL     OW31771   2.536   2.170   2.240
10291SOL    HW131772   2.628   2.187   2.275
10291SOL    HW231773   2.538   2.096   2.173
10292SOL     OW31774   6.872   6.993   5.794
10292SOL    HW131775   6.824   6.925   5.850
10292SOL    HW231776   6.958   6.954   5.761
10293SOL     OW31777   1.032   3.689   5.094
10293SOL    HW131778   1.105   3.626   5.066
10293SOL    HW231779   1.051   3.723   5.186
10294SOL     OW31780   2.240   0.257   2.176
10294SOL    HW131781   2.328   0.235   2.218
10294SOL    HW231782   2.235   0.216   2.085
10295SOL     OW31783   1.388   1.764   0.635
10295SOL    HW131784   1.323   1.839   0.624
10295SOL    HW231785   1.350   1.681   0.595
10296SOL     OW31786   6.412   2.101   5.947
10296SOL    HW131787   6.440   2.124   6.040
10296SOL    HW231788   6.444   2.171   5.883
10297SOL     OW31789   4.384   1.009   0.945
10297SOL    HW131790   4.337   1.093   0.973
10297SOL    HW231791   4.322   0.952   0.892
10298SOL     OW31792   1.162   1.739   2.136
10298SOL    HW131793   1.130   1.784   2.053
10298SOL    HW231794   1.252   1.775   2.161
10299SOL     OW31795   4.593   0.205   2.583
10299SOL    HW131796   4.619   0.192   2.678
10299SOL    HW231797   4.541   0.290   2.573
10300SOL     OW31798   1.576   2.951   1.061
10300SOL    HW131799   1.520   2.915   1.135
10300SOL    HW231800   1.557   2.901   0.977
10301SOL     OW31801   4.026   0.953   0.186
10301SOL    HW131802   4.117   0.978   0.219
10301SOL    HW231803   3.961   0.955   0.263
10302SOL     OW31804   3.524   6.454   5.446
10302SOL    HW131805   3.460   6.504   5.389
10302SOL    HW231806   3.484   6.366   5.473
10303SOL     OW31807   0.134   4.383   4.761
10303SOL    HW131808   0.101   4.315   4.826
10303SOL    HW231809   0.120   4.475   4.798
10304SOL     OW31810   5.444   6.337   0.976
10304SOL    HW131811   5.531   6.344   1.025
10304SOL    HW231812   5.423   6.425   0.933
10305SOL     OW31813   2.910   4.038   5.300
10305SOL    HW131814   2.862   4.126   5.305
10305SOL    HW231815   2.861   3.977   5.238
10306SOL     OW31816   4.050   1.059   0.856
10306SOL    HW131817   3.951   1.053   0.841
10306SOL    HW231818   4.077   1.155   0.862
10307SOL     OW31819   1.944   0.336   5.292
10307SOL    HW131820   1.847   0.350   5.312
10307SOL    HW231821   1.961   0.357   5.196
10308SOL     OW31822   3.081   4.483   1.650
10308SOL    HW131823   3.031   4.497   1.565
10308SOL    HW231824   3.017   4.485   1.727
10309SOL     OW31825   0.343   1.018   6.054
10309SOL    HW131826   0.276   0.954   6.016
10309SOL    HW231827   0.409   1.043   5.983
10310SOL     OW31828   2.996   3.992   5.897
10310SOL    HW131829   2.978   4.090   5.907
10310SOL    HW231830   3.091   3.973   5.919
10311SOL     OW31831   5.755   5.857   0.003
10311SOL    HW131832   5.785   5.943   6.988
10311SOL    HW231833   5.833   5.797   0.017
10312SOL     OW31834   3.059   6.929   2.361
10312SOL    HW131835   3.135   6.871   2.331
10312SOL    HW231836   3.007   6.881   2.432
10313SOL     OW31837   4.961   6.964   2.638
10313SOL    HW131838   5.049   6.932   2.672
10313SOL    HW231839   4.887   6.914   2.683
10314SOL     OW31840   0.665   0.164   0.773
10314SOL    HW131841   0.739   0.103   0.744
10314SOL    HW231842   0.635   0.139   0.865
10315SOL     OW31843   5.196   5.286   3.509
10315SOL    HW131844   5.294   5.301   3.518
10315SOL    HW231845   5.155   5.277   3.599
10316SOL     OW31846   0.707   1.780   0.287
10316SOL    HW131847   0.665   1.843   0.352
10316SOL    HW231848   0.805   1.801   0.281
10317SOL     OW31849   3.656   6.046   4.973
10317SOL    HW131850   3.619   5.958   5.003
10317SOL    HW231851   3.615   6.071   4.886
10318SOL     OW31852   6.307   0.522   0.579
10318SOL    HW131853   6.266   0.503   0.668
10318SOL    HW231854   6.346   0.614   0.579
10319SOL     OW31855   0.621   4.463   3.876
10319SOL    HW131856   0.526   4.435   3.890
10319SOL    HW231857   0.624   4.536   3.807
10320SOL     OW31858   0.029   0.022   2.968
10320SOL    HW131859   0.035   6.974   3.036
10320SOL    HW231860   6.989   0.091   2.999
10321SOL     OW31861   5.838   2.796   2.565
10321SOL    HW131862   5.897   2.837   2.635
10321SOL    HW231863   5.849   2.697   2.566
10322SOL     OW31864   4.645   4.421   4.920
10322SOL    HW131865   4.659   4.357   4.844
10322SOL    HW231866   4.555   4.463   4.912
10323SOL     OW31867   1.122   4.398   6.165
10323SOL    HW131868   1.075   4.356   6.242
10323SOL    HW231869   1.106   4.344   6.082
10324SOL     OW31870   3.158   3.029   2.753
10324SOL    HW131871   3.163   3.014   2.852
10324SOL    HW231872   3.225   2.971   2.707
10325SOL     OW31873   5.866   6.028   4.587
10325SOL    HW131874   5.865   6.109   4.646
10325SOL    HW231875   5.813   5.955   4.630
10326SOL     OW31876   5.477   3.269   6.481
10326SOL    HW131877   5.514   3.288   6.390
10326SOL    HW231878   5.474   3.170   6.496
10327SOL     OW31879   2.183   5.638   6.808
10327SOL    HW131880   2.222   5.635   6.716
10327SOL    HW231881   2.257   5.636   6.876
10328SOL     OW31882   5.690   2.366   2.045
10328SOL    HW131883   5.672   2.457   2.007
10328SOL    HW231884   5.619   2.303   2.014
10329SOL     OW31885   3.341   2.020   2.145
10329SOL    HW131886   3.272   2.017   2.072
10329SOL    HW231887   3.430   1.995   2.107
10330SOL     OW31888   5.655   0.474   1.676
10330SOL    HW131889   5.619   0.512   1.762
10330SOL    HW231890   5.608   0.388   1.656
10331SOL     OW31891   5.636   5.610   5.620
10331SOL    HW131892   5.643   5.624   5.718
10331SOL    HW231893   5.712   5.656   5.574
10332SOL     OW31894   1.616   1.895   6.418
10332SOL    HW131895   1.549   1.844   6.364
10332SOL    HW231896   1.622   1.989   6.383
10333SOL     OW31897   1.328   3.268   4.289
10333SOL    HW131898   1.331   3.184   4.235
10333SOL    HW231899   1.421   3.290   4.320
10334SOL     OW31900   3.165   1.861   3.920
10334SOL    HW131901   3.170   1.833   3.824
10334SOL    HW231902   3.125   1.952   3.926
10335SOL     OW31903   1.812   2.670   5.421
10335SOL    HW131904   1.909   2.649   5.418
10335SOL    HW231905   1.790   2.735   5.348
10336SOL     OW31906   5.596   6.869   3.214
10336SOL    HW131907   5.504   6.839   3.187
10336SOL    HW231908   5.656   6.789   3.221
10337SOL     OW31909   6.392   6.053   6.738
10337SOL    HW131910   6.391   5.987   6.663
10337SOL    HW231911   6.469   6.033   6.799
10338SOL     OW31912   1.315   6.528   1.680
10338SOL    HW131913   1.294   6.574   1.594
10338SOL    HW231914   1.274   6.578   1.756
10339SOL     OW31915   5.845   2.834   5.930
10339SOL    HW131916   5.778   2.802   5.863
10339SOL    HW231917   5.844   2.775   6.010
10340SOL     OW31918   2.136   4.067   6.159
10340SOL    HW131919   2.151   4.006   6.236
10340SOL    HW231920   2.159   4.161   6.185
10341SOL     OW31921   2.302   4.511   3.669
10341SOL    HW131922   2.335   4.486   3.578
10341SOL    HW231923   2.380   4.532   3.728
10342SOL     OW31924   0.663   0.904   4.017
10342SOL    HW131925   0.635   0.956   3.936
10342SOL    HW231926   0.628   0.811   4.011
10343SOL     OW31927   3.949   5.324   1.653
10343SOL    HW131928   3.995   5.250   1.702
10343SOL    HW231929   3.963   5.410   1.701
10344SOL     OW31930   4.913   6.821   6.884
10344SOL    HW131931   4.848   6.783   6.818
10344SOL    HW231932   4.983   6.753   6.905
10345SOL     OW31933   1.788   4.251   4.241
10345SOL    HW131934   1.876   4.294   4.220
10345SOL    HW231935   1.720   4.322   4.260
10346SOL     OW31936   0.276   6.391   0.383
10346SOL    HW131937   0.319   6.434   0.303
10346SOL    HW231938   0.325   6.419   0.465
10347SOL     OW31939   5.758   2.166   5.103
10347SOL    HW131940   5.791   2.247   5.151
10347SOL    HW231941   5.765   2.086   5.163
10348SOL     OW31942   0.375   5.096   1.322
10348SOL    HW131943   0.346   5.190   1.342
10348SOL    HW231944   0.327   5.033   1.383
10349SOL     OW31945   0.193   6.763   6.112
10349SOL    HW131946   0.198   6.706   6.030
10349SOL    HW231947   0.146   6.849   6.090
10350SOL     OW31948   3.285   0.048   6.019
10350SOL    HW131949   3.215   0.119   6.015
10350SOL    HW231950   3.342   0.053   5.937
10351SOL     OW31951   4.488   5.139   5.944
10351SOL    HW131952   4.435   5.207   5.995
10351SOL    HW231953   4.571   5.181   5.908
10352SOL     OW31954   4.153   4.208   6.468
10352SOL    HW131955   4.181   4.124   6.515
10352SOL    HW231956   4.099   4.184   6.388
10353SOL     OW31957   0.638   3.111   5.247
10353SOL    HW131958   0.597   3.168   5.176
10353SOL    HW231959   0.733   3.090   5.223
10354SOL     OW31960   5.372   1.937   0.828
10354SOL    HW131961   5.433   2.013   0.803
10354SOL    HW231962   5.424   1.868   0.879
10355SOL     OW31963   1.179   4.636   3.128
10355SOL    HW131964   1.113   4.604   3.196
10355SOL    HW231965   1.243   4.562   3.107
10356SOL     OW31966   0.358   2.603   4.999
10356SOL    HW131967   0.429   2.537   4.975
10356SOL    HW231968   0.286   2.602   4.929
10357SOL     OW31969   3.512   3.144   6.527
10357SOL    HW131970   3.526   3.139   6.626
10357SOL    HW231971   3.580   3.205   6.486
10358SOL     OW31972   0.303   1.156   2.270
10358SOL    HW131973   0.229   1.185   2.208
10358SOL    HW231974   0.329   1.062   2.249
10359SOL     OW31975   0.527   1.421   0.978
10359SOL    HW131976   0.431   1.438   1.003
10359SOL    HW231977   0.587   1.476   1.036
10360SOL     OW31978   0.045   4.464   3.532
10360SOL    HW131979   6.993   4.423   3.484
10360SOL    HW231980   0.072   4.549   3.486
10361SOL     OW31981   2.451   4.956   0.924
10361SOL    HW131982   2.472   4.866   0.962
10361SOL    HW231983   2.393   5.006   0.989
10362SOL     OW31984   1.251   4.601   5.255
10362SOL    HW131985   1.240   4.684   5.200
10362SOL    HW231986   1.296   4.531   5.200
10363SOL     OW31987   5.662   6.945   3.722
10363SOL    HW131988   5.604   6.966   3.643
10363SOL    HW231989   5.630   6.996   3.801
10364SOL     OW31990   1.277   4.197   0.822
10364SOL    HW131991   1.280   4.297   0.831
10364SOL    HW231992   1.218   4.172   0.746
10365SOL     OW31993   5.061   5.152   7.019
10365SOL    HW131994   5.126   5.218   0.031
10365SOL    HW231995   5.096   5.116   6.932
10366SOL     OW31996   3.802   6.732   3.780
10366SOL    HW131997   3.857   6.651   3.759
10366SOL    HW231998   3.843   6.813   3.738
10367SOL     OW31999   6.671   1.351   3.335
10367SOL    HW132000   6.632   1.305   3.414
10367SOL    HW232001   6.602   1.358   3.263
10368SOL     OW32002   2.383   0.571   1.085
10368SOL    HW132003   2.418   0.483   1.115
10368SOL    HW232004   2.327   0.560   1.003
10369SOL     OW32005   3.873   2.777   0.071
10369SOL    HW132006   3.803   2.836   0.112
10369SOL    HW232007   3.839   2.684   0.067
10370SOL     OW32008   3.618   0.927   5.353
10370SOL    HW132009   3.582   0.912   5.445
10370SOL    HW232010   3.712   0.893   5.348
10371SOL     OW32011   4.695   6.597   5.457
10371SOL    HW132012   4.647   6.622   5.542
10371SOL    HW232013   4.671   6.503   5.433
10372SOL     OW32014   0.935   0.850   3.850
10372SOL    HW132015   0.843   0.876   3.819
10372SOL    HW232016   0.963   0.766   3.803
10373SOL     OW32017   0.961   5.287   5.109
10373SOL    HW132018   0.983   5.219   5.039
10373SOL    HW232019   0.865   5.315   5.099
10374SOL     OW32020   3.097   1.677   3.609
10374SOL    HW132021   3.089   1.629   3.696
10374SOL    HW232022   3.090   1.611   3.534
10375SOL     OW32023   6.991   2.013   0.979
10375SOL    HW132024   6.986   1.931   0.922
10375SOL    HW232025   0.060   2.046   0.982
10376SOL     OW32026   6.133   0.216   3.577
10376SOL    HW132027   6.148   0.188   3.482
10376SOL    HW232028   6.099   0.137   3.630
10377SOL     OW32029   0.391   6.445   3.976
10377SOL    HW132030   0.300   6.475   3.947
10377SOL    HW232031   0.383   6.376   4.047
10378SOL     OW32032   6.226   6.493   5.747
10378SOL    HW132033   6.194   6.446   5.665
10378SOL    HW232034   6.314   6.537   5.728
10379SOL     OW32035   4.349   1.648   4.082
10379SOL    HW132036   4.348   1.730   4.026
10379SOL    HW232037   4.335   1.568   4.025
10380SOL     OW32038   3.543   1.081   3.866
10380SOL    HW132039   3.526   1.149   3.938
10380SOL    HW232040   3.511   1.116   3.778
10381SOL     OW32041   3.301   5.156   4.750
10381SOL    HW132042   3.353   5.238   4.772
10381SOL    HW232043   3.361   5.089   4.706
10382SOL     OW32044   0.588   5.941   0.385
10382SOL    HW132045   0.574   5.890   0.469
10382SOL    HW232046   0.525   6.019   0.382
10383SOL     OW32047   5.270   2.987   0.491
10383SOL    HW132048   5.321   2.997   0.406
10383SOL    HW232049   5.197   2.919   0.479
10384SOL     OW32050   5.726   1.166   6.795
10384SOL    HW132051   5.758   1.106   6.722
10384SOL    HW232052   5.657   1.119   6.850
10385SOL     OW32053   0.355   2.807   6.578
10385SOL    HW132054   0.341   2.709   6.565
10385SOL    HW232055   0.373   2.850   6.489
10386SOL     OW32056   6.984   1.965   6.189
10386SOL    HW132057   6.913   2.035   6.180
10386SOL    HW232058   0.048   2.008   6.180
10387SOL     OW32059   1.619   3.974   3.033
10387SOL    HW132060   1.718   3.969   3.044
10387SOL    HW232061   1.594   3.946   2.940
10388SOL     OW32062   1.440   4.434   2.084
10388SOL    HW132063   1.357   4.432   2.029
10388SOL    HW232064   1.446   4.521   2.133
10389SOL     OW32065   0.863   5.543   4.110
10389SOL    HW132066   0.829   5.583   4.025
10389SOL    HW232067   0.904   5.614   4.167
10390SOL     OW32068   2.210   3.881   3.551
10390SOL    HW132069   2.209   3.869   3.650
10390SOL    HW232070   2.240   3.973   3.528
10391SOL     OW32071   3.941   6.156   4.297
10391SOL    HW132072   3.999   6.237   4.291
10391SOL    HW232073   3.919   6.123   4.206
10392SOL     OW32074   6.092   5.718   6.195
10392SOL    HW132075   6.071   5.620   6.193
10392SOL    HW232076   6.163   5.738   6.127
10393SOL     OW32077   0.533   1.179   4.885
10393SOL    HW132078   0.515   1.239   4.807
10393SOL    HW232079   0.600   1.110   4.858
10394SOL     OW32080   3.052   0.270   0.805
10394SOL    HW132081   3.143   0.231   0.791
10394SOL    HW232082   3.003   0.218   0.875
10395SOL     OW32083   1.273   0.660   4.027
10395SOL    HW132084   1.253   0.756   4.045
10395SOL    HW232085   1.189   0.613   4.000
10396SOL     OW32086   0.233   6.914   5.092
10396SOL    HW132087   0.268   6.970   5.167
10396SOL    HW232088   0.268   6.949   5.005
10397SOL     OW32089   4.323   2.256   2.161
10397SOL    HW132090   4.377   2.258   2.245
10397SOL    HW232091   4.226   2.245   2.183
10398SOL     OW32092   6.696   2.910   2.288
10398SOL    HW132093   6.713   2.854   2.207
10398SOL    HW232094   6.779   2.913   2.344
10399SOL     OW32095   6.801   3.571   5.917
10399SOL    HW132096   6.842   3.656   5.952
10399SOL    HW232097   6.852   3.540   5.837
10400SOL     OW32098   1.814   4.886   1.834
10400SOL    HW132099   1.784   4.800   1.875
10400SOL    HW232100   1.738   4.951   1.833
10401SOL     OW32101   1.373   5.317   1.165
10401SOL    HW132102   1.308   5.362   1.226
10401SOL    HW232103   1.361   5.218   1.171
10402SOL     OW32104   0.988   2.435   4.689
10402SOL    HW132105   0.966   2.530   4.665
10402SOL    HW232106   0.936   2.374   4.629
10403SOL     OW32107   5.577   1.113   2.783
10403SOL    HW132108   5.643   1.183   2.757
10403SOL    HW232109   5.486   1.154   2.792
10404SOL     OW32110   0.372   0.429   4.229
10404SOL    HW132111   0.323   0.393   4.308
10404SOL    HW232112   0.314   0.493   4.180
10405SOL     OW32113   3.102   6.958   6.976
10405SOL    HW132114   3.127   0.020   6.934
10405SOL    HW232115   3.160   6.885   6.941
10406SOL     OW32116   1.777   6.006   5.271
10406SOL    HW132117   1.743   5.952   5.348
10406SOL    HW232118   1.768   6.103   5.292
10407SOL     OW32119   2.849   0.684   6.722
10407SOL    HW132120   2.917   0.726   6.663
10407SOL    HW232121   2.844   0.734   6.809
10408SOL     OW32122   3.825   6.990   3.087
10408SOL    HW132123   3.767   6.944   3.154
10408SOL    HW232124   3.850   0.055   3.122
10409SOL     OW32125   0.068   4.878   2.455
10409SOL    HW132126   0.089   4.936   2.376
10409SOL    HW232127   7.005   4.906   2.494
10410SOL     OW32128   4.844   5.840   0.875
10410SOL    HW132129   4.822   5.879   0.786
10410SOL    HW232130   4.818   5.743   0.877
10411SOL     OW32131   2.178   5.042   2.730
10411SOL    HW132132   2.245   5.007   2.664
10411SOL    HW232133   2.102   4.978   2.738
10412SOL     OW32134   1.056   3.090   6.767
10412SOL    HW132135   0.989   3.097   6.842
10412SOL    HW232136   1.037   3.161   6.699
10413SOL     OW32137   6.786   1.636   4.797
10413SOL    HW132138   6.694   1.633   4.837
10413SOL    HW232139   6.846   1.688   4.857
10414SOL     OW32140   5.411   6.095   4.982
10414SOL    HW132141   5.408   6.141   4.893
10414SOL    HW232142   5.419   6.163   5.055
10415SOL     OW32143   0.104   4.865   3.173
10415SOL    HW132144   0.138   4.953   3.208
10415SOL    HW232145   0.077   4.876   3.077
10416SOL     OW32146   5.296   0.802   0.113
10416SOL    HW132147   5.284   0.804   0.212
10416SOL    HW232148   5.284   0.708   0.079
10417SOL     OW32149   4.967   4.406   4.775
10417SOL    HW132150   4.990   4.335   4.842
10417SOL    HW232151   4.946   4.363   4.687
10418SOL     OW32152   6.073   3.463   0.146
10418SOL    HW132153   6.073   3.381   0.203
10418SOL    HW232154   6.022   3.535   0.192
10419SOL     OW32155   1.194   0.453   4.717
10419SOL    HW132156   1.214   0.384   4.646
10419SOL    HW232157   1.132   0.414   4.785
10420SOL     OW32158   6.204   3.806   3.895
10420SOL    HW132159   6.243   3.897   3.882
10420SOL    HW232160   6.104   3.813   3.903
10421SOL     OW32161   6.882   3.439   4.809
10421SOL    HW132162   6.954   3.372   4.828
10421SOL    HW232163   6.904   3.525   4.854
10422SOL     OW32164   5.775   2.864   5.422
10422SOL    HW132165   5.803   2.769   5.439
10422SOL    HW232166   5.840   2.926   5.466
10423SOL     OW32167   2.271   5.664   2.428
10423SOL    HW132168   2.302   5.604   2.354
10423SOL    HW232169   2.345   5.727   2.453
10424SOL     OW32170   4.394   0.886   2.501
10424SOL    HW132171   4.481   0.836   2.500
10424SOL    HW232172   4.412   0.985   2.500
10425SOL     OW32173   0.770   4.031   0.472
10425SOL    HW132174   0.763   3.990   0.381
10425SOL    HW232175   0.823   3.971   0.532
10426SOL     OW32176   6.399   1.872   0.462
10426SOL    HW132177   6.471   1.927   0.420
10426SOL    HW232178   6.432   1.837   0.550
10427SOL     OW32179   6.446   0.412   3.842
10427SOL    HW132180   6.521   0.347   3.855
10427SOL    HW232181   6.417   0.410   3.746
10428SOL     OW32182   2.001   6.813   4.688
10428SOL    HW132183   1.992   6.727   4.638
10428SOL    HW232184   1.910   6.850   4.707
10429SOL     OW32185   2.397   4.301   2.029
10429SOL    HW132186   2.310   4.292   1.981
10429SOL    HW232187   2.429   4.395   2.023
10430SOL     OW32188   3.164   0.853   3.712
10430SOL    HW132189   3.189   0.782   3.778
10430SOL    HW232190   3.081   0.899   3.741
10431SOL     OW32191   4.410   2.279   3.714
10431SOL    HW132192   4.396   2.357   3.654
10431SOL    HW232193   4.328   2.222   3.713
10432SOL     OW32194   0.692   4.588   0.847
10432SOL    HW132195   0.610   4.548   0.888
10432SOL    HW232196   0.760   4.605   0.919
10433SOL     OW32197   3.456   6.665   4.708
10433SOL    HW132198   3.502   6.747   4.673
10433SOL    HW232199   3.524   6.594   4.729
10434SOL     OW32200   4.234   1.731   0.052
10434SOL    HW132201   4.261   1.823   0.079
10434SOL    HW232202   4.301   1.695   7.012
10435SOL     OW32203   2.234   1.320   1.578
10435SOL    HW132204   2.234   1.393   1.510
10435SOL    HW232205   2.288   1.243   1.543
10436SOL     OW32206   0.883   3.482   5.352
10436SOL    HW132207   0.960   3.545   5.349
10436SOL    HW232208   0.868   3.443   5.261
10437SOL     OW32209   0.030   6.999   4.701
10437SOL    HW132210   0.128   6.985   4.688
10437SOL    HW232211   7.005   6.946   4.633
10438SOL     OW32212   6.958   5.879   6.877
10438SOL    HW132213   6.950   5.843   6.784
10438SOL    HW232214   6.990   5.806   6.938
10439SOL     OW32215   5.843   5.587   4.903
10439SOL    HW132216   5.810   5.493   4.894
10439SOL    HW232217   5.865   5.606   4.999
10440SOL     OW32218   6.050   2.711   0.961
10440SOL    HW132219   6.001   2.798   0.973
10440SOL    HW232220   6.079   2.677   1.050
10441SOL     OW32221   4.741   1.455   6.336
10441SOL    HW132222   4.804   1.519   6.292
10441SOL    HW232223   4.688   1.407   6.266
10442SOL     OW32224   2.491   0.650   5.640
10442SOL    HW132225   2.466   0.568   5.590
10442SOL    HW232226   2.480   0.633   5.738
10443SOL     OW32227   0.720   0.981   0.232
10443SOL    HW132228   0.744   0.927   0.313
10443SOL    HW232229   0.625   1.012   0.240
10444SOL     OW32230   4.567   5.709   3.924
10444SOL    HW132231   4.626   5.789   3.925
10444SOL    HW232232   4.620   5.629   3.952
10445SOL     OW32233   1.128   3.648   3.910
10445SOL    HW132234   1.162   3.554   3.915
10445SOL    HW232235   1.053   3.660   3.976
10446SOL     OW32236   2.626   4.720   4.875
10446SOL    HW132237   2.563   4.662   4.823
10446SOL    HW232238   2.691   4.663   4.924
10447SOL     OW32239   1.459   2.315   2.809
10447SOL    HW132240   1.389   2.364   2.861
10447SOL    HW232241   1.549   2.356   2.827
10448SOL     OW32242   0.531   5.206   2.961
10448SOL    HW132243   0.484   5.291   2.985
10448SOL    HW232244   0.630   5.223   2.955
10449SOL     OW32245   3.747   4.947   4.503
10449SOL    HW132246   3.810   4.989   4.438
10449SOL    HW232247   3.792   4.934   4.591
10450SOL     OW32248   0.341   2.221   4.509
10450SOL    HW132249   0.261   2.196   4.563
10450SOL    HW232250   0.422   2.217   4.567
10451SOL     OW32251   2.531   1.504   4.928
10451SOL    HW132252   2.606   1.446   4.898
10451SOL    HW232253   2.506   1.481   5.022
10452SOL     OW32254   6.681   2.910   4.378
10452SOL    HW132255   6.702   2.879   4.471
10452SOL    HW232256   6.764   2.946   4.335
10453SOL     OW32257   2.538   5.499   4.046
10453SOL    HW132258   2.587   5.423   4.004
10453SOL    HW232259   2.544   5.492   4.146
10454SOL     OW32260   6.644   1.407   6.856
10454SOL    HW132261   6.577   1.481   6.860
10454SOL    HW232262   6.733   1.441   6.887
10455SOL     OW32263   0.793   5.764   2.471
10455SOL    HW132264   0.863   5.745   2.402
10455SOL    HW232265   0.836   5.773   2.560
10456SOL     OW32266   1.585   5.508   6.440
10456SOL    HW132267   1.601   5.556   6.354
10456SOL    HW232268   1.661   5.446   6.459
10457SOL     OW32269   4.098   1.333   0.840
10457SOL    HW132270   4.183   1.385   0.829
10457SOL    HW232271   4.020   1.390   0.813
10458SOL     OW32272   1.697   6.772   0.219
10458SOL    HW132273   1.673   6.765   0.316
10458SOL    HW232274   1.614   6.768   0.164
10459SOL     OW32275   5.383   6.082   0.895
10459SOL    HW132276   5.401   6.178   0.915
10459SOL    HW232277   5.285   6.069   0.882
10460SOL     OW32278   6.418   0.812   6.410
10460SOL    HW132279   6.453   0.906   6.410
10460SOL    HW232280   6.409   0.780   6.504
10461SOL     OW32281   6.921   3.839   5.519
10461SOL    HW132282   6.955   3.846   5.613
10461SOL    HW232283   6.863   3.918   5.499
10462SOL     OW32284   4.058   3.721   7.003
10462SOL    HW132285   3.972   3.706   0.027
10462SOL    HW232286   4.047   3.796   6.939
10463SOL     OW32287   4.820   2.444   5.172
10463SOL    HW132288   4.827   2.452   5.073
10463SOL    HW232289   4.895   2.388   5.207
10464SOL     OW32290   6.540   4.753   1.791
10464SOL    HW132291   6.526   4.661   1.755
10464SOL    HW232292   6.489   4.819   1.736
10465SOL     OW32293   5.224   4.454   1.241
10465SOL    HW132294   5.148   4.418   1.187
10465SOL    HW232295   5.243   4.548   1.215
10466SOL     OW32296   5.963   3.875   5.349
10466SOL    HW132297   5.959   3.779   5.375
10466SOL    HW232298   5.932   3.885   5.254
10467SOL     OW32299   0.435   3.265   6.423
10467SOL    HW132300   0.490   3.318   6.489
10467SOL    HW232301   0.340   3.264   6.453
10468SOL     OW32302   1.210   4.050   3.880
10468SOL    HW132303   1.258   3.983   3.936
10468SOL    HW232304   1.255   4.139   3.889
10469SOL     OW32305   1.191   0.946   4.174
10469SOL    HW132306   1.216   1.036   4.140
10469SOL    HW232307   1.092   0.932   4.163
10470SOL     OW32308   2.139   3.914   1.723
10470SOL    HW132309   2.236   3.935   1.738
10470SOL    HW232310   2.124   3.815   1.733
10471SOL     OW32311   2.384   4.597   5.766
10471SOL    HW132312   2.343   4.510   5.792
10471SOL    HW232313   2.446   4.628   5.837
10472SOL     OW32314   4.236   5.154   5.639
10472SOL    HW132315   4.233   5.249   5.670
10472SOL    HW232316   4.331   5.129   5.618
10473SOL     OW32317   6.144   5.714   0.153
10473SOL    HW132318   6.223   5.772   0.170
10473SOL    HW232319   6.079   5.723   0.228
10474SOL     OW32320   6.117   5.887   5.088
10474SOL    HW132321   6.111   5.816   5.159
10474SOL    HW232322   6.188   5.863   5.023
10475SOL     OW32323   0.667   5.842   1.499
10475SOL    HW132324   0.579   5.798   1.513
10475SOL    HW232325   0.666   5.891   1.412
10476SOL     OW32326   5.059   6.495   1.236
10476SOL    HW132327   4.984   6.560   1.252
10476SOL    HW232328   5.130   6.539   1.181
10477SOL     OW32329   0.118   5.658   3.621
10477SOL    HW132330   0.061   5.591   3.575
10477SOL    HW232331   0.212   5.654   3.585
10478SOL     OW32332   6.951   0.703   6.758
10478SOL    HW132333   6.858   0.688   6.724
10478SOL    HW232334   6.990   0.615   6.787
10479SOL     OW32335   0.015   3.950   2.456
10479SOL    HW132336   0.100   3.957   2.509
10479SOL    HW232337   6.975   4.019   2.489
10480SOL     OW32338   2.170   0.800   3.157
10480SOL    HW132339   2.239   0.774   3.224
10480SOL    HW232340   2.095   0.848   3.203
10481SOL     OW32341   6.344   0.926   1.241
10481SOL    HW132342   6.294   0.958   1.322
10481SOL    HW232343   6.314   0.833   1.219
10482SOL     OW32344   5.057   3.897   3.943
10482SOL    HW132345   4.995   3.881   4.020
10482SOL    HW232346   5.058   3.994   3.920
10483SOL     OW32347   5.625   0.807   6.822
10483SOL    HW132348   5.685   0.838   6.748
10483SOL    HW232349   5.567   0.883   6.852
10484SOL     OW32350   6.224   0.805   1.886
10484SOL    HW132351   6.147   0.743   1.868
10484SOL    HW232352   6.198   0.897   1.859
10485SOL     OW32353   5.955   3.003   5.574
10485SOL    HW132354   5.964   3.015   5.672
10485SOL    HW232355   6.029   3.052   5.527
10486SOL     OW32356   5.842   3.028   1.948
10486SOL    HW132357   5.909   2.960   1.978
10486SOL    HW232358   5.807   3.002   1.858
10487SOL     OW32359   3.833   6.785   2.246
10487SOL    HW132360   3.884   6.713   2.292
10487SOL    HW232361   3.764   6.823   2.308
10488SOL     OW32362   4.285   3.981   6.536
10488SOL    HW132363   4.239   3.906   6.584
10488SOL    HW232364   4.383   3.974   6.551
10489SOL     OW32365   1.859   5.394   5.663
10489SOL    HW132366   1.820   5.303   5.672
10489SOL    HW232367   1.938   5.391   5.601
10490SOL     OW32368   6.308   0.110   4.475
10490SOL    HW132369   6.256   0.095   4.390
10490SOL    HW232370   6.285   0.200   4.512
10491SOL     OW32371   6.495   5.916   5.221
10491SOL    HW132372   6.581   5.962   5.199
10491SOL    HW232373   6.452   5.884   5.136
10492SOL     OW32374   5.327   4.403   5.532
10492SOL    HW132375   5.229   4.418   5.532
10492SOL    HW232376   5.374   4.491   5.546
10493SOL     OW32377   2.996   1.690   0.799
10493SOL    HW132378   2.924   1.659   0.862
10493SOL    HW232379   3.011   1.788   0.812
10494SOL     OW32380   5.627   1.253   5.278
10494SOL    HW132381   5.643   1.159   5.309
10494SOL    HW232382   5.596   1.309   5.355
10495SOL     OW32383   1.705   6.808   6.297
10495SOL    HW132384   1.801   6.821   6.319
10495SOL    HW232385   1.694   6.805   6.197
10496SOL     OW32386   6.491   0.057   5.606
10496SOL    HW132387   6.481   0.156   5.600
10496SOL    HW232388   6.485   0.017   5.515
10497SOL     OW32389   1.729   1.656   6.770
10497SOL    HW132390   1.685   1.580   6.722
10497SOL    HW232391   1.784   1.709   6.706
10498SOL     OW32392   3.309   5.331   5.675
10498SOL    HW132393   3.258   5.245   5.668
10498SOL    HW232394   3.271   5.398   5.612
10499SOL     OW32395   2.891   5.649   2.963
10499SOL    HW132396   2.869   5.743   2.990
10499SOL    HW232397   2.822   5.587   3.000
10500SOL     OW32398   2.255   2.054   6.658
10500SOL    HW132399   2.258   2.151   6.632
10500SOL    HW232400   2.349   2.019   6.663
10501SOL     OW32401   1.923   3.929   3.018
10501SOL    HW132402   1.888   3.845   2.976
10501SOL    HW232403   2.022   3.920   3.030
10502SOL     OW32404   3.123   5.798   4.433
10502SOL    HW132405   3.052   5.728   4.423
10502SOL    HW232406   3.160   5.821   4.343
10503SOL     OW32407   2.171   3.211   6.196
10503SOL    HW132408   2.165   3.249   6.104
10503SOL    HW232409   2.164   3.285   6.264
10504SOL     OW32410   2.126   3.570   0.962
10504SOL    HW132411   2.069   3.617   0.895
10504SOL    HW232412   2.149   3.479   0.928
10505SOL     OW32413   0.991   6.312   0.132
10505SOL    HW132414   0.902   6.309   0.177
10505SOL    HW232415   0.993   6.244   0.059
10506SOL     OW32416   6.549   4.849   5.587
10506SOL    HW132417   6.634   4.796   5.585
10506SOL    HW232418   6.507   4.847   5.496
10507SOL     OW32419   2.478   0.198   3.278
10507SOL    HW132420   2.561   0.221   3.226
10507SOL    HW232421   2.405   0.263   3.255
10508SOL     OW32422   5.766   4.093   2.632
10508SOL    HW132423   5.696   4.024   2.649
10508SOL    HW232424   5.798   4.085   2.537
10509SOL     OW32425   2.111   0.856   5.234
10509SOL    HW132426   2.127   0.940   5.286
10509SOL    HW232427   2.015   0.851   5.207
10510SOL     OW32428   5.759   0.978   6.595
10510SOL    HW132429   5.668   0.943   6.571
10510SOL    HW232430   5.804   1.013   6.512
10511SOL     OW32431   6.730   2.851   1.895
10511SOL    HW132432   6.772   2.866   1.805
10511SOL    HW232433   6.794   2.804   1.955
10512SOL     OW32434   2.118   0.497   6.352
10512SOL    HW132435   2.134   0.431   6.425
10512SOL    HW232436   2.170   0.581   6.370
10513SOL     OW32437   0.198   2.288   0.739
10513SOL    HW132438   0.211   2.371   0.686
10513SOL    HW232439   0.105   2.255   0.728
10514SOL     OW32440   0.954   2.859   1.660
10514SOL    HW132441   1.011   2.789   1.704
10514SOL    HW232442   0.954   2.942   1.715
10515SOL     OW32443   0.084   3.262   5.229
10515SOL    HW132444   0.157   3.273   5.297
10515SOL    HW232445   0.094   3.330   5.157
10516SOL     OW32446   2.324   6.933   1.103
10516SOL    HW132447   2.351   6.844   1.140
10516SOL    HW232448   2.307   6.925   1.004
10517SOL     OW32449   0.735   2.699   2.982
10517SOL    HW132450   0.794   2.625   3.016
10517SOL    HW232451   0.721   2.765   3.055
10518SOL     OW32452   0.562   6.062   3.194
10518SOL    HW132453   0.589   6.033   3.286
10518SOL    HW232454   0.485   6.006   3.163
10519SOL     OW32455   4.486   2.998   5.919
10519SOL    HW132456   4.442   2.910   5.901
10519SOL    HW232457   4.419   3.071   5.912
10520SOL     OW32458   3.182   4.980   6.017
10520SOL    HW132459   3.272   4.937   6.023
10520SOL    HW232460   3.118   4.933   6.077
10521SOL     OW32461   6.884   5.532   2.225
10521SOL    HW132462   6.890   5.447   2.173
10521SOL    HW232463   6.873   5.609   2.162
10522SOL     OW32464   6.880   0.004   2.561
10522SOL    HW132465   6.900   0.098   2.530
10522SOL    HW232466   6.957   6.970   2.536
10523SOL     OW32467   6.200   6.838   6.294
10523SOL    HW132468   6.290   6.793   6.290
10523SOL    HW232469   6.133   6.780   6.249
10524SOL     OW32470   4.685   0.915   4.498
10524SOL    HW132471   4.750   0.882   4.566
10524SOL    HW232472   4.644   1.001   4.531
10525SOL     OW32473   2.932   6.880   4.835
10525SOL    HW132474   2.969   6.923   4.753
10525SOL    HW232475   2.832   6.878   4.829
10526SOL     OW32476   4.175   6.625   2.738
10526SOL    HW132477   4.244   6.696   2.725
10526SOL    HW232478   4.208   6.559   2.806
10527SOL     OW32479   1.675   2.716   4.864
10527SOL    HW132480   1.681   2.626   4.908
10527SOL    HW232481   1.766   2.742   4.830
10528SOL     OW32482   6.077   4.967   6.027
10528SOL    HW132483   6.093   5.052   5.978
10528SOL    HW232484   6.072   4.985   6.125
10529SOL     OW32485   6.998   5.663   5.142
10529SOL    HW132486   7.022   5.702   5.053
10529SOL    HW232487   6.974   5.737   5.205
10530SOL     OW32488   1.494   2.303   5.176
10530SOL    HW132489   1.467   2.340   5.087
10530SOL    HW232490   1.567   2.359   5.215
10531SOL     OW32491   1.934   2.370   4.940
10531SOL    HW132492   1.919   2.290   4.998
10531SOL    HW232493   2.005   2.428   4.981
10532SOL     OW32494   3.310   3.518   4.930
10532SOL    HW132495   3.371   3.454   4.977
10532SOL    HW232496   3.288   3.594   4.991
10533SOL     OW32497   3.354   0.791   6.344
10533SOL    HW132498   3.340   0.886   6.315
10533SOL    HW232499   3.452   0.771   6.343
10534SOL     OW32500   5.937   4.987   1.549
10534SOL    HW132501   6.026   4.943   1.540
10534SOL    HW232502   5.881   4.937   1.615
10535SOL     OW32503   0.185   1.314   1.780
10535SOL    HW132504   0.216   1.409   1.780
10535SOL    HW232505   0.106   1.305   1.720
10536SOL     OW32506   6.030   5.647   3.335
10536SOL    HW132507   5.948   5.652   3.278
10536SOL    HW232508   6.042   5.553   3.368
10537SOL     OW32509   6.205   5.648   1.505
10537SOL    HW132510   6.283   5.709   1.518
10537SOL    HW232511   6.122   5.703   1.489
10538SOL     OW32512   4.085   3.458   6.899
10538SOL    HW132513   4.081   3.556   6.921
10538SOL    HW232514   4.179   3.434   6.873
10539SOL     OW32515   0.762   3.037   4.842
10539SOL    HW132516   0.687   2.987   4.884
10539SOL    HW232517   0.749   3.135   4.856
10540SOL     OW32518   3.745   0.781   0.365
10540SOL    HW132519   3.802   0.752   0.442
10540SOL    HW232520   3.764   0.723   0.286
10541SOL     OW32521   3.880   2.808   1.662
10541SOL    HW132522   3.801   2.868   1.655
10541SOL    HW232523   3.963   2.862   1.673
10542SOL     OW32524   1.717   1.994   0.460
10542SOL    HW132525   1.729   1.904   0.420
10542SOL    HW232526   1.735   2.065   0.392
10543SOL     OW32527   2.423   0.621   4.570
10543SOL    HW132528   2.412   0.576   4.482
10543SOL    HW232529   2.501   0.683   4.567
10544SOL     OW32530   0.062   2.156   1.706
10544SOL    HW132531   7.010   2.189   1.761
10544SOL    HW232532   0.092   2.228   1.644
10545SOL     OW32533   4.585   1.519   3.114
10545SOL    HW132534   4.515   1.487   3.051
10545SOL    HW232535   4.546   1.527   3.206
10546SOL     OW32536   4.573   1.044   5.538
10546SOL    HW132537   4.640   1.052   5.612
10546SOL    HW232538   4.576   1.126   5.481
10547SOL     OW32539   4.840   6.050   1.949
10547SOL    HW132540   4.936   6.064   1.972
10547SOL    HW232541   4.811   5.960   1.980
10548SOL     OW32542   4.488   4.008   5.297
10548SOL    HW132543   4.394   4.009   5.263
10548SOL    HW232544   4.513   3.916   5.325
10549SOL     OW32545   1.116   1.453   2.093
10549SOL    HW132546   1.057   1.519   2.140
10549SOL    HW232547   1.135   1.485   2.000
10550SOL     OW32548   4.989   6.987   4.775
10550SOL    HW132549   5.002   0.054   4.739
10550SOL    HW232550   5.038   6.922   4.717
10551SOL     OW32551   1.270   3.021   6.290
10551SOL    HW132552   1.297   2.929   6.260
10551SOL    HW232553   1.189   3.014   6.348
10552SOL     OW32554   3.477   1.436   5.249
10552SOL    HW132555   3.448   1.444   5.154
10552SOL    HW232556   3.475   1.339   5.276
10553SOL     OW32557   3.129   5.240   6.133
10553SOL    HW132558   3.139   5.150   6.091
10553SOL    HW232559   3.031   5.261   6.142
10554SOL     OW32560   6.429   3.671   5.842
10554SOL    HW132561   6.410   3.625   5.929
10554SOL    HW232562   6.390   3.763   5.843
10555SOL     OW32563   3.680   2.972   1.633
10555SOL    HW132564   3.666   3.017   1.721
10555SOL    HW232565   3.592   2.938   1.600
10556SOL     OW32566   0.917   3.671   4.107
10556SOL    HW132567   0.890   3.761   4.073
10556SOL    HW232568   0.837   3.611   4.107
10557SOL     OW32569   5.218   1.445   3.444
10557SOL    HW132570   5.244   1.420   3.351
10557SOL    HW232571   5.300   1.453   3.501
10558SOL     OW32572   5.538   5.796   5.258
10558SOL    HW132573   5.630   5.816   5.292
10558SOL    HW232574   5.535   5.810   5.159
10559SOL     OW32575   4.215   2.659   0.506
10559SOL    HW132576   4.310   2.687   0.490
10559SOL    HW232577   4.168   2.646   0.419
10560SOL     OW32578   6.418   2.131   4.089
10560SOL    HW132579   6.449   2.155   3.997
10560SOL    HW232580   6.486   2.071   4.132
10561SOL     OW32581   2.183   3.913   6.509
10561SOL    HW132582   2.109   3.867   6.459
10561SOL    HW232583   2.169   3.899   6.607
10562SOL     OW32584   3.646   1.649   0.285
10562SOL    HW132585   3.666   1.559   0.248
10562SOL    HW232586   3.715   1.714   0.254
10563SOL     OW32587   1.316   2.094   2.955
10563SOL    HW132588   1.374   2.159   2.904
10563SOL    HW232589   1.224   2.131   2.963
10564SOL     OW32590   6.932   1.996   2.446
10564SOL    HW132591   6.996   2.035   2.379
10564SOL    HW232592   6.881   2.070   2.491
10565SOL     OW32593   5.177   1.667   5.055
10565SOL    HW132594   5.137   1.667   5.146
10565SOL    HW232595   5.231   1.584   5.042
10566SOL     OW32596   4.915   5.225   6.498
10566SOL    HW132597   4.927   5.323   6.486
10566SOL    HW232598   4.966   5.176   6.428
10567SOL     OW32599   2.251   5.455   4.898
10567SOL    HW132600   2.240   5.528   4.831
10567SOL    HW232601   2.215   5.370   4.860
10568SOL     OW32602   3.131   1.444   2.967
10568SOL    HW132603   3.050   1.443   2.909
10568SOL    HW232604   3.119   1.512   3.039
10569SOL     OW32605   6.461   2.466   3.825
10569SOL    HW132606   6.477   2.560   3.793
10569SOL    HW232607   6.363   2.453   3.842
10570SOL     OW32608   0.986   4.023   0.724
10570SOL    HW132609   0.974   3.966   0.805
10570SOL    HW232610   0.992   4.119   0.752
10571SOL     OW32611   6.572   7.021   4.713
10571SOL    HW132612   6.613   0.051   4.641
10571SOL    HW232613   6.600   0.031   4.802
10572SOL     OW32614   6.644   4.000   1.482
10572SOL    HW132615   6.676   3.927   1.423
10572SOL    HW232616   6.566   3.968   1.536
10573SOL     OW32617   6.421   5.312   5.590
10573SOL    HW132618   6.459   5.284   5.678
10573SOL    HW232619   6.469   5.393   5.557
10574SOL     OW32620   0.754   2.384   3.155
10574SOL    HW132621   0.755   2.322   3.076
10574SOL    HW232622   0.666   2.375   3.203
10575SOL     OW32623   1.038   6.525   6.661
10575SOL    HW132624   1.041   6.515   6.761
10575SOL    HW232625   1.130   6.515   6.624
10576SOL     OW32626   1.184   5.902   3.348
10576SOL    HW132627   1.264   5.915   3.289
10576SOL    HW232628   1.138   5.817   3.324
10577SOL     OW32629   0.161   2.123   5.974
10577SOL    HW132630   0.119   2.213   5.977
10577SOL    HW232631   0.092   2.054   5.953
10578SOL     OW32632   5.113   0.786   5.706
10578SOL    HW132633   5.057   0.867   5.689
10578SOL    HW232634   5.060   0.704   5.684
10579SOL     OW32635   5.444   6.996   0.647
10579SOL    HW132636   5.357   7.015   0.692
10579SOL    HW232637   5.428   6.934   0.570
10580SOL     OW32638   0.348   5.559   0.052
10580SOL    HW132639   0.283   5.547   7.002
10580SOL    HW232640   0.438   5.525   0.024
10581SOL     OW32641   4.588   2.461   3.176
10581SOL    HW132642   4.593   2.561   3.185
10581SOL    HW232643   4.680   2.422   3.178
10582SOL     OW32644   3.108   4.582   6.921
10582SOL    HW132645   3.076   4.676   6.916
10582SOL    HW232646   3.039   4.525   6.967
10583SOL     OW32647   4.783   1.322   1.308
10583SOL    HW132648   4.695   1.367   1.291
10583SOL    HW232649   4.767   1.236   1.357
10584SOL     OW32650   5.992   6.537   1.375
10584SOL    HW132651   6.051   6.616   1.357
10584SOL    HW232652   6.021   6.460   1.318
10585SOL     OW32653   2.908   4.244   5.939
10585SOL    HW132654   2.974   4.316   5.918
10585SOL    HW232655   2.821   4.285   5.966
10586SOL     OW32656   4.874   1.830   1.581
10586SOL    HW132657   4.782   1.799   1.606
10586SOL    HW232658   4.940   1.758   1.601
10587SOL     OW32659   6.431   3.404   0.420
10587SOL    HW132660   6.373   3.472   0.375
10587SOL    HW232661   6.375   3.338   0.468
10588SOL     OW32662   1.343   4.963   3.463
10588SOL    HW132663   1.268   4.924   3.410
10588SOL    HW232664   1.316   4.968   3.560
10589SOL     OW32665   6.481   1.141   4.222
10589SOL    HW132666   6.476   1.150   4.321
10589SOL    HW232667   6.406   1.082   4.190
10590SOL     OW32668   1.808   6.950   5.312
10590SOL    HW132669   1.885   7.010   5.288
10590SOL    HW232670   1.724   7.004   5.314
10591SOL     OW32671   1.735   1.935   1.803
10591SOL    HW132672   1.689   1.995   1.738
10591SOL    HW232673   1.674   1.916   1.880
10592SOL     OW32674   5.459   1.259   6.199
10592SOL    HW132675   5.413   1.314   6.129
10592SOL    HW232676   5.447   1.162   6.179
10593SOL     OW32677   1.420   3.997   2.138
10593SOL    HW132678   1.477   3.921   2.106
10593SOL    HW232679   1.476   4.060   2.192
10594SOL     OW32680   1.104   1.271   4.775
10594SOL    HW132681   1.116   1.245   4.679
10594SOL    HW232682   1.007   1.268   4.799
10595SOL     OW32683   1.663   5.855   4.756
10595SOL    HW132684   1.605   5.888   4.681
10595SOL    HW232685   1.607   5.801   4.819
10596SOL     OW32686   2.906   1.320   1.522
10596SOL    HW132687   2.953   1.246   1.571
10596SOL    HW232688   2.873   1.286   1.434
10597SOL     OW32689   1.519   0.605   3.887
10597SOL    HW132690   1.452   0.665   3.930
10597SOL    HW232691   1.480   0.566   3.803
10598SOL     OW32692   2.447   0.571   0.625
10598SOL    HW132693   2.521   0.623   0.666
10598SOL    HW232694   2.438   0.595   0.529
10599SOL     OW32695   4.936   0.162   6.402
10599SOL    HW132696   4.938   0.260   6.423
10599SOL    HW232697   4.917   0.150   6.305
10600SOL     OW32698   1.711   3.201   5.035
10600SOL    HW132699   1.764   3.157   5.107
10600SOL    HW232700   1.615   3.177   5.045
10601SOL     OW32701   3.775   6.491   5.411
10601SOL    HW132702   3.678   6.509   5.395
10601SOL    HW232703   3.823   6.491   5.323
10602SOL     OW32704   4.451   2.001   2.116
10602SOL    HW132705   4.532   1.963   2.161
10602SOL    HW232706   4.442   2.098   2.138
10603SOL     OW32707   0.531   5.281   4.895
10603SOL    HW132708   0.469   5.357   4.873
10603SOL    HW232709   0.491   5.226   4.968
10604SOL     OW32710   0.302   3.925   5.953
10604SOL    HW132711   0.269   4.020   5.957
10604SOL    HW232712   0.305   3.896   5.858
10605SOL     OW32713   1.522   5.391   6.157
10605SOL    HW132714   1.575   5.475   6.172
10605SOL    HW232715   1.438   5.395   6.210
10606SOL     OW32716   0.784   1.303   2.013
10606SOL    HW132717   0.711   1.235   2.008
10606SOL    HW232718   0.869   1.258   2.039
10607SOL     OW32719   5.760   3.977   6.313
10607SOL    HW132720   5.765   3.878   6.324
10607SOL    HW232721   5.848   4.011   6.279
10608SOL     OW32722   5.578   6.523   2.324
10608SOL    HW132723   5.493   6.471   2.322
10608SOL    HW232724   5.562   6.611   2.369
10609SOL     OW32725   4.114   6.877   2.851
10609SOL    HW132726   4.092   6.852   2.945
10609SOL    HW232727   4.116   6.794   2.794
10610SOL     OW32728   2.056   4.299   5.160
10610SOL    HW132729   2.096   4.224   5.212
10610SOL    HW232730   1.984   4.264   5.100
10611SOL     OW32731   5.175   2.036   5.780
10611SOL    HW132732   5.121   2.099   5.837
10611SOL    HW232733   5.273   2.056   5.793
10612SOL     OW32734   1.936   0.469   1.421
10612SOL    HW132735   2.013   0.525   1.451
10612SOL    HW232736   1.970   0.383   1.383
10613SOL     OW32737   0.899   6.262   6.812
10613SOL    HW132738   0.880   6.186   6.873
10613SOL    HW232739   0.843   6.341   6.838
10614SOL     OW32740   0.250   0.624   2.745
10614SOL    HW132741   0.213   0.533   2.730
10614SOL    HW232742   0.185   0.678   2.799
10615SOL     OW32743   6.996   6.818   5.183
10615SOL    HW132744   0.063   6.856   5.180
10615SOL    HW232745   7.000   6.719   5.199
10616SOL     OW32746   3.254   5.862   1.279
10616SOL    HW132747   3.267   5.805   1.197
10616SOL    HW232748   3.343   5.891   1.314
10617SOL     OW32749   0.115   1.406   6.495
10617SOL    HW132750   0.174   1.349   6.552
10617SOL    HW232751   0.020   1.389   6.518
10618SOL     OW32752   6.553   4.239   0.909
10618SOL    HW132753   6.564   4.316   0.846
10618SOL    HW232754   6.537   4.274   1.001
10619SOL     OW32755   0.234   3.338   3.594
10619SOL    HW132756   0.299   3.380   3.657
10619SOL    HW232757   0.160   3.403   3.575
10620SOL     OW32758   1.705   5.189   4.173
10620SOL    HW132759   1.658   5.222   4.091
10620SOL    HW232760   1.661   5.227   4.254
10621SOL     OW32761   3.752   6.555   1.152
10621SOL    HW132762   3.763   6.563   1.251
10621SOL    HW232763   3.781   6.640   1.109
10622SOL     OW32764   3.951   2.036   0.594
10622SOL    HW132765   3.950   2.119   0.538
10622SOL    HW232766   4.012   2.049   0.672
10623SOL     OW32767   0.087   1.502   4.947
10623SOL    HW132768   0.127   1.568   4.884
10623SOL    HW232769   0.028   1.439   4.896
10624SOL     OW32770   2.625   1.479   4.319
10624SOL    HW132771   2.557   1.440   4.256
10624SOL    HW232772   2.682   1.544   4.270
10625SOL     OW32773   0.647   2.743   0.641
10625SOL    HW132774   0.721   2.804   0.668
10625SOL    HW232775   0.676   2.687   0.563
10626SOL     OW32776   6.896   1.972   3.299
10626SOL    HW132777   6.974   1.928   3.256
10626SOL    HW232778   6.816   1.963   3.240
10627SOL     OW32779   4.792   5.811   4.684
10627SOL    HW132780   4.753   5.902   4.702
10627SOL    HW232781   4.857   5.788   4.756
10628SOL     OW32782   6.510   6.310   5.165
10628SOL    HW132783   6.475   6.237   5.106
10628SOL    HW232784   6.515   6.395   5.112
10629SOL     OW32785   2.639   4.227   6.399
10629SOL    HW132786   2.676   4.139   6.371
10629SOL    HW232787   2.564   4.253   6.338
10630SOL     OW32788   5.368   1.048   1.959
10630SOL    HW132789   5.344   0.989   1.881
10630SOL    HW232790   5.356   0.996   2.044
10631SOL     OW32791   1.518   6.828   4.573
10631SOL    HW132792   1.481   6.920   4.568
10631SOL    HW232793   1.447   6.764   4.602
10632SOL     OW32794   0.142   3.002   6.757
10632SOL    HW132795   0.102   3.005   6.848
10632SOL    HW232796   0.122   2.914   6.714
10633SOL     OW32797   1.150   5.099   0.007
10633SOL    HW132798   1.054   5.122   0.023
10633SOL    HW232799   1.187   5.053   0.087
10634SOL     OW32800   3.435   6.797   2.407
10634SOL    HW132801   3.379   6.774   2.327
10634SOL    HW232802   3.403   6.745   2.486
10635SOL     OW32803   1.584   1.233   1.686
10635SOL    HW132804   1.535   1.216   1.772
10635SOL    HW232805   1.522   1.274   1.620
10636SOL     OW32806   5.013   1.802   0.108
10636SOL    HW132807   5.099   1.839   0.071
10636SOL    HW232808   5.030   1.711   0.146
10637SOL     OW32809   3.021   3.627   6.343
10637SOL    HW132810   3.049   3.638   6.247
10637SOL    HW232811   2.979   3.711   6.375
10638SOL     OW32812   6.219   0.630   6.030
10638SOL    HW132813   6.282   0.590   6.096
10638SOL    HW232814   6.239   0.728   6.020
10639SOL     OW32815   3.806   2.136   5.084
10639SOL    HW132816   3.784   2.040   5.100
10639SOL    HW232817   3.900   2.155   5.112
10640SOL     OW32818   4.714   6.382   0.611
10640SOL    HW132819   4.678   6.431   0.690
10640SOL    HW232820   4.772   6.306   0.641
10641SOL     OW32821   3.577   6.919   0.270
10641SOL    HW132822   3.528   6.838   0.302
10641SOL    HW232823   3.512   6.991   0.246
10642SOL     OW32824   0.591   5.394   1.206
10642SOL    HW132825   0.556   5.486   1.225
10642SOL    HW232826   0.648   5.363   1.283
10643SOL     OW32827   3.841   3.158   5.182
10643SOL    HW132828   3.779   3.091   5.143
10643SOL    HW232829   3.899   3.114   5.252
10644SOL     OW32830   3.790   1.091   5.601
10644SOL    HW132831   3.745   1.020   5.546
10644SOL    HW232832   3.889   1.083   5.591
10645SOL     OW32833   2.256   0.371   4.462
10645SOL    HW132834   2.221   0.453   4.418
10645SOL    HW232835   2.181   0.306   4.476
10646SOL     OW32836   6.566   5.451   6.722
10646SOL    HW132837   6.555   5.499   6.809
10646SOL    HW232838   6.483   5.400   6.702
10647SOL     OW32839   0.201   6.195   0.799
10647SOL    HW132840   0.230   6.134   0.726
10647SOL    HW232841   0.215   6.150   0.887
10648SOL     OW32842   4.994   4.040   6.107
10648SOL    HW132843   4.978   4.021   6.010
10648SOL    HW232844   4.935   4.115   6.137
10649SOL     OW32845   0.078   5.048   6.666
10649SOL    HW132846   7.011   5.063   6.702
10649SOL    HW232847   0.119   4.970   6.714
10650SOL     OW32848   2.329   0.208   5.793
10650SOL    HW132849   2.313   0.287   5.735
10650SOL    HW232850   2.292   0.126   5.749
10651SOL     OW32851   2.091   0.717   4.918
10651SOL    HW132852   2.113   0.627   4.881
10651SOL    HW232853   2.126   0.788   4.857
10652SOL     OW32854   4.709   0.888   0.400
10652SOL    HW132855   4.777   0.908   0.471
10652SOL    HW232856   4.749   0.829   0.330
10653SOL     OW32857   5.944   3.856   3.888
10653SOL    HW132858   5.863   3.817   3.933
10653SOL    HW232859   5.957   3.950   3.917
10654SOL     OW32860   4.546   0.590   1.432
10654SOL    HW132861   4.520   0.581   1.528
10654SOL    HW232862   4.467   0.622   1.379
10655SOL     OW32863   2.590   5.805   1.184
10655SOL    HW132864   2.660   5.876   1.182
10655SOL    HW232865   2.634   5.715   1.191
10656SOL     OW32866   6.634   2.729   6.040
10656SOL    HW132867   6.555   2.790   6.045
10656SOL    HW232868   6.657   2.711   5.945
10657SOL     OW32869   6.156   0.336   0.771
10657SOL    HW132870   6.089   0.320   0.844
10657SOL    HW232871   6.184   0.249   0.732
10658SOL     OW32872   7.018   6.263   4.080
10658SOL    HW132873   0.053   6.212   4.141
10658SOL    HW232874   6.923   6.250   4.109
10659SOL     OW32875   5.182   0.930   1.545
10659SOL    HW132876   5.187   1.029   1.555
10659SOL    HW232877   5.108   0.905   1.483
10660SOL     OW32878   5.163   5.060   5.551
10660SOL    HW132879   5.092   5.004   5.510
10660SOL    HW232880   5.121   5.132   5.607
10661SOL     OW32881   0.011   1.351   1.551
10661SOL    HW132882   0.014   1.448   1.575
10661SOL    HW232883   6.970   1.337   1.477
10662SOL     OW32884   0.126   1.982   0.717
10662SOL    HW132885   0.215   2.016   0.748
10662SOL    HW232886   0.066   2.058   0.697
10663SOL     OW32887   0.506   2.161   1.494
10663SOL    HW132888   0.596   2.165   1.452
10663SOL    HW232889   0.458   2.247   1.478
10664SOL     OW32890   2.484   5.361   6.071
10664SOL    HW132891   2.432   5.280   6.042
10664SOL    HW232892   2.460   5.439   6.013
10665SOL     OW32893   5.702   1.790   0.003
10665SOL    HW132894   5.646   1.846   0.064
10665SOL    HW232895   5.728   1.844   6.949
10666SOL     OW32896   0.823   6.732   0.341
10666SOL    HW132897   0.747   6.735   0.405
10666SOL    HW232898   0.908   6.755   0.388
10667SOL     OW32899   3.232   2.148   5.650
10667SOL    HW132900   3.201   2.207   5.575
10667SOL    HW232901   3.325   2.116   5.632
10668SOL     OW32902   1.582   0.558   6.243
10668SOL    HW132903   1.646   0.539   6.318
10668SOL    HW232904   1.492   0.522   6.266
10669SOL     OW32905   1.986   5.968   6.670
10669SOL    HW132906   2.073   6.015   6.683
10669SOL    HW232907   1.983   5.886   6.728
10670SOL     OW32908   5.770   4.370   4.933
10670SOL    HW132909   5.730   4.329   4.851
10670SOL    HW232910   5.841   4.309   4.970
10671SOL     OW32911   2.155   2.815   3.362
10671SOL    HW132912   2.241   2.770   3.387
10671SOL    HW232913   2.149   2.820   3.262
10672SOL     OW32914   6.591   2.307   0.772
10672SOL    HW132915   6.512   2.354   0.809
10672SOL    HW232916   6.660   2.296   0.844
10673SOL     OW32917   3.726   4.073   3.921
10673SOL    HW132918   3.705   4.046   4.015
10673SOL    HW232919   3.647   4.118   3.880
10674SOL     OW32920   4.207   1.641   3.011
10674SOL    HW132921   4.270   1.717   3.024
10674SOL    HW232922   4.246   1.574   2.948
10675SOL     OW32923   1.337   1.450   6.125
10675SOL    HW132924   1.324   1.368   6.069
10675SOL    HW232925   1.350   1.529   6.066
10676SOL     OW32926   6.631   0.857   0.305
10676SOL    HW132927   6.542   0.899   0.292
10676SOL    HW232928   6.692   0.920   0.353
10677SOL     OW32929   5.272   1.478   0.271
10677SOL    HW132930   5.314   1.562   0.239
10677SOL    HW232931   5.304   1.457   0.363
10678SOL     OW32932   1.180   5.353   3.554
10678SOL    HW132933   1.133   5.428   3.601
10678SOL    HW232934   1.143   5.266   3.585
10679SOL     OW32935   5.678   4.941   3.754
10679SOL    HW132936   5.696   4.843   3.745
10679SOL    HW232937   5.588   4.962   3.717
10680SOL     OW32938   0.073   2.446   4.112
10680SOL    HW132939   0.121   2.494   4.038
10680SOL    HW232940   0.135   2.434   4.189
10681SOL     OW32941   1.304   3.158   6.902
10681SOL    HW132942   1.350   3.076   6.937
10681SOL    HW232943   1.218   3.133   6.859
10682SOL     OW32944   6.203   1.939   3.390
10682SOL    HW132945   6.204   1.857   3.447
10682SOL    HW232946   6.150   2.010   3.435
10683SOL     OW32947   0.801   0.527   4.088
10683SOL    HW132948   0.800   0.444   4.143
10683SOL    HW232949   0.724   0.586   4.114
10684SOL     OW32950   5.323   6.149   0.554
10684SOL    HW132951   5.405   6.098   0.578
10684SOL    HW232952   5.242   6.094   0.575
10685SOL     OW32953   6.341   2.822   2.983
10685SOL    HW132954   6.416   2.879   2.951
10685SOL    HW232955   6.256   2.875   2.984
10686SOL     OW32956   4.540   4.577   1.563
10686SOL    HW132957   4.598   4.513   1.614
10686SOL    HW232958   4.466   4.526   1.519
10687SOL     OW32959   0.469   5.261   1.019
10687SOL    HW132960   0.378   5.303   1.010
10687SOL    HW232961   0.520   5.307   1.091
10688SOL     OW32962   1.332   4.472   0.881
10688SOL    HW132963   1.391   4.501   0.956
10688SOL    HW232964   1.344   4.534   0.803
10689SOL     OW32965   0.368   0.310   0.808
10689SOL    HW132966   0.294   0.284   0.870
10689SOL    HW232967   0.450   0.258   0.830
10690SOL     OW32968   3.843   0.485   3.341
10690SOL    HW132969   3.862   0.394   3.303
10690SOL    HW232970   3.877   0.489   3.435
10691SOL     OW32971   5.369   1.441   1.770
10691SOL    HW132972   5.310   1.518   1.745
10691SOL    HW232973   5.370   1.431   1.869
10692SOL     OW32974   5.882   6.374   4.247
10692SOL    HW132975   5.940   6.406   4.172
10692SOL    HW232976   5.787   6.401   4.230
10693SOL     OW32977   5.131   2.652   4.076
10693SOL    HW132978   5.197   2.582   4.051
10693SOL    HW232979   5.043   2.634   4.031
10694SOL     OW32980   2.351   5.966   0.218
10694SOL    HW132981   2.306   5.945   0.132
10694SOL    HW232982   2.429   6.026   0.201
10695SOL     OW32983   6.027   3.041   5.845
10695SOL    HW132984   5.993   2.966   5.901
10695SOL    HW232985   6.127   3.041   5.845
10696SOL     OW32986   6.456   6.914   0.685
10696SOL    HW132987   6.458   6.911   0.785
10696SOL    HW232988   6.542   6.876   0.649
10697SOL     OW32989   2.513   5.577   3.168
10697SOL    HW132990   2.430   5.571   3.113
10697SOL    HW232991   2.502   5.648   3.238
10698SOL     OW32992   3.424   0.278   3.928
10698SOL    HW132993   3.403   0.367   3.887
10698SOL    HW232994   3.352   0.253   3.992
10699SOL     OW32995   0.661   2.979   3.601
10699SOL    HW132996   0.656   2.881   3.622
10699SOL    HW232997   0.570   3.014   3.581
10700SOL     OW32998   1.134   3.244   2.336
10700SOL    HW132999   1.095   3.230   2.427
10700SOL    HW233000   1.227   3.279   2.344
10701SOL     OW33001   2.862   6.842   1.237
10701SOL    HW133002   2.845   6.836   1.138
10701SOL    HW233003   2.777   6.823   1.286
10702SOL     OW33004   4.872   1.996   0.465
10702SOL    HW133005   4.868   1.897   0.476
10702SOL    HW233006   4.968   2.025   0.466
10703SOL     OW33007   3.859   4.039   4.292
10703SOL    HW133008   3.802   3.965   4.256
10703SOL    HW233009   3.927   4.002   4.355
10704SOL     OW33010   5.531   5.747   1.653
10704SOL    HW133011   5.546   5.722   1.749
10704SOL    HW233012   5.435   5.731   1.630
10705SOL     OW33013   1.495   2.812   6.831
10705SOL    HW133014   1.397   2.832   6.831
10705SOL    HW233015   1.511   2.727   6.779
10706SOL     OW33016   3.615   3.647   0.512
10706SOL    HW133017   3.663   3.586   0.576
10706SOL    HW233018   3.556   3.709   0.563
10707SOL     OW33019   6.219   0.611   6.496
10707SOL    HW133020   6.191   0.651   6.584
10707SOL    HW233021   6.144   0.618   6.431
10708SOL     OW33022   4.661   2.250   1.627
10708SOL    HW133023   4.609   2.236   1.542
10708SOL    HW233024   4.597   2.263   1.703
10709SOL     OW33025   0.838   1.074   6.470
10709SOL    HW133026   0.775   1.034   6.537
10709SOL    HW233027   0.852   1.009   6.395
10710SOL     OW33028   0.332   6.872   3.296
10710SOL    HW133029   0.293   6.963   3.278
10710SOL    HW233030   0.377   6.838   3.214
10711SOL     OW33031   1.741   4.121   5.288
10711SOL    HW133032   1.811   4.136   5.357
10711SOL    HW233033   1.784   4.085   5.205
10712SOL     OW33034   3.671   1.775   6.389
10712SOL    HW133035   3.588   1.727   6.419
10712SOL    HW233036   3.652   1.826   6.305
10713SOL     OW33037   2.754   6.855   0.372
10713SOL    HW133038   2.657   6.850   0.394
10713SOL    HW233039   2.800   6.915   0.437
10714SOL     OW33040   5.125   5.569   4.052
10714SOL    HW133041   5.212   5.522   4.068
10714SOL    HW233042   5.079   5.527   3.974
10715SOL     OW33043   5.760   0.077   2.499
10715SOL    HW133044   5.696   0.109   2.429
10715SOL    HW233045   5.850   0.061   2.457
10716SOL     OW33046   6.890   1.923   2.165
10716SOL    HW133047   6.957   1.997   2.166
10716SOL    HW233048   6.844   1.919   2.254
10717SOL     OW33049   0.712   6.314   1.945
10717SOL    HW133050   0.716   6.414   1.944
10717SOL    HW233051   0.619   6.285   1.925
10718SOL     OW33052   6.996   5.024   4.966
10718SOL    HW133053   0.012   4.946   5.012
10718SOL    HW233054   6.988   5.100   5.030
10719SOL     OW33055   3.490   6.469   3.488
10719SOL    HW133056   3.581   6.429   3.492
10719SOL    HW233057   3.482   6.541   3.557
10720SOL     OW33058   0.269   2.813   5.887
10720SOL    HW133059   0.367   2.796   5.890
10720SOL    HW233060   0.228   2.790   5.976
10721SOL     OW33061   5.495   1.147   3.869
10721SOL    HW133062   5.528   1.083   3.939
10721SOL    HW233063   5.416   1.197   3.906
10722SOL     OW33064   0.750   5.347   0.237
10722SOL    HW133065   0.839   5.301   0.231
10722SOL    HW233066   0.727   5.362   0.333
10723SOL     OW33067   6.863   3.870   6.507
10723SOL    HW133068   6.814   3.783   6.511
10723SOL    HW233069   6.954   3.856   6.470
10724SOL     OW33070   3.629   6.324   5.969
10724SOL    HW133071   3.571   6.243   5.977
10724SOL    HW233072   3.620   6.363   5.877
10725SOL     OW33073   0.138   0.492   5.348
10725SOL    HW133074   0.080   0.425   5.302
10725SOL    HW233075   0.224   0.449   5.376
10726SOL     OW33076   6.854   0.209   3.325
10726SOL    HW133077   6.772   0.222   3.382
10726SOL    HW233078   6.896   0.297   3.307
10727SOL     OW33079   4.970   6.123   6.612
10727SOL    HW133080   4.976   6.056   6.538
10727SOL    HW233081   5.014   6.208   6.584
10728SOL     OW33082   5.432   6.066   4.102
10728SOL    HW133083   5.500   6.101   4.038
10728SOL    HW233084   5.369   6.005   4.053
10729SOL     OW33085   6.906   3.046   4.268
10729SOL    HW133086   6.904   3.146   4.264
10729SOL    HW233087   6.931   3.010   4.178
10730SOL     OW33088   1.539   5.993   4.551
10730SOL    HW133089   1.465   6.060   4.548
10730SOL    HW233090   1.617   6.026   4.497
10731SOL     OW33091   5.118   3.979   5.122
10731SOL    HW133092   5.085   3.886   5.134
10731SOL    HW233093   5.145   3.993   5.027
10732SOL     OW33094   5.340   5.934   2.093
10732SOL    HW133095   5.307   5.893   2.178
10732SOL    HW233096   5.272   5.919   2.021
10733SOL     OW33097   0.731   1.536   5.704
10733SOL    HW133098   0.761   1.550   5.798
10733SOL    HW233099   0.715   1.439   5.688
10734SOL     OW33100   0.602   0.499   4.386
10734SOL    HW133101   0.522   0.519   4.330
10734SOL    HW233102   0.646   0.584   4.414
10735SOL     OW33103   7.008   1.107   1.851
10735SOL    HW133104   0.054   1.169   1.819
10735SOL    HW233105   6.919   1.146   1.829
10736SOL     OW33106   6.012   5.767   3.647
10736SOL    HW133107   6.005   5.806   3.555
10736SOL    HW233108   5.943   5.696   3.658
10737SOL     OW33109   6.688   0.598   0.659
10737SOL    HW133110   6.711   0.519   0.603
10737SOL    HW233111   6.765   0.661   0.662
10738SOL     OW33112   1.582   6.479   1.551
10738SOL    HW133113   1.495   6.437   1.576
10738SOL    HW233114   1.569   6.577   1.535
10739SOL     OW33115   5.170   2.583   3.686
10739SOL    HW133116   5.185   2.518   3.611
10739SOL    HW233117   5.084   2.562   3.732
10740SOL     OW33118   2.863   0.497   6.310
10740SOL    HW133119   2.891   0.491   6.405
10740SOL    HW233120   2.935   0.543   6.257
10741SOL     OW33121   2.116   2.527   4.517
10741SOL    HW133122   2.074   2.460   4.578
10741SOL    HW233123   2.111   2.495   4.423
10742SOL     OW33124   0.394   0.152   2.089
10742SOL    HW133125   0.357   0.196   2.006
10742SOL    HW233126   0.330   0.081   2.119
10743SOL     OW33127   3.939   2.576   6.366
10743SOL    HW133128   3.918   2.579   6.268
10743SOL    HW233129   4.016   2.514   6.382
10744SOL     OW33130   1.817   1.984   0.730
10744SOL    HW133131   1.810   2.001   0.632
10744SOL    HW233132   1.814   1.886   0.748
10745SOL     OW33133   3.568   5.681   1.600
10745SOL    HW133134   3.638   5.751   1.585
10745SOL    HW233135   3.611   5.591   1.600
10746SOL     OW33136   2.787   6.102   5.928
10746SOL    HW133137   2.712   6.050   5.888
10746SOL    HW233138   2.759   6.140   6.016
10747SOL     OW33139   7.017   0.182   4.299
10747SOL    HW133140   0.050   0.222   4.370
10747SOL    HW233141   6.974   0.099   4.333
10748SOL     OW33142   2.788   6.372   2.537
10748SOL    HW133143   2.765   6.451   2.594
10748SOL    HW233144   2.711   6.350   2.477
10749SOL     OW33145   4.922   3.254   2.357
10749SOL    HW133146   4.891   3.293   2.270
10749SOL    HW233147   5.001   3.195   2.341
10750SOL     OW33148   3.352   1.655   4.199
10750SOL    HW133149   3.416   1.731   4.185
10750SOL    HW233150   3.395   1.587   4.258
10751SOL     OW33151   6.330   5.942   3.353
10751SOL    HW133152   6.318   5.855   3.305
10751SOL    HW233153   6.293   6.016   3.296
10752SOL     OW33154   0.162   6.254   6.775
10752SOL    HW133155   0.087   6.233   6.838
10752SOL    HW233156   0.181   6.174   6.718
10753SOL     OW33157   5.404   6.502   4.774
10753SOL    HW133158   5.335   6.479   4.704
10753SOL    HW233159   5.358   6.523   4.860
10754SOL     OW33160   0.018   5.921   2.312
10754SOL    HW133161   6.950   5.935   2.278
10754SOL    HW233162   0.066   5.857   2.253
10755SOL     OW33163   0.807   1.686   2.365
10755SOL    HW133164   0.803   1.622   2.289
10755SOL    HW233165   0.743   1.761   2.351
10756SOL     OW33166   0.942   0.391   6.571
10756SOL    HW133167   0.868   0.405   6.505
10756SOL    HW233168   0.920   0.438   6.656
10757SOL     OW33169   6.903   2.572   1.791
10757SOL    HW133170   6.950   2.658   1.811
10757SOL    HW233171   6.838   2.586   1.716
10758SOL     OW33172   0.317   1.871   0.408
10758SOL    HW133173   0.379   1.858   0.332
10758SOL    HW233174   0.223   1.854   0.378
10759SOL     OW33175   3.839   5.085   5.485
10759SOL    HW133176   3.812   5.126   5.573
10759SOL    HW233177   3.781   5.006   5.466
10760SOL     OW33178   0.552   5.055   0.117
10760SOL    HW133179   0.605   5.109   0.052
10760SOL    HW233180   0.562   5.094   0.209
10761SOL     OW33181   1.406   1.416   6.687
10761SOL    HW133182   1.470   1.455   6.622
10761SOL    HW233183   1.315   1.413   6.645
10762SOL     OW33184   1.706   6.133   1.210
10762SOL    HW133185   1.794   6.150   1.254
10762SOL    HW233186   1.641   6.203   1.240
10763SOL     OW33187   5.102   0.911   2.367
10763SOL    HW133188   5.099   0.950   2.275
10763SOL    HW233189   5.024   0.944   2.420
10764SOL     OW33190   5.188   6.174   4.508
10764SOL    HW133191   5.113   6.108   4.516
10764SOL    HW233192   5.243   6.153   4.428
10765SOL     OW33193   6.534   2.836   1.585
10765SOL    HW133194   6.591   2.770   1.635
10765SOL    HW233195   6.516   2.915   1.643
10766SOL     OW33196   3.271   4.754   6.586
10766SOL    HW133197   3.284   4.794   6.495
10766SOL    HW233198   3.271   4.827   6.654
10767SOL     OW33199   1.509   5.141   6.441
10767SOL    HW133200   1.516   5.105   6.348
10767SOL    HW233201   1.555   5.079   6.505
10768SOL     OW33202   5.892   6.278   7.015
10768SOL    HW133203   5.912   6.263   0.087
10768SOL    HW233204   5.958   6.343   6.977
10769SOL     OW33205   3.191   3.755   5.050
10769SOL    HW133206   3.233   3.808   5.123
10769SOL    HW233207   3.222   3.791   4.961
10770SOL     OW33208   4.293   7.008   3.890
10770SOL    HW133209   4.291   0.022   3.982
10770SOL    HW233210   4.313   6.910   3.897
10771SOL     OW33211   5.056   5.937   5.611
10771SOL    HW133212   5.154   5.953   5.622
10771SOL    HW233213   5.008   5.974   5.690
10772SOL     OW33214   5.209   3.456   3.664
10772SOL    HW133215   5.293   3.409   3.690
10772SOL    HW233216   5.169   3.411   3.585
10773SOL     OW33217   0.838   4.260   0.914
10773SOL    HW133218   0.772   4.217   0.975
10773SOL    HW233219   0.897   4.322   0.965
10774SOL     OW33220   0.055   2.971   0.509
10774SOL    HW133221   6.991   3.015   0.522
10774SOL    HW233222   0.086   2.932   0.595
10775SOL     OW33223   2.599   4.600   6.370
10775SOL    HW133224   2.683   4.573   6.324
10775SOL    HW233225   2.573   4.692   6.340
10776SOL     OW33226   0.678   3.953   3.163
10776SOL    HW133227   0.600   4.015   3.167
10776SOL    HW233228   0.749   3.983   3.227
10777SOL     OW33229   0.992   6.468   1.858
10777SOL    HW133230   1.062   6.420   1.805
10777SOL    HW233231   0.986   6.428   1.949
10778SOL     OW33232   5.014   0.353   3.715
10778SOL    HW133233   4.938   0.320   3.660
10778SOL    HW233234   5.100   0.342   3.664
10779SOL     OW33235   5.446   2.994   6.092
10779SOL    HW133236   5.506   3.017   6.015
10779SOL    HW233237   5.373   3.062   6.099
10780SOL     OW33238   0.986   5.381   4.623
10780SOL    HW133239   0.929   5.319   4.677
10780SOL    HW233240   0.932   5.461   4.596
10781SOL     OW33241   6.067   2.417   6.329
10781SOL    HW133242   6.028   2.336   6.284
10781SOL    HW233243   6.128   2.388   6.402
10782SOL     OW33244   1.308   3.361   5.411
10782SOL    HW133245   1.279   3.409   5.494
10782SOL    HW233246   1.357   3.277   5.437
10783SOL     OW33247   1.362   3.826   4.024
10783SOL    HW133248   1.309   3.745   3.997
10783SOL    HW233249   1.411   3.807   4.109
10784SOL     OW33250   4.823   5.216   3.941
10784SOL    HW133251   4.839   5.314   3.942
10784SOL    HW233252   4.893   5.171   3.997
10785SOL     OW33253   2.151   5.293   1.471
10785SOL    HW133254   2.065   5.297   1.421
10785SOL    HW233255   2.223   5.259   1.410
10786SOL     OW33256   4.876   1.644   2.678
10786SOL    HW133257   4.840   1.670   2.767
10786SOL    HW233258   4.819   1.682   2.606
10787SOL     OW33259   2.812   1.603   3.837
10787SOL    HW133260   2.902   1.561   3.853
10787SOL    HW233261   2.817   1.701   3.855
10788SOL     OW33262   1.564   3.072   0.204
10788SOL    HW133263   1.551   3.165   0.171
10788SOL    HW233264   1.631   3.025   0.146
10789SOL     OW33265   6.467   1.764   2.765
10789SOL    HW133266   6.468   1.815   2.679
10789SOL    HW233267   6.528   1.808   2.831
10790SOL     OW33268   7.000   2.515   5.366
10790SOL    HW133269   0.042   2.541   5.297
10790SOL    HW233270   0.021   2.478   5.447
10791SOL     OW33271   1.957   3.238   3.545
10791SOL    HW133272   1.925   3.299   3.472
10791SOL    HW233273   2.052   3.212   3.527
10792SOL     OW33274   3.715   1.279   2.318
10792SOL    HW133275   3.716   1.363   2.372
10792SOL    HW233276   3.653   1.290   2.240
10793SOL     OW33277   3.860   2.030   4.114
10793SOL    HW133278   3.794   1.959   4.088
10793SOL    HW233279   3.949   1.988   4.131
10794SOL     OW33280   4.374   2.769   6.743
10794SOL    HW133281   4.275   2.765   6.727
10794SOL    HW233282   4.418   2.814   6.666
10795SOL     OW33283   6.158   3.089   2.971
10795SOL    HW133284   6.241   3.122   2.926
10795SOL    HW233285   6.084   3.155   2.957
10796SOL     OW33286   6.861   1.841   6.541
10796SOL    HW133287   6.834   1.763   6.597
10796SOL    HW233288   6.939   1.815   6.484
10797SOL     OW33289   5.542   4.498   6.622
10797SOL    HW133290   5.540   4.451   6.534
10797SOL    HW233291   5.451   4.494   6.664
10798SOL     OW33292   2.467   5.831   0.443
10798SOL    HW133293   2.448   5.877   0.357
10798SOL    HW233294   2.566   5.829   0.459
10799SOL     OW33295   1.699   0.844   3.161
10799SOL    HW133296   1.718   0.894   3.245
10799SOL    HW233297   1.777   0.852   3.099
10800SOL     OW33298   1.490   0.710   5.048
10800SOL    HW133299   1.576   0.717   5.098
10800SOL    HW233300   1.422   0.664   5.106
10801SOL     OW33301   2.927   5.971   6.714
10801SOL    HW133302   2.995   5.984   6.786
10801SOL    HW233303   2.835   5.970   6.754
10802SOL     OW33304   0.623   4.681   3.669
10802SOL    HW133305   0.536   4.639   3.643
10802SOL    HW233306   0.605   4.769   3.713
10803SOL     OW33307   7.025   4.206   5.012
10803SOL    HW133308   7.006   4.132   5.076
10803SOL    HW233309   6.974   4.192   4.927
10804SOL     OW33310   4.111   5.050   6.618
10804SOL    HW133311   4.161   5.038   6.532
10804SOL    HW233312   4.103   5.147   6.639
10805SOL     OW33313   4.803   5.909   0.607
10805SOL    HW133314   4.792   5.821   0.562
10805SOL    HW233315   4.848   5.973   0.545
10806SOL     OW33316   5.908   2.736   5.088
10806SOL    HW133317   5.913   2.661   5.021
10806SOL    HW233318   5.892   2.698   5.179
10807SOL     OW33319   4.477   3.046   5.584
10807SOL    HW133320   4.462   3.106   5.663
10807SOL    HW233321   4.547   3.086   5.525
10808SOL     OW33322   0.458   2.857   1.443
10808SOL    HW133323   0.540   2.915   1.443
10808SOL    HW233324   0.485   2.763   1.464
10809SOL     OW33325   1.111   1.010   2.968
10809SOL    HW133326   1.058   0.965   2.896
10809SOL    HW233327   1.202   1.032   2.933
10810SOL     OW33328   2.107   1.900   6.362
10810SOL    HW133329   2.056   1.839   6.423
10810SOL    HW233330   2.056   1.985   6.351
10811SOL     OW33331   4.142   5.825   6.601
10811SOL    HW133332   4.149   5.924   6.593
10811SOL    HW233333   4.171   5.796   6.692
10812SOL     OW33334   6.672   3.245   2.601
10812SOL    HW133335   6.587   3.273   2.557
10812SOL    HW233336   6.712   3.322   2.651
10813SOL     OW33337   3.521   6.097   2.199
10813SOL    HW133338   3.457   6.115   2.124
10813SOL    HW233339   3.492   6.147   2.281
10814SOL     OW33340   1.782   5.737   4.357
10814SOL    HW133341   1.771   5.836   4.351
10814SOL    HW233342   1.697   5.697   4.393
10815SOL     OW33343   5.554   2.415   5.769
10815SOL    HW133344   5.455   2.420   5.776
10815SOL    HW233345   5.579   2.351   5.697
10816SOL     OW33346   2.328   2.203   0.796
10816SOL    HW133347   2.264   2.132   0.768
10816SOL    HW233348   2.339   2.202   0.896
10817SOL     OW33349   3.721   1.830   1.866
10817SOL    HW133350   3.726   1.808   1.768
10817SOL    HW233351   3.782   1.907   1.885
10818SOL     OW33352   4.680   3.385   5.988
10818SOL    HW133353   4.605   3.391   5.923
10818SOL    HW233354   4.671   3.457   6.057
10819SOL     OW33355   2.097   3.076   5.082
10819SOL    HW133356   2.049   3.051   4.998
10819SOL    HW233357   2.195   3.078   5.065
10820SOL     OW33358   1.506   6.661   5.289
10820SOL    HW133359   1.536   6.660   5.194
10820SOL    HW233360   1.504   6.755   5.323
10821SOL     OW33361   0.102   0.353   0.006
10821SOL    HW133362   0.112   0.257   7.006
10821SOL    HW233363   0.006   0.380   7.019
10822SOL     OW33364   0.225   5.156   5.956
10822SOL    HW133365   0.215   5.082   5.889
10822SOL    HW233366   0.310   5.143   6.008
10823SOL     OW33367   2.154   1.933   0.727
10823SOL    HW133368   2.150   1.946   0.628
10823SOL    HW233369   2.061   1.935   0.764
10824SOL     OW33370   5.274   1.434   4.694
10824SOL    HW133371   5.322   1.519   4.714
10824SOL    HW233372   5.280   1.372   4.773
10825SOL     OW33373   3.735   1.193   1.820
10825SOL    HW133374   3.824   1.189   1.775
10825SOL    HW233375   3.700   1.287   1.816
10826SOL     OW33376   0.195   3.484   1.089
10826SOL    HW133377   0.227   3.447   1.002
10826SOL    HW233378   0.095   3.477   1.093
10827SOL     OW33379   0.040   2.643   4.459
10827SOL    HW133380   0.135   2.657   4.432
10827SOL    HW233381   0.036   2.609   4.552
10828SOL     OW33382   2.730   4.726   6.876
10828SOL    HW133383   2.720   4.820   6.843
10828SOL    HW233384   2.705   4.663   6.804
10829SOL     OW33385   2.102   3.681   1.442
10829SOL    HW133386   2.117   3.591   1.403
10829SOL    HW233387   2.135   3.682   1.537
10830SOL     OW33388   6.665   0.245   3.841
10830SOL    HW133389   6.715   0.161   3.864
10830SOL    HW233390   6.728   0.310   3.797
10831SOL     OW33391   5.400   3.150   1.929
10831SOL    HW133392   5.439   3.069   1.885
10831SOL    HW233393   5.303   3.157   1.904
10832SOL     OW33394   1.845   2.698   1.734
10832SOL    HW133395   1.894   2.679   1.819
10832SOL    HW233396   1.903   2.753   1.673
10833SOL     OW33397   3.385   0.072   4.693
10833SOL    HW133398   3.309   0.032   4.642
10833SOL    HW233399   3.350   0.145   4.752
10834SOL     OW33400   7.019   1.962   5.847
10834SOL    HW133401   6.923   1.978   5.869
10834SOL    HW233402   0.008   1.866   5.826
10835SOL     OW33403   7.017   1.535   0.203
10835SOL    HW133404   6.993   1.606   0.268
10835SOL    HW233405   0.067   1.567   0.145
10836SOL     OW33406   7.007   2.060   1.313
10836SOL    HW133407   6.996   2.005   1.229
10836SOL    HW233408   0.066   2.035   1.359
10837SOL     OW33409   1.321   5.093   0.829
10837SOL    HW133410   1.357   5.070   0.738
10837SOL    HW233411   1.317   5.193   0.838
10838SOL     OW33412   6.824   6.109   0.735
10838SOL    HW133413   6.862   6.056   0.659
10838SOL    HW233414   6.893   6.174   0.767
10839SOL     OW33415   2.505   1.967   6.659
10839SOL    HW133416   2.553   2.046   6.621
10839SOL    HW233417   2.572   1.906   6.702
10840SOL     OW33418   1.521   1.090   3.120
10840SOL    HW133419   1.530   1.183   3.157
10840SOL    HW233420   1.609   1.044   3.123
10841SOL     OW33421   4.697   4.019   0.180
10841SOL    HW133422   4.711   4.007   0.279
10841SOL    HW233423   4.700   4.117   0.158
10842SOL     OW33424   5.783   2.114   1.779
10842SOL    HW133425   5.684   2.123   1.787
10842SOL    HW233426   5.806   2.062   1.697
10843SOL     OW33427   1.163   2.189   1.042
10843SOL    HW133428   1.124   2.248   0.972
10843SOL    HW233429   1.214   2.244   1.108
10844SOL     OW33430   4.904   6.739   3.891
10844SOL    HW133431   4.906   6.639   3.882
10844SOL    HW233432   4.977   6.769   3.951
10845SOL     OW33433   2.526   3.715   1.692
10845SOL    HW133434   2.619   3.740   1.716
10845SOL    HW233435   2.514   3.616   1.702
10846SOL     OW33436   3.487   2.783   1.858
10846SOL    HW133437   3.404   2.812   1.906
10846SOL    HW233438   3.563   2.844   1.883
10847SOL     OW33439   5.198   1.834   5.413
10847SOL    HW133440   5.144   1.754   5.387
10847SOL    HW233441   5.276   1.843   5.350
10848SOL     OW33442   1.899   0.603   6.777
10848SOL    HW133443   1.963   0.532   6.748
10848SOL    HW233444   1.896   0.675   6.708
10849SOL     OW33445   0.641   4.270   4.722
10849SOL    HW133446   0.740   4.274   4.738
10849SOL    HW233447   0.618   4.325   4.642
10850SOL     OW33448   6.226   0.504   2.936
10850SOL    HW133449   6.174   0.431   2.891
10850SOL    HW233450   6.162   0.573   2.971
10851SOL     OW33451   4.670   2.771   0.075
10851SOL    HW133452   4.679   2.826   7.017
10851SOL    HW233453   4.605   2.816   0.137
10852SOL     OW33454   6.257   1.356   5.791
10852SOL    HW133455   6.345   1.351   5.838
10852SOL    HW233456   6.267   1.413   5.709
10853SOL     OW33457   2.563   0.198   5.518
10853SOL    HW133458   2.582   0.170   5.424
10853SOL    HW233459   2.519   0.124   5.567
10854SOL     OW33460   5.870   0.584   7.015
10854SOL    HW133461   5.899   0.531   6.935
10854SOL    HW233462   5.775   0.614   7.003
10855SOL     OW33463   0.905   6.022   7.010
10855SOL    HW133464   0.929   6.002   0.079
10855SOL    HW233465   0.819   5.978   6.987
10856SOL     OW33466   5.101   6.980   6.078
10856SOL    HW133467   5.085   6.965   5.981
10856SOL    HW233468   5.101   6.893   6.126
10857SOL     OW33469   6.544   6.758   4.882
10857SOL    HW133470   6.445   6.757   4.898
10857SOL    HW233471   6.567   6.832   4.819
10858SOL     OW33472   1.957   2.805   0.681
10858SOL    HW133473   1.862   2.776   0.692
10858SOL    HW233474   2.006   2.793   0.768
10859SOL     OW33475   2.605   5.593   1.753
10859SOL    HW133476   2.683   5.580   1.693
10859SOL    HW233477   2.530   5.635   1.702
10860SOL     OW33478   5.670   1.550   1.343
10860SOL    HW133479   5.737   1.501   1.399
10860SOL    HW233480   5.578   1.523   1.372
10861SOL     OW33481   2.245   4.565   0.855
10861SOL    HW133482   2.286   4.645   0.899
10861SOL    HW233483   2.155   4.589   0.819
10862SOL     OW33484   3.867   4.650   5.320
10862SOL    HW133485   3.856   4.552   5.339
10862SOL    HW233486   3.788   4.700   5.354
10863SOL     OW33487   0.611   6.830   3.391
10863SOL    HW133488   0.575   6.904   3.334
10863SOL    HW233489   0.589   6.848   3.487
10864SOL     OW33490   2.880   3.682   2.744
10864SOL    HW133491   2.926   3.611   2.797
10864SOL    HW233492   2.812   3.727   2.802
10865SOL     OW33493   3.143   2.177   2.543
10865SOL    HW133494   3.080   2.128   2.484
10865SOL    HW233495   3.158   2.269   2.506
10866SOL     OW33496   0.286   3.415   5.016
10866SOL    HW133497   0.289   3.471   5.098
10866SOL    HW233498   0.292   3.473   4.935
10867SOL     OW33499   4.817   2.967   0.417
10867SOL    HW133500   4.860   3.035   0.476
10867SOL    HW233501   4.887   2.914   0.369
10868SOL     OW33502   0.441   6.764   5.840
10868SOL    HW133503   0.430   6.698   5.914
10868SOL    HW233504   0.508   6.730   5.774
10869NA      NA33505   6.960   0.953   6.801
10870NA      NA33506   4.773   4.562   5.052
10871NA      NA33507   0.752   4.660   3.008
10872NA      NA33508   6.297   3.489   3.596
10873NA      NA33509   4.366   2.306   5.102
10874NA      NA33510   2.419   3.541   0.054
10875NA      NA33511   1.666   5.295   0.197
10876NA      NA33512   4.193   4.984   2.100
10877NA      NA33513   5.281   3.591   1.271
10878NA      NA33514   3.722   1.984   0.585
10879NA      NA33515   5.190   6.326   1.368
10880NA      NA33516   2.764   6.280   4.564
10881NA      NA33517   3.181   5.600   2.612
10882NA      NA33518   4.133   4.843   6.005
   7.02542   7.02542   7.02542
